                         Program Version 5.0.0 -  RELEASE  -
|  1> !wB97X-D3 RIJCOSX def2-TZVP def2/J TightSCF xyzfile
|  2>
|  3> *xyzfile 0 1 B.xyz
|  4>
|  5> %MaxCore 64000
|  6>
|  7> %pal nprocs 18
|  8> end
|  9>
| 10> %scf
| 11>   MaxIter 150
| 12> end
| 13>
| 14>
| 15>                          ****END OF INPUT****

CARTESIAN COORDINATES (ANGSTROEM)
---------------------------------
  C     -0.701686    4.072499   -4.003920
  N      0.680528    4.614820   -4.048005
  C      1.444422    5.266576   -0.975463
  O      1.565248    4.233493   -1.864885
  H      0.699926    5.584890   -4.388272
  H      1.278044    4.055977   -4.668235
  H      1.085729    4.533581   -3.106524
  C     -1.703475    5.093197   -3.477396
  H     -0.995895    3.740394   -5.000654
  H     -0.643580    3.201910   -3.351533
  C     -1.313997    5.785995   -2.169271
  H     -1.877057    5.850103   -4.251154
  H     -2.653264    4.564475   -3.354796
  H     -2.097137    6.509395   -1.929558
  H     -0.416875    6.387594   -2.339097
  C     -1.073895    4.844728   -0.979904
  H     -1.968893    4.809608   -0.352568
  C      0.148120    5.210874   -0.138092
  H     -0.909754    3.827531   -1.338975
  H      1.474250    6.264638   -1.476917
  H      2.289622    5.303267   -0.264450
  H      0.261827    4.450942    0.640711
  H     -0.002516    6.171031    0.371483

 Total Charge           Charge          ....    0
 Multiplicity           Mult            ....    1
 Number of Electrons    NEL             ....   66
 Basis Dimension        Dim             ....  338

ORBITAL ENERGIES
----------------

  NO   OCC          E(Eh)            E(eV)
   0   2.0000     -19.090727      -519.4851
   1   2.0000     -14.502312      -394.6280
   2   2.0000     -10.340894      -281.3900
   3   2.0000     -10.295605      -280.1577
   4   2.0000     -10.270294      -279.4689
   5   2.0000     -10.256009      -279.0802
   6   2.0000     -10.248231      -278.8686
   7   2.0000     -10.229002      -278.3453
   8   2.0000      -1.106054       -30.0973
   9   2.0000      -1.001745       -27.2589
  10   2.0000      -0.927266       -25.2322
  11   2.0000      -0.861978       -23.4556
  12   2.0000      -0.807647       -21.9772
  13   2.0000      -0.746726       -20.3194
  14   2.0000      -0.697840       -18.9892
  15   2.0000      -0.673510       -18.3271
  16   2.0000      -0.671728       -18.2786
  17   2.0000      -0.625715       -17.0266
  18   2.0000      -0.590262       -16.0619
  19   2.0000      -0.565124       -15.3778
  20   2.0000      -0.556764       -15.1503
  21   2.0000      -0.517297       -14.0764
  22   2.0000      -0.504974       -13.7410
  23   2.0000      -0.490849       -13.3567
  24   2.0000      -0.470454       -12.8017
  25   2.0000      -0.449380       -12.2282
  26   2.0000      -0.443278       -12.0622
  27   2.0000      -0.423328       -11.5193
  28   2.0000      -0.400322       -10.8933
  29   2.0000      -0.391687       -10.6583
  30   2.0000      -0.383713       -10.4414
  31   2.0000      -0.267985        -7.2922
  32   2.0000      -0.263479        -7.1696
  33   0.0000       0.074831         2.0363
  34   0.0000       0.115358         3.1390
  35   0.0000       0.122653         3.3376
  36   0.0000       0.141872         3.8605
  37   0.0000       0.150081         4.0839

MULLIKEN ATOMIC CHARGES
-----------------------
   0 C :   -0.193118
   1 N :   -0.303827
   2 C :   -0.017024
   3 O :   -0.718161
   4 H :    0.266299
   5 H :    0.278608
   6 H :    0.292680
   7 C :   -0.240770
   8 H :    0.135642
   9 H :    0.173620
  10 C :   -0.217181
  11 H :    0.119398
  12 H :    0.121966
  13 H :    0.109822
  14 H :    0.085663
  15 C :   -0.139786
  16 H :    0.092721
  17 C :   -0.138840
  18 H :    0.078496
  19 H :    0.015268
  20 H :    0.052562
  21 H :    0.080009
  22 H :    0.065952
Sum of atomic charges:   -0.0000000

LOEWDIN ATOMIC CHARGES
----------------------
   0 C :   -0.280019
   1 N :    0.141878
   2 C :   -0.478831
   3 O :   -0.281331
   4 H :    0.190660
   5 H :    0.193995
   6 H :    0.085274
   7 C :   -0.277236
   8 H :    0.129042
   9 H :    0.144700
  10 C :   -0.263727
  11 H :    0.135290
  12 H :    0.147304
  13 H :    0.136082
  14 H :    0.132821
  15 C :   -0.272803
  16 H :    0.128361
  17 C :   -0.285183
  18 H :    0.136271
  19 H :    0.079508
  20 H :    0.103600
  21 H :    0.129950
  22 H :    0.124393

  Mayer bond orders larger than 0.100000
B(  0-C ,  1-N ) :   0.8837 B(  0-C ,  7-C ) :   0.9900 B(  0-C ,  8-H ) :   0.9712
B(  0-C ,  9-H ) :   0.9737 B(  1-N ,  4-H ) :   0.9019 B(  1-N ,  5-H ) :   0.9053
B(  1-N ,  6-H ) :   0.6267 B(  2-C ,  3-O ) :   1.2177 B(  2-C , 17-C ) :   0.9281
B(  2-C , 19-H ) :   0.9856 B(  2-C , 20-H ) :   0.9732 B(  3-O ,  6-H ) :   0.4237
B(  3-O , 17-C ) :  -0.1012 B(  7-C , 10-C ) :   0.9595 B(  7-C , 11-H ) :   0.9838
B(  7-C , 12-H ) :   0.9697 B( 10-C , 13-H ) :   0.9751 B( 10-C , 14-H ) :   0.9851
B( 10-C , 15-C ) :   0.9405 B( 15-C , 16-H ) :   0.9695 B( 15-C , 17-C ) :   0.9869
B( 15-C , 18-H ) :   0.9675 B( 17-C , 21-H ) :   0.9600 B( 17-C , 22-H ) :   0.9646

Dispersion correction           -0.009075075
FINAL SINGLE POINT ENERGY      -367.638601885489

DIPOLE MOMENT
-------------
                                X             Y             Z
Electronic contribution:      2.01574      -1.56719      -1.34090
Nuclear contribution   :     -3.16446       1.92310      -1.11926
                        -----------------------------------------
Total Dipole Moment    :     -1.14873       0.35592      -2.46015
                        -----------------------------------------
Magnitude (a.u.)       :      2.73836
Magnitude (Debye)      :      6.96036

Rotational constants in cm-1:     0.085554     0.055600     0.038553
Rotational constants in MHz :  2564.854379  1666.836664  1155.798427

                             ****ORCA TERMINATED NORMALLY****
TOTAL RUN TIME: 0 days 0 hours 0 minutes 46 seconds 239 msec
