                         Program Version 5.0.0 -  RELEASE  -
|  1> !wB97X-D3 RIJCOSX def2-TZVP def2/J TightSCF
|  2> *xyz 0 1
|  3> C          1.44442        5.26658       -0.97546
|  4> F          1.56525        4.23349       -1.86489
|  5> C         -1.07389        4.84473       -0.97990
|  6> C          0.14812        5.21087       -0.13809
|  7> H          1.47425        6.26464       -1.47692
|  8> H          2.28962        5.30327       -0.26445
|  9> H          0.26183        4.45094        0.64071
| 10> H         -0.00252        6.17103        0.37148
| 11> H         -1.20745        5.57445       -1.75098
| 12> H         -1.94291        4.82190       -0.35605
| 13> H         -0.92683        3.88150       -1.42201
| 14> *
| 15> %MaxCore 64000
| 16>
| 17> %pal nprocs 8
| 18> end
| 19>
| 20> %scf
| 21>   MaxIter 150
| 22> end
| 23>
| 24>
| 25>                          ****END OF INPUT****

CARTESIAN COORDINATES (ANGSTROEM)
---------------------------------
  C      1.444420    5.266580   -0.975460
  F      1.565250    4.233490   -1.864890
  C     -1.073890    4.844730   -0.979900
  C      0.148120    5.210870   -0.138090
  H      1.474250    6.264640   -1.476920
  H      2.289620    5.303270   -0.264450
  H      0.261830    4.450940    0.640710
  H     -0.002520    6.171030    0.371480
  H     -1.207450    5.574450   -1.750980
  H     -1.942910    4.821900   -0.356050
  H     -0.926830    3.881500   -1.422010

 Total Charge           Charge          ....    0
 Multiplicity           Mult            ....    1
 Number of Electrons    NEL             ....   34
 Basis Dimension        Dim             ....  166

ORBITAL ENERGIES
----------------

  NO   OCC          E(Eh)            E(eV)
   0   2.0000     -24.770289      -674.0338
   1   2.0000     -10.350957      -281.6639
   2   2.0000     -10.279801      -279.7276
   3   2.0000     -10.257277      -279.1147
   4   2.0000      -1.313912       -35.7534
   5   2.0000      -0.904081       -24.6013
   6   2.0000      -0.803372       -21.8609
   7   2.0000      -0.704571       -19.1724
   8   2.0000      -0.609131       -16.5753
   9   2.0000      -0.596045       -16.2192
  10   2.0000      -0.573119       -15.5954
  11   2.0000      -0.535209       -14.5638
  12   2.0000      -0.494798       -13.4641
  13   2.0000      -0.468595       -12.7511
  14   2.0000      -0.451192       -12.2775
  15   2.0000      -0.419175       -11.4063
  16   2.0000      -0.414963       -11.2917
  17   0.0000       0.117988         3.2106
  18   0.0000       0.150263         4.0889
  19   0.0000       0.163127         4.4389
  20   0.0000       0.176496         4.8027
  21   0.0000       0.190349         5.1797

MULLIKEN ATOMIC CHARGES
-----------------------
   0 C :    0.039404
   1 F :   -0.237025
   2 C :   -0.331167
   3 C :   -0.197236
   4 H :    0.088374
   5 H :    0.094646
   6 H :    0.098120
   7 H :    0.100729
   8 H :    0.103017
   9 H :    0.114518
  10 H :    0.126620
Sum of atomic charges:   -0.0000000

LOEWDIN ATOMIC CHARGES
----------------------
   0 C :   -0.346686
   1 F :    0.099215
   2 C :   -0.305913
   3 C :   -0.301560
   4 H :    0.118840
   5 H :    0.117967
   6 H :    0.131933
   7 H :    0.136541
   8 H :    0.115383
   9 H :    0.115094
  10 H :    0.119187

  Mayer bond orders larger than 0.100000
B(  0-C ,  1-F ) :   0.9844 B(  0-C ,  3-C ) :   0.9932 B(  0-C ,  4-H ) :   0.9713
B(  0-C ,  5-H ) :   0.9768 B(  2-C ,  3-C ) :   0.9796 B(  2-C ,  8-H ) :   0.9763
B(  2-C ,  9-H ) :   0.9788 B(  2-C , 10-H ) :   0.9760 B(  3-C ,  6-H ) :   0.9734
B(  3-C ,  7-H ) :   0.9609

Dispersion correction           -0.001927100
FINAL SINGLE POINT ENERGY      -218.401624050328

DIPOLE MOMENT
-------------
                                X             Y             Z
Electronic contribution:      4.61788      -2.45672      -3.15390
Nuclear contribution   :     -4.76356       2.92420       3.62609
                        -----------------------------------------
Total Dipole Moment    :     -0.14568       0.46748       0.47219
                        -----------------------------------------
Magnitude (a.u.)       :      0.68023
Magnitude (Debye)      :      1.72901

Rotational constants in cm-1:     0.464485     0.177633     0.142630
Rotational constants in MHz : 13924.923489  5325.290206  4275.938589

                             ****ORCA TERMINATED NORMALLY****
TOTAL RUN TIME: 0 days 0 hours 0 minutes 11 seconds 237 msec
