                         Program Version 5.0.0 -  RELEASE  -
|  1> !wB97X-D3 RIJCOSX def2-TZVP def2/J TightSCF
|  2> *xyz 0 1
|  3> C         -0.70169        4.07250       -4.00392
|  4> C          0.68053        4.61482       -4.04800
|  5> H          0.69993        5.58489       -4.38827
|  6> H          1.27804        4.05598       -4.66824
|  7> H          1.08573        4.53358       -3.10652
|  8> C         -1.70347        5.09320       -3.47740
|  9> H         -0.99590        3.74039       -5.00065
| 10> H         -0.64358        3.20191       -3.35153
| 11> C         -1.31400        5.78600       -2.16927
| 12> H         -1.87706        5.85010       -4.25115
| 13> H         -2.65326        4.56448       -3.35480
| 14> H         -0.38448        6.29945       -2.30062
| 15> H         -1.21111        5.05451       -1.39516
| 16> H         -2.07413        6.48833       -1.89758
| 17> *
| 18> %MaxCore 64000
| 19>
| 20> %pal nprocs 8
| 21> end
| 22>
| 23> %scf
| 24>   MaxIter 150
| 25> end
| 26>
| 27>
| 28>                          ****END OF INPUT****

CARTESIAN COORDINATES (ANGSTROEM)
---------------------------------
  C     -0.701690    4.072500   -4.003920
  C      0.680530    4.614820   -4.048000
  H      0.699930    5.584890   -4.388270
  H      1.278040    4.055980   -4.668240
  H      1.085730    4.533580   -3.106520
  C     -1.703470    5.093200   -3.477400
  H     -0.995900    3.740390   -5.000650
  H     -0.643580    3.201910   -3.351530
  C     -1.314000    5.786000   -2.169270
  H     -1.877060    5.850100   -4.251150
  H     -2.653260    4.564480   -3.354800
  H     -0.384480    6.299450   -2.300620
  H     -1.211110    5.054510   -1.395160
  H     -2.074130    6.488330   -1.897580

 Total Charge           Charge          ....    0
 Multiplicity           Mult            ....    1
 Number of Electrons    NEL             ....   34
 Basis Dimension        Dim             ....  184

ORBITAL ENERGIES
----------------

  NO   OCC          E(Eh)            E(eV)
   0   2.0000     -10.262927      -279.2684
   1   2.0000     -10.257907      -279.1318
   2   2.0000     -10.251491      -278.9573
   3   2.0000     -10.230724      -278.3922
   4   2.0000      -0.919650       -25.0249
   5   2.0000      -0.842915       -22.9369
   6   2.0000      -0.758870       -20.6499
   7   2.0000      -0.671786       -18.2802
   8   2.0000      -0.570762       -15.5312
   9   2.0000      -0.563042       -15.3211
  10   2.0000      -0.524034       -14.2597
  11   2.0000      -0.484056       -13.1718
  12   2.0000      -0.480374       -13.0717
  13   2.0000      -0.459222       -12.4961
  14   2.0000      -0.415018       -11.2932
  15   2.0000      -0.412413       -11.2223
  16   2.0000      -0.409453       -11.1418
  17   0.0000       0.118063         3.2126
  18   0.0000       0.152117         4.1393
  19   0.0000       0.160118         4.3570
  20   0.0000       0.165520         4.5040
  21   0.0000       0.186877         5.0852

MULLIKEN ATOMIC CHARGES
-----------------------
   0 C :   -0.147640
   1 C :   -0.367063
   2 H :    0.110573
   3 H :    0.115016
   4 H :    0.118843
   5 C :   -0.194214
   6 H :    0.092170
   7 H :    0.085673
   8 C :   -0.343352
   9 H :    0.096035
  10 H :    0.092792
  11 H :    0.116575
  12 H :    0.107519
  13 H :    0.117075
Sum of atomic charges:    0.0000000

LOEWDIN ATOMIC CHARGES
----------------------
   0 C :   -0.301669
   1 C :   -0.303541
   2 H :    0.109206
   3 H :    0.108334
   4 H :    0.111397
   5 C :   -0.295997
   6 H :    0.132208
   7 H :    0.134101
   8 C :   -0.302525
   9 H :    0.132159
  10 H :    0.131321
  11 H :    0.115229
  12 H :    0.114858
  13 H :    0.114920

  Mayer bond orders larger than 0.100000
B(  0-C ,  1-C ) :   0.9398 B(  0-C ,  5-C ) :   0.9880 B(  0-C ,  6-H ) :   0.9787
B(  0-C ,  7-H ) :   0.9797 B(  1-C ,  2-H ) :   0.9854 B(  1-C ,  3-H ) :   0.9837
B(  1-C ,  4-H ) :   0.9840 B(  5-C ,  8-C ) :   0.9658 B(  5-C ,  9-H ) :   0.9784
B(  5-C , 10-H ) :   0.9808 B(  8-C , 11-H ) :   0.9776 B(  8-C , 12-H ) :   0.9792
B(  8-C , 13-H ) :   0.9807

Dispersion correction           -0.002770710
FINAL SINGLE POINT ENERGY      -158.454664107882

DIPOLE MOMENT
-------------
                                X             Y             Z
Electronic contribution:     -0.62808      -0.37413      -0.43151
Nuclear contribution   :      0.63648       0.35464       0.41252
                        -----------------------------------------
Total Dipole Moment    :      0.00839      -0.01949      -0.01899
                        -----------------------------------------
Magnitude (a.u.)       :      0.02847
Magnitude (Debye)      :      0.07237

Rotational constants in cm-1:     0.435124     0.173315     0.141457
Rotational constants in MHz : 13044.691962  5195.845291  4240.763698

                             ****ORCA TERMINATED NORMALLY****
TOTAL RUN TIME: 0 days 0 hours 0 minutes 13 seconds 959 msec
