                         Program Version 5.0.0 -  RELEASE  -
|  1> !wB97X-D3 RIJCOSX def2-TZVP def2/J TightSCF xyzfile
|  2>
|  3> *xyzfile 0 1 D1.xyz
|  4>
|  5> %MaxCore 64000
|  6>
|  7> %pal nprocs 18
|  8> end
|  9>
| 10> %scf
| 11>   MaxIter 150
| 12> end
| 13>
| 14>
| 15>                          ****END OF INPUT****

CARTESIAN COORDINATES (ANGSTROEM)
---------------------------------
  C     -0.701686    4.072499   -4.003920
  C      0.680528    4.614820   -4.048005
  C      1.444422    5.266576   -0.975463
  F      1.565248    4.233493   -1.864885
  H      0.699926    5.584890   -4.388272
  H      1.278044    4.055977   -4.668235
  H      1.085729    4.533581   -3.106524
  C     -1.703475    5.093197   -3.477396
  H     -0.995895    3.740394   -5.000654
  H     -0.643580    3.201910   -3.351533
  C     -1.313997    5.785995   -2.169271
  H     -1.877057    5.850103   -4.251154
  H     -2.653264    4.564475   -3.354796
  H     -2.097137    6.509395   -1.929558
  H     -0.416875    6.387594   -2.339097
  C     -1.073895    4.844728   -0.979904
  H     -1.968893    4.809608   -0.352568
  C      0.148120    5.210874   -0.138092
  H     -0.909754    3.827531   -1.338975
  H      1.474250    6.264638   -1.476917
  H      2.289622    5.303267   -0.264450
  H      0.261827    4.450942    0.640711
  H     -0.002516    6.171031    0.371483

 Total Charge           Charge          ....    0
 Multiplicity           Mult            ....    1
 Number of Electrons    NEL             ....   66
 Basis Dimension        Dim             ....  338

ORBITAL ENERGIES
----------------

  NO   OCC          E(Eh)            E(eV)
   0   2.0000     -24.791183      -674.6024
   1   2.0000     -10.361904      -281.9618
   2   2.0000     -10.284682      -279.8604
   3   2.0000     -10.270280      -279.4685
   4   2.0000     -10.263755      -279.2910
   5   2.0000     -10.256595      -279.0961
   6   2.0000     -10.243614      -278.7429
   7   2.0000     -10.187649      -277.2200
   8   2.0000      -1.347746       -36.6740
   9   2.0000      -0.932236       -25.3674
  10   2.0000      -0.900824       -24.5127
  11   2.0000      -0.838936       -22.8286
  12   2.0000      -0.804225       -21.8841
  13   2.0000      -0.742852       -20.2140
  14   2.0000      -0.705801       -19.2058
  15   2.0000      -0.650590       -17.7035
  16   2.0000      -0.641093       -17.4450
  17   2.0000      -0.623956       -16.9787
  18   2.0000      -0.595809       -16.2128
  19   2.0000      -0.561044       -15.2668
  20   2.0000      -0.553607       -15.0644
  21   2.0000      -0.528126       -14.3710
  22   2.0000      -0.513023       -13.9601
  23   2.0000      -0.486552       -13.2398
  24   2.0000      -0.476828       -12.9751
  25   2.0000      -0.464435       -12.6379
  26   2.0000      -0.454466       -12.3667
  27   2.0000      -0.434146       -11.8137
  28   2.0000      -0.422785       -11.5046
  29   2.0000      -0.406562       -11.0631
  30   2.0000      -0.394564       -10.7366
  31   2.0000      -0.391786       -10.6611
  32   2.0000      -0.369551       -10.0560
  33   0.0000       0.114265         3.1093
  34   0.0000       0.128830         3.5057
  35   0.0000       0.134688         3.6650
  36   0.0000       0.151801         4.1307
  37   0.0000       0.162459         4.4207

MULLIKEN ATOMIC CHARGES
-----------------------
   0 C :   -0.163105
   1 C :   -0.423027
   2 C :   -0.034171
   3 F :   -0.179157
   4 H :    0.094473
   5 H :    0.100463
   6 H :    0.167137
   7 C :   -0.214432
   8 H :    0.091296
   9 H :    0.084059
  10 C :   -0.187430
  11 H :    0.103483
  12 H :    0.092785
  13 H :    0.102998
  14 H :    0.089396
  15 C :   -0.187445
  16 H :    0.110312
  17 C :   -0.216185
  18 H :    0.107389
  19 H :    0.120662
  20 H :    0.118228
  21 H :    0.109614
  22 H :    0.112657
Sum of atomic charges:   -0.0000000

LOEWDIN ATOMIC CHARGES
----------------------
   0 C :   -0.306336
   1 C :   -0.319004
   2 C :   -0.343996
   3 F :    0.171910
   4 H :    0.101979
   5 H :    0.103171
   6 H :    0.066401
   7 C :   -0.271205
   8 H :    0.129837
   9 H :    0.129438
  10 C :   -0.262723
  11 H :    0.135586
  12 H :    0.133563
  13 H :    0.133135
  14 H :    0.134173
  15 C :   -0.264367
  16 H :    0.135198
  17 C :   -0.275038
  18 H :    0.140177
  19 H :    0.125620
  20 H :    0.124755
  21 H :    0.135957
  22 H :    0.141767

  Mayer bond orders larger than 0.100000
B(  0-C ,  1-C ) :   0.9127 B(  0-C ,  7-C ) :   0.9834 B(  0-C ,  8-H ) :   0.9807
B(  0-C ,  9-H ) :   0.9889 B(  1-C ,  4-H ) :   0.9863 B(  1-C ,  5-H ) :   0.9882
B(  1-C ,  6-H ) :   0.9650 B(  2-C ,  3-F ) :   0.9445 B(  2-C , 17-C ) :   0.9859
B(  2-C , 19-H ) :   0.9861 B(  2-C , 20-H ) :   0.9736 B(  7-C , 10-C ) :   0.9634
B(  7-C , 11-H ) :   0.9788 B(  7-C , 12-H ) :   0.9786 B( 10-C , 13-H ) :   0.9728
B( 10-C , 14-H ) :   0.9837 B( 10-C , 15-C ) :   0.9411 B( 15-C , 16-H ) :   0.9725
B( 15-C , 17-C ) :   0.9729 B( 15-C , 18-H ) :   0.9835 B( 17-C , 21-H ) :   0.9720
B( 17-C , 22-H ) :   0.9586

Dispersion correction           -0.008769184
FINAL SINGLE POINT ENERGY      -375.610277800832

DIPOLE MOMENT
-------------
                                X             Y             Z
Electronic contribution:      5.13365      -2.27285       2.78805
Nuclear contribution   :     -5.08831       2.68947      -1.99048
                        -----------------------------------------
Total Dipole Moment    :      0.04535       0.41663       0.79757
                        -----------------------------------------
Magnitude (a.u.)       :      0.90098
Magnitude (Debye)      :      2.29010

Rotational constants in cm-1:     0.084646     0.055672     0.038419
Rotational constants in MHz :  2537.625105  1668.992890  1151.781380

                             ****ORCA TERMINATED NORMALLY****
TOTAL RUN TIME: 0 days 0 hours 0 minutes 33 seconds 873 msec
