                         Program Version 5.0.0 -  RELEASE  -
|  1> !M062X D3Zero RIJCOSX def2-TZVPD def2/J TightSCF
|  2> *xyz -1 1
|  3> C          0.84888        2.66797       -4.30235
|  4> C          2.09343        1.86104       -4.65684
|  5> H          2.44481        2.04157       -5.67499
|  6> H          2.90175        2.13786       -3.98034
|  7> S          1.87964        0.07859       -4.46297
|  8> O          3.20757       -0.46611       -4.42026
|  9> O          1.07506       -0.05616       -3.26876
| 10> O          1.13166       -0.31996       -5.67903
| 11> H          0.05064        2.40112       -4.96303
| 12> H          1.06043        3.71210       -4.40203
| 13> H          0.56237        2.45684       -3.29327
| 14> *
| 15>
| 16> %MaxCore 64000
| 17>
| 18> %pal nprocs 4
| 19> end
| 20>
| 21> %scf
| 22>   MaxIter 150
| 23> end
| 24>
| 25>
| 26>                          ****END OF INPUT****

CARTESIAN COORDINATES (ANGSTROEM)
---------------------------------
  C      0.848880    2.667970   -4.302350
  C      2.093430    1.861040   -4.656840
  H      2.444810    2.041570   -5.674990
  H      2.901750    2.137860   -3.980340
  S      1.879640    0.078590   -4.462970
  O      3.207570   -0.466110   -4.420260
  O      1.075060   -0.056160   -3.268760
  O      1.131660   -0.319960   -5.679030
  H      0.050640    2.401120   -4.963030
  H      1.060430    3.712100   -4.402030
  H      0.562370    2.456840   -3.293270

 Total Charge           Charge          ....   -1
 Multiplicity           Mult            ....    1
 Number of Electrons    NEL             ....   58
 Basis Dimension        Dim             ....  285

ORBITAL ENERGIES
----------------

  NO   OCC          E(Eh)            E(eV)
   0   2.0000     -89.888951     -2446.0027
   1   2.0000     -19.409904      -528.1703
   2   2.0000     -19.406687      -528.0828
   3   2.0000     -19.394435      -527.7494
   4   2.0000     -10.392299      -282.7888
   5   2.0000     -10.385461      -282.6028
   6   2.0000      -8.213810      -223.5091
   7   2.0000      -6.136571      -166.9846
   8   2.0000      -6.135358      -166.9516
   9   2.0000      -6.135161      -166.9462
  10   2.0000      -1.049795       -28.5664
  11   2.0000      -0.918786       -25.0014
  12   2.0000      -0.892351       -24.2821
  13   2.0000      -0.726533       -19.7700
  14   2.0000      -0.590631       -16.0719
  15   2.0000      -0.466281       -12.6882
  16   2.0000      -0.395000       -10.7485
  17   2.0000      -0.386425       -10.5151
  18   2.0000      -0.353039        -9.6067
  19   2.0000      -0.341971        -9.3055
  20   2.0000      -0.325969        -8.8701
  21   2.0000      -0.291406        -7.9296
  22   2.0000      -0.276050        -7.5117
  23   2.0000      -0.230750        -6.2790
  24   2.0000      -0.229717        -6.2509
  25   2.0000      -0.193047        -5.2531
  26   2.0000      -0.179758        -4.8915
  27   2.0000      -0.166386        -4.5276
  28   2.0000      -0.140866        -3.8332
  29   0.0000       0.129337         3.5194
  30   0.0000       0.144326         3.9273
  31   0.0000       0.146326         3.9817
  32   0.0000       0.155811         4.2398
  33   0.0000       0.175334         4.7711

MULLIKEN ATOMIC CHARGES
-----------------------
   0 C :   -1.146008
   1 C :   -0.483247
   2 H :    0.327478
   3 H :    0.335146
   4 S :    1.346480
   5 O :   -0.742643
   6 O :   -0.758761
   7 O :   -0.786803
   8 H :    0.290691
   9 H :    0.333149
  10 H :    0.284518
Sum of atomic charges:   -1.0000000

LOEWDIN ATOMIC CHARGES
----------------------
   0 C :   -0.154296
   1 C :   -0.327793
   2 H :    0.086158
   3 H :    0.080508
   4 S :    0.362535
   5 O :   -0.393768
   6 O :   -0.395221
   7 O :   -0.429073
   8 H :    0.064411
   9 H :    0.049850
  10 H :    0.056688

  Mayer bond orders larger than 0.100000
B(  0-C ,  1-C ) :   0.5262 B(  0-C ,  8-H ) :   0.9976 B(  0-C ,  9-H ) :   0.9273
B(  0-C , 10-H ) :   1.0192 B(  1-C ,  2-H ) :   0.9464 B(  1-C ,  3-H ) :   0.9339
B(  1-C ,  4-S ) :   0.8719 B(  1-C ,  5-O ) :   0.1183 B(  1-C ,  7-O ) :   0.1178
B(  4-S ,  5-O ) :   1.4482 B(  4-S ,  6-O ) :   1.4514 B(  4-S ,  7-O ) :   1.4033

Dispersion correction           -0.000144194
FINAL SINGLE POINT ENERGY      -703.161648598187

DIPOLE MOMENT
-------------
                                X             Y             Z
Electronic contribution:      1.61522      -7.66021       0.05975
Nuclear contribution   :     -1.55288       9.51857       0.00420
                        -----------------------------------------
Total Dipole Moment    :      0.06234       1.85836       0.06395
                        -----------------------------------------
Magnitude (a.u.)       :      1.86050
Magnitude (Debye)      :      4.72902

Rotational constants in cm-1:     0.163401     0.083833     0.082462
Rotational constants in MHz :  4898.624208  2513.264548  2472.149188

                             ****ORCA TERMINATED NORMALLY****
TOTAL RUN TIME: 0 days 0 hours 0 minutes 51 seconds 831 msec
