                         Program Version 5.0.0 -  RELEASE  -
|  1> !M062X D3Zero RIJCOSX def2-TZVPD def2/J TightSCF
|  2> *xyz 1 1
|  3> C         -0.46129        2.23469       -4.98962
|  4> C          0.84888        2.66797       -4.30235
|  5> C         -0.42384        2.39877       -6.47432
|  6> N         -0.95947        3.49265       -7.00740
|  7> N          0.14558        1.48689       -7.20399
|  8> H          0.56537        0.69681       -6.72386
|  9> H          0.22068        1.58177       -8.20752
| 10> H         -1.40624        4.18151       -6.40326
| 11> H         -0.93421        3.68160       -7.99947
| 12> H         -1.28888        2.82674       -4.59500
| 13> H         -0.65170        1.18634       -4.75655
| 14> H          1.66208        2.08894       -4.68750
| 15> H          0.76716        2.51042       -3.24717
| 16> H          1.02677        3.70527       -4.49537
| 17> *
| 18>
| 19> %MaxCore 64000
| 20>
| 21> %pal nprocs 4
| 22> end
| 23>
| 24> %scf
| 25>   MaxIter 150
| 26> end
| 27>
| 28>
| 29>                          ****END OF INPUT****

CARTESIAN COORDINATES (ANGSTROEM)
---------------------------------
  C     -0.461290    2.234690   -4.989620
  C      0.848880    2.667970   -4.302350
  C     -0.423840    2.398770   -6.474320
  N     -0.959470    3.492650   -7.007400
  N      0.145580    1.486890   -7.203990
  H      0.565370    0.696810   -6.723860
  H      0.220680    1.581770   -8.207520
  H     -1.406240    4.181510   -6.403260
  H     -0.934210    3.681600   -7.999470
  H     -1.288880    2.826740   -4.595000
  H     -0.651700    1.186340   -4.756550
  H      1.662080    2.088940   -4.687500
  H      0.767160    2.510420   -3.247170
  H      1.026770    3.705270   -4.495370

 Total Charge           Charge          ....    1
 Multiplicity           Mult            ....    1
 Number of Electrons    NEL             ....   40
 Basis Dimension        Dim             ....  266

ORBITAL ENERGIES
----------------

  NO   OCC          E(Eh)            E(eV)
   0   2.0000     -14.996251      -408.0687
   1   2.0000     -14.992058      -407.9546
   2   2.0000     -10.863266      -295.6045
   3   2.0000     -10.734328      -292.0959
   4   2.0000     -10.690203      -290.8952
   5   2.0000      -1.317095       -35.8400
   6   2.0000      -1.214698       -33.0536
   7   2.0000      -1.066719       -29.0269
   8   2.0000      -0.949936       -25.8491
   9   2.0000      -0.898903       -24.4604
  10   2.0000      -0.852883       -23.2081
  11   2.0000      -0.829028       -22.5590
  12   2.0000      -0.770478       -20.9658
  13   2.0000      -0.722322       -19.6554
  14   2.0000      -0.693040       -18.8586
  15   2.0000      -0.683484       -18.5985
  16   2.0000      -0.607975       -16.5439
  17   2.0000      -0.597989       -16.2721
  18   2.0000      -0.592746       -16.1294
  19   2.0000      -0.555438       -15.1142
  20   0.0000      -0.170520        -4.6401
  21   0.0000      -0.148246        -4.0340
  22   0.0000      -0.110269        -3.0006
  23   0.0000      -0.106530        -2.8988
  24   0.0000      -0.086674        -2.3585

MULLIKEN ATOMIC CHARGES
-----------------------
   0 C :   -0.885704
   1 C :   -0.985315
   2 C :    1.194353
   3 N :   -0.559086
   4 N :   -0.534539
   5 H :    0.291100
   6 H :    0.264442
   7 H :    0.282628
   8 H :    0.249986
   9 H :    0.345098
  10 H :    0.346364
  11 H :    0.322992
  12 H :    0.340618
  13 H :    0.327061
Sum of atomic charges:    1.0000000

LOEWDIN ATOMIC CHARGES
----------------------
   0 C :   -0.150931
   1 C :   -0.051073
   2 C :   -0.364091
   3 N :    0.219939
   4 N :    0.231305
   5 H :    0.157344
   6 H :    0.153633
   7 H :    0.152498
   8 H :    0.144587
   9 H :    0.128054
  10 H :    0.132633
  11 H :    0.077408
  12 H :    0.086323
  13 H :    0.082371

  Mayer bond orders larger than 0.100000
B(  0-C ,  1-C ) :   0.6139 B(  0-C ,  2-C ) :   0.6519 B(  0-C ,  3-N ) :   0.1087
B(  0-C ,  4-N ) :   0.1097 B(  0-C ,  9-H ) :   0.9547 B(  0-C , 10-H ) :   0.9603
B(  1-C , 11-H ) :   0.9301 B(  1-C , 12-H ) :   0.9786 B(  1-C , 13-H ) :   0.9615
B(  2-C ,  3-N ) :   0.9584 B(  2-C ,  4-N ) :   1.0501 B(  3-N ,  4-N ) :   0.1267
B(  3-N ,  7-H ) :   0.9249 B(  3-N ,  8-H ) :   1.0072 B(  4-N ,  5-H ) :   0.9169
B(  4-N ,  6-H ) :   0.9833

Dispersion correction           -0.000203841
FINAL SINGLE POINT ENERGY      -229.006150469759

DIPOLE MOMENT
-------------
                                X             Y             Z
Electronic contribution:     -1.54864      -0.27105      -3.85323
Nuclear contribution   :      1.33202       0.27544       2.83701
                        -----------------------------------------
Total Dipole Moment    :     -0.21662       0.00439      -1.01622
                        -----------------------------------------
Magnitude (a.u.)       :      1.03907
Magnitude (Debye)      :      2.64109

Rotational constants in cm-1:     0.258570     0.126296     0.098869
Rotational constants in MHz :  7751.748523  3786.267300  2964.011691

                             ****ORCA TERMINATED NORMALLY****
TOTAL RUN TIME: 0 days 0 hours 0 minutes 51 seconds 52 msec
