                         Program Version 5.0.0 -  RELEASE  -
|  1> !M062X D3Zero RIJCOSX def2-TZVPD def2/J TightSCF xyzfile
|  2>
|  3> *xyzfile 0 1 B.xyz
|  4>
|  5> %MaxCore 64000
|  6>
|  7> %pal nprocs 4
|  8> end
|  9>
| 10> %scf
| 11>   MaxIter 150
| 12> end
| 13>
| 14>
| 15>                          ****END OF INPUT****

CARTESIAN COORDINATES (ANGSTROEM)
---------------------------------
  C     -0.461293    2.234686   -4.989619
  C      0.848883    2.667967   -4.302351
  C      2.093434    1.861037   -4.656845
  H      2.444814    2.041567   -5.674990
  H      2.901748    2.137864   -3.980338
  S      1.879644    0.078594   -4.462965
  C     -0.423841    2.398772   -6.474317
  N     -0.959467    3.492647   -7.007401
  N      0.145585    1.486891   -7.203987
  H      0.565371    0.696807   -6.723858
  H      0.220682    1.581768   -8.207520
  H     -1.406243    4.181507   -6.403261
  H     -0.934215    3.681601   -7.999468
  O      3.207574   -0.466111   -4.420259
  O      1.075064   -0.056160   -3.268758
  O      1.131661   -0.319960   -5.679031
  H      0.668432    2.559427   -3.232850
  H      1.034074    3.729426   -4.497081
  H     -1.288884    2.826737   -4.594997
  H     -0.651696    1.186343   -4.756552

 Total Charge           Charge          ....    0
 Multiplicity           Mult            ....    1
 Number of Electrons    NEL             ....   88
 Basis Dimension        Dim             ....  478

ORBITAL ENERGIES
----------------

  NO   OCC          E(Eh)            E(eV)
   0   2.0000     -90.042683     -2450.1860
   1   2.0000     -19.566499      -532.4315
   2   2.0000     -19.552694      -532.0558
   3   2.0000     -19.550492      -531.9959
   4   2.0000     -14.858299      -404.3149
   5   2.0000     -14.826805      -403.4579
   6   2.0000     -10.716174      -291.6019
   7   2.0000     -10.587944      -288.1126
   8   2.0000     -10.567376      -287.5529
   9   2.0000     -10.543072      -286.8916
  10   2.0000      -8.367550      -227.6926
  11   2.0000      -6.290538      -171.1742
  12   2.0000      -6.289484      -171.1456
  13   2.0000      -6.288303      -171.1134
  14   2.0000      -1.203435       -32.7471
  15   2.0000      -1.170742       -31.8575
  16   2.0000      -1.074440       -29.2370
  17   2.0000      -1.061680       -28.8898
  18   2.0000      -1.057355       -28.7721
  19   2.0000      -0.934371       -25.4255
  20   2.0000      -0.850860       -23.1531
  21   2.0000      -0.780195       -21.2302
  22   2.0000      -0.733924       -19.9711
  23   2.0000      -0.707720       -19.2580
  24   2.0000      -0.686171       -18.6717
  25   2.0000      -0.639980       -17.4147
  26   2.0000      -0.603117       -16.4117
  27   2.0000      -0.588424       -16.0118
  28   2.0000      -0.559435       -15.2230
  29   2.0000      -0.543978       -14.8024
  30   2.0000      -0.519496       -14.1362
  31   2.0000      -0.511824       -13.9275
  32   2.0000      -0.492683       -13.4066
  33   2.0000      -0.488698       -13.2982
  34   2.0000      -0.457073       -12.4376
  35   2.0000      -0.439046       -11.9470
  36   2.0000      -0.423915       -11.5353
  37   2.0000      -0.409991       -11.1564
  38   2.0000      -0.384657       -10.4671
  39   2.0000      -0.379220       -10.3191
  40   2.0000      -0.345884        -9.4120
  41   2.0000      -0.335993        -9.1428
  42   2.0000      -0.318456        -8.6656
  43   2.0000      -0.296819        -8.0768
  44   0.0000      -0.037003        -1.0069
  45   0.0000      -0.029008        -0.7894
  46   0.0000      -0.002449        -0.0667
  47   0.0000       0.016219         0.4413
  48   0.0000       0.021246         0.5781

MULLIKEN ATOMIC CHARGES
-----------------------
   0 C :   -0.981997
   1 C :   -0.488401
   2 C :   -0.891670
   3 H :    0.344480
   4 H :    0.407176
   5 S :    1.518086
   6 C :    0.990696
   7 N :   -0.592444
   8 N :   -0.520144
   9 H :    0.466858
  10 H :    0.226562
  11 H :    0.276699
  12 H :    0.239598
  13 O :   -0.762734
  14 O :   -0.758582
  15 O :   -0.933061
  16 H :    0.387515
  17 H :    0.327649
  18 H :    0.391728
  19 H :    0.351984
Sum of atomic charges:   -0.0000000

LOEWDIN ATOMIC CHARGES
----------------------
   0 C :   -0.112321
   1 C :   -0.205287
   2 C :   -0.247103
   3 H :    0.097702
   4 H :    0.103806
   5 S :    0.441332
   6 C :   -0.358313
   7 N :    0.184777
   8 N :    0.229715
   9 H :    0.040767
  10 H :    0.146386
  11 H :    0.137340
  12 H :    0.129859
  13 O :   -0.335424
  14 O :   -0.343117
  15 O :   -0.392241
  16 H :    0.118156
  17 H :    0.115460
  18 H :    0.124937
  19 H :    0.123569

  Mayer bond orders larger than 0.100000
B(  0-C ,  1-C ) :   0.6296 B(  0-C ,  6-C ) :   0.6804 B(  0-C ,  7-N ) :   0.1187
B(  0-C , 18-H ) :   0.9185 B(  0-C , 19-H ) :   0.9933 B(  1-C ,  2-C ) :   0.6586
B(  1-C ,  6-C ) :   0.1140 B(  1-C , 16-H ) :   0.9159 B(  1-C , 17-H ) :   0.9497
B(  2-C ,  3-H ) :   0.9367 B(  2-C ,  4-H ) :   0.9194 B(  2-C ,  5-S ) :   0.8542
B(  2-C , 13-O ) :   0.1548 B(  2-C , 15-O ) :   0.1422 B(  5-S , 13-O ) :   1.3686
B(  5-S , 14-O ) :   1.4636 B(  5-S , 15-O ) :   1.1593 B(  6-C ,  7-N ) :   0.8787
B(  6-C ,  8-N ) :   1.1804 B(  6-C , 18-H ) :  -0.1157 B(  7-N ,  8-N ) :   0.1054
B(  7-N , 11-H ) :   0.9441 B(  7-N , 12-H ) :   1.0046 B(  8-N ,  9-H ) :   0.7031
B(  8-N , 10-H ) :   1.0196 B(  8-N , 15-O ) :  -0.1014

Dispersion correction           -0.000728393
FINAL SINGLE POINT ENERGY      -891.817114668287

DIPOLE MOMENT
-------------
                                X             Y             Z
Electronic contribution:      3.09581      -7.63523       1.09835
Nuclear contribution   :     -5.91573      12.15027      -4.18945
                        -----------------------------------------
Total Dipole Moment    :     -2.81991       4.51505      -3.09111
                        -----------------------------------------
Magnitude (a.u.)       :      6.15569
Magnitude (Debye)      :     15.64652

Rotational constants in cm-1:     0.082044     0.024757     0.022371
Rotational constants in MHz :  2459.631375   742.181961   670.660570

                             ****ORCA TERMINATED NORMALLY****
TOTAL RUN TIME: 0 days 0 hours 2 minutes 46 seconds 659 msec
