                         Program Version 5.0.0 -  RELEASE  -
|  1> !M062X D3Zero RIJCOSX def2-TZVPD def2/J TightSCF
|  2> *xyz 0 1
|  3> C          0.84888        2.66797       -4.30235
|  4> C          2.09343        1.86104       -4.65684
|  5> H          2.44481        2.04157       -5.67499
|  6> H          2.90175        2.13786       -3.98034
|  7> S          1.87964        0.07859       -4.46297
|  8> F          3.20757       -0.46611       -4.42026
|  9> O          1.07506       -0.05616       -3.26876
| 10> O          1.13166       -0.31996       -5.67903
| 11> H          0.05064        2.40112       -4.96303
| 12> H          1.06043        3.71210       -4.40203
| 13> H          0.56237        2.45684       -3.29327
| 14> *
| 15>
| 16> %MaxCore 64000
| 17>
| 18> %pal nprocs 4
| 19> end
| 20>
| 21> %scf
| 22>   MaxIter 150
| 23> end
| 24>
| 25>
| 26>                          ****END OF INPUT****

CARTESIAN COORDINATES (ANGSTROEM)
---------------------------------
  C      0.848880    2.667970   -4.302350
  C      2.093430    1.861040   -4.656840
  H      2.444810    2.041570   -5.674990
  H      2.901750    2.137860   -3.980340
  S      1.879640    0.078590   -4.462970
  F      3.207570   -0.466110   -4.420260
  O      1.075060   -0.056160   -3.268760
  O      1.131660   -0.319960   -5.679030
  H      0.050640    2.401120   -4.963030
  H      1.060430    3.712100   -4.402030
  H      0.562370    2.456840   -3.293270

 Total Charge           Charge          ....    0
 Multiplicity           Mult            ....    1
 Number of Electrons    NEL             ....   58
 Basis Dimension        Dim             ....  285

ORBITAL ENERGIES
----------------

  NO   OCC          E(Eh)            E(eV)
   0   2.0000     -90.153412     -2453.1991
   1   2.0000     -25.373974      -690.4609
   2   2.0000     -19.641686      -534.4774
   3   2.0000     -19.629346      -534.1417
   4   2.0000     -10.595869      -288.3283
   5   2.0000     -10.550530      -287.0945
   6   2.0000      -8.478761      -230.7188
   7   2.0000      -6.403531      -174.2489
   8   2.0000      -6.398658      -174.1163
   9   2.0000      -6.398092      -174.1009
  10   2.0000      -1.538913       -41.8760
  11   2.0000      -1.228572       -33.4312
  12   2.0000      -1.125837       -30.6356
  13   2.0000      -0.919060       -25.0089
  14   2.0000      -0.840848       -22.8806
  15   2.0000      -0.766855       -20.8672
  16   2.0000      -0.696049       -18.9405
  17   2.0000      -0.688813       -18.7436
  18   2.0000      -0.643500       -17.5105
  19   2.0000      -0.566669       -15.4199
  20   2.0000      -0.563611       -15.3366
  21   2.0000      -0.522380       -14.2147
  22   2.0000      -0.499206       -13.5841
  23   2.0000      -0.473349       -12.8805
  24   2.0000      -0.460426       -12.5288
  25   2.0000      -0.450967       -12.2714
  26   2.0000      -0.409307       -11.1378
  27   2.0000      -0.390012       -10.6128
  28   2.0000      -0.382940       -10.4203
  29   0.0000      -0.000173        -0.0047
  30   0.0000       0.018602         0.5062
  31   0.0000       0.025543         0.6951
  32   0.0000       0.029147         0.7931
  33   0.0000       0.056309         1.5322

MULLIKEN ATOMIC CHARGES
-----------------------
   0 C :   -1.163708
   1 C :   -0.518649
   2 H :    0.385508
   3 H :    0.403695
   4 S :    1.313471
   5 F :   -0.111121
   6 O :   -0.647241
   7 O :   -0.664313
   8 H :    0.330589
   9 H :    0.341301
  10 H :    0.330468
Sum of atomic charges:    0.0000000

LOEWDIN ATOMIC CHARGES
----------------------
   0 C :   -0.107532
   1 C :   -0.283306
   2 H :    0.104160
   3 H :    0.096885
   4 S :    0.614434
   5 F :   -0.053758
   6 O :   -0.285541
   7 O :   -0.313324
   8 H :    0.080068
   9 H :    0.075916
  10 H :    0.071997

  Mayer bond orders larger than 0.100000
B(  0-C ,  1-C ) :   0.6042 B(  0-C ,  8-H ) :   0.9573 B(  0-C ,  9-H ) :   0.9249
B(  0-C , 10-H ) :   0.9692 B(  1-C ,  2-H ) :   0.8871 B(  1-C ,  3-H ) :   0.8460
B(  1-C ,  4-S ) :   0.8754 B(  4-S ,  5-F ) :   0.9373 B(  4-S ,  6-O ) :   1.6368
B(  4-S ,  7-O ) :   1.5806

Dispersion correction           -0.000140026
FINAL SINGLE POINT ENERGY      -727.669600945393

DIPOLE MOMENT
-------------
                                X             Y             Z
Electronic contribution:      4.17707      -9.29605       0.10748
Nuclear contribution   :     -3.08754      10.54185      -0.04092
                        -----------------------------------------
Total Dipole Moment    :      1.08953       1.24581       0.06656
                        -----------------------------------------
Magnitude (a.u.)       :      1.65636
Magnitude (Debye)      :      4.21014

Rotational constants in cm-1:     0.158925     0.081210     0.079022
Rotational constants in MHz :  4764.450166  2434.603461  2369.014434

                             ****ORCA TERMINATED NORMALLY****
TOTAL RUN TIME: 0 days 0 hours 0 minutes 57 seconds 99 msec
