                         Program Version 5.0.0 -  RELEASE  -
|  1> !M062X D3Zero RIJCOSX def2-TZVPD def2/J TightSCF
|  2> *xyz 0 1
|  3> C         -0.46129        2.23469       -4.98962
|  4> C          0.84888        2.66797       -4.30235
|  5> C         -0.42384        2.39877       -6.47432
|  6> C         -0.95947        3.49265       -7.00740
|  7> N          0.14558        1.48689       -7.20399
|  8> H          0.56537        0.69681       -6.72386
|  9> H          0.22068        1.58177       -8.20752
| 10> H         -1.40624        4.18151       -6.40326
| 11> H         -0.93421        3.68160       -7.99947
| 12> H         -1.28888        2.82674       -4.59500
| 13> H         -0.65170        1.18634       -4.75655
| 14> H          1.66208        2.08894       -4.68750
| 15> H          0.76716        2.51042       -3.24717
| 16> H          1.02677        3.70527       -4.49537
| 17> *
| 18>
| 19> %MaxCore 64000
| 20>
| 21> %pal nprocs 4
| 22> end
| 23>
| 24> %scf
| 25>   MaxIter 150
| 26> end
| 27>
| 28>
| 29>                          ****END OF INPUT****

CARTESIAN COORDINATES (ANGSTROEM)
---------------------------------
  C     -0.461290    2.234690   -4.989620
  C      0.848880    2.667970   -4.302350
  C     -0.423840    2.398770   -6.474320
  C     -0.959470    3.492650   -7.007400
  N      0.145580    1.486890   -7.203990
  H      0.565370    0.696810   -6.723860
  H      0.220680    1.581770   -8.207520
  H     -1.406240    4.181510   -6.403260
  H     -0.934210    3.681600   -7.999470
  H     -1.288880    2.826740   -4.595000
  H     -0.651700    1.186340   -4.756550
  H      1.662080    2.088940   -4.687500
  H      0.767160    2.510420   -3.247170
  H      1.026770    3.705270   -4.495370

 Total Charge           Charge          ....    0
 Multiplicity           Mult            ....    1
 Number of Electrons    NEL             ....   40
 Basis Dimension        Dim             ....  266

ORBITAL ENERGIES
----------------

  NO   OCC          E(Eh)            E(eV)
   0   2.0000     -14.750572      -401.3835
   1   2.0000     -10.556447      -287.2555
   2   2.0000     -10.533897      -286.6419
   3   2.0000     -10.518922      -286.2344
   4   2.0000     -10.466863      -284.8178
   5   2.0000      -1.046035       -28.4641
   6   2.0000      -0.876500       -23.8508
   7   2.0000      -0.808102       -21.9896
   8   2.0000      -0.723295       -19.6818
   9   2.0000      -0.649100       -17.6629
  10   2.0000      -0.605274       -16.4703
  11   2.0000      -0.552469       -15.0334
  12   2.0000      -0.506007       -13.7691
  13   2.0000      -0.487832       -13.2746
  14   2.0000      -0.458182       -12.4678
  15   2.0000      -0.448584       -12.2066
  16   2.0000      -0.414626       -11.2825
  17   2.0000      -0.396858       -10.7991
  18   2.0000      -0.395229       -10.7547
  19   2.0000      -0.241104        -6.5608
  20   0.0000       0.014575         0.3966
  21   0.0000       0.038776         1.0551
  22   0.0000       0.046039         1.2528
  23   0.0000       0.047300         1.2871
  24   0.0000       0.073853         2.0096

MULLIKEN ATOMIC CHARGES
-----------------------
   0 C :   -0.933277
   1 C :   -0.979126
   2 C :    1.122981
   3 C :   -1.077936
   4 N :   -0.600598
   5 H :    0.253368
   6 H :    0.224395
   7 H :    0.188770
   8 H :    0.231573
   9 H :    0.310652
  10 H :    0.354667
  11 H :    0.295775
  12 H :    0.310356
  13 H :    0.298401
Sum of atomic charges:   -0.0000000

LOEWDIN ATOMIC CHARGES
----------------------
   0 C :   -0.206024
   1 C :   -0.090923
   2 C :   -0.513869
   3 C :    0.024022
   4 N :    0.097948
   5 H :    0.114946
   6 H :    0.119579
   7 H :    0.021728
   8 H :    0.015144
   9 H :    0.111074
  10 H :    0.109671
  11 H :    0.063191
  12 H :    0.062497
  13 H :    0.071015

  Mayer bond orders larger than 0.100000
B(  0-C ,  1-C ) :   0.5864 B(  0-C ,  2-C ) :   0.5653 B(  0-C ,  3-C ) :   0.1700
B(  0-C ,  4-N ) :   0.1481 B(  0-C ,  9-H ) :   0.9906 B(  0-C , 10-H ) :   0.9728
B(  1-C , 11-H ) :   0.9579 B(  1-C , 12-H ) :   0.9776 B(  1-C , 13-H ) :   1.0083
B(  2-C ,  3-C ) :   1.0951 B(  2-C ,  4-N ) :   0.7924 B(  2-C ,  8-H ) :  -0.1565
B(  3-C ,  4-N ) :   0.1292 B(  3-C ,  7-H ) :   1.0824 B(  3-C ,  8-H ) :   1.0955
B(  4-N ,  5-H ) :   0.9660 B(  4-N ,  6-H ) :   1.0023

Dispersion correction           -0.000200400
FINAL SINGLE POINT ENERGY      -212.538560231577

DIPOLE MOMENT
-------------
                                X             Y             Z
Electronic contribution:     -0.73130      -1.15135      -2.57390
Nuclear contribution   :      1.14741       0.51394       2.60761
                        -----------------------------------------
Total Dipole Moment    :      0.41612      -0.63741       0.03371
                        -----------------------------------------
Magnitude (a.u.)       :      0.76196
Magnitude (Debye)      :      1.93675

Rotational constants in cm-1:     0.269157     0.129188     0.102123
Rotational constants in MHz :  8069.118715  3872.945231  3061.580645

                             ****ORCA TERMINATED NORMALLY****
TOTAL RUN TIME: 0 days 0 hours 0 minutes 57 seconds 105 msec
