                         Program Version 5.0.0 -  RELEASE  -
|  1> !M062X D3Zero RIJCOSX def2-TZVPD def2/J TightSCF
|  2> *xyz 0 1
|  3> C          0.84888        2.66797       -4.30235
|  4> C          2.09343        1.86104       -4.65684
|  5> H          2.44481        2.04157       -5.67499
|  6> H          2.90175        2.13786       -3.98034
|  7> S          1.87964        0.07859       -4.46297
|  8> O          3.20757       -0.46611       -4.42026
|  9> F          1.07506       -0.05616       -3.26876
| 10> O          1.13166       -0.31996       -5.67903
| 11> H          0.05064        2.40112       -4.96303
| 12> H          1.06043        3.71210       -4.40203
| 13> H          0.56237        2.45684       -3.29327
| 14> *
| 15>
| 16> %MaxCore 64000
| 17>
| 18> %pal nprocs 4
| 19> end
| 20>
| 21> %scf
| 22>   MaxIter 150
| 23> end
| 24>
| 25>
| 26>                          ****END OF INPUT****

CARTESIAN COORDINATES (ANGSTROEM)
---------------------------------
  C      0.848880    2.667970   -4.302350
  C      2.093430    1.861040   -4.656840
  H      2.444810    2.041570   -5.674990
  H      2.901750    2.137860   -3.980340
  S      1.879640    0.078590   -4.462970
  O      3.207570   -0.466110   -4.420260
  F      1.075060   -0.056160   -3.268760
  O      1.131660   -0.319960   -5.679030
  H      0.050640    2.401120   -4.963030
  H      1.060430    3.712100   -4.402030
  H      0.562370    2.456840   -3.293270

 Total Charge           Charge          ....    0
 Multiplicity           Mult            ....    1
 Number of Electrons    NEL             ....   58
 Basis Dimension        Dim             ....  285

ORBITAL ENERGIES
----------------

  NO   OCC          E(Eh)            E(eV)
   0   2.0000     -90.152848     -2453.1837
   1   2.0000     -25.368495      -690.3119
   2   2.0000     -19.645117      -534.5708
   3   2.0000     -19.629437      -534.1441
   4   2.0000     -10.595869      -288.3283
   5   2.0000     -10.557310      -287.2790
   6   2.0000      -8.478174      -230.7028
   7   2.0000      -6.403142      -174.2383
   8   2.0000      -6.397963      -174.0974
   9   2.0000      -6.397457      -174.0837
  10   2.0000      -1.530076       -41.6355
  11   2.0000      -1.232950       -33.5503
  12   2.0000      -1.128957       -30.7205
  13   2.0000      -0.924507       -25.1571
  14   2.0000      -0.833968       -22.6934
  15   2.0000      -0.768903       -20.9229
  16   2.0000      -0.696624       -18.9561
  17   2.0000      -0.688831       -18.7440
  18   2.0000      -0.635245       -17.2859
  19   2.0000      -0.569019       -15.4838
  20   2.0000      -0.556356       -15.1392
  21   2.0000      -0.530029       -14.4228
  22   2.0000      -0.511527       -13.9193
  23   2.0000      -0.481721       -13.1083
  24   2.0000      -0.465201       -12.6588
  25   2.0000      -0.454875       -12.3778
  26   2.0000      -0.409104       -11.1323
  27   2.0000      -0.391114       -10.6428
  28   2.0000      -0.386101       -10.5063
  29   0.0000      -0.000840        -0.0228
  30   0.0000       0.020307         0.5526
  31   0.0000       0.024253         0.6600
  32   0.0000       0.028929         0.7872
  33   0.0000       0.055365         1.5066

MULLIKEN ATOMIC CHARGES
-----------------------
   0 C :   -1.180033
   1 C :   -0.465461
   2 H :    0.365923
   3 H :    0.378778
   4 S :    1.323775
   5 O :   -0.630818
   6 F :   -0.145404
   7 O :   -0.667160
   8 H :    0.334871
   9 H :    0.336333
  10 H :    0.349199
Sum of atomic charges:    0.0000000

LOEWDIN ATOMIC CHARGES
----------------------
   0 C :   -0.118068
   1 C :   -0.273670
   2 H :    0.113805
   3 H :    0.099980
   4 S :    0.610805
   5 O :   -0.278767
   6 F :   -0.061464
   7 O :   -0.312613
   8 H :    0.076886
   9 H :    0.075037
  10 H :    0.068068

  Mayer bond orders larger than 0.100000
B(  0-C ,  1-C ) :   0.5132 B(  0-C ,  8-H ) :   0.9789 B(  0-C ,  9-H ) :   0.9473
B(  0-C , 10-H ) :   0.9297 B(  1-C ,  2-H ) :   0.9032 B(  1-C ,  3-H ) :   0.8985
B(  1-C ,  4-S ) :   0.8719 B(  4-S ,  5-O ) :   1.6353 B(  4-S ,  6-F ) :   0.9354
B(  4-S ,  7-O ) :   1.5931

Dispersion correction           -0.000151158
FINAL SINGLE POINT ENERGY      -727.673936150148

DIPOLE MOMENT
-------------
                                X             Y             Z
Electronic contribution:      0.55595      -8.57365       2.04835
Nuclear contribution   :     -0.86540      10.11467      -1.24082
                        -----------------------------------------
Total Dipole Moment    :     -0.30945       1.54103       0.80754
                        -----------------------------------------
Magnitude (a.u.)       :      1.76710
Magnitude (Debye)      :      4.49161

Rotational constants in cm-1:     0.154065     0.083345     0.080357
Rotational constants in MHz :  4618.752213  2498.631937  2409.037217

                             ****ORCA TERMINATED NORMALLY****
TOTAL RUN TIME: 0 days 0 hours 0 minutes 54 seconds 315 msec
