                         Program Version 5.0.0 -  RELEASE  -
|  1> !M062X D3Zero RIJCOSX def2-TZVPD def2/J TightSCF
|  2> *xyz 0 1
|  3> C         -0.46129        2.23469       -4.98962
|  4> C          0.84888        2.66797       -4.30235
|  5> C         -0.42384        2.39877       -6.47432
|  6> N         -0.95947        3.49265       -7.00740
|  7> C          0.14558        1.48689       -7.20399
|  8> H          0.56537        0.69681       -6.72386
|  9> H          0.22068        1.58177       -8.20752
| 10> H         -1.40624        4.18151       -6.40326
| 11> H         -0.93421        3.68160       -7.99947
| 12> H         -1.28888        2.82674       -4.59500
| 13> H         -0.65170        1.18634       -4.75655
| 14> H          1.66208        2.08894       -4.68750
| 15> H          0.76716        2.51042       -3.24717
| 16> H          1.02677        3.70527       -4.49537
| 17> *
| 18>
| 19> %MaxCore 64000
| 20>
| 21> %pal nprocs 4
| 22> end
| 23>
| 24> %scf
| 25>   MaxIter 150
| 26> end
| 27>
| 28>
| 29>                          ****END OF INPUT****

CARTESIAN COORDINATES (ANGSTROEM)
---------------------------------
  C     -0.461290    2.234690   -4.989620
  C      0.848880    2.667970   -4.302350
  C     -0.423840    2.398770   -6.474320
  N     -0.959470    3.492650   -7.007400
  C      0.145580    1.486890   -7.203990
  H      0.565370    0.696810   -6.723860
  H      0.220680    1.581770   -8.207520
  H     -1.406240    4.181510   -6.403260
  H     -0.934210    3.681600   -7.999470
  H     -1.288880    2.826740   -4.595000
  H     -0.651700    1.186340   -4.756550
  H      1.662080    2.088940   -4.687500
  H      0.767160    2.510420   -3.247170
  H      1.026770    3.705270   -4.495370

 Total Charge           Charge          ....    0
 Multiplicity           Mult            ....    1
 Number of Electrons    NEL             ....   40
 Basis Dimension        Dim             ....  266

ORBITAL ENERGIES
----------------

  NO   OCC          E(Eh)            E(eV)
   0   2.0000     -14.747234      -401.2926
   1   2.0000     -10.554080      -287.1911
   2   2.0000     -10.533556      -286.6326
   3   2.0000     -10.517563      -286.1974
   4   2.0000     -10.465395      -284.7779
   5   2.0000      -1.032952       -28.1081
   6   2.0000      -0.878396       -23.9024
   7   2.0000      -0.812346       -22.1051
   8   2.0000      -0.724266       -19.7083
   9   2.0000      -0.643043       -17.4981
  10   2.0000      -0.594603       -16.1800
  11   2.0000      -0.555169       -15.1069
  12   2.0000      -0.507875       -13.8200
  13   2.0000      -0.482428       -13.1275
  14   2.0000      -0.459039       -12.4911
  15   2.0000      -0.448707       -12.2099
  16   2.0000      -0.412116       -11.2142
  17   2.0000      -0.398241       -10.8367
  18   2.0000      -0.393163       -10.6985
  19   2.0000      -0.246057        -6.6956
  20   0.0000       0.015583         0.4240
  21   0.0000       0.038934         1.0595
  22   0.0000       0.044266         1.2045
  23   0.0000       0.048877         1.3300
  24   0.0000       0.075213         2.0466

MULLIKEN ATOMIC CHARGES
-----------------------
   0 C :   -0.890817
   1 C :   -0.997912
   2 C :    1.127491
   3 N :   -0.609959
   4 C :   -1.104477
   5 H :    0.217672
   6 H :    0.241859
   7 H :    0.245780
   8 H :    0.210242
   9 H :    0.342911
  10 H :    0.310919
  11 H :    0.309945
  12 H :    0.302578
  13 H :    0.293768
Sum of atomic charges:   -0.0000000

LOEWDIN ATOMIC CHARGES
----------------------
   0 C :   -0.204522
   1 C :   -0.090078
   2 C :   -0.504014
   3 N :    0.089459
   4 C :    0.017506
   5 H :    0.030908
   6 H :    0.024861
   7 H :    0.108282
   8 H :    0.109797
   9 H :    0.106060
  10 H :    0.113462
  11 H :    0.067640
  12 H :    0.062155
  13 H :    0.068484

  Mayer bond orders larger than 0.100000
B(  0-C ,  1-C ) :   0.5821 B(  0-C ,  2-C ) :   0.5116 B(  0-C ,  3-N ) :   0.1224
B(  0-C ,  4-C ) :   0.1687 B(  0-C ,  9-H ) :   0.9989 B(  0-C , 10-H ) :   0.9922
B(  1-C , 11-H ) :   0.9810 B(  1-C , 12-H ) :   0.9760 B(  1-C , 13-H ) :   0.9755
B(  2-C ,  3-N ) :   0.7119 B(  2-C ,  4-C ) :   1.1674 B(  2-C ,  6-H ) :  -0.1478
B(  2-C ,  9-H ) :  -0.1105 B(  3-N ,  4-C ) :   0.1263 B(  3-N ,  7-H ) :   0.9806
B(  3-N ,  8-H ) :   1.0254 B(  4-C ,  5-H ) :   1.0617 B(  4-C ,  6-H ) :   1.0872

Dispersion correction           -0.000200509
FINAL SINGLE POINT ENERGY      -212.538966072988

DIPOLE MOMENT
-------------
                                X             Y             Z
Electronic contribution:     -1.68482       0.55284      -2.40424
Nuclear contribution   :      1.40335       0.04939       2.56207
                        -----------------------------------------
Total Dipole Moment    :     -0.28147       0.60223       0.15783
                        -----------------------------------------
Magnitude (a.u.)       :      0.68324
Magnitude (Debye)      :      1.73666

Rotational constants in cm-1:     0.271383     0.128194     0.101873
Rotational constants in MHz :  8135.853259  3843.152748  3054.074278

                             ****ORCA TERMINATED NORMALLY****
TOTAL RUN TIME: 0 days 0 hours 0 minutes 51 seconds 139 msec
