                         Program Version 5.0.0 -  RELEASE  -
|  1> !M062X D3Zero RIJCOSX def2-TZVPD def2/J TightSCF
|  2> *xyz 0 1
|  3> C          0.84888        2.66797       -4.30235
|  4> C          2.09343        1.86104       -4.65684
|  5> H          2.44481        2.04157       -5.67499
|  6> H          2.90175        2.13786       -3.98034
|  7> S          1.87964        0.07859       -4.46297
|  8> O          3.20757       -0.46611       -4.42026
|  9> O          1.07506       -0.05616       -3.26876
| 10> F          1.13166       -0.31996       -5.67903
| 11> H          0.05064        2.40112       -4.96303
| 12> H          1.06043        3.71210       -4.40203
| 13> H          0.56237        2.45684       -3.29327
| 14> *
| 15>
| 16> %MaxCore 64000
| 17>
| 18> %pal nprocs 4
| 19> end
| 20>
| 21> %scf
| 22>   MaxIter 150
| 23> end
| 24>
| 25>
| 26>                          ****END OF INPUT****

CARTESIAN COORDINATES (ANGSTROEM)
---------------------------------
  C      0.848880    2.667970   -4.302350
  C      2.093430    1.861040   -4.656840
  H      2.444810    2.041570   -5.674990
  H      2.901750    2.137860   -3.980340
  S      1.879640    0.078590   -4.462970
  O      3.207570   -0.466110   -4.420260
  O      1.075060   -0.056160   -3.268760
  F      1.131660   -0.319960   -5.679030
  H      0.050640    2.401120   -4.963030
  H      1.060430    3.712100   -4.402030
  H      0.562370    2.456840   -3.293270

 Total Charge           Charge          ....    0
 Multiplicity           Mult            ....    1
 Number of Electrons    NEL             ....   58
 Basis Dimension        Dim             ....  285

ORBITAL ENERGIES
----------------

  NO   OCC          E(Eh)            E(eV)
   0   2.0000     -90.151093     -2453.1359
   1   2.0000     -25.349893      -689.8056
   2   2.0000     -19.644718      -534.5600
   3   2.0000     -19.641456      -534.4712
   4   2.0000     -10.594987      -288.3043
   5   2.0000     -10.551640      -287.1247
   6   2.0000      -8.476392      -230.6543
   7   2.0000      -6.401311      -174.1885
   8   2.0000      -6.396422      -174.0555
   9   2.0000      -6.395637      -174.0341
  10   2.0000      -1.499228       -40.7961
  11   2.0000      -1.242026       -33.7972
  12   2.0000      -1.148528       -31.2530
  13   2.0000      -0.920076       -25.0365
  14   2.0000      -0.821035       -22.3415
  15   2.0000      -0.760988       -20.7075
  16   2.0000      -0.674290       -18.3484
  17   2.0000      -0.666859       -18.1462
  18   2.0000      -0.637984       -17.3604
  19   2.0000      -0.571786       -15.5591
  20   2.0000      -0.555937       -15.1278
  21   2.0000      -0.540004       -14.6943
  22   2.0000      -0.503202       -13.6928
  23   2.0000      -0.479609       -13.0508
  24   2.0000      -0.468734       -12.7549
  25   2.0000      -0.450101       -12.2479
  26   2.0000      -0.418094       -11.3769
  27   2.0000      -0.400902       -10.9091
  28   2.0000      -0.398014       -10.8305
  29   0.0000       0.000884         0.0241
  30   0.0000       0.021955         0.5974
  31   0.0000       0.024329         0.6620
  32   0.0000       0.028938         0.7875
  33   0.0000       0.055345         1.5060

MULLIKEN ATOMIC CHARGES
-----------------------
   0 C :   -1.129018
   1 C :   -0.520796
   2 H :    0.395264
   3 H :    0.376422
   4 S :    1.338122
   5 O :   -0.639296
   6 O :   -0.648842
   7 F :   -0.170173
   8 H :    0.328323
   9 H :    0.343378
  10 H :    0.326615
Sum of atomic charges:    0.0000000

LOEWDIN ATOMIC CHARGES
----------------------
   0 C :   -0.117741
   1 C :   -0.274593
   2 H :    0.103249
   3 H :    0.107991
   4 S :    0.613747
   5 O :   -0.279648
   6 O :   -0.283380
   7 F :   -0.089459
   8 H :    0.074388
   9 H :    0.074219
  10 H :    0.071227

  Mayer bond orders larger than 0.100000
B(  0-C ,  1-C ) :   0.5436 B(  0-C ,  8-H ) :   0.9389 B(  0-C ,  9-H ) :   0.9366
B(  0-C , 10-H ) :   0.9979 B(  1-C ,  2-H ) :   0.8693 B(  1-C ,  3-H ) :   0.8925
B(  1-C ,  4-S ) :   0.8798 B(  4-S ,  5-O ) :   1.6300 B(  4-S ,  6-O ) :   1.6387
B(  4-S ,  7-F ) :   0.8806

Dispersion correction           -0.000149483
FINAL SINGLE POINT ENERGY      -727.689459585131

DIPOLE MOMENT
-------------
                                X             Y             Z
Electronic contribution:      0.63587      -9.05177      -2.05920
Nuclear contribution   :     -0.92438      10.38956       1.27076
                        -----------------------------------------
Total Dipole Moment    :     -0.28851       1.33779      -0.78844
                        -----------------------------------------
Magnitude (a.u.)       :      1.57942
Magnitude (Debye)      :      4.01457

Rotational constants in cm-1:     0.154243     0.082247     0.080562
Rotational constants in MHz :  4624.087322  2465.703680  2415.175852

                             ****ORCA TERMINATED NORMALLY****
TOTAL RUN TIME: 0 days 0 hours 0 minutes 54 seconds 285 msec
