                         Program Version 5.0.0 -  RELEASE  -
|  1> !M062X D3Zero RIJCOSX def2-TZVPD def2/J TightSCF xyzfile
|  2>
|  3> *xyzfile 0 1 D1.xyz
|  4>
|  5> %MaxCore 64000
|  6>
|  7> %pal nprocs 4
|  8> end
|  9>
| 10> %scf
| 11>   MaxIter 150
| 12> end
| 13>
| 14>
| 15>                          ****END OF INPUT****

CARTESIAN COORDINATES (ANGSTROEM)
---------------------------------
  C     -0.461293    2.234686   -4.989619
  C      0.848883    2.667967   -4.302351
  C      2.093434    1.861037   -4.656845
  H      2.444814    2.041567   -5.674990
  H      2.901748    2.137864   -3.980338
  S      1.879644    0.078594   -4.462965
  C     -0.423841    2.398772   -6.474317
  C     -0.959467    3.492647   -7.007401
  N      0.145585    1.486891   -7.203987
  H      0.565371    0.696807   -6.723858
  H      0.220682    1.581768   -8.207520
  H     -1.406243    4.181507   -6.403261
  H     -0.934215    3.681601   -7.999468
  F      3.207574   -0.466111   -4.420259
  O      1.075064   -0.056160   -3.268758
  O      1.131661   -0.319960   -5.679031
  H      0.668432    2.559427   -3.232850
  H      1.034074    3.729426   -4.497081
  H     -1.288884    2.826737   -4.594997
  H     -0.651696    1.186343   -4.756552

 Total Charge           Charge          ....    0
 Multiplicity           Mult            ....    1
 Number of Electrons    NEL             ....   88
 Basis Dimension        Dim             ....  478

ORBITAL ENERGIES
----------------

  NO   OCC          E(Eh)            E(eV)
   0   2.0000     -90.173249     -2453.7389
   1   2.0000     -25.389482      -690.8829
   2   2.0000     -19.658699      -534.9404
   3   2.0000     -19.654593      -534.8287
   4   2.0000     -14.722090      -400.6084
   5   2.0000     -10.602755      -288.5156
   6   2.0000     -10.564459      -287.4736
   7   2.0000     -10.550249      -287.0869
   8   2.0000     -10.537093      -286.7289
   9   2.0000     -10.460498      -284.6446
  10   2.0000      -8.498730      -231.2622
  11   2.0000      -6.423356      -174.7884
  12   2.0000      -6.418573      -174.6582
  13   2.0000      -6.418255      -174.6496
  14   2.0000      -1.554462       -42.2990
  15   2.0000      -1.251081       -34.0436
  16   2.0000      -1.153967       -31.4010
  17   2.0000      -1.030449       -28.0399
  18   2.0000      -0.935526       -25.4570
  19   2.0000      -0.871047       -23.7024
  20   2.0000      -0.837499       -22.7895
  21   2.0000      -0.788657       -21.4605
  22   2.0000      -0.737886       -20.0789
  23   2.0000      -0.713366       -19.4117
  24   2.0000      -0.694822       -18.9071
  25   2.0000      -0.666435       -18.1346
  26   2.0000      -0.639233       -17.3944
  27   2.0000      -0.604179       -16.4405
  28   2.0000      -0.578591       -15.7443
  29   2.0000      -0.569461       -15.4958
  30   2.0000      -0.549908       -14.9638
  31   2.0000      -0.532277       -14.4840
  32   2.0000      -0.517382       -14.0787
  33   2.0000      -0.488269       -13.2865
  34   2.0000      -0.468266       -12.7422
  35   2.0000      -0.460904       -12.5418
  36   2.0000      -0.450281       -12.2528
  37   2.0000      -0.428444       -11.6586
  38   2.0000      -0.424325       -11.5465
  39   2.0000      -0.414468       -11.2782
  40   2.0000      -0.406766       -11.0687
  41   2.0000      -0.390342       -10.6217
  42   2.0000      -0.384348       -10.4586
  43   2.0000      -0.231530        -6.3002
  44   0.0000      -0.006235        -0.1697
  45   0.0000       0.014383         0.3914
  46   0.0000       0.018165         0.4943
  47   0.0000       0.025309         0.6887
  48   0.0000       0.046362         1.2616

MULLIKEN ATOMIC CHARGES
-----------------------
   0 C :   -1.129470
   1 C :   -0.484029
   2 C :   -0.902641
   3 H :    0.420232
   4 H :    0.468733
   5 S :    1.380902
   6 C :    0.929198
   7 C :   -1.026788
   8 N :   -0.627723
   9 H :    0.452812
  10 H :    0.183016
  11 H :    0.201653
  12 H :    0.239123
  13 F :   -0.111860
  14 O :   -0.666627
  15 O :   -0.785414
  16 H :    0.344932
  17 H :    0.370749
  18 H :    0.376587
  19 H :    0.366614
Sum of atomic charges:    0.0000000

LOEWDIN ATOMIC CHARGES
----------------------
   0 C :   -0.146603
   1 C :   -0.196138
   2 C :   -0.217716
   3 H :    0.111684
   4 H :    0.104090
   5 S :    0.665768
   6 C :   -0.492176
   7 C :    0.021750
   8 N :    0.108253
   9 H :    0.026074
  10 H :    0.124711
  11 H :    0.018001
  12 H :    0.014301
  13 F :   -0.040997
  14 O :   -0.262412
  15 O :   -0.312258
  16 H :    0.112128
  17 H :    0.129060
  18 H :    0.123522
  19 H :    0.108958

  Mayer bond orders larger than 0.100000
B(  0-C ,  1-C ) :   0.6449 B(  0-C ,  6-C ) :   0.6805 B(  0-C ,  7-C ) :   0.2246
B(  0-C , 18-H ) :   0.9879 B(  0-C , 19-H ) :   0.9382 B(  1-C ,  2-C ) :   0.7250
B(  1-C , 16-H ) :   0.9340 B(  1-C , 17-H ) :   0.9169 B(  2-C ,  3-H ) :   0.8582
B(  2-C ,  4-H ) :   0.8162 B(  2-C ,  5-S ) :   0.8523 B(  2-C ,  8-N ) :   0.1481
B(  2-C , 15-O ) :   0.1118 B(  5-S , 13-F ) :   0.8858 B(  5-S , 14-O ) :   1.6576
B(  5-S , 15-O ) :   1.4731 B(  6-C ,  7-C ) :   1.1883 B(  6-C ,  8-N ) :   0.7744
B(  6-C , 12-H ) :  -0.1182 B(  7-C ,  8-N ) :   0.1173 B(  7-C , 11-H ) :   1.1052
B(  7-C , 12-H ) :   1.0544 B(  8-N ,  9-H ) :   0.7675 B(  8-N , 10-H ) :   1.0517

Dispersion correction           -0.000713233
FINAL SINGLE POINT ENERGY      -899.708862775163

DIPOLE MOMENT
-------------
                                X             Y             Z
Electronic contribution:     10.15885     -13.89423       5.46792
Nuclear contribution   :     -8.53047      14.15581      -5.17613
                        -----------------------------------------
Total Dipole Moment    :      1.62838       0.26158       0.29179
                        -----------------------------------------
Magnitude (a.u.)       :      1.67487
Magnitude (Debye)      :      4.25718

Rotational constants in cm-1:     0.081196     0.024861     0.022477
Rotational constants in MHz :  2434.181666   745.320670   673.846846

                             ****ORCA TERMINATED NORMALLY****
TOTAL RUN TIME: 0 days 0 hours 2 minutes 48 seconds 833 msec
