                         Program Version 5.0.0 -  RELEASE  -
|  1> !M062X D3Zero RIJCOSX def2-TZVPD def2/J TightSCF xyzfile
|  2>
|  3> *xyzfile 0 1 D2.xyz
|  4>
|  5> %MaxCore 64000
|  6>
|  7> %pal nprocs 4
|  8> end
|  9>
| 10> %scf
| 11>   MaxIter 150
| 12> end
| 13>
| 14>
| 15>                          ****END OF INPUT****

CARTESIAN COORDINATES (ANGSTROEM)
---------------------------------
  C     -0.461293    2.234686   -4.989619
  C      0.848883    2.667967   -4.302351
  C      2.093434    1.861037   -4.656845
  H      2.444814    2.041567   -5.674990
  H      2.901748    2.137864   -3.980338
  S      1.879644    0.078594   -4.462965
  C     -0.423841    2.398772   -6.474317
  N     -0.959467    3.492647   -7.007401
  C      0.145585    1.486891   -7.203987
  H      0.565371    0.696807   -6.723858
  H      0.220682    1.581768   -8.207520
  H     -1.406243    4.181507   -6.403261
  H     -0.934215    3.681601   -7.999468
  F      3.207574   -0.466111   -4.420259
  O      1.075064   -0.056160   -3.268758
  O      1.131661   -0.319960   -5.679031
  H      0.668432    2.559427   -3.232850
  H      1.034074    3.729426   -4.497081
  H     -1.288884    2.826737   -4.594997
  H     -0.651696    1.186343   -4.756552

 Total Charge           Charge          ....    0
 Multiplicity           Mult            ....    1
 Number of Electrons    NEL             ....   88
 Basis Dimension        Dim             ....  478

ORBITAL ENERGIES
----------------

  NO   OCC          E(Eh)            E(eV)
   0   2.0000     -90.155752     -2453.2627
   1   2.0000     -25.374589      -690.4777
   2   2.0000     -19.643903      -534.5378
   3   2.0000     -19.632027      -534.2146
   4   2.0000     -14.741983      -401.1497
   5   2.0000     -10.591941      -288.2214
   6   2.0000     -10.561959      -287.4055
   7   2.0000     -10.546068      -286.9731
   8   2.0000     -10.537054      -286.7278
   9   2.0000     -10.443344      -284.1778
  10   2.0000      -8.481293      -230.7877
  11   2.0000      -6.406020      -174.3167
  12   2.0000      -6.401081      -174.1823
  13   2.0000      -6.400778      -174.1740
  14   2.0000      -1.539758       -41.8989
  15   2.0000      -1.233798       -33.5733
  16   2.0000      -1.134528       -30.8721
  17   2.0000      -1.028347       -27.9828
  18   2.0000      -0.928370       -25.2622
  19   2.0000      -0.868049       -23.6208
  20   2.0000      -0.824586       -22.4381
  21   2.0000      -0.795131       -21.6366
  22   2.0000      -0.729060       -19.8387
  23   2.0000      -0.698551       -19.0085
  24   2.0000      -0.684658       -18.6305
  25   2.0000      -0.648298       -17.6411
  26   2.0000      -0.642442       -17.4817
  27   2.0000      -0.589499       -16.0411
  28   2.0000      -0.572755       -15.5855
  29   2.0000      -0.561576       -15.2813
  30   2.0000      -0.546938       -14.8829
  31   2.0000      -0.533203       -14.5092
  32   2.0000      -0.512278       -13.9398
  33   2.0000      -0.478811       -13.0291
  34   2.0000      -0.467070       -12.7096
  35   2.0000      -0.457438       -12.4475
  36   2.0000      -0.445055       -12.1106
  37   2.0000      -0.425522       -11.5790
  38   2.0000      -0.407505       -11.0888
  39   2.0000      -0.401921       -10.9368
  40   2.0000      -0.390373       -10.6226
  41   2.0000      -0.386067       -10.5054
  42   2.0000      -0.363157        -9.8820
  43   2.0000      -0.238272        -6.4837
  44   0.0000       0.000440         0.0120
  45   0.0000       0.014502         0.3946
  46   0.0000       0.023293         0.6338
  47   0.0000       0.025715         0.6997
  48   0.0000       0.045749         1.2449

MULLIKEN ATOMIC CHARGES
-----------------------
   0 C :   -1.011715
   1 C :   -0.533243
   2 C :   -0.880891
   3 H :    0.414484
   4 H :    0.467055
   5 S :    1.323891
   6 C :    1.090981
   7 N :   -0.618693
   8 C :   -0.975183
   9 H :    0.114545
  10 H :    0.198716
  11 H :    0.244967
  12 H :    0.223675
  13 F :   -0.117728
  14 O :   -0.677900
  15 O :   -0.705044
  16 H :    0.345691
  17 H :    0.360395
  18 H :    0.423254
  19 H :    0.312745
Sum of atomic charges:   -0.0000000

LOEWDIN ATOMIC CHARGES
----------------------
   0 C :   -0.143655
   1 C :   -0.198403
   2 C :   -0.218159
   3 H :    0.109985
   4 H :    0.102688
   5 S :    0.657702
   6 C :   -0.475005
   7 N :    0.086046
   8 C :    0.031033
   9 H :   -0.035404
  10 H :    0.037365
  11 H :    0.105184
  12 H :    0.108921
  13 F :   -0.046174
  14 O :   -0.272042
  15 O :   -0.317758
  16 H :    0.111359
  17 H :    0.126061
  18 H :    0.118401
  19 H :    0.111855

  Mayer bond orders larger than 0.100000
B(  0-C ,  1-C ) :   0.6572 B(  0-C ,  6-C ) :   0.5008 B(  0-C ,  7-N ) :   0.1771
B(  0-C , 18-H ) :   0.9487 B(  0-C , 19-H ) :   1.0121 B(  1-C ,  2-C ) :   0.7698
B(  1-C , 16-H ) :   0.9322 B(  1-C , 17-H ) :   0.9096 B(  2-C ,  3-H ) :   0.9002
B(  2-C ,  4-H ) :   0.8177 B(  2-C ,  5-S ) :   0.8299 B(  2-C , 15-O ) :   0.1281
B(  5-S , 13-F ) :   0.8825 B(  5-S , 14-O ) :   1.6443 B(  5-S , 15-O ) :   1.5767
B(  6-C ,  7-N ) :   0.6363 B(  6-C ,  8-C ) :   0.9984 B(  6-C ,  9-H ) :  -0.1503
B(  6-C , 10-H ) :  -0.2306 B(  6-C , 18-H ) :  -0.1398 B(  7-N ,  8-C ) :   0.1204
B(  7-N , 11-H ) :   0.9903 B(  7-N , 12-H ) :   1.0136 B(  8-C ,  9-H ) :   1.2001
B(  8-C , 10-H ) :   1.2368 B(  9-H , 15-O ) :  -0.3294

Dispersion correction           -0.000709921
FINAL SINGLE POINT ENERGY      -899.689477521741

DIPOLE MOMENT
-------------
                                X             Y             Z
Electronic contribution:      9.27974     -12.46157       5.40539
Nuclear contribution   :     -8.42493      13.96425      -5.19491
                        -----------------------------------------
Total Dipole Moment    :      0.85481       1.50269       0.21049
                        -----------------------------------------
Magnitude (a.u.)       :      1.74157
Magnitude (Debye)      :      4.42672

Rotational constants in cm-1:     0.082815     0.024151     0.022015
Rotational constants in MHz :  2482.732265   724.035221   660.002136

                             ****ORCA TERMINATED NORMALLY****
TOTAL RUN TIME: 0 days 0 hours 2 minutes 42 seconds 35 msec
