                         Program Version 5.0.0 -  RELEASE  -
|  1> !M062X D3Zero RIJCOSX def2-TZVPD def2/J TightSCF xyzfile
|  2>
|  3> *xyzfile 0 1 D3.xyz
|  4>
|  5> %MaxCore 64000
|  6>
|  7> %pal nprocs 4
|  8> end
|  9>
| 10> %scf
| 11>   MaxIter 150
| 12> end
| 13>
| 14>
| 15>                          ****END OF INPUT****

CARTESIAN COORDINATES (ANGSTROEM)
---------------------------------
  C     -0.461293    2.234686   -4.989619
  C      0.848883    2.667967   -4.302351
  C      2.093434    1.861037   -4.656845
  H      2.444814    2.041567   -5.674990
  H      2.901748    2.137864   -3.980338
  S      1.879644    0.078594   -4.462965
  C     -0.423841    2.398772   -6.474317
  C     -0.959467    3.492647   -7.007401
  N      0.145585    1.486891   -7.203987
  H      0.565371    0.696807   -6.723858
  H      0.220682    1.581768   -8.207520
  H     -1.406243    4.181507   -6.403261
  H     -0.934215    3.681601   -7.999468
  O      3.207574   -0.466111   -4.420259
  F      1.075064   -0.056160   -3.268758
  O      1.131661   -0.319960   -5.679031
  H      0.668432    2.559427   -3.232850
  H      1.034074    3.729426   -4.497081
  H     -1.288884    2.826737   -4.594997
  H     -0.651696    1.186343   -4.756552

 Total Charge           Charge          ....    0
 Multiplicity           Mult            ....    1
 Number of Electrons    NEL             ....   88
 Basis Dimension        Dim             ....  478

ORBITAL ENERGIES
----------------

  NO   OCC          E(Eh)            E(eV)
   0   2.0000     -90.172291     -2453.7128
   1   2.0000     -25.383842      -690.7295
   2   2.0000     -19.661263      -535.0102
   3   2.0000     -19.653321      -534.7941
   4   2.0000     -14.724841      -400.6833
   5   2.0000     -10.602379      -288.5054
   6   2.0000     -10.570132      -287.6279
   7   2.0000     -10.555987      -287.2430
   8   2.0000     -10.547975      -287.0250
   9   2.0000     -10.465410      -284.7783
  10   2.0000      -8.497732      -231.2351
  11   2.0000      -6.422629      -174.7686
  12   2.0000      -6.417626      -174.6325
  13   2.0000      -6.416976      -174.6148
  14   2.0000      -1.545438       -42.0535
  15   2.0000      -1.253759       -34.1165
  16   2.0000      -1.157028       -31.4843
  17   2.0000      -1.034291       -28.1445
  18   2.0000      -0.941886       -25.6300
  19   2.0000      -0.868734       -23.6395
  20   2.0000      -0.837687       -22.7946
  21   2.0000      -0.793326       -21.5875
  22   2.0000      -0.737171       -20.0595
  23   2.0000      -0.707706       -19.2577
  24   2.0000      -0.704844       -19.1798
  25   2.0000      -0.662525       -18.0282
  26   2.0000      -0.644399       -17.5350
  27   2.0000      -0.598824       -16.2948
  28   2.0000      -0.577146       -15.7049
  29   2.0000      -0.572638       -15.5823
  30   2.0000      -0.552997       -15.0478
  31   2.0000      -0.535704       -14.5772
  32   2.0000      -0.523977       -14.2581
  33   2.0000      -0.496241       -13.5034
  34   2.0000      -0.476936       -12.9781
  35   2.0000      -0.467958       -12.7338
  36   2.0000      -0.452477       -12.3125
  37   2.0000      -0.445117       -12.1122
  38   2.0000      -0.422628       -11.5003
  39   2.0000      -0.412630       -11.2282
  40   2.0000      -0.409429       -11.1411
  41   2.0000      -0.396277       -10.7832
  42   2.0000      -0.388676       -10.5764
  43   2.0000      -0.235654        -6.4125
  44   0.0000      -0.004575        -0.1245
  45   0.0000       0.014366         0.3909
  46   0.0000       0.018873         0.5135
  47   0.0000       0.023994         0.6529
  48   0.0000       0.044870         1.2210

MULLIKEN ATOMIC CHARGES
-----------------------
   0 C :   -1.018190
   1 C :   -0.492364
   2 C :   -0.806632
   3 H :    0.389823
   4 H :    0.404675
   5 S :    1.419810
   6 C :    0.907549
   7 C :   -1.033257
   8 N :   -0.631443
   9 H :    0.469615
  10 H :    0.180974
  11 H :    0.199999
  12 H :    0.242914
  13 O :   -0.679479
  14 F :   -0.159181
  15 O :   -0.774847
  16 H :    0.336422
  17 H :    0.366907
  18 H :    0.367812
  19 H :    0.308893
Sum of atomic charges:    0.0000000

LOEWDIN ATOMIC CHARGES
----------------------
   0 C :   -0.152740
   1 C :   -0.206358
   2 C :   -0.207349
   3 H :    0.121210
   4 H :    0.107073
   5 S :    0.661479
   6 C :   -0.492055
   7 C :    0.023820
   8 N :    0.110068
   9 H :    0.027128
  10 H :    0.125994
  11 H :    0.018501
  12 H :    0.015811
  13 O :   -0.261081
  14 F :   -0.044547
  15 O :   -0.311015
  16 H :    0.108460
  17 H :    0.127894
  18 H :    0.122725
  19 H :    0.104981

  Mayer bond orders larger than 0.100000
B(  0-C ,  1-C ) :   0.5834 B(  0-C ,  6-C ) :   0.7399 B(  0-C ,  7-C ) :   0.2201
B(  0-C , 18-H ) :   1.0170 B(  0-C , 19-H ) :   0.9362 B(  1-C ,  2-C ) :   0.6461
B(  1-C , 16-H ) :   0.9641 B(  1-C , 17-H ) :   0.9124 B(  1-C , 19-H ) :  -0.1028
B(  2-C ,  3-H ) :   0.8944 B(  2-C ,  4-H ) :   0.9312 B(  2-C ,  5-S ) :   0.8501
B(  2-C ,  8-N ) :   0.1458 B(  2-C , 13-O ) :   0.1008 B(  5-S , 13-O ) :   1.5185
B(  5-S , 14-F ) :   0.9394 B(  5-S , 15-O ) :   1.4705 B(  6-C ,  7-C ) :   1.1932
B(  6-C ,  8-N ) :   0.7814 B(  6-C , 11-H ) :  -0.1007 B(  6-C , 12-H ) :  -0.1184
B(  7-C ,  8-N ) :   0.1223 B(  7-C , 11-H ) :   1.1097 B(  7-C , 12-H ) :   1.0480
B(  8-N ,  9-H ) :   0.7554 B(  8-N , 10-H ) :   1.0510

Dispersion correction           -0.000728172
FINAL SINGLE POINT ENERGY      -899.712847666747

DIPOLE MOMENT
-------------
                                X             Y             Z
Electronic contribution:      6.44337     -13.12130       7.39318
Nuclear contribution   :     -6.19944      13.70770      -6.43483
                        -----------------------------------------
Total Dipole Moment    :      0.24394       0.58640       0.95835
                        -----------------------------------------
Magnitude (a.u.)       :      1.14970
Magnitude (Debye)      :      2.92230

Rotational constants in cm-1:     0.079903     0.025241     0.022805
Rotational constants in MHz :  2395.439281   756.708181   683.680583

                             ****ORCA TERMINATED NORMALLY****
TOTAL RUN TIME: 0 days 0 hours 2 minutes 51 seconds 285 msec
