                         Program Version 5.0.0 -  RELEASE  -
|  1> !M062X D3Zero RIJCOSX def2-TZVPD def2/J TightSCF xyzfile
|  2>
|  3> *xyzfile 0 1 D4.xyz
|  4>
|  5> %MaxCore 64000
|  6>
|  7> %pal nprocs 4
|  8> end
|  9>
| 10> %scf
| 11>   MaxIter 150
| 12> end
| 13>
| 14>
| 15>                          ****END OF INPUT****

CARTESIAN COORDINATES (ANGSTROEM)
---------------------------------
  C     -0.461293    2.234686   -4.989619
  C      0.848883    2.667967   -4.302351
  C      2.093434    1.861037   -4.656845
  H      2.444814    2.041567   -5.674990
  H      2.901748    2.137864   -3.980338
  S      1.879644    0.078594   -4.462965
  C     -0.423841    2.398772   -6.474317
  N     -0.959467    3.492647   -7.007401
  C      0.145585    1.486891   -7.203987
  H      0.565371    0.696807   -6.723858
  H      0.220682    1.581768   -8.207520
  H     -1.406243    4.181507   -6.403261
  H     -0.934215    3.681601   -7.999468
  O      3.207574   -0.466111   -4.420259
  F      1.075064   -0.056160   -3.268758
  O      1.131661   -0.319960   -5.679031
  H      0.668432    2.559427   -3.232850
  H      1.034074    3.729426   -4.497081
  H     -1.288884    2.826737   -4.594997
  H     -0.651696    1.186343   -4.756552

 Total Charge           Charge          ....    0
 Multiplicity           Mult            ....    1
 Number of Electrons    NEL             ....   88
 Basis Dimension        Dim             ....  478

ORBITAL ENERGIES
----------------

  NO   OCC          E(Eh)            E(eV)
   0   2.0000     -90.154619     -2453.2319
   1   2.0000     -25.370022      -690.3534
   2   2.0000     -19.645644      -534.5852
   3   2.0000     -19.630723      -534.1791
   4   2.0000     -14.745938      -401.2574
   5   2.0000     -10.591663      -288.2138
   6   2.0000     -10.567705      -287.5619
   7   2.0000     -10.551095      -287.1099
   8   2.0000     -10.547858      -287.0218
   9   2.0000     -10.447216      -284.2832
  10   2.0000      -8.480143      -230.7564
  11   2.0000      -6.405174      -174.2937
  12   2.0000      -6.399775      -174.1467
  13   2.0000      -6.399505      -174.1394
  14   2.0000      -1.531879       -41.6846
  15   2.0000      -1.236209       -33.6390
  16   2.0000      -1.136977       -30.9387
  17   2.0000      -1.032886       -28.1063
  18   2.0000      -0.935400       -25.4535
  19   2.0000      -0.867110       -23.5953
  20   2.0000      -0.823916       -22.4199
  21   2.0000      -0.799404       -21.7529
  22   2.0000      -0.729221       -19.8431
  23   2.0000      -0.695697       -18.9309
  24   2.0000      -0.693117       -18.8607
  25   2.0000      -0.648699       -17.6520
  26   2.0000      -0.640761       -17.4360
  27   2.0000      -0.593047       -16.1376
  28   2.0000      -0.571085       -15.5400
  29   2.0000      -0.558420       -15.1954
  30   2.0000      -0.550303       -14.9745
  31   2.0000      -0.540646       -14.7117
  32   2.0000      -0.515881       -14.0378
  33   2.0000      -0.484710       -13.1896
  34   2.0000      -0.470732       -12.8093
  35   2.0000      -0.466033       -12.6814
  36   2.0000      -0.450114       -12.2482
  37   2.0000      -0.440184       -11.9780
  38   2.0000      -0.407286       -11.0828
  39   2.0000      -0.401515       -10.9258
  40   2.0000      -0.397988       -10.8298
  41   2.0000      -0.390742       -10.6326
  42   2.0000      -0.361424        -9.8348
  43   2.0000      -0.242362        -6.5950
  44   0.0000      -0.001136        -0.0309
  45   0.0000       0.016413         0.4466
  46   0.0000       0.019472         0.5299
  47   0.0000       0.025645         0.6978
  48   0.0000       0.044061         1.1990

MULLIKEN ATOMIC CHARGES
-----------------------
   0 C :   -0.898741
   1 C :   -0.521559
   2 C :   -0.788187
   3 H :    0.380639
   4 H :    0.408090
   5 S :    1.357040
   6 C :    1.065886
   7 N :   -0.620907
   8 C :   -0.996402
   9 H :    0.132888
  10 H :    0.206918
  11 H :    0.242927
  12 H :    0.223780
  13 O :   -0.693896
  14 F :   -0.159735
  15 O :   -0.695323
  16 H :    0.333788
  17 H :    0.356157
  18 H :    0.413362
  19 H :    0.253276
Sum of atomic charges:    0.0000000

LOEWDIN ATOMIC CHARGES
----------------------
   0 C :   -0.149705
   1 C :   -0.208303
   2 C :   -0.207815
   3 H :    0.119491
   4 H :    0.105608
   5 S :    0.652891
   6 C :   -0.475311
   7 N :    0.086234
   8 C :    0.035075
   9 H :   -0.034200
  10 H :    0.039239
  11 H :    0.105260
  12 H :    0.109911
  13 O :   -0.268917
  14 F :   -0.051031
  15 O :   -0.316716
  16 H :    0.107773
  17 H :    0.125000
  18 H :    0.117653
  19 H :    0.107862

  Mayer bond orders larger than 0.100000
B(  0-C ,  1-C ) :   0.5960 B(  0-C ,  6-C ) :   0.5704 B(  0-C ,  7-N ) :   0.1787
B(  0-C , 18-H ) :   0.9806 B(  0-C , 19-H ) :   0.9975 B(  1-C ,  2-C ) :   0.6757
B(  1-C , 16-H ) :   0.9583 B(  1-C , 17-H ) :   0.9078 B(  2-C ,  3-H ) :   0.9345
B(  2-C ,  4-H ) :   0.9244 B(  2-C ,  5-S ) :   0.8313 B(  2-C , 13-O ) :   0.1082
B(  2-C , 15-O ) :   0.1072 B(  5-S , 13-O ) :   1.5134 B(  5-S , 14-F ) :   0.9290
B(  5-S , 15-O ) :   1.5764 B(  6-C ,  7-N ) :   0.6330 B(  6-C ,  8-C ) :   0.9742
B(  6-C ,  9-H ) :  -0.1372 B(  6-C , 10-H ) :  -0.2324 B(  6-C , 18-H ) :  -0.1412
B(  7-N ,  8-C ) :   0.1228 B(  7-N , 11-H ) :   0.9915 B(  7-N , 12-H ) :   1.0136
B(  8-C ,  9-H ) :   1.2109 B(  8-C , 10-H ) :   1.2291 B(  9-H , 15-O ) :  -0.3591

Dispersion correction           -0.000724725
FINAL SINGLE POINT ENERGY      -899.692423539332

DIPOLE MOMENT
-------------
                                X             Y             Z
Electronic contribution:      5.55645     -11.69954       7.33784
Nuclear contribution   :     -6.09390      13.51614      -6.45360
                        -----------------------------------------
Total Dipole Moment    :     -0.53745       1.81660       0.88423
                        -----------------------------------------
Magnitude (a.u.)       :      2.09064
Magnitude (Debye)      :      5.31397

Rotational constants in cm-1:     0.081469     0.024519     0.022336
Rotational constants in MHz :  2442.393231   735.066768   669.628729

                             ****ORCA TERMINATED NORMALLY****
TOTAL RUN TIME: 0 days 0 hours 2 minutes 41 seconds 430 msec
