                         Program Version 5.0.0 -  RELEASE  -
|  1> !M062X D3Zero RIJCOSX def2-TZVPD def2/J TightSCF xyzfile
|  2>
|  3> *xyzfile 0 1 D5.xyz
|  4>
|  5> %MaxCore 64000
|  6>
|  7> %pal nprocs 4
|  8> end
|  9>
| 10> %scf
| 11>   MaxIter 150
| 12> end
| 13>
| 14>
| 15>                          ****END OF INPUT****

CARTESIAN COORDINATES (ANGSTROEM)
---------------------------------
  C     -0.461293    2.234686   -4.989619
  C      0.848883    2.667967   -4.302351
  C      2.093434    1.861037   -4.656845
  H      2.444814    2.041567   -5.674990
  H      2.901748    2.137864   -3.980338
  S      1.879644    0.078594   -4.462965
  C     -0.423841    2.398772   -6.474317
  C     -0.959467    3.492647   -7.007401
  N      0.145585    1.486891   -7.203987
  H      0.565371    0.696807   -6.723858
  H      0.220682    1.581768   -8.207520
  H     -1.406243    4.181507   -6.403261
  H     -0.934215    3.681601   -7.999468
  O      3.207574   -0.466111   -4.420259
  O      1.075064   -0.056160   -3.268758
  F      1.131661   -0.319960   -5.679031
  H      0.668432    2.559427   -3.232850
  H      1.034074    3.729426   -4.497081
  H     -1.288884    2.826737   -4.594997
  H     -0.651696    1.186343   -4.756552

 Total Charge           Charge          ....    0
 Multiplicity           Mult            ....    1
 Number of Electrons    NEL             ....   88
 Basis Dimension        Dim             ....  478

ORBITAL ENERGIES
----------------

  NO   OCC          E(Eh)            E(eV)
   0   2.0000     -90.162971     -2453.4592
   1   2.0000     -25.374722      -690.4813
   2   2.0000     -19.656179      -534.8718
   3   2.0000     -19.652523      -534.7723
   4   2.0000     -14.753353      -401.4592
   5   2.0000     -10.599287      -288.4213
   6   2.0000     -10.567862      -287.5661
   7   2.0000     -10.565124      -287.4916
   8   2.0000     -10.551292      -287.1152
   9   2.0000     -10.478008      -285.1211
  10   2.0000      -8.488767      -230.9911
  11   2.0000      -6.413963      -174.5328
  12   2.0000      -6.408484      -174.3837
  13   2.0000      -6.407773      -174.3644
  14   2.0000      -1.529215       -41.6121
  15   2.0000      -1.254761       -34.1438
  16   2.0000      -1.159739       -31.5581
  17   2.0000      -1.057270       -28.7698
  18   2.0000      -0.937839       -25.5199
  19   2.0000      -0.870212       -23.6797
  20   2.0000      -0.847304       -23.0563
  21   2.0000      -0.794621       -21.6227
  22   2.0000      -0.748497       -20.3676
  23   2.0000      -0.698534       -19.0081
  24   2.0000      -0.695089       -18.9143
  25   2.0000      -0.660834       -17.9822
  26   2.0000      -0.641017       -17.4430
  27   2.0000      -0.614400       -16.7187
  28   2.0000      -0.581522       -15.8240
  29   2.0000      -0.560842       -15.2613
  30   2.0000      -0.554079       -15.0773
  31   2.0000      -0.549767       -14.9599
  32   2.0000      -0.520267       -14.1572
  33   2.0000      -0.497758       -13.5447
  34   2.0000      -0.476693       -12.9715
  35   2.0000      -0.466540       -12.6952
  36   2.0000      -0.458711       -12.4822
  37   2.0000      -0.445894       -12.1334
  38   2.0000      -0.426910       -11.6168
  39   2.0000      -0.420162       -11.4332
  40   2.0000      -0.409104       -11.1323
  41   2.0000      -0.404702       -11.0125
  42   2.0000      -0.397569       -10.8184
  43   2.0000      -0.251661        -6.8480
  44   0.0000       0.001539         0.0419
  45   0.0000       0.014076         0.3830
  46   0.0000       0.018571         0.5053
  47   0.0000       0.023519         0.6400
  48   0.0000       0.046321         1.2605

MULLIKEN ATOMIC CHARGES
-----------------------
   0 C :   -1.102579
   1 C :   -0.414458
   2 C :   -0.870237
   3 H :    0.405149
   4 H :    0.422737
   5 S :    1.350598
   6 C :    0.969326
   7 C :   -1.034800
   8 N :   -0.652289
   9 H :    0.473029
  10 H :    0.178117
  11 H :    0.205795
  12 H :    0.238849
  13 O :   -0.682040
  14 O :   -0.655125
  15 F :   -0.248399
  16 H :    0.358183
  17 H :    0.384064
  18 H :    0.372046
  19 H :    0.302032
Sum of atomic charges:    0.0000000

LOEWDIN ATOMIC CHARGES
----------------------
   0 C :   -0.148885
   1 C :   -0.203085
   2 C :   -0.214243
   3 H :    0.110049
   4 H :    0.114522
   5 S :    0.634891
   6 C :   -0.490372
   7 C :    0.033024
   8 N :    0.111583
   9 H :    0.056839
  10 H :    0.128810
  11 H :    0.023549
  12 H :    0.018154
  13 O :   -0.266230
  14 O :   -0.265940
  15 F :   -0.114468
  16 H :    0.113095
  17 H :    0.127237
  18 H :    0.125201
  19 H :    0.106271

  Mayer bond orders larger than 0.100000
B(  0-C ,  1-C ) :   0.6145 B(  0-C ,  5-S ) :   0.1160 B(  0-C ,  6-C ) :   0.6802
B(  0-C ,  7-C ) :   0.2134 B(  0-C , 18-H ) :   0.9889 B(  0-C , 19-H ) :   0.9778
B(  1-C ,  2-C ) :   0.6224 B(  1-C , 16-H ) :   0.9473 B(  1-C , 17-H ) :   0.9230
B(  1-C , 19-H ) :  -0.1014 B(  2-C ,  3-H ) :   0.8866 B(  2-C ,  4-H ) :   0.8681
B(  2-C ,  5-S ) :   0.8556 B(  2-C ,  8-N ) :   0.1420 B(  2-C , 13-O ) :   0.1034
B(  5-S , 13-O ) :   1.5128 B(  5-S , 14-O ) :   1.6514 B(  5-S , 15-F ) :   0.8648
B(  6-C ,  7-C ) :   1.1426 B(  6-C ,  8-N ) :   0.7355 B(  6-C , 12-H ) :  -0.1300
B(  7-C ,  8-N ) :   0.1131 B(  7-C , 11-H ) :   1.1010 B(  7-C , 12-H ) :   1.0617
B(  8-N ,  9-H ) :   0.7824 B(  8-N , 10-H ) :   1.0623

Dispersion correction           -0.000725959
FINAL SINGLE POINT ENERGY      -899.716529626135

DIPOLE MOMENT
-------------
                                X             Y             Z
Electronic contribution:      6.39077     -13.38041       3.14689
Nuclear contribution   :     -6.26130      13.99605      -3.80018
                        -----------------------------------------
Total Dipole Moment    :      0.12947       0.61564      -0.65329
                        -----------------------------------------
Magnitude (a.u.)       :      0.90695
Magnitude (Debye)      :      2.30528

Rotational constants in cm-1:     0.079895     0.025630     0.022948
Rotational constants in MHz :  2395.188639   768.373696   687.955250

                             ****ORCA TERMINATED NORMALLY****
TOTAL RUN TIME: 0 days 0 hours 2 minutes 28 seconds 241 msec
