                         Program Version 5.0.0 -  RELEASE  -
|  1> !M062X D3Zero RIJCOSX def2-TZVPD def2/J TightSCF xyzfile
|  2>
|  3> *xyzfile 0 1 D6.xyz
|  4>
|  5> %MaxCore 64000
|  6>
|  7> %pal nprocs 4
|  8> end
|  9>
| 10> %scf
| 11>   MaxIter 150
| 12> end
| 13>
| 14>
| 15>                          ****END OF INPUT****

CARTESIAN COORDINATES (ANGSTROEM)
---------------------------------
  C     -0.461293    2.234686   -4.989619
  C      0.848883    2.667967   -4.302351
  C      2.093434    1.861037   -4.656845
  H      2.444814    2.041567   -5.674990
  H      2.901748    2.137864   -3.980338
  S      1.879644    0.078594   -4.462965
  C     -0.423841    2.398772   -6.474317
  N     -0.959467    3.492647   -7.007401
  C      0.145585    1.486891   -7.203987
  H      0.565371    0.696807   -6.723858
  H      0.220682    1.581768   -8.207520
  H     -1.406243    4.181507   -6.403261
  H     -0.934215    3.681601   -7.999468
  O      3.207574   -0.466111   -4.420259
  O      1.075064   -0.056160   -3.268758
  F      1.131661   -0.319960   -5.679031
  H      0.668432    2.559427   -3.232850
  H      1.034074    3.729426   -4.497081
  H     -1.288884    2.826737   -4.594997
  H     -0.651696    1.186343   -4.756552

 Total Charge           Charge          ....    0
 Multiplicity           Mult            ....    1
 Number of Electrons    NEL             ....   88
 Basis Dimension        Dim             ....  478

ORBITAL ENERGIES
----------------

  NO   OCC          E(Eh)            E(eV)
   0   2.0000     -90.150265     -2453.1134
   1   2.0000     -25.349562      -689.7967
   2   2.0000     -19.643506      -534.5270
   3   2.0000     -19.640852      -534.4548
   4   2.0000     -14.758613      -401.6023
   5   2.0000     -10.589273      -288.1488
   6   2.0000     -10.567115      -287.5458
   7   2.0000     -10.563651      -287.4516
   8   2.0000     -10.551637      -287.1246
   9   2.0000     -10.470339      -284.9124
  10   2.0000      -8.475758      -230.6371
  11   2.0000      -6.400753      -174.1733
  12   2.0000      -6.395723      -174.0365
  13   2.0000      -6.394928      -174.0148
  14   2.0000      -1.505393       -40.9638
  15   2.0000      -1.242039       -33.7976
  16   2.0000      -1.148016       -31.2391
  17   2.0000      -1.045485       -28.4491
  18   2.0000      -0.933203       -25.3937
  19   2.0000      -0.871152       -23.7053
  20   2.0000      -0.821526       -22.3549
  21   2.0000      -0.809388       -22.0246
  22   2.0000      -0.727720       -19.8023
  23   2.0000      -0.692377       -18.8405
  24   2.0000      -0.672241       -18.2926
  25   2.0000      -0.645975       -17.5779
  26   2.0000      -0.634477       -17.2650
  27   2.0000      -0.609490       -16.5851
  28   2.0000      -0.576364       -15.6837
  29   2.0000      -0.563547       -15.3349
  30   2.0000      -0.543633       -14.7930
  31   2.0000      -0.538341       -14.6490
  32   2.0000      -0.522884       -14.2284
  33   2.0000      -0.485475       -13.2105
  34   2.0000      -0.472755       -12.8643
  35   2.0000      -0.463276       -12.6064
  36   2.0000      -0.450198       -12.2505
  37   2.0000      -0.443095       -12.0572
  38   2.0000      -0.419506       -11.4153
  39   2.0000      -0.409083       -11.1317
  40   2.0000      -0.402824       -10.9614
  41   2.0000      -0.398007       -10.8303
  42   2.0000      -0.392655       -10.6847
  43   2.0000      -0.258953        -7.0465
  44   0.0000       0.004037         0.1099
  45   0.0000       0.018951         0.5157
  46   0.0000       0.021040         0.5725
  47   0.0000       0.023558         0.6410
  48   0.0000       0.044784         1.2186

MULLIKEN ATOMIC CHARGES
-----------------------
   0 C :   -0.969556
   1 C :   -0.472338
   2 C :   -0.844766
   3 H :    0.394175
   4 H :    0.426592
   5 S :    1.323478
   6 C :    1.113334
   7 N :   -0.612158
   8 C :   -1.088458
   9 H :    0.179264
  10 H :    0.225528
  11 H :    0.248746
  12 H :    0.224714
  13 O :   -0.695765
  14 O :   -0.660444
  15 F :   -0.192452
  16 H :    0.359846
  17 H :    0.368399
  18 H :    0.417441
  19 H :    0.254420
Sum of atomic charges:    0.0000000

LOEWDIN ATOMIC CHARGES
----------------------
   0 C :   -0.145396
   1 C :   -0.204575
   2 C :   -0.214046
   3 H :    0.108926
   4 H :    0.113179
   5 S :    0.633717
   6 C :   -0.472275
   7 N :    0.096128
   8 C :    0.032958
   9 H :   -0.009865
  10 H :    0.039277
  11 H :    0.109862
  12 H :    0.112210
  13 O :   -0.270976
  14 O :   -0.272396
  15 F :   -0.123121
  16 H :    0.112570
  17 H :    0.124328
  18 H :    0.120255
  19 H :    0.109241

  Mayer bond orders larger than 0.100000
B(  0-C ,  1-C ) :   0.6484 B(  0-C ,  5-S ) :   0.1217 B(  0-C ,  6-C ) :   0.4952
B(  0-C ,  7-N ) :   0.1737 B(  0-C , 18-H ) :   0.9556 B(  0-C , 19-H ) :   1.0411
B(  1-C ,  2-C ) :   0.6721 B(  1-C , 16-H ) :   0.9423 B(  1-C , 17-H ) :   0.9159
B(  2-C ,  3-H ) :   0.9286 B(  2-C ,  4-H ) :   0.8673 B(  2-C ,  5-S ) :   0.8506
B(  2-C , 13-O ) :   0.1109 B(  5-S , 13-O ) :   1.5022 B(  5-S , 14-O ) :   1.6406
B(  5-S , 15-F ) :   0.9227 B(  6-C ,  7-N ) :   0.6466 B(  6-C ,  8-C ) :   1.0307
B(  6-C ,  9-H ) :  -0.1389 B(  6-C , 10-H ) :  -0.1925 B(  6-C , 18-H ) :  -0.1384
B(  7-N ,  8-C ) :   0.1199 B(  7-N , 11-H ) :   0.9844 B(  7-N , 12-H ) :   1.0122
B(  8-C ,  9-H ) :   1.1123 B(  8-C , 10-H ) :   1.1779 B(  8-C , 15-F ) :   0.1191
B(  9-H , 15-F ) :  -0.2613

Dispersion correction           -0.000721408
FINAL SINGLE POINT ENERGY      -899.709292908259

DIPOLE MOMENT
-------------
                                X             Y             Z
Electronic contribution:      5.54021     -11.97390       3.16080
Nuclear contribution   :     -6.15577      13.80449      -3.81895
                        -----------------------------------------
Total Dipole Moment    :     -0.61555       1.83059      -0.65816
                        -----------------------------------------
Magnitude (a.u.)       :      2.04038
Magnitude (Debye)      :      5.18623

Rotational constants in cm-1:     0.081431     0.024887     0.022470
Rotational constants in MHz :  2441.231544   746.086417   673.646914

                             ****ORCA TERMINATED NORMALLY****
TOTAL RUN TIME: 0 days 0 hours 2 minutes 40 seconds 714 msec
