                         Program Version 5.0.0 -  RELEASE  -
|  1> !TPSS D3BJ RIJCOSX def2-TZVP def2/J TightSCF
|  2> *xyz -1 1
|  3> C          0.61188        1.65763       -4.50029
|  4> C          1.69499        1.54179       -5.57045
|  5> H          2.69733        1.73466       -5.18400
|  6> H          1.50666        2.27224       -6.35808
|  7> S          1.78029       -0.03313       -6.42874
|  8> O          2.56929        0.21366       -7.60736
|  9> O          0.41688       -0.46297       -6.61859
| 10> O          2.50513       -0.93326       -5.48257
| 11> H         -0.34424        1.45871       -4.93752
| 12> H          0.61845        2.64655       -4.09174
| 13> H          0.80247        0.94882       -3.72173
| 14> *
| 15> %MaxCore 64000
| 16>
| 17> %pal nprocs 4
| 18> end
| 19>
| 20> %scf
| 21>   MaxIter 150
| 22> end
| 23>
| 24>
| 25>                          ****END OF INPUT****

CARTESIAN COORDINATES (ANGSTROEM)
---------------------------------
  C      0.611880    1.657630   -4.500290
  C      1.694990    1.541790   -5.570450
  H      2.697330    1.734660   -5.184000
  H      1.506660    2.272240   -6.358080
  S      1.780290   -0.033130   -6.428740
  O      2.569290    0.213660   -7.607360
  O      0.416880   -0.462970   -6.618590
  O      2.505130   -0.933260   -5.482570
  H     -0.344240    1.458710   -4.937520
  H      0.618450    2.646550   -4.091740
  H      0.802470    0.948820   -3.721730

 Total Charge           Charge          ....   -1
 Multiplicity           Mult            ....    1
 Number of Electrons    NEL             ....   58
 Basis Dimension        Dim             ....  222

ORBITAL ENERGIES
----------------

  NO   OCC          E(Eh)            E(eV)
   0   2.0000     -88.317020     -2403.2283
   1   2.0000     -18.654758      -507.6218
   2   2.0000     -18.653875      -507.5977
   3   2.0000     -18.634845      -507.0799
   4   2.0000      -9.837904      -267.7030
   5   2.0000      -9.836437      -267.6631
   6   2.0000      -7.665738      -208.5953
   7   2.0000      -5.645231      -153.6145
   8   2.0000      -5.644455      -153.5934
   9   2.0000      -5.644192      -153.5863
  10   2.0000      -0.839520       -22.8445
  11   2.0000      -0.720763       -19.6130
  12   2.0000      -0.687928       -18.7195
  13   2.0000      -0.569953       -15.5092
  14   2.0000      -0.450518       -12.2592
  15   2.0000      -0.324161        -8.8209
  16   2.0000      -0.270776        -7.3682
  17   2.0000      -0.260381        -7.0853
  18   2.0000      -0.223104        -6.0710
  19   2.0000      -0.206089        -5.6080
  20   2.0000      -0.203036        -5.5249
  21   2.0000      -0.181855        -4.9485
  22   2.0000      -0.170466        -4.6386
  23   2.0000      -0.096930        -2.6376
  24   2.0000      -0.096456        -2.6247
  25   2.0000      -0.066937        -1.8215
  26   2.0000      -0.062392        -1.6978
  27   2.0000      -0.043530        -1.1845
  28   2.0000      -0.010632        -0.2893
  29   0.0000       0.165227         4.4961
  30   0.0000       0.208559         5.6752
  31   0.0000       0.221564         6.0291
  32   0.0000       0.227441         6.1890
  33   0.0000       0.251285         6.8378

MULLIKEN ATOMIC CHARGES
-----------------------
   0 C :   -0.310787
   1 C :   -0.209192
   2 H :    0.072794
   3 H :    0.062075
   4 S :    0.751110
   5 O :   -0.522353
   6 O :   -0.526384
   7 O :   -0.584058
   8 H :    0.109683
   9 H :    0.059742
  10 H :    0.097372
Sum of atomic charges:   -1.0000000

LOEWDIN ATOMIC CHARGES
----------------------
   0 C :   -0.337330
   1 C :   -0.432126
   2 H :    0.114896
   3 H :    0.112337
   4 S :    0.371513
   5 O :   -0.357738
   6 O :   -0.357383
   7 O :   -0.430506
   8 H :    0.111120
   9 H :    0.095396
  10 H :    0.109822

  Mayer bond orders larger than 0.100000
B(  0-C ,  1-C ) :   0.9943 B(  0-C ,  8-H ) :   0.9671 B(  0-C ,  9-H ) :   0.9553
B(  0-C , 10-H ) :   0.9693 B(  1-C ,  2-H ) :   0.9522 B(  1-C ,  3-H ) :   0.9422
B(  1-C ,  4-S ) :   0.8677 B(  4-S ,  5-O ) :   1.8297 B(  4-S ,  6-O ) :   1.7812
B(  4-S ,  7-O ) :   1.7533

Dispersion correction           -0.012084866
FINAL SINGLE POINT ENERGY      -703.370764824913

DIPOLE MOMENT
-------------
                                X             Y             Z
Electronic contribution:      2.26759      -5.76284      -5.07904
Nuclear contribution   :     -2.69163       7.29476       5.86550
                        -----------------------------------------
Total Dipole Moment    :     -0.42404       1.53192       0.78646
                        -----------------------------------------
Magnitude (a.u.)       :      1.77345
Magnitude (Debye)      :      4.50774

Rotational constants in cm-1:     0.163060     0.082831     0.081111
Rotational constants in MHz :  4888.419330  2483.225008  2431.646841

                             ****ORCA TERMINATED NORMALLY****
TOTAL RUN TIME: 0 days 0 hours 0 minutes 10 seconds 387 msec
