                         Program Version 5.0.0 -  RELEASE  -
|  1> !TPSS D3BJ RIJCOSX def2-TZVP def2/J TightSCF
|  2> *xyz 1 1
|  3> C          1.96337       -1.74915       -1.89689
|  4> N          2.73849       -2.01517       -3.09711
|  5> C          4.04974       -2.15472       -3.15204
|  6> N          4.65821       -1.98629       -4.31866
|  7> N          4.76423       -2.45444       -2.05049
|  8> H          4.28736       -2.77626       -1.21750
|  9> H          5.75082       -2.65835       -2.12599
| 10> H          2.34518       -1.69027       -3.97145
| 11> H          4.10900       -1.59268       -5.07176
| 12> H          5.64910       -2.15646       -4.42724
| 13> C          2.08852       -0.30091       -1.41520
| 14> H          2.23127       -2.45162       -1.10264
| 15> H          0.93025       -1.97780       -2.15544
| 16> H          1.82118        0.36368       -2.21003
| 17> H          3.09792       -0.11068       -1.11551
| 18> H          1.43391       -0.14382       -0.58352
| 19> *
| 20> %MaxCore 64000
| 21>
| 22> %pal nprocs 4
| 23> end
| 24>
| 25> %scf
| 26>   MaxIter 150
| 27> end
| 28>
| 29>
| 30>                          ****END OF INPUT****

CARTESIAN COORDINATES (ANGSTROEM)
---------------------------------
  C      1.963370   -1.749150   -1.896890
  N      2.738490   -2.015170   -3.097110
  C      4.049740   -2.154720   -3.152040
  N      4.658210   -1.986290   -4.318660
  N      4.764230   -2.454440   -2.050490
  H      4.287360   -2.776260   -1.217500
  H      5.750820   -2.658350   -2.125990
  H      2.345180   -1.690270   -3.971450
  H      4.109000   -1.592680   -5.071760
  H      5.649100   -2.156460   -4.427240
  C      2.088520   -0.300910   -1.415200
  H      2.231270   -2.451620   -1.102640
  H      0.930250   -1.977800   -2.155440
  H      1.821180    0.363680   -2.210030
  H      3.097920   -0.110680   -1.115510
  H      1.433910   -0.143820   -0.583520

 Total Charge           Charge          ....    1
 Multiplicity           Mult            ....    1
 Number of Electrons    NEL             ....   48
 Basis Dimension        Dim             ....  246

ORBITAL ENERGIES
----------------

  NO   OCC          E(Eh)            E(eV)
   0   2.0000     -14.324374      -389.7860
   1   2.0000     -14.322129      -389.7249
   2   2.0000     -14.322010      -389.7217
   3   2.0000     -10.306726      -280.4603
   4   2.0000     -10.192365      -277.3484
   5   2.0000     -10.121404      -275.4174
   6   2.0000      -1.148554       -31.2537
   7   2.0000      -1.043655       -28.3993
   8   2.0000      -1.032454       -28.0945
   9   2.0000      -0.874653       -23.8005
  10   2.0000      -0.791315       -21.5328
  11   2.0000      -0.755390       -20.5552
  12   2.0000      -0.734509       -19.9870
  13   2.0000      -0.699384       -19.0312
  14   2.0000      -0.649180       -17.6651
  15   2.0000      -0.643559       -17.5121
  16   2.0000      -0.611606       -16.6426
  17   2.0000      -0.582564       -15.8524
  18   2.0000      -0.560912       -15.2632
  19   2.0000      -0.522884       -14.2284
  20   2.0000      -0.495292       -13.4776
  21   2.0000      -0.477771       -13.0008
  22   2.0000      -0.437698       -11.9104
  23   2.0000      -0.413192       -11.2435
  24   0.0000      -0.191171        -5.2020
  25   0.0000      -0.169052        -4.6001
  26   0.0000      -0.135230        -3.6798
  27   0.0000      -0.124736        -3.3942
  28   0.0000      -0.103127        -2.8062

MULLIKEN ATOMIC CHARGES
-----------------------
   0 C :   -0.158010
   1 N :   -0.225284
   2 C :    0.391233
   3 N :   -0.383221
   4 N :   -0.404406
   5 H :    0.286018
   6 H :    0.280450
   7 H :    0.241625
   8 H :    0.280003
   9 H :    0.289563
  10 C :   -0.308558
  11 H :    0.127101
  12 H :    0.163152
  13 H :    0.128254
  14 H :    0.130710
  15 H :    0.161373
Sum of atomic charges:    1.0000000

LOEWDIN ATOMIC CHARGES
----------------------
   0 C :   -0.278135
   1 N :    0.175035
   2 C :   -0.420421
   3 N :    0.075810
   4 N :    0.066070
   5 H :    0.194496
   6 H :    0.194303
   7 H :    0.208665
   8 H :    0.197282
   9 H :    0.197681
  10 C :   -0.274475
  11 H :    0.136791
  12 H :    0.149550
  13 H :    0.122721
  14 H :    0.120243
  15 H :    0.134386

  Mayer bond orders larger than 0.100000
B(  0-C ,  1-N ) :   0.9197 B(  0-C , 10-C ) :   1.0203 B(  0-C , 11-H ) :   0.9524
B(  0-C , 12-H ) :   0.9430 B(  1-N ,  2-C ) :   1.3929 B(  1-N ,  7-H ) :   0.8970
B(  2-C ,  3-N ) :   1.3552 B(  2-C ,  4-N ) :   1.3388 B(  3-N ,  8-H ) :   0.8909
B(  3-N ,  9-H ) :   0.8866 B(  4-N ,  5-H ) :   0.8828 B(  4-N ,  6-H ) :   0.8922
B( 10-C , 13-H ) :   0.9609 B( 10-C , 14-H ) :   0.9598 B( 10-C , 15-H ) :   0.9557

Dispersion correction           -0.015271191
FINAL SINGLE POINT ENERGY      -284.557884251100

DIPOLE MOMENT
-------------
                                X             Y             Z
Electronic contribution:      3.02121      -2.70608      -3.09626
Nuclear contribution   :     -2.17768       2.37118       2.44574
                        -----------------------------------------
Total Dipole Moment    :      0.84352      -0.33490      -0.65052
                        -----------------------------------------
Magnitude (a.u.)       :      1.11663
Magnitude (Debye)      :      2.83826

Rotational constants in cm-1:     0.215650     0.075183     0.066454
Rotational constants in MHz :  6465.033740  2253.919004  1992.232519

                             ****ORCA TERMINATED NORMALLY****
TOTAL RUN TIME: 0 days 0 hours 0 minutes 13 seconds 424 msec
