                         Program Version 5.0.0 -  RELEASE  -
|  1> !TPSS D3BJ RIJCOSX def2-TZVP def2/J TightSCF xyzfile
|  2>
|  3> *xyzfile 0 1 B.xyz
|  4>
|  5> %MaxCore 64000
|  6>
|  7> %pal nprocs 18
|  8> end
|  9>
| 10> %scf
| 11>   MaxIter 150
| 12> end
| 13>
| 14>
| 15>                          ****END OF INPUT****

CARTESIAN COORDINATES (ANGSTROEM)
---------------------------------
  C      1.963365   -1.749150   -1.896887
  N      2.738490   -2.015170   -3.097113
  C      0.611877    1.657634   -4.500288
  C      1.694991    1.541794   -5.570447
  H      2.697326    1.734659   -5.183996
  H      1.506656    2.272239   -6.358076
  S      1.780287   -0.033128   -6.428739
  C      4.049736   -2.154717   -3.152044
  N      4.658206   -1.986293   -4.318655
  N      4.764231   -2.454435   -2.050491
  H      4.287363   -2.776259   -1.217496
  H      5.750825   -2.658351   -2.125988
  H      2.345176   -1.690274   -3.971447
  H      4.109004   -1.592677   -5.071760
  H      5.649095   -2.156462   -4.427237
  O      2.569287    0.213657   -7.607360
  O      0.416880   -0.462969   -6.618595
  C      2.088520   -0.300912   -1.415204
  H      2.231272   -2.451616   -1.102643
  H      0.930249   -1.977801   -2.155438
  C      0.680356    0.655418   -3.348038
  H     -0.356865    1.549231   -4.991128
  H      0.650228    2.675438   -4.096000
  C      1.968993    0.733582   -2.535654
  H      3.051356   -0.168602   -0.911868
  H      1.316501   -0.136231   -0.657252
  O      2.505129   -0.933263   -5.482570
  H      2.824195    0.624726   -3.208464
  H      2.058919    1.730331   -2.093112
  H      0.542252   -0.344731   -3.766662
  H     -0.174219    0.829692   -2.685182

 Total Charge           Charge          ....    0
 Multiplicity           Mult            ....    1
 Number of Electrons    NEL             ....  120
 Basis Dimension        Dim             ....  542

ORBITAL ENERGIES
----------------

  NO   OCC          E(Eh)            E(eV)
   0   2.0000     -88.469992     -2407.3909
   1   2.0000     -18.820053      -512.1197
   2   2.0000     -18.798295      -511.5276
   3   2.0000     -18.796784      -511.4865
   4   2.0000     -14.185690      -386.0122
   5   2.0000     -14.157429      -385.2432
   6   2.0000     -14.152231      -385.1018
   7   2.0000     -10.153661      -276.2952
   8   2.0000     -10.056615      -273.6544
   9   2.0000     -10.006813      -272.2992
  10   2.0000      -9.987348      -271.7696
  11   2.0000      -9.975258      -271.4406
  12   2.0000      -9.970593      -271.3136
  13   2.0000      -9.969338      -271.2795
  14   2.0000      -7.819032      -212.7667
  15   2.0000      -5.799239      -157.8053
  16   2.0000      -5.797613      -157.7611
  17   2.0000      -5.796805      -157.7391
  18   2.0000      -0.996822       -27.1249
  19   2.0000      -0.992004       -26.9938
  20   2.0000      -0.894068       -24.3288
  21   2.0000      -0.880474       -23.9589
  22   2.0000      -0.864106       -23.5135
  23   2.0000      -0.863132       -23.4870
  24   2.0000      -0.762318       -20.7437
  25   2.0000      -0.723727       -19.6936
  26   2.0000      -0.678762       -18.4701
  27   2.0000      -0.642966       -17.4960
  28   2.0000      -0.617542       -16.8042
  29   2.0000      -0.585221       -15.9247
  30   2.0000      -0.577897       -15.7254
  31   2.0000      -0.546748       -14.8778
  32   2.0000      -0.525270       -14.2933
  33   2.0000      -0.506522       -13.7832
  34   2.0000      -0.496610       -13.5135
  35   2.0000      -0.472984       -12.8706
  36   2.0000      -0.456277       -12.4159
  37   2.0000      -0.437487       -11.9046
  38   2.0000      -0.433043       -11.7837
  39   2.0000      -0.424106       -11.5405
  40   2.0000      -0.408095       -11.1048
  41   2.0000      -0.393239       -10.7006
  42   2.0000      -0.380257       -10.3473
  43   2.0000      -0.373548       -10.1648
  44   2.0000      -0.354656        -9.6507
  45   2.0000      -0.347986        -9.4692
  46   2.0000      -0.338001        -9.1975
  47   2.0000      -0.330094        -8.9823
  48   2.0000      -0.324656        -8.8343
  49   2.0000      -0.298032        -8.1099
  50   2.0000      -0.294656        -8.0180
  51   2.0000      -0.289972        -7.8905
  52   2.0000      -0.277551        -7.5526
  53   2.0000      -0.260505        -7.0887
  54   2.0000      -0.256990        -6.9930
  55   2.0000      -0.248896        -6.7728
  56   2.0000      -0.218359        -5.9419
  57   2.0000      -0.207383        -5.6432
  58   2.0000      -0.204043        -5.5523
  59   2.0000      -0.174124        -4.7381
  60   0.0000      -0.042434        -1.1547
  61   0.0000      -0.039209        -1.0669
  62   0.0000      -0.007076        -0.1925
  63   0.0000       0.026035         0.7084
  64   0.0000       0.030941         0.8420

MULLIKEN ATOMIC CHARGES
-----------------------
   0 C :   -0.231017
   1 N :   -0.196464
   2 C :   -0.093511
   3 C :   -0.271957
   4 H :    0.098994
   5 H :    0.120985
   6 S :    0.797123
   7 C :    0.358366
   8 N :   -0.383316
   9 N :   -0.443175
  10 H :    0.265651
  11 H :    0.254539
  12 H :    0.291006
  13 H :    0.308021
  14 H :    0.241574
  15 O :   -0.483631
  16 O :   -0.472520
  17 C :   -0.067825
  18 H :    0.105350
  19 H :    0.158809
  20 C :   -0.238107
  21 H :    0.109451
  22 H :    0.069633
  23 C :   -0.242872
  24 H :    0.087641
  25 H :    0.093634
  26 O :   -0.645231
  27 H :    0.114743
  28 H :    0.090341
  29 H :    0.126100
  30 H :    0.077666
Sum of atomic charges:    0.0000000

LOEWDIN ATOMIC CHARGES
----------------------
   0 C :   -0.273826
   1 N :    0.181662
   2 C :   -0.282442
   3 C :   -0.389863
   4 H :    0.121595
   5 H :    0.134442
   6 S :    0.417869
   7 C :   -0.432785
   8 N :    0.066602
   9 N :    0.027727
  10 H :    0.181785
  11 H :    0.179433
  12 H :    0.181214
  13 H :    0.175353
  14 H :    0.176274
  15 O :   -0.312098
  16 O :   -0.309779
  17 C :   -0.262747
  18 H :    0.124210
  19 H :    0.145668
  20 C :   -0.268892
  21 H :    0.143157
  22 H :    0.131997
  23 C :   -0.266143
  24 H :    0.131349
  25 H :    0.139337
  26 O :   -0.401525
  27 H :    0.136619
  28 H :    0.136076
  29 H :    0.135569
  30 H :    0.132163

  Mayer bond orders larger than 0.100000
B(  0-C ,  1-N ) :   0.9553 B(  0-C , 17-C ) :   0.9832 B(  0-C , 18-H ) :   0.9599
B(  0-C , 19-H ) :   0.9532 B(  1-N ,  7-C ) :   1.4350 B(  1-N , 12-H ) :   0.7978
B(  2-C ,  3-C ) :   1.0001 B(  2-C , 20-C ) :   1.0342 B(  2-C , 21-H ) :   0.9345
B(  2-C , 22-H ) :   0.9302 B(  3-C ,  4-H ) :   0.9506 B(  3-C ,  5-H ) :   0.9395
B(  3-C ,  6-S ) :   0.8941 B(  6-S , 15-O ) :   1.8943 B(  6-S , 16-O ) :   1.8435
B(  6-S , 26-O ) :   1.4075 B(  7-C ,  8-N ) :   1.4024 B(  7-C ,  9-N ) :   1.2567
B(  8-N , 13-H ) :   0.7973 B(  8-N , 14-H ) :   0.9078 B(  9-N , 10-H ) :   0.8929
B(  9-N , 11-H ) :   0.9061 B( 12-H , 26-O ) :   0.1249 B( 13-H , 26-O ) :   0.1217
B( 17-C , 23-C ) :   1.0172 B( 17-C , 24-H ) :   0.9445 B( 17-C , 25-H ) :   0.9437
B( 20-C , 23-C ) :   1.0339 B( 20-C , 29-H ) :   0.9359 B( 20-C , 30-H ) :   0.9412
B( 23-C , 27-H ) :   0.9508 B( 23-C , 28-H ) :   0.9442

Dispersion correction           -0.047080020
FINAL SINGLE POINT ENERGY     -1065.564309819796

DIPOLE MOMENT
-------------
                                X             Y             Z
Electronic contribution:      2.26179      -5.02742     -14.36558
Nuclear contribution   :      0.44641       3.59123      19.13564
                        -----------------------------------------
Total Dipole Moment    :      2.70820      -1.43618       4.77006
                        -----------------------------------------
Magnitude (a.u.)       :      5.67014
Magnitude (Debye)      :     14.41234

Rotational constants in cm-1:     0.029186     0.014646     0.011115
Rotational constants in MHz :   874.975540   439.070287   333.231642

                             ****ORCA TERMINATED NORMALLY****
TOTAL RUN TIME: 0 days 0 hours 0 minutes 27 seconds 98 msec
