                         Program Version 5.0.0 -  RELEASE  -
|  1> !TPSS D3BJ RIJCOSX def2-TZVP def2/J TightSCF
|  2> *xyz 0 1
|  3> C          0.61188        1.65763       -4.50029
|  4> C          1.69499        1.54179       -5.57045
|  5> H          2.69733        1.73466       -5.18400
|  6> H          1.50666        2.27224       -6.35808
|  7> S          1.78029       -0.03313       -6.42874
|  8> F          2.56929        0.21366       -7.60736
|  9> O          0.41688       -0.46297       -6.61859
| 10> O          2.50513       -0.93326       -5.48257
| 11> H         -0.34424        1.45871       -4.93752
| 12> H          0.61845        2.64655       -4.09174
| 13> H          0.80247        0.94882       -3.72173
| 14> *
| 15> %MaxCore 64000
| 16>
| 17> %pal nprocs 4
| 18> end
| 19>
| 20> %scf
| 21>   MaxIter 150
| 22> end
| 23>
| 24>
| 25>                          ****END OF INPUT****

CARTESIAN COORDINATES (ANGSTROEM)
---------------------------------
  C      0.611880    1.657630   -4.500290
  C      1.694990    1.541790   -5.570450
  H      2.697330    1.734660   -5.184000
  H      1.506660    2.272240   -6.358080
  S      1.780290   -0.033130   -6.428740
  F      2.569290    0.213660   -7.607360
  O      0.416880   -0.462970   -6.618590
  O      2.505130   -0.933260   -5.482570
  H     -0.344240    1.458710   -4.937520
  H      0.618450    2.646550   -4.091740
  H      0.802470    0.948820   -3.721730

 Total Charge           Charge          ....    0
 Multiplicity           Mult            ....    1
 Number of Electrons    NEL             ....   58
 Basis Dimension        Dim             ....  222

ORBITAL ENERGIES
----------------

  NO   OCC          E(Eh)            E(eV)
   0   2.0000     -88.581433     -2410.4233
   1   2.0000     -24.525355      -667.3688
   2   2.0000     -18.893937      -514.1302
   3   2.0000     -18.874964      -513.6139
   4   2.0000     -10.043189      -273.2891
   5   2.0000     -10.003237      -272.2019
   6   2.0000      -7.930968      -215.8126
   7   2.0000      -5.914177      -160.9329
   8   2.0000      -5.907428      -160.7493
   9   2.0000      -5.907137      -160.7414
  10   2.0000      -1.300749       -35.3952
  11   2.0000      -1.026742       -27.9391
  12   2.0000      -0.927988       -25.2518
  13   2.0000      -0.762552       -20.7501
  14   2.0000      -0.677675       -18.4405
  15   2.0000      -0.620865       -16.8946
  16   2.0000      -0.530055       -14.4235
  17   2.0000      -0.525545       -14.3008
  18   2.0000      -0.502242       -13.6667
  19   2.0000      -0.450495       -12.2586
  20   2.0000      -0.432434       -11.7671
  21   2.0000      -0.392974       -10.6934
  22   2.0000      -0.387223       -10.5369
  23   2.0000      -0.369038       -10.0420
  24   2.0000      -0.352307        -9.5868
  25   2.0000      -0.336176        -9.1478
  26   2.0000      -0.291595        -7.9347
  27   2.0000      -0.272963        -7.4277
  28   2.0000      -0.256170        -6.9707
  29   0.0000      -0.003373        -0.0918
  30   0.0000       0.014173         0.3857
  31   0.0000       0.040510         1.1023
  32   0.0000       0.046557         1.2669
  33   0.0000       0.059378         1.6158

MULLIKEN ATOMIC CHARGES
-----------------------
   0 C :   -0.334600
   1 C :   -0.215722
   2 H :    0.139094
   3 H :    0.117247
   4 S :    0.762718
   5 F :   -0.070923
   6 O :   -0.376278
   7 O :   -0.429950
   8 H :    0.142415
   9 H :    0.126733
  10 H :    0.139266
Sum of atomic charges:    0.0000000

LOEWDIN ATOMIC CHARGES
----------------------
   0 C :   -0.294159
   1 C :   -0.396948
   2 H :    0.136754
   3 H :    0.130633
   4 S :    0.488944
   5 F :    0.110812
   6 O :   -0.240505
   7 O :   -0.307451
   8 H :    0.124214
   9 H :    0.122885
  10 H :    0.124822

  Mayer bond orders larger than 0.100000
B(  0-C ,  1-C ) :   1.0210 B(  0-C ,  8-H ) :   0.9616 B(  0-C ,  9-H ) :   0.9507
B(  0-C , 10-H ) :   0.9649 B(  1-C ,  2-H ) :   0.9292 B(  1-C ,  3-H ) :   0.9250
B(  1-C ,  4-S ) :   0.9112 B(  4-S ,  5-F ) :   1.1611 B(  4-S ,  6-O ) :   1.9362
B(  4-S ,  7-O ) :   1.8968

Dispersion correction           -0.011558247
FINAL SINGLE POINT ENERGY      -727.896608426987

DIPOLE MOMENT
-------------
                                X             Y             Z
Electronic contribution:      3.86263      -5.72946      -7.55037
Nuclear contribution   :     -3.66946       7.33549       7.42434
                        -----------------------------------------
Total Dipole Moment    :      0.19316       1.60603      -0.12602
                        -----------------------------------------
Magnitude (a.u.)       :      1.62251
Magnitude (Debye)      :      4.12409

Rotational constants in cm-1:     0.158379     0.080294     0.077843
Rotational constants in MHz :  4748.076444  2407.152850  2333.668303

                             ****ORCA TERMINATED NORMALLY****
TOTAL RUN TIME: 0 days 0 hours 0 minutes 10 seconds 175 msec
