                         Program Version 5.0.0 -  RELEASE  -
|  1> !TPSS D3BJ RIJCOSX def2-TZVP def2/J TightSCF
|  2> *xyz 0 1
|  3> C          1.96337       -1.74915       -1.89689
|  4> C          2.73849       -2.01517       -3.09711
|  5> C          4.04974       -2.15472       -3.15204
|  6> N          4.65821       -1.98629       -4.31866
|  7> N          4.76423       -2.45444       -2.05049
|  8> H          4.28736       -2.77626       -1.21750
|  9> H          5.75082       -2.65835       -2.12599
| 10> H          2.34518       -1.69027       -3.97145
| 11> H          4.10900       -1.59268       -5.07176
| 12> H          5.64910       -2.15646       -4.42724
| 13> C          2.08852       -0.30091       -1.41520
| 14> H          2.23127       -2.45162       -1.10264
| 15> H          0.93025       -1.97780       -2.15544
| 16> H          1.82118        0.36368       -2.21003
| 17> H          3.09792       -0.11068       -1.11551
| 18> H          1.43391       -0.14382       -0.58352
| 19> *
| 20> %MaxCore 64000
| 21>
| 22> %pal nprocs 4
| 23> end
| 24>
| 25> %scf
| 26>   MaxIter 150
| 27> end
| 28>
| 29>
| 30>                          ****END OF INPUT****

CARTESIAN COORDINATES (ANGSTROEM)
---------------------------------
  C      1.963370   -1.749150   -1.896890
  C      2.738490   -2.015170   -3.097110
  C      4.049740   -2.154720   -3.152040
  N      4.658210   -1.986290   -4.318660
  N      4.764230   -2.454440   -2.050490
  H      4.287360   -2.776260   -1.217500
  H      5.750820   -2.658350   -2.125990
  H      2.345180   -1.690270   -3.971450
  H      4.109000   -1.592680   -5.071760
  H      5.649100   -2.156460   -4.427240
  C      2.088520   -0.300910   -1.415200
  H      2.231270   -2.451620   -1.102640
  H      0.930250   -1.977800   -2.155440
  H      1.821180    0.363680   -2.210030
  H      3.097920   -0.110680   -1.115510
  H      1.433910   -0.143820   -0.583520

 Total Charge           Charge          ....    0
 Multiplicity           Mult            ....    1
 Number of Electrons    NEL             ....   48
 Basis Dimension        Dim             ....  246

ORBITAL ENERGIES
----------------

  NO   OCC          E(Eh)            E(eV)
   0   2.0000     -14.100544      -383.6953
   1   2.0000     -14.098225      -383.6322
   2   2.0000     -10.018046      -272.6049
   3   2.0000      -9.956716      -270.9360
   4   2.0000      -9.946124      -270.6478
   5   2.0000      -9.899165      -269.3700
   6   2.0000      -0.892909       -24.2973
   7   2.0000      -0.810438       -22.0531
   8   2.0000      -0.712323       -19.3833
   9   2.0000      -0.637074       -17.3357
  10   2.0000      -0.565219       -15.3804
  11   2.0000      -0.529349       -14.4043
  12   2.0000      -0.494285       -13.4502
  13   2.0000      -0.464016       -12.6265
  14   2.0000      -0.428870       -11.6702
  15   2.0000      -0.394886       -10.7454
  16   2.0000      -0.374302       -10.1853
  17   2.0000      -0.341865        -9.3026
  18   2.0000      -0.337007        -9.1704
  19   2.0000      -0.312682        -8.5085
  20   2.0000      -0.287847        -7.8327
  21   2.0000      -0.281138        -7.6502
  22   2.0000      -0.223050        -6.0695
  23   2.0000      -0.126302        -3.4368
  24   0.0000       0.007281         0.1981
  25   0.0000       0.038850         1.0572
  26   0.0000       0.046872         1.2755
  27   0.0000       0.062336         1.6963
  28   0.0000       0.072920         1.9843

MULLIKEN ATOMIC CHARGES
-----------------------
   0 C :   -0.162347
   1 C :   -0.315775
   2 C :    0.332007
   3 N :   -0.471505
   4 N :   -0.492848
   5 H :    0.244503
   6 H :    0.217075
   7 H :    0.050999
   8 H :    0.243336
   9 H :    0.219413
  10 C :   -0.284009
  11 H :    0.050390
  12 H :    0.082474
  13 H :    0.091352
  14 H :    0.102598
  15 H :    0.092337
Sum of atomic charges:   -0.0000000

LOEWDIN ATOMIC CHARGES
----------------------
   0 C :   -0.305928
   1 C :   -0.286561
   2 C :   -0.463359
   3 N :   -0.006047
   4 N :   -0.014311
   5 H :    0.173544
   6 H :    0.158418
   7 H :    0.118473
   8 H :    0.178571
   9 H :    0.159309
  10 C :   -0.295265
  11 H :    0.121886
  12 H :    0.135778
  13 H :    0.110322
  14 H :    0.110883
  15 H :    0.104286

  Mayer bond orders larger than 0.100000
B(  0-C ,  1-C ) :   1.0987 B(  0-C , 10-C ) :   0.9750 B(  0-C , 11-H ) :   0.9513
B(  0-C , 12-H ) :   0.9619 B(  1-C ,  2-C ) :   1.6901 B(  1-C ,  7-H ) :   0.9888
B(  2-C ,  3-N ) :   1.1633 B(  2-C ,  4-N ) :   1.1413 B(  3-N ,  8-H ) :   0.9102
B(  3-N ,  9-H ) :   0.9171 B(  4-N ,  5-H ) :   0.9111 B(  4-N ,  6-H ) :   0.9192
B( 10-C , 13-H ) :   0.9732 B( 10-C , 14-H ) :   0.9745 B( 10-C , 15-H ) :   0.9627

Dispersion correction           -0.015887275
FINAL SINGLE POINT ENERGY      -268.063541412793

DIPOLE MOMENT
-------------
                                X             Y             Z
Electronic contribution:      3.39622      -2.45579      -2.55632
Nuclear contribution   :     -2.31778       2.31977       2.35294
                        -----------------------------------------
Total Dipole Moment    :      1.07844      -0.13602      -0.20339
                        -----------------------------------------
Magnitude (a.u.)       :      1.10585
Magnitude (Debye)      :      2.81084

Rotational constants in cm-1:     0.219415     0.075373     0.066689
Rotational constants in MHz :  6577.897266  2259.621393  1999.290981

                             ****ORCA TERMINATED NORMALLY****
TOTAL RUN TIME: 0 days 0 hours 0 minutes 13 seconds 393 msec
