                         Program Version 5.0.0 -  RELEASE  -
|  1> !TPSS D3BJ RIJCOSX def2-TZVP def2/J TightSCF
|  2> *xyz 0 1
|  3> C          0.61188        1.65763       -4.50029
|  4> C          1.69499        1.54179       -5.57045
|  5> H          2.69733        1.73466       -5.18400
|  6> H          1.50666        2.27224       -6.35808
|  7> S          1.78029       -0.03313       -6.42874
|  8> O          2.56929        0.21366       -7.60736
|  9> F          0.41688       -0.46297       -6.61859
| 10> O          2.50513       -0.93326       -5.48257
| 11> H         -0.34424        1.45871       -4.93752
| 12> H          0.61845        2.64655       -4.09174
| 13> H          0.80247        0.94882       -3.72173
| 14> *
| 15> %MaxCore 64000
| 16>
| 17> %pal nprocs 4
| 18> end
| 19>
| 20> %scf
| 21>   MaxIter 150
| 22> end
| 23>
| 24>
| 25>                          ****END OF INPUT****

CARTESIAN COORDINATES (ANGSTROEM)
---------------------------------
  C      0.611880    1.657630   -4.500290
  C      1.694990    1.541790   -5.570450
  H      2.697330    1.734660   -5.184000
  H      1.506660    2.272240   -6.358080
  S      1.780290   -0.033130   -6.428740
  O      2.569290    0.213660   -7.607360
  F      0.416880   -0.462970   -6.618590
  O      2.505130   -0.933260   -5.482570
  H     -0.344240    1.458710   -4.937520
  H      0.618450    2.646550   -4.091740
  H      0.802470    0.948820   -3.721730

 Total Charge           Charge          ....    0
 Multiplicity           Mult            ....    1
 Number of Electrons    NEL             ....   58
 Basis Dimension        Dim             ....  222

ORBITAL ENERGIES
----------------

  NO   OCC          E(Eh)            E(eV)
   0   2.0000     -88.581311     -2410.4200
   1   2.0000     -24.525077      -667.3613
   2   2.0000     -18.893673      -514.1230
   3   2.0000     -18.875298      -513.6230
   4   2.0000     -10.043131      -273.2875
   5   2.0000     -10.007957      -272.3304
   6   2.0000      -7.930868      -215.8099
   7   2.0000      -5.914239      -160.9346
   8   2.0000      -5.907256      -160.7446
   9   2.0000      -5.906962      -160.7366
  10   2.0000      -1.299507       -35.3614
  11   2.0000      -1.027775       -27.9672
  12   2.0000      -0.927923       -25.2501
  13   2.0000      -0.766201       -20.8494
  14   2.0000      -0.673911       -18.3380
  15   2.0000      -0.626293       -17.0423
  16   2.0000      -0.539811       -14.6890
  17   2.0000      -0.524254       -14.2657
  18   2.0000      -0.493826       -13.4377
  19   2.0000      -0.451841       -12.2952
  20   2.0000      -0.428363       -11.6564
  21   2.0000      -0.403857       -10.9895
  22   2.0000      -0.390626       -10.6295
  23   2.0000      -0.372537       -10.1373
  24   2.0000      -0.357164        -9.7189
  25   2.0000      -0.335592        -9.1319
  26   2.0000      -0.291092        -7.9210
  27   2.0000      -0.272827        -7.4240
  28   2.0000      -0.256375        -6.9763
  29   0.0000      -0.011680        -0.3178
  30   0.0000       0.022423         0.6102
  31   0.0000       0.035811         0.9745
  32   0.0000       0.049718         1.3529
  33   0.0000       0.059350         1.6150

MULLIKEN ATOMIC CHARGES
-----------------------
   0 C :   -0.345633
   1 C :   -0.218602
   2 H :    0.155845
   3 H :    0.132434
   4 S :    0.762577
   5 O :   -0.369249
   6 F :   -0.076733
   7 O :   -0.430653
   8 H :    0.120592
   9 H :    0.128961
  10 H :    0.140461
Sum of atomic charges:   -0.0000000

LOEWDIN ATOMIC CHARGES
----------------------
   0 C :   -0.309333
   1 C :   -0.390049
   2 H :    0.147702
   3 H :    0.135698
   4 S :    0.490088
   5 O :   -0.238662
   6 F :    0.109818
   7 O :   -0.306962
   8 H :    0.115984
   9 H :    0.122997
  10 H :    0.122720

  Mayer bond orders larger than 0.100000
B(  0-C ,  1-C ) :   1.0069 B(  0-C ,  8-H ) :   0.9654 B(  0-C ,  9-H ) :   0.9543
B(  0-C , 10-H ) :   0.9633 B(  1-C ,  2-H ) :   0.9332 B(  1-C ,  3-H ) :   0.9304
B(  1-C ,  4-S ) :   0.9067 B(  4-S ,  5-O ) :   1.9665 B(  4-S ,  6-F ) :   1.1458
B(  4-S ,  7-O ) :   1.8931

Dispersion correction           -0.011486416
FINAL SINGLE POINT ENERGY      -727.896395818652

DIPOLE MOMENT
-------------
                                X             Y             Z
Electronic contribution:      0.29367      -6.84226      -5.88876
Nuclear contribution   :     -1.42658       8.04056       6.39401
                        -----------------------------------------
Total Dipole Moment    :     -1.13292       1.19830       0.50525
                        -----------------------------------------
Magnitude (a.u.)       :      1.72473
Magnitude (Debye)      :      4.38392

Rotational constants in cm-1:     0.153659     0.082363     0.078978
Rotational constants in MHz :  4606.587369  2469.179541  2367.702074

                             ****ORCA TERMINATED NORMALLY****
TOTAL RUN TIME: 0 days 0 hours 0 minutes 9 seconds 895 msec
