                         Program Version 5.0.0 -  RELEASE  -
|  1> !TPSS D3BJ RIJCOSX def2-TZVP def2/J TightSCF
|  2> *xyz 0 1
|  3> C          1.96337       -1.74915       -1.89689
|  4> N          2.73849       -2.01517       -3.09711
|  5> C          4.04974       -2.15472       -3.15204
|  6> C          4.65821       -1.98629       -4.31866
|  7> N          4.76423       -2.45444       -2.05049
|  8> H          4.28736       -2.77626       -1.21750
|  9> H          5.75082       -2.65835       -2.12599
| 10> H          2.34518       -1.69027       -3.97145
| 11> H          4.10900       -1.59268       -5.07176
| 12> H          5.64910       -2.15646       -4.42724
| 13> C          2.08852       -0.30091       -1.41520
| 14> H          2.23127       -2.45162       -1.10264
| 15> H          0.93025       -1.97780       -2.15544
| 16> H          1.82118        0.36368       -2.21003
| 17> H          3.09792       -0.11068       -1.11551
| 18> H          1.43391       -0.14382       -0.58352
| 19> *
| 20> %MaxCore 64000
| 21>
| 22> %pal nprocs 4
| 23> end
| 24>
| 25> %scf
| 26>   MaxIter 150
| 27> end
| 28>
| 29>
| 30>                          ****END OF INPUT****

CARTESIAN COORDINATES (ANGSTROEM)
---------------------------------
  C      1.963370   -1.749150   -1.896890
  N      2.738490   -2.015170   -3.097110
  C      4.049740   -2.154720   -3.152040
  C      4.658210   -1.986290   -4.318660
  N      4.764230   -2.454440   -2.050490
  H      4.287360   -2.776260   -1.217500
  H      5.750820   -2.658350   -2.125990
  H      2.345180   -1.690270   -3.971450
  H      4.109000   -1.592680   -5.071760
  H      5.649100   -2.156460   -4.427240
  C      2.088520   -0.300910   -1.415200
  H      2.231270   -2.451620   -1.102640
  H      0.930250   -1.977800   -2.155440
  H      1.821180    0.363680   -2.210030
  H      3.097920   -0.110680   -1.115510
  H      1.433910   -0.143820   -0.583520

 Total Charge           Charge          ....    0
 Multiplicity           Mult            ....    1
 Number of Electrons    NEL             ....   48
 Basis Dimension        Dim             ....  246

ORBITAL ENERGIES
----------------

  NO   OCC          E(Eh)            E(eV)
   0   2.0000     -14.099159      -383.6576
   1   2.0000     -14.097963      -383.6251
   2   2.0000     -10.023725      -272.7594
   3   2.0000     -10.019153      -272.6350
   4   2.0000      -9.972704      -271.3711
   5   2.0000      -9.894481      -269.2425
   6   2.0000      -0.900949       -24.5161
   7   2.0000      -0.821690       -22.3593
   8   2.0000      -0.713029       -19.4025
   9   2.0000      -0.645756       -17.5719
  10   2.0000      -0.579391       -15.7660
  11   2.0000      -0.549000       -14.9391
  12   2.0000      -0.488109       -13.2821
  13   2.0000      -0.450969       -12.2715
  14   2.0000      -0.435991       -11.8639
  15   2.0000      -0.396249       -10.7825
  16   2.0000      -0.388674       -10.5763
  17   2.0000      -0.359338        -9.7781
  18   2.0000      -0.342970        -9.3327
  19   2.0000      -0.334098        -9.0913
  20   2.0000      -0.322425        -8.7736
  21   2.0000      -0.316289        -8.6067
  22   2.0000      -0.213269        -5.8034
  23   2.0000      -0.130797        -3.5592
  24   0.0000       0.009896         0.2693
  25   0.0000       0.036606         0.9961
  26   0.0000       0.047250         1.2857
  27   0.0000       0.057304         1.5593
  28   0.0000       0.071415         1.9433

MULLIKEN ATOMIC CHARGES
-----------------------
   0 C :   -0.133115
   1 N :   -0.283428
   2 C :    0.355894
   3 C :   -0.520559
   4 N :   -0.497844
   5 H :    0.222277
   6 H :    0.241107
   7 H :    0.211976
   8 H :    0.082849
   9 H :    0.088285
  10 C :   -0.284340
  11 H :    0.087067
  12 H :    0.108482
  13 H :    0.098824
  14 H :    0.120148
  15 H :    0.102377
Sum of atomic charges:    0.0000000

LOEWDIN ATOMIC CHARGES
----------------------
   0 C :   -0.312748
   1 N :    0.123925
   2 C :   -0.471186
   3 C :   -0.336179
   4 N :   -0.012912
   5 H :    0.158431
   6 H :    0.174216
   7 H :    0.194744
   8 H :    0.095280
   9 H :    0.093166
  10 C :   -0.298669
  11 H :    0.122127
  12 H :    0.128865
  13 H :    0.112852
  14 H :    0.116106
  15 H :    0.111981

  Mayer bond orders larger than 0.100000
B(  0-C ,  1-N ) :   1.0052 B(  0-C , 10-C ) :   0.9952 B(  0-C , 11-H ) :   0.9608
B(  0-C , 12-H ) :   0.9628 B(  1-N ,  2-C ) :   1.2266 B(  1-N ,  7-H ) :   0.9156
B(  2-C ,  3-C ) :   1.6488 B(  2-C ,  4-N ) :   1.1317 B(  3-C ,  8-H ) :   0.9912
B(  3-C ,  9-H ) :   0.9891 B(  4-N ,  5-H ) :   0.9130 B(  4-N ,  6-H ) :   0.9158
B( 10-C , 13-H ) :   0.9668 B( 10-C , 14-H ) :   0.9690 B( 10-C , 15-H ) :   0.9577

Dispersion correction           -0.015752595
FINAL SINGLE POINT ENERGY      -268.061793782091

DIPOLE MOMENT
-------------
                                X             Y             Z
Electronic contribution:      1.42399      -2.35851      -1.20442
Nuclear contribution   :     -1.91052       2.32590       2.09379
                        -----------------------------------------
Total Dipole Moment    :     -0.48654      -0.03262       0.88938
                        -----------------------------------------
Magnitude (a.u.)       :      1.01428
Magnitude (Debye)      :      2.57811

Rotational constants in cm-1:     0.219448     0.077923     0.068804
Rotational constants in MHz :  6578.886179  2336.083179  2062.700476

                             ****ORCA TERMINATED NORMALLY****
TOTAL RUN TIME: 0 days 0 hours 0 minutes 13 seconds 225 msec
