                         Program Version 5.0.0 -  RELEASE  -
|  1> !TPSS D3BJ RIJCOSX def2-TZVP def2/J TightSCF
|  2> *xyz 0 1
|  3> C          0.61188        1.65763       -4.50029
|  4> C          1.69499        1.54179       -5.57045
|  5> H          2.69733        1.73466       -5.18400
|  6> H          1.50666        2.27224       -6.35808
|  7> S          1.78029       -0.03313       -6.42874
|  8> O          2.56929        0.21366       -7.60736
|  9> O          0.41688       -0.46297       -6.61859
| 10> F          2.50513       -0.93326       -5.48257
| 11> H         -0.34424        1.45871       -4.93752
| 12> H          0.61845        2.64655       -4.09174
| 13> H          0.80247        0.94882       -3.72173
| 14> *
| 15> %MaxCore 64000
| 16>
| 17> %pal nprocs 4
| 18> end
| 19>
| 20> %scf
| 21>   MaxIter 150
| 22> end
| 23>
| 24>
| 25>                          ****END OF INPUT****

CARTESIAN COORDINATES (ANGSTROEM)
---------------------------------
  C      0.611880    1.657630   -4.500290
  C      1.694990    1.541790   -5.570450
  H      2.697330    1.734660   -5.184000
  H      1.506660    2.272240   -6.358080
  S      1.780290   -0.033130   -6.428740
  O      2.569290    0.213660   -7.607360
  O      0.416880   -0.462970   -6.618590
  F      2.505130   -0.933260   -5.482570
  H     -0.344240    1.458710   -4.937520
  H      0.618450    2.646550   -4.091740
  H      0.802470    0.948820   -3.721730

 Total Charge           Charge          ....    0
 Multiplicity           Mult            ....    1
 Number of Electrons    NEL             ....   58
 Basis Dimension        Dim             ....  222

ORBITAL ENERGIES
----------------

  NO   OCC          E(Eh)            E(eV)
   0   2.0000     -88.578821     -2410.3523
   1   2.0000     -24.497993      -666.6243
   2   2.0000     -18.894191      -514.1371
   3   2.0000     -18.893331      -514.1137
   4   2.0000     -10.042110      -273.2597
   5   2.0000     -10.003257      -272.2025
   6   2.0000      -7.928472      -215.7447
   7   2.0000      -5.911789      -160.8680
   8   2.0000      -5.904963      -160.6822
   9   2.0000      -5.904660      -160.6740
  10   2.0000      -1.257077       -34.2068
  11   2.0000      -1.039507       -28.2864
  12   2.0000      -0.955129       -25.9904
  13   2.0000      -0.763031       -20.7631
  14   2.0000      -0.661450       -17.9990
  15   2.0000      -0.612925       -16.6785
  16   2.0000      -0.518183       -14.1005
  17   2.0000      -0.495653       -13.4874
  18   2.0000      -0.491685       -13.3794
  19   2.0000      -0.448683       -12.2093
  20   2.0000      -0.429050       -11.6750
  21   2.0000      -0.406900       -11.0723
  22   2.0000      -0.388315       -10.5666
  23   2.0000      -0.365181        -9.9371
  24   2.0000      -0.361808        -9.8453
  25   2.0000      -0.339687        -9.2433
  26   2.0000      -0.296660        -8.0725
  27   2.0000      -0.292213        -7.9515
  28   2.0000      -0.277449        -7.5498
  29   0.0000      -0.004110        -0.1118
  30   0.0000       0.022838         0.6215
  31   0.0000       0.036966         1.0059
  32   0.0000       0.055161         1.5010
  33   0.0000       0.063112         1.7174

MULLIKEN ATOMIC CHARGES
-----------------------
   0 C :   -0.331299
   1 C :   -0.233042
   2 H :    0.131927
   3 H :    0.148669
   4 S :    0.775539
   5 O :   -0.381945
   6 O :   -0.387798
   7 F :   -0.115039
   8 H :    0.148298
   9 H :    0.125383
  10 H :    0.119305
Sum of atomic charges:    0.0000000

LOEWDIN ATOMIC CHARGES
----------------------
   0 C :   -0.306070
   1 C :   -0.393424
   2 H :    0.133731
   3 H :    0.146635
   4 S :    0.499457
   5 O :   -0.244368
   6 O :   -0.244091
   7 F :    0.044365
   8 H :    0.124228
   9 H :    0.121504
  10 H :    0.118034

  Mayer bond orders larger than 0.100000
B(  0-C ,  1-C ) :   1.0080 B(  0-C ,  8-H ) :   0.9611 B(  0-C ,  9-H ) :   0.9526
B(  0-C , 10-H ) :   0.9661 B(  1-C ,  2-H ) :   0.9356 B(  1-C ,  3-H ) :   0.9322
B(  1-C ,  4-S ) :   0.9054 B(  4-S ,  5-O ) :   1.9625 B(  4-S ,  6-O ) :   1.9322
B(  4-S ,  7-F ) :   1.1045

Dispersion correction           -0.011516480
FINAL SINGLE POINT ENERGY      -727.919537904549

DIPOLE MOMENT
-------------
                                X             Y             Z
Electronic contribution:      3.77689      -7.65847      -3.98967
Nuclear contribution   :     -3.60260       8.53062       5.21025
                        -----------------------------------------
Total Dipole Moment    :      0.17429       0.87214       1.22058
                        -----------------------------------------
Magnitude (a.u.)       :      1.51024
Magnitude (Debye)      :      3.83872

Rotational constants in cm-1:     0.154011     0.080858     0.079602
Rotational constants in MHz :  4617.134198  2424.070332  2386.404775

                             ****ORCA TERMINATED NORMALLY****
TOTAL RUN TIME: 0 days 0 hours 0 minutes 9 seconds 797 msec
