                         Program Version 5.0.0 -  RELEASE  -
|  1> !TPSS D3BJ RIJCOSX def2-TZVP def2/J TightSCF
|  2> *xyz 0 1
|  3> C          1.96337       -1.74915       -1.89689
|  4> N          2.73849       -2.01517       -3.09711
|  5> C          4.04974       -2.15472       -3.15204
|  6> N          4.65821       -1.98629       -4.31866
|  7> C          4.76423       -2.45444       -2.05049
|  8> H          4.28736       -2.77626       -1.21750
|  9> H          5.75082       -2.65835       -2.12599
| 10> H          2.34518       -1.69027       -3.97145
| 11> H          4.10900       -1.59268       -5.07176
| 12> H          5.64910       -2.15646       -4.42724
| 13> C          2.08852       -0.30091       -1.41520
| 14> H          2.23127       -2.45162       -1.10264
| 15> H          0.93025       -1.97780       -2.15544
| 16> H          1.82118        0.36368       -2.21003
| 17> H          3.09792       -0.11068       -1.11551
| 18> H          1.43391       -0.14382       -0.58352
| 19> *
| 20> %MaxCore 64000
| 21>
| 22> %pal nprocs 4
| 23> end
| 24>
| 25> %scf
| 26>   MaxIter 150
| 27> end
| 28>
| 29>
| 30>                          ****END OF INPUT****

CARTESIAN COORDINATES (ANGSTROEM)
---------------------------------
  C      1.963370   -1.749150   -1.896890
  N      2.738490   -2.015170   -3.097110
  C      4.049740   -2.154720   -3.152040
  N      4.658210   -1.986290   -4.318660
  C      4.764230   -2.454440   -2.050490
  H      4.287360   -2.776260   -1.217500
  H      5.750820   -2.658350   -2.125990
  H      2.345180   -1.690270   -3.971450
  H      4.109000   -1.592680   -5.071760
  H      5.649100   -2.156460   -4.427240
  C      2.088520   -0.300910   -1.415200
  H      2.231270   -2.451620   -1.102640
  H      0.930250   -1.977800   -2.155440
  H      1.821180    0.363680   -2.210030
  H      3.097920   -0.110680   -1.115510
  H      1.433910   -0.143820   -0.583520

 Total Charge           Charge          ....    0
 Multiplicity           Mult            ....    1
 Number of Electrons    NEL             ....   48
 Basis Dimension        Dim             ....  246

ORBITAL ENERGIES
----------------

  NO   OCC          E(Eh)            E(eV)
   0   2.0000     -14.101539      -383.7224
   1   2.0000     -14.100987      -383.7074
   2   2.0000     -10.020420      -272.6695
   3   2.0000     -10.017546      -272.5913
   4   2.0000      -9.966133      -271.1923
   5   2.0000      -9.893726      -269.2220
   6   2.0000      -0.906484       -24.6667
   7   2.0000      -0.825226       -22.4555
   8   2.0000      -0.697661       -18.9843
   9   2.0000      -0.649335       -17.6693
  10   2.0000      -0.591593       -16.0981
  11   2.0000      -0.514717       -14.0062
  12   2.0000      -0.497774       -13.5451
  13   2.0000      -0.479796       -13.0559
  14   2.0000      -0.423197       -11.5158
  15   2.0000      -0.398008       -10.8304
  16   2.0000      -0.372690       -10.1414
  17   2.0000      -0.355228        -9.6662
  18   2.0000      -0.340992        -9.2789
  19   2.0000      -0.328624        -8.9423
  20   2.0000      -0.320251        -8.7145
  21   2.0000      -0.310833        -8.4582
  22   2.0000      -0.211149        -5.7457
  23   2.0000      -0.131562        -3.5800
  24   0.0000       0.006651         0.1810
  25   0.0000       0.038164         1.0385
  26   0.0000       0.051896         1.4122
  27   0.0000       0.057766         1.5719
  28   0.0000       0.078419         2.1339

MULLIKEN ATOMIC CHARGES
-----------------------
   0 C :   -0.093183
   1 N :   -0.288651
   2 C :    0.320268
   3 N :   -0.468741
   4 C :   -0.523923
   5 H :    0.096754
   6 H :    0.081875
   7 H :    0.178964
   8 H :    0.210848
   9 H :    0.249234
  10 C :   -0.305629
  11 H :    0.109061
  12 H :    0.100392
  13 H :    0.084958
  14 H :    0.142534
  15 H :    0.105238
Sum of atomic charges:   -0.0000000

LOEWDIN ATOMIC CHARGES
----------------------
   0 C :   -0.294182
   1 N :    0.122011
   2 C :   -0.479189
   3 N :   -0.003036
   4 C :   -0.347332
   5 H :    0.095187
   6 H :    0.091066
   7 H :    0.175227
   8 H :    0.158964
   9 H :    0.177360
  10 C :   -0.297951
  11 H :    0.133192
  12 H :    0.126414
  13 H :    0.108305
  14 H :    0.120922
  15 H :    0.113042

  Mayer bond orders larger than 0.100000
B(  0-C ,  1-N ) :   0.9850 B(  0-C , 10-C ) :   1.0144 B(  0-C , 11-H ) :   0.9484
B(  0-C , 12-H ) :   0.9603 B(  1-N ,  2-C ) :   1.2089 B(  1-N ,  7-H ) :   0.9218
B(  2-C ,  3-N ) :   1.1528 B(  2-C ,  4-C ) :   1.6664 B(  3-N ,  8-H ) :   0.9171
B(  3-N ,  9-H ) :   0.9110 B(  4-C ,  5-H ) :   0.9894 B(  4-C ,  6-H ) :   0.9833
B( 10-C , 13-H ) :   0.9676 B( 10-C , 14-H ) :   0.9665 B( 10-C , 15-H ) :   0.9603

Dispersion correction           -0.015840476
FINAL SINGLE POINT ENERGY      -268.060666414272

DIPOLE MOMENT
-------------
                                X             Y             Z
Electronic contribution:      1.33698      -1.82353      -3.48786
Nuclear contribution   :     -1.88803       2.22658       2.57497
                        -----------------------------------------
Total Dipole Moment    :     -0.55105       0.40305      -0.91288
                        -----------------------------------------
Magnitude (a.u.)       :      1.13994
Magnitude (Debye)      :      2.89750

Rotational constants in cm-1:     0.226509     0.075782     0.067928
Rotational constants in MHz :  6790.555051  2271.890226  2036.439218

                             ****ORCA TERMINATED NORMALLY****
TOTAL RUN TIME: 0 days 0 hours 0 minutes 14 seconds 150 msec
