                         Program Version 5.0.0 -  RELEASE  -
|  1> !TPSS D3BJ RIJCOSX def2-TZVP def2/J TightSCF xyzfile
|  2>
|  3> *xyzfile 0 1 D3.xyz
|  4>
|  5> %MaxCore 64000
|  6>
|  7> %pal nprocs 18
|  8> end
|  9>
| 10> %scf
| 11>   MaxIter 150
| 12> end
| 13>
| 14>
| 15>                          ****END OF INPUT****

CARTESIAN COORDINATES (ANGSTROEM)
---------------------------------
  C      1.963365   -1.749150   -1.896887
  N      2.738490   -2.015170   -3.097113
  C      0.611877    1.657634   -4.500288
  C      1.694991    1.541794   -5.570447
  H      2.697326    1.734659   -5.183996
  H      1.506656    2.272239   -6.358076
  S      1.780287   -0.033128   -6.428739
  C      4.049736   -2.154717   -3.152044
  N      4.658206   -1.986293   -4.318655
  C      4.764231   -2.454435   -2.050491
  H      4.287363   -2.776259   -1.217496
  H      5.750825   -2.658351   -2.125988
  H      2.345176   -1.690274   -3.971447
  H      4.109004   -1.592677   -5.071760
  H      5.649095   -2.156462   -4.427237
  F      2.569287    0.213657   -7.607360
  O      0.416880   -0.462969   -6.618595
  C      2.088520   -0.300912   -1.415204
  H      2.231272   -2.451616   -1.102643
  H      0.930249   -1.977801   -2.155438
  C      0.680356    0.655418   -3.348038
  H     -0.356865    1.549231   -4.991128
  H      0.650228    2.675438   -4.096000
  C      1.968993    0.733582   -2.535654
  H      3.051356   -0.168602   -0.911868
  H      1.316501   -0.136231   -0.657252
  O      2.505129   -0.933263   -5.482570
  H      2.824195    0.624726   -3.208464
  H      2.058919    1.730331   -2.093112
  H      0.542252   -0.344731   -3.766662
  H     -0.174219    0.829692   -2.685182

 Total Charge           Charge          ....    0
 Multiplicity           Mult            ....    1
 Number of Electrons    NEL             ....  120
 Basis Dimension        Dim             ....  542

ORBITAL ENERGIES
----------------

  NO   OCC          E(Eh)            E(eV)
   0   2.0000     -88.610502     -2411.2143
   1   2.0000     -24.549814      -668.0344
   2   2.0000     -18.919738      -514.8322
   3   2.0000     -18.912762      -514.6424
   4   2.0000     -14.068415      -382.8210
   5   2.0000     -14.067812      -382.8046
   6   2.0000     -10.058514      -273.7061
   7   2.0000     -10.022030      -272.7133
   8   2.0000     -10.000970      -272.1402
   9   2.0000      -9.997385      -272.0427
  10   2.0000      -9.994231      -271.9569
  11   2.0000      -9.982312      -271.6325
  12   2.0000      -9.971257      -271.3317
  13   2.0000      -9.873246      -268.6647
  14   2.0000      -7.960206      -216.6082
  15   2.0000      -5.943339      -161.7265
  16   2.0000      -5.937077      -161.5561
  17   2.0000      -5.936046      -161.5280
  18   2.0000      -1.325222       -36.0611
  19   2.0000      -1.057248       -28.7692
  20   2.0000      -0.966678       -26.3046
  21   2.0000      -0.879688       -23.9375
  22   2.0000      -0.801050       -21.7977
  23   2.0000      -0.788958       -21.4687
  24   2.0000      -0.737614       -20.0715
  25   2.0000      -0.701908       -19.0999
  26   2.0000      -0.667523       -18.1642
  27   2.0000      -0.633570       -17.2403
  28   2.0000      -0.623776       -16.9738
  29   2.0000      -0.585500       -15.9323
  30   2.0000      -0.554325       -15.0839
  31   2.0000      -0.548725       -14.9316
  32   2.0000      -0.536857       -14.6086
  33   2.0000      -0.522966       -14.2306
  34   2.0000      -0.491420       -13.3722
  35   2.0000      -0.475425       -12.9370
  36   2.0000      -0.469752       -12.7826
  37   2.0000      -0.462235       -12.5781
  38   2.0000      -0.449824       -12.2403
  39   2.0000      -0.433381       -11.7929
  40   2.0000      -0.416820       -11.3422
  41   2.0000      -0.411710       -11.2032
  42   2.0000      -0.397755       -10.8235
  43   2.0000      -0.383711       -10.4413
  44   2.0000      -0.380788       -10.3618
  45   2.0000      -0.369729       -10.0608
  46   2.0000      -0.349271        -9.5042
  47   2.0000      -0.346515        -9.4292
  48   2.0000      -0.329359        -8.9623
  49   2.0000      -0.325461        -8.8562
  50   2.0000      -0.321736        -8.7549
  51   2.0000      -0.311507        -8.4765
  52   2.0000      -0.309026        -8.4090
  53   2.0000      -0.302388        -8.2284
  54   2.0000      -0.292673        -7.9640
  55   2.0000      -0.291049        -7.9199
  56   2.0000      -0.289091        -7.8666
  57   2.0000      -0.279523        -7.6062
  58   2.0000      -0.185457        -5.0465
  59   2.0000      -0.110409        -3.0044
  60   0.0000      -0.028440        -0.7739
  61   0.0000      -0.004721        -0.1285
  62   0.0000       0.015369         0.4182
  63   0.0000       0.025359         0.6901
  64   0.0000       0.033215         0.9038

MULLIKEN ATOMIC CHARGES
-----------------------
   0 C :   -0.181833
   1 N :   -0.262809
   2 C :   -0.109281
   3 C :   -0.277877
   4 H :    0.159620
   5 H :    0.143187
   6 S :    0.785611
   7 C :    0.308205
   8 N :   -0.478654
   9 C :   -0.547613
  10 H :    0.091072
  11 H :    0.074697
  12 H :    0.230106
  13 H :    0.233216
  14 H :    0.229771
  15 F :   -0.066442
  16 O :   -0.356210
  17 C :   -0.049793
  18 H :    0.114347
  19 H :    0.115277
  20 C :   -0.266754
  21 H :    0.123313
  22 H :    0.105958
  23 C :   -0.256652
  24 H :    0.105423
  25 H :    0.069986
  26 O :   -0.469780
  27 H :    0.119950
  28 H :    0.082760
  29 H :    0.136686
  30 H :    0.094513
Sum of atomic charges:    0.0000000

LOEWDIN ATOMIC CHARGES
----------------------
   0 C :   -0.278953
   1 N :    0.129222
   2 C :   -0.268543
   3 C :   -0.367780
   4 H :    0.141704
   5 H :    0.138054
   6 S :    0.520281
   7 C :   -0.478331
   8 N :   -0.011068
   9 C :   -0.365200
  10 H :    0.092225
  11 H :    0.087824
  12 H :    0.162852
  13 H :    0.146469
  14 H :    0.168201
  15 F :    0.119765
  16 O :   -0.221323
  17 C :   -0.261627
  18 H :    0.134145
  19 H :    0.127987
  20 C :   -0.265017
  21 H :    0.144876
  22 H :    0.147234
  23 C :   -0.268176
  24 H :    0.141283
  25 H :    0.130659
  26 O :   -0.291648
  27 H :    0.136473
  28 H :    0.132478
  29 H :    0.137055
  30 H :    0.138880

  Mayer bond orders larger than 0.100000
B(  0-C ,  1-N ) :   1.0102 B(  0-C , 17-C ) :   0.9920 B(  0-C , 18-H ) :   0.9473
B(  0-C , 19-H ) :   0.9691 B(  1-N ,  7-C ) :   1.2189 B(  1-N , 12-H ) :   0.8812
B(  2-C ,  3-C ) :   1.0071 B(  2-C , 20-C ) :   1.0236 B(  2-C , 21-H ) :   0.9417
B(  2-C , 22-H ) :   0.9253 B(  3-C ,  4-H ) :   0.9279 B(  3-C ,  5-H ) :   0.9236
B(  3-C ,  6-S ) :   0.9219 B(  6-S , 15-F ) :   1.1786 B(  6-S , 16-O ) :   1.9584
B(  6-S , 26-O ) :   1.7178 B(  7-C ,  8-N ) :   1.1674 B(  7-C ,  9-C ) :   1.6451
B(  8-N , 13-H ) :   0.8791 B(  8-N , 14-H ) :   0.9192 B(  9-C , 10-H ) :   0.9829
B(  9-C , 11-H ) :   0.9835 B( 17-C , 23-C ) :   1.0304 B( 17-C , 24-H ) :   0.9292
B( 17-C , 25-H ) :   0.9447 B( 20-C , 23-C ) :   1.0160 B( 20-C , 29-H ) :   0.9556
B( 20-C , 30-H ) :   0.9438 B( 23-C , 27-H ) :   0.9483 B( 23-C , 28-H ) :   0.9390

Dispersion correction           -0.047102718
FINAL SINGLE POINT ENERGY     -1073.431182811842

DIPOLE MOMENT
-------------
                                X             Y             Z
Electronic contribution:     -1.10784      -0.31695     -24.58294
Nuclear contribution   :      0.44707       2.53104      23.12246
                        -----------------------------------------
Total Dipole Moment    :     -0.66077       2.21410      -1.46047
                        -----------------------------------------
Magnitude (a.u.)       :      2.73346
Magnitude (Debye)      :      6.94791

Rotational constants in cm-1:     0.028906     0.014696     0.011110
Rotational constants in MHz :   866.591909   440.585554   333.081943

                             ****ORCA TERMINATED NORMALLY****
TOTAL RUN TIME: 0 days 0 hours 0 minutes 26 seconds 93 msec
