                         Program Version 5.0.0 -  RELEASE  -
|  1> !TPSS D3BJ RIJCOSX def2-TZVP def2/J TightSCF xyzfile
|  2>
|  3> *xyzfile 0 1 D4.xyz
|  4>
|  5> %MaxCore 64000
|  6>
|  7> %pal nprocs 18
|  8> end
|  9>
| 10> %scf
| 11>   MaxIter 150
| 12> end
| 13>
| 14>
| 15>                          ****END OF INPUT****

CARTESIAN COORDINATES (ANGSTROEM)
---------------------------------
  C      1.963365   -1.749150   -1.896887
  C      2.738490   -2.015170   -3.097113
  C      0.611877    1.657634   -4.500288
  C      1.694991    1.541794   -5.570447
  H      2.697326    1.734659   -5.183996
  H      1.506656    2.272239   -6.358076
  S      1.780287   -0.033128   -6.428739
  C      4.049736   -2.154717   -3.152044
  N      4.658206   -1.986293   -4.318655
  N      4.764231   -2.454435   -2.050491
  H      4.287363   -2.776259   -1.217496
  H      5.750825   -2.658351   -2.125988
  H      2.345176   -1.690274   -3.971447
  H      4.109004   -1.592677   -5.071760
  H      5.649095   -2.156462   -4.427237
  O      2.569287    0.213657   -7.607360
  F      0.416880   -0.462969   -6.618595
  C      2.088520   -0.300912   -1.415204
  H      2.231272   -2.451616   -1.102643
  H      0.930249   -1.977801   -2.155438
  C      0.680356    0.655418   -3.348038
  H     -0.356865    1.549231   -4.991128
  H      0.650228    2.675438   -4.096000
  C      1.968993    0.733582   -2.535654
  H      3.051356   -0.168602   -0.911868
  H      1.316501   -0.136231   -0.657252
  O      2.505129   -0.933263   -5.482570
  H      2.824195    0.624726   -3.208464
  H      2.058919    1.730331   -2.093112
  H      0.542252   -0.344731   -3.766662
  H     -0.174219    0.829692   -2.685182

 Total Charge           Charge          ....    0
 Multiplicity           Mult            ....    1
 Number of Electrons    NEL             ....  120
 Basis Dimension        Dim             ....  542

ORBITAL ENERGIES
----------------

  NO   OCC          E(Eh)            E(eV)
   0   2.0000     -88.591447     -2410.6958
   1   2.0000     -24.533004      -667.5770
   2   2.0000     -18.902076      -514.3516
   3   2.0000     -18.889160      -514.0002
   4   2.0000     -14.083811      -383.2400
   5   2.0000     -14.068453      -382.8221
   6   2.0000     -10.043769      -273.3049
   7   2.0000     -10.011208      -272.4188
   8   2.0000      -9.997375      -272.0424
   9   2.0000      -9.984435      -271.6903
  10   2.0000      -9.969586      -271.2862
  11   2.0000      -9.957668      -270.9619
  12   2.0000      -9.946447      -270.6566
  13   2.0000      -9.869613      -268.5658
  14   2.0000      -7.941297      -216.0937
  15   2.0000      -5.924543      -161.2150
  16   2.0000      -5.918102      -161.0397
  17   2.0000      -5.917043      -161.0109
  18   2.0000      -1.307248       -35.5720
  19   2.0000      -1.039549       -28.2876
  20   2.0000      -0.945625       -25.7318
  21   2.0000      -0.871619       -23.7179
  22   2.0000      -0.789400       -21.4807
  23   2.0000      -0.778989       -21.1974
  24   2.0000      -0.732273       -19.9262
  25   2.0000      -0.693709       -18.8768
  26   2.0000      -0.666671       -18.1410
  27   2.0000      -0.638261       -17.3680
  28   2.0000      -0.599975       -16.3262
  29   2.0000      -0.567799       -15.4506
  30   2.0000      -0.544230       -14.8093
  31   2.0000      -0.540323       -14.7029
  32   2.0000      -0.527086       -14.3427
  33   2.0000      -0.504636       -13.7318
  34   2.0000      -0.494683       -13.4610
  35   2.0000      -0.475173       -12.9301
  36   2.0000      -0.451343       -12.2817
  37   2.0000      -0.447865       -12.1870
  38   2.0000      -0.433598       -11.7988
  39   2.0000      -0.424798       -11.5593
  40   2.0000      -0.417941       -11.3728
  41   2.0000      -0.399079       -10.8595
  42   2.0000      -0.393959       -10.7202
  43   2.0000      -0.388152       -10.5621
  44   2.0000      -0.377127       -10.2621
  45   2.0000      -0.349604        -9.5132
  46   2.0000      -0.344451        -9.3730
  47   2.0000      -0.338704        -9.2166
  48   2.0000      -0.331493        -9.0204
  49   2.0000      -0.319854        -8.7037
  50   2.0000      -0.309754        -8.4288
  51   2.0000      -0.298195        -8.1143
  52   2.0000      -0.294044        -8.0013
  53   2.0000      -0.287746        -7.8300
  54   2.0000      -0.280784        -7.6405
  55   2.0000      -0.273638        -7.4461
  56   2.0000      -0.264893        -7.2081
  57   2.0000      -0.241049        -6.5593
  58   2.0000      -0.202378        -5.5070
  59   2.0000      -0.106685        -2.9031
  60   0.0000      -0.017431        -0.4743
  61   0.0000       0.014905         0.4056
  62   0.0000       0.023416         0.6372
  63   0.0000       0.028086         0.7643
  64   0.0000       0.035941         0.9780

MULLIKEN ATOMIC CHARGES
-----------------------
   0 C :   -0.261759
   1 C :   -0.319156
   2 C :   -0.138744
   3 C :   -0.259999
   4 H :    0.165004
   5 H :    0.147581
   6 S :    0.778943
   7 C :    0.265889
   8 N :   -0.467869
   9 N :   -0.491457
  10 H :    0.238831
  11 H :    0.211612
  12 H :    0.160085
  13 H :    0.255982
  14 H :    0.204757
  15 O :   -0.376537
  16 F :   -0.069882
  17 C :   -0.045474
  18 H :    0.062155
  19 H :    0.086649
  20 C :   -0.260345
  21 H :    0.108798
  22 H :    0.098717
  23 C :   -0.176481
  24 H :    0.071704
  25 H :    0.052397
  26 O :   -0.441649
  27 H :    0.119961
  28 H :    0.072986
  29 H :    0.119566
  30 H :    0.087735
Sum of atomic charges:    0.0000000

LOEWDIN ATOMIC CHARGES
----------------------
   0 C :   -0.292778
   1 C :   -0.290169
   2 C :   -0.283921
   3 C :   -0.361597
   4 H :    0.149926
   5 H :    0.140431
   6 S :    0.515939
   7 C :   -0.468660
   8 N :   -0.008492
   9 N :   -0.020698
  10 H :    0.170498
  11 H :    0.154960
  12 H :    0.114657
  13 H :    0.164992
  14 H :    0.153076
  15 O :   -0.235484
  16 F :    0.118915
  17 C :   -0.255568
  18 H :    0.123437
  19 H :    0.135333
  20 C :   -0.264484
  21 H :    0.135572
  22 H :    0.143787
  23 C :   -0.264273
  24 H :    0.131920
  25 H :    0.123038
  26 O :   -0.271686
  27 H :    0.138664
  28 H :    0.129176
  29 H :    0.136774
  30 H :    0.136715

  Mayer bond orders larger than 0.100000
B(  0-C ,  1-C ) :   1.0664 B(  0-C , 17-C ) :   0.9837 B(  0-C , 18-H ) :   0.9502
B(  0-C , 19-H ) :   0.9681 B(  1-C ,  7-C ) :   1.6801 B(  1-C , 12-H ) :   0.9881
B(  2-C ,  3-C ) :   1.0028 B(  2-C , 20-C ) :   1.0014 B(  2-C , 21-H ) :   0.9540
B(  2-C , 22-H ) :   0.9255 B(  3-C ,  4-H ) :   0.9321 B(  3-C ,  5-H ) :   0.9300
B(  3-C ,  6-S ) :   0.9166 B(  6-S , 15-O ) :   1.9727 B(  6-S , 16-F ) :   1.1594
B(  6-S , 26-O ) :   1.7544 B(  7-C ,  8-N ) :   1.2082 B(  7-C ,  9-N ) :   1.1451
B(  8-N , 13-H ) :   0.8690 B(  8-N , 14-H ) :   0.9230 B(  9-N , 10-H ) :   0.9117
B(  9-N , 11-H ) :   0.9213 B( 17-C , 23-C ) :   1.0393 B( 17-C , 24-H ) :   0.9350
B( 17-C , 25-H ) :   0.9404 B( 20-C , 23-C ) :   1.0059 B( 20-C , 29-H ) :   0.9653
B( 20-C , 30-H ) :   0.9412 B( 23-C , 27-H ) :   0.9508 B( 23-C , 28-H ) :   0.9391

Dispersion correction           -0.047280973
FINAL SINGLE POINT ENERGY     -1073.420923833368

DIPOLE MOMENT
-------------
                                X             Y             Z
Electronic contribution:     -2.84050      -2.27340     -21.81568
Nuclear contribution   :      2.64598       3.36033      21.85869
                        -----------------------------------------
Total Dipole Moment    :     -0.19451       1.08693       0.04302
                        -----------------------------------------
Magnitude (a.u.)       :      1.10504
Magnitude (Debye)      :      2.80878

Rotational constants in cm-1:     0.028973     0.014435     0.011026
Rotational constants in MHz :   868.588266   432.748309   330.548534

                             ****ORCA TERMINATED NORMALLY****
TOTAL RUN TIME: 0 days 0 hours 0 minutes 27 seconds 443 msec
