                         Program Version 5.0.0 -  RELEASE  -
|  1> !TPSS D3BJ RIJCOSX def2-TZVP def2/J TightSCF xyzfile
|  2>
|  3> *xyzfile 0 1 D5.xyz
|  4>
|  5> %MaxCore 64000
|  6>
|  7> %pal nprocs 18
|  8> end
|  9>
| 10> %scf
| 11>   MaxIter 150
| 12> end
| 13>
| 14>
| 15>                          ****END OF INPUT****

CARTESIAN COORDINATES (ANGSTROEM)
---------------------------------
  C      1.963365   -1.749150   -1.896887
  N      2.738490   -2.015170   -3.097113
  C      0.611877    1.657634   -4.500288
  C      1.694991    1.541794   -5.570447
  H      2.697326    1.734659   -5.183996
  H      1.506656    2.272239   -6.358076
  S      1.780287   -0.033128   -6.428739
  C      4.049736   -2.154717   -3.152044
  C      4.658206   -1.986293   -4.318655
  N      4.764231   -2.454435   -2.050491
  H      4.287363   -2.776259   -1.217496
  H      5.750825   -2.658351   -2.125988
  H      2.345176   -1.690274   -3.971447
  H      4.109004   -1.592677   -5.071760
  H      5.649095   -2.156462   -4.427237
  O      2.569287    0.213657   -7.607360
  F      0.416880   -0.462969   -6.618595
  C      2.088520   -0.300912   -1.415204
  H      2.231272   -2.451616   -1.102643
  H      0.930249   -1.977801   -2.155438
  C      0.680356    0.655418   -3.348038
  H     -0.356865    1.549231   -4.991128
  H      0.650228    2.675438   -4.096000
  C      1.968993    0.733582   -2.535654
  H      3.051356   -0.168602   -0.911868
  H      1.316501   -0.136231   -0.657252
  O      2.505129   -0.933263   -5.482570
  H      2.824195    0.624726   -3.208464
  H      2.058919    1.730331   -2.093112
  H      0.542252   -0.344731   -3.766662
  H     -0.174219    0.829692   -2.685182

 Total Charge           Charge          ....    0
 Multiplicity           Mult            ....    1
 Number of Electrons    NEL             ....  120
 Basis Dimension        Dim             ....  542

ORBITAL ENERGIES
----------------

  NO   OCC          E(Eh)            E(eV)
   0   2.0000     -88.592865     -2410.7344
   1   2.0000     -24.534458      -667.6166
   2   2.0000     -18.903980      -514.4035
   3   2.0000     -18.892233      -514.0838
   4   2.0000     -14.080956      -383.1623
   5   2.0000     -14.067301      -382.7907
   6   2.0000     -10.046832      -273.3882
   7   2.0000     -10.019234      -272.6372
   8   2.0000     -10.009730      -272.3786
   9   2.0000      -9.998657      -272.0773
  10   2.0000      -9.996430      -272.0167
  11   2.0000      -9.985580      -271.7214
  12   2.0000      -9.979326      -271.5513
  13   2.0000      -9.865731      -268.4602
  14   2.0000      -7.942732      -216.1327
  15   2.0000      -5.926109      -161.2576
  16   2.0000      -5.919314      -161.0727
  17   2.0000      -5.918598      -161.0532
  18   2.0000      -1.309049       -35.6210
  19   2.0000      -1.040891       -28.3241
  20   2.0000      -0.947659       -25.7871
  21   2.0000      -0.879335       -23.9279
  22   2.0000      -0.803744       -21.8710
  23   2.0000      -0.785879       -21.3848
  24   2.0000      -0.736254       -20.0345
  25   2.0000      -0.699938       -19.0463
  26   2.0000      -0.665822       -18.1179
  27   2.0000      -0.644466       -17.5368
  28   2.0000      -0.607792       -16.5389
  29   2.0000      -0.576854       -15.6970
  30   2.0000      -0.549007       -14.9393
  31   2.0000      -0.545208       -14.8359
  32   2.0000      -0.532073       -14.4785
  33   2.0000      -0.521716       -14.1966
  34   2.0000      -0.498914       -13.5761
  35   2.0000      -0.470237       -12.7958
  36   2.0000      -0.456777       -12.4295
  37   2.0000      -0.450587       -12.2611
  38   2.0000      -0.432857       -11.7786
  39   2.0000      -0.428037       -11.6475
  40   2.0000      -0.422035       -11.4842
  41   2.0000      -0.415312       -11.3012
  42   2.0000      -0.400168       -10.8891
  43   2.0000      -0.389552       -10.6003
  44   2.0000      -0.381257       -10.3745
  45   2.0000      -0.355254        -9.6669
  46   2.0000      -0.354150        -9.6369
  47   2.0000      -0.346952        -9.4410
  48   2.0000      -0.339719        -9.2442
  49   2.0000      -0.322050        -8.7634
  50   2.0000      -0.320227        -8.7138
  51   2.0000      -0.310112        -8.4386
  52   2.0000      -0.300330        -8.1724
  53   2.0000      -0.294282        -8.0078
  54   2.0000      -0.291237        -7.9250
  55   2.0000      -0.288906        -7.8615
  56   2.0000      -0.280625        -7.6362
  57   2.0000      -0.267710        -7.2847
  58   2.0000      -0.193026        -5.2525
  59   2.0000      -0.109004        -2.9662
  60   0.0000      -0.018567        -0.5052
  61   0.0000       0.009982         0.2716
  62   0.0000       0.021256         0.5784
  63   0.0000       0.025366         0.6903
  64   0.0000       0.034306         0.9335

MULLIKEN ATOMIC CHARGES
-----------------------
   0 C :   -0.224305
   1 N :   -0.248531
   2 C :   -0.138209
   3 C :   -0.265585
   4 H :    0.172249
   5 H :    0.149005
   6 S :    0.780366
   7 C :    0.316442
   8 C :   -0.550714
   9 N :   -0.508918
  10 H :    0.216497
  11 H :    0.236026
  12 H :    0.233379
  13 H :    0.158048
  14 H :    0.074723
  15 O :   -0.365592
  16 F :   -0.073499
  17 C :   -0.030856
  18 H :    0.097661
  19 H :    0.116472
  20 C :   -0.260606
  21 H :    0.111938
  22 H :    0.102752
  23 C :   -0.248100
  24 H :    0.088123
  25 H :    0.064024
  26 O :   -0.434328
  27 H :    0.143519
  28 H :    0.085751
  29 H :    0.109084
  30 H :    0.093185
Sum of atomic charges:    0.0000000

LOEWDIN ATOMIC CHARGES
----------------------
   0 C :   -0.300145
   1 N :    0.126865
   2 C :   -0.282532
   3 C :   -0.361458
   4 H :    0.151705
   5 H :    0.141134
   6 S :    0.515068
   7 C :   -0.476350
   8 C :   -0.342668
   9 N :   -0.020533
  10 H :    0.154618
  11 H :    0.170743
  12 H :    0.170477
  13 H :    0.097310
  14 H :    0.088172
  15 O :   -0.224978
  16 F :    0.115040
  17 C :   -0.264936
  18 H :    0.123356
  19 H :    0.128701
  20 C :   -0.269035
  21 H :    0.136669
  22 H :    0.144908
  23 C :   -0.265567
  24 H :    0.135434
  25 H :    0.128946
  26 O :   -0.265286
  27 H :    0.142965
  28 H :    0.133721
  29 H :    0.130403
  30 H :    0.137250

  Mayer bond orders larger than 0.100000
B(  0-C ,  1-N ) :   1.0280 B(  0-C , 17-C ) :   0.9589 B(  0-C , 18-H ) :   0.9616
B(  0-C , 19-H ) :   0.9727 B(  1-N ,  7-C ) :   1.2347 B(  1-N , 12-H ) :   0.8781
B(  2-C ,  3-C ) :   1.0008 B(  2-C , 20-C ) :   1.0045 B(  2-C , 21-H ) :   0.9538
B(  2-C , 22-H ) :   0.9269 B(  3-C ,  4-H ) :   0.9321 B(  3-C ,  5-H ) :   0.9309
B(  3-C ,  6-S ) :   0.9150 B(  6-S , 15-O ) :   1.9860 B(  6-S , 16-F ) :   1.1519
B(  6-S , 26-O ) :   1.7465 B(  7-C ,  8-C ) :   1.6487 B(  7-C ,  9-N ) :   1.1115
B(  8-C , 13-H ) :   0.9621 B(  8-C , 14-H ) :   0.9889 B(  9-N , 10-H ) :   0.9135
B(  9-N , 11-H ) :   0.9193 B( 17-C , 23-C ) :   1.0243 B( 17-C , 24-H ) :   0.9319
B( 17-C , 25-H ) :   0.9375 B( 20-C , 23-C ) :   1.0129 B( 20-C , 29-H ) :   0.9632
B( 20-C , 30-H ) :   0.9414 B( 23-C , 27-H ) :   0.9459 B( 23-C , 28-H ) :   0.9390

Dispersion correction           -0.047036664
FINAL SINGLE POINT ENERGY     -1073.419995915034

DIPOLE MOMENT
-------------
                                X             Y             Z
Electronic contribution:     -4.52636      -2.08483     -20.76507
Nuclear contribution   :      2.89225       3.36404      21.70199
                        -----------------------------------------
Total Dipole Moment    :     -1.63411       1.27921       0.93692
                        -----------------------------------------
Magnitude (a.u.)       :      2.27695
Magnitude (Debye)      :      5.78756

Rotational constants in cm-1:     0.029431     0.014408     0.011084
Rotational constants in MHz :   882.306106   431.946714   332.288152

                             ****ORCA TERMINATED NORMALLY****
TOTAL RUN TIME: 0 days 0 hours 0 minutes 27 seconds 181 msec
