                         Program Version 5.0.0 -  RELEASE  -
|  1> !TPSS D3BJ RIJCOSX def2-TZVP def2/J TightSCF xyzfile
|  2>
|  3> *xyzfile 0 1 D7.xyz
|  4>
|  5> %MaxCore 64000
|  6>
|  7> %pal nprocs 18
|  8> end
|  9>
| 10> %scf
| 11>   MaxIter 150
| 12> end
| 13>
| 14>
| 15>                          ****END OF INPUT****

CARTESIAN COORDINATES (ANGSTROEM)
---------------------------------
  C      1.963365   -1.749150   -1.896887
  C      2.738490   -2.015170   -3.097113
  C      0.611877    1.657634   -4.500288
  C      1.694991    1.541794   -5.570447
  H      2.697326    1.734659   -5.183996
  H      1.506656    2.272239   -6.358076
  S      1.780287   -0.033128   -6.428739
  C      4.049736   -2.154717   -3.152044
  N      4.658206   -1.986293   -4.318655
  N      4.764231   -2.454435   -2.050491
  H      4.287363   -2.776259   -1.217496
  H      5.750825   -2.658351   -2.125988
  H      2.345176   -1.690274   -3.971447
  H      4.109004   -1.592677   -5.071760
  H      5.649095   -2.156462   -4.427237
  O      2.569287    0.213657   -7.607360
  O      0.416880   -0.462969   -6.618595
  C      2.088520   -0.300912   -1.415204
  H      2.231272   -2.451616   -1.102643
  H      0.930249   -1.977801   -2.155438
  C      0.680356    0.655418   -3.348038
  H     -0.356865    1.549231   -4.991128
  H      0.650228    2.675438   -4.096000
  C      1.968993    0.733582   -2.535654
  H      3.051356   -0.168602   -0.911868
  H      1.316501   -0.136231   -0.657252
  F      2.505129   -0.933263   -5.482570
  H      2.824195    0.624726   -3.208464
  H      2.058919    1.730331   -2.093112
  H      0.542252   -0.344731   -3.766662
  H     -0.174219    0.829692   -2.685182

 Total Charge           Charge          ....    0
 Multiplicity           Mult            ....    1
 Number of Electrons    NEL             ....  120
 Basis Dimension        Dim             ....  542

ORBITAL ENERGIES
----------------

  NO   OCC          E(Eh)            E(eV)
   0   2.0000     -88.580771     -2410.4053
   1   2.0000     -24.508524      -666.9108
   2   2.0000     -18.896392      -514.1970
   3   2.0000     -18.896317      -514.1949
   4   2.0000     -14.102544      -383.7497
   5   2.0000     -14.097618      -383.6157
   6   2.0000     -10.038241      -273.1544
   7   2.0000     -10.020586      -272.6740
   8   2.0000     -10.004528      -272.2370
   9   2.0000      -9.985698      -271.7247
  10   2.0000      -9.977507      -271.5018
  11   2.0000      -9.967913      -271.2407
  12   2.0000      -9.960863      -271.0489
  13   2.0000      -9.897209      -269.3167
  14   2.0000      -7.930909      -215.8110
  15   2.0000      -5.914439      -160.9401
  16   2.0000      -5.907213      -160.7434
  17   2.0000      -5.906915      -160.7353
  18   2.0000      -1.271991       -34.6126
  19   2.0000      -1.043345       -28.3909
  20   2.0000      -0.957727       -26.0611
  21   2.0000      -0.895220       -24.3602
  22   2.0000      -0.813033       -22.1237
  23   2.0000      -0.775068       -21.0907
  24   2.0000      -0.739628       -20.1263
  25   2.0000      -0.696663       -18.9572
  26   2.0000      -0.673204       -18.3188
  27   2.0000      -0.639058       -17.3897
  28   2.0000      -0.612128       -16.6568
  29   2.0000      -0.574059       -15.6209
  30   2.0000      -0.537768       -14.6334
  31   2.0000      -0.526137       -14.3169
  32   2.0000      -0.520205       -14.1555
  33   2.0000      -0.507845       -13.8192
  34   2.0000      -0.494678       -13.4609
  35   2.0000      -0.493975       -13.4417
  36   2.0000      -0.461082       -12.5467
  37   2.0000      -0.445156       -12.1133
  38   2.0000      -0.442728       -12.0472
  39   2.0000      -0.427081       -11.6215
  40   2.0000      -0.421087       -11.4584
  41   2.0000      -0.406915       -11.0727
  42   2.0000      -0.402145       -10.9429
  43   2.0000      -0.387591       -10.5469
  44   2.0000      -0.378238       -10.2924
  45   2.0000      -0.354875        -9.6566
  46   2.0000      -0.352457        -9.5908
  47   2.0000      -0.349558        -9.5120
  48   2.0000      -0.341278        -9.2866
  49   2.0000      -0.326050        -8.8723
  50   2.0000      -0.315149        -8.5756
  51   2.0000      -0.305714        -8.3189
  52   2.0000      -0.297260        -8.0889
  53   2.0000      -0.291936        -7.9440
  54   2.0000      -0.286142        -7.7863
  55   2.0000      -0.281235        -7.6528
  56   2.0000      -0.275564        -7.4985
  57   2.0000      -0.272041        -7.4026
  58   2.0000      -0.224963        -6.1215
  59   2.0000      -0.129456        -3.5227
  60   0.0000      -0.006512        -0.1772
  61   0.0000       0.009425         0.2565
  62   0.0000       0.019269         0.5243
  63   0.0000       0.030315         0.8249
  64   0.0000       0.036158         0.9839

MULLIKEN ATOMIC CHARGES
-----------------------
   0 C :   -0.268560
   1 C :   -0.342626
   2 C :   -0.092207
   3 C :   -0.285125
   4 H :    0.146753
   5 H :    0.159089
   6 S :    0.770950
   7 C :    0.300846
   8 N :   -0.476148
   9 N :   -0.484496
  10 H :    0.244364
  11 H :    0.217336
  12 H :    0.132759
  13 H :    0.240810
  14 H :    0.218895
  15 O :   -0.394904
  16 O :   -0.376637
  17 C :   -0.044702
  18 H :    0.069984
  19 H :    0.101228
  20 C :   -0.292436
  21 H :    0.122117
  22 H :    0.092710
  23 C :   -0.186331
  24 H :    0.073827
  25 H :    0.062484
  26 F :   -0.119904
  27 H :    0.102937
  28 H :    0.079017
  29 H :    0.137682
  30 H :    0.090285
Sum of atomic charges:    0.0000000

LOEWDIN ATOMIC CHARGES
----------------------
   0 C :   -0.287063
   1 C :   -0.291566
   2 C :   -0.278391
   3 C :   -0.366877
   4 H :    0.136199
   5 H :    0.149682
   6 S :    0.513614
   7 C :   -0.466326
   8 N :   -0.009135
   9 N :   -0.012786
  10 H :    0.173602
  11 H :    0.158285
  12 H :    0.112398
  13 H :    0.163477
  14 H :    0.159389
  15 O :   -0.244619
  16 O :   -0.234121
  17 C :   -0.254455
  18 H :    0.126225
  19 H :    0.139762
  20 C :   -0.264889
  21 H :    0.143836
  22 H :    0.141827
  23 C :   -0.266669
  24 H :    0.131967
  25 H :    0.126460
  26 F :    0.060224
  27 H :    0.132258
  28 H :    0.131442
  29 H :    0.137829
  30 H :    0.138421

  Mayer bond orders larger than 0.100000
B(  0-C ,  1-C ) :   1.0649 B(  0-C , 17-C ) :   0.9885 B(  0-C , 18-H ) :   0.9503
B(  0-C , 19-H ) :   0.9642 B(  1-C ,  7-C ) :   1.6719 B(  1-C , 12-H ) :   1.0020
B(  2-C ,  3-C ) :   0.9950 B(  2-C , 20-C ) :   1.0116 B(  2-C , 21-H ) :   0.9422
B(  2-C , 22-H ) :   0.9242 B(  3-C ,  4-H ) :   0.9359 B(  3-C ,  5-H ) :   0.9291
B(  3-C ,  6-S ) :   0.9071 B(  6-S , 15-O ) :   1.9572 B(  6-S , 16-O ) :   1.9351
B(  6-S , 26-F ) :   1.0408 B(  7-C ,  8-N ) :   1.1893 B(  7-C ,  9-N ) :   1.1663
B(  8-N , 13-H ) :   0.8951 B(  8-N , 14-H ) :   0.9181 B(  9-N , 10-H ) :   0.9090
B(  9-N , 11-H ) :   0.9193 B( 17-C , 23-C ) :   1.0365 B( 17-C , 24-H ) :   0.9366
B( 17-C , 25-H ) :   0.9430 B( 20-C , 23-C ) :   1.0055 B( 20-C , 29-H ) :   0.9649
B( 20-C , 30-H ) :   0.9410 B( 23-C , 27-H ) :   0.9518 B( 23-C , 28-H ) :   0.9415

Dispersion correction           -0.046851707
FINAL SINGLE POINT ENERGY     -1073.437577528904

DIPOLE MOMENT
-------------
                                X             Y             Z
Electronic contribution:      0.87860      -3.21874     -19.50181
Nuclear contribution   :      0.26049       3.89757      20.56096
                        -----------------------------------------
Total Dipole Moment    :      1.13909       0.67883       1.05915
                        -----------------------------------------
Magnitude (a.u.)       :      1.69710
Magnitude (Debye)      :      4.31368

Rotational constants in cm-1:     0.029090     0.014735     0.011139
Rotational constants in MHz :   872.086433   441.731892   333.928051

                             ****ORCA TERMINATED NORMALLY****
TOTAL RUN TIME: 0 days 0 hours 0 minutes 26 seconds 658 msec
