                         Program Version 5.0.0 -  RELEASE  -
|  1> !wB97X-D3 RIJCOSX def2-SVPD def2/J TightSCF
|  2> *xyz -1 1
|  3> C          3.51177       -2.80621       -6.49228
|  4> S          3.00462       -1.09621       -6.38926
|  5> O          4.12886       -0.32965       -6.95372
|  6> O          1.78128       -1.00078       -7.13640
|  7> O          2.85155       -0.78368       -4.95679
|  8> H          3.63615       -3.08010       -7.51913
|  9> H          2.76397       -3.42755       -6.04548
| 10> H          4.43892       -2.93511       -5.97393
| 11> *
| 12>
| 13> %MaxCore 64000
| 14>
| 15> %pal nprocs 8
| 16> end
| 17>
| 18> %scf
| 19>   MaxIter 150
| 20> end
| 21>
| 22>
| 23>                          ****END OF INPUT****

CARTESIAN COORDINATES (ANGSTROEM)
---------------------------------
  C      3.511770   -2.806210   -6.492280
  S      3.004620   -1.096210   -6.389260
  O      4.128860   -0.329650   -6.953720
  O      1.781280   -1.000780   -7.136400
  O      2.851550   -0.783680   -4.956790
  H      3.636150   -3.080100   -7.519130
  H      2.763970   -3.427550   -6.045480
  H      4.438920   -2.935110   -5.973930

 Total Charge           Charge          ....   -1
 Multiplicity           Mult            ....    1
 Number of Electrons    NEL             ....   50
 Basis Dimension        Dim             ....  140

ORBITAL ENERGIES
----------------

  NO   OCC          E(Eh)            E(eV)
   0   2.0000     -88.977358     -2421.1970
   1   2.0000     -19.027015      -517.7514
   2   2.0000     -19.016176      -517.4565
   3   2.0000     -19.015657      -517.4423
   4   2.0000     -10.145768      -276.0804
   5   2.0000      -8.050785      -219.0730
   6   2.0000      -6.010282      -163.5481
   7   2.0000      -6.010197      -163.5458
   8   2.0000      -6.009990      -163.5401
   9   2.0000      -1.045071       -28.4378
  10   2.0000      -0.900895       -24.5146
  11   2.0000      -0.880175       -23.9508
  12   2.0000      -0.699543       -19.0355
  13   2.0000      -0.496108       -13.4998
  14   2.0000      -0.406716       -11.0673
  15   2.0000      -0.395144       -10.7524
  16   2.0000      -0.393748       -10.7144
  17   2.0000      -0.348372        -9.4797
  18   2.0000      -0.346687        -9.4338
  19   2.0000      -0.248748        -6.7688
  20   2.0000      -0.247763        -6.7420
  21   2.0000      -0.209822        -5.7096
  22   2.0000      -0.203324        -5.5327
  23   2.0000      -0.196875        -5.3573
  24   2.0000      -0.157362        -4.2820
  25   0.0000       0.213313         5.8045
  26   0.0000       0.237037         6.4501
  27   0.0000       0.237230         6.4554
  28   0.0000       0.241865         6.5815
  29   0.0000       0.275061         7.4848

MULLIKEN ATOMIC CHARGES
-----------------------
   0 C :    0.404449
   1 S :    1.110852
   2 O :   -0.800907
   3 O :   -0.761292
   4 O :   -0.799272
   5 H :   -0.047421
   6 H :   -0.054834
   7 H :   -0.051577
Sum of atomic charges:   -1.0000000

LOEWDIN ATOMIC CHARGES
----------------------
   0 C :    0.048887
   1 S :    0.840029
   2 O :   -0.603058
   3 O :   -0.583336
   4 O :   -0.601427
   5 H :   -0.033597
   6 H :   -0.034497
   7 H :   -0.033000

  Mayer bond orders larger than 0.100000
B(  0-C ,  1-S ) :   0.9480 B(  0-C ,  5-H ) :   0.9232 B(  0-C ,  6-H ) :   0.9257
B(  0-C ,  7-H ) :   0.9283 B(  1-S ,  2-O ) :   1.3239 B(  1-S ,  3-O ) :   1.3555
B(  1-S ,  4-O ) :   1.3226 B(  1-S ,  5-H ) :   0.1114 B(  1-S ,  6-H ) :   0.1113
B(  1-S ,  7-H ) :   0.1186

Dispersion correction           -0.001518362
FINAL SINGLE POINT ENERGY      -663.414345938134

DIPOLE MOMENT
-------------
                                X             Y             Z
Electronic contribution:     -1.27543       3.96333       0.17752
Nuclear contribution   :      1.59265      -5.51967      -0.35565
                        -----------------------------------------
Total Dipole Moment    :      0.31722      -1.55634      -0.17813
                        -----------------------------------------
Magnitude (a.u.)       :      1.59830
Magnitude (Debye)      :      4.06254

Rotational constants in cm-1:     0.172598     0.157065     0.154689
Rotational constants in MHz :  5174.362736  4708.699947  4637.458896

                             ****ORCA TERMINATED NORMALLY****
TOTAL RUN TIME: 0 days 0 hours 0 minutes 10 seconds 696 msec
