                         Program Version 5.0.0 -  RELEASE  -
|  1> !wB97X-D3 RIJCOSX def2-SVPD def2/J TightSCF
|  2> *xyz 1 1
|  3> C          4.49059        1.15590       -2.46929
|  4> N          4.30539        1.22276       -3.90832
|  5> C          4.63192        2.24637       -4.67096
|  6> N          4.54169        2.14399       -5.98714
|  7> N          5.08409        3.39358       -4.11855
|  8> H          4.92067        3.57050       -3.13587
|  9> H          5.25465        4.19739       -4.70696
| 10> H          3.82453        0.44911       -4.35093
| 11> H          4.34337        1.24932       -6.41665
| 12> H          4.67671        2.95662       -6.57411
| 13> H          5.00867        2.03053       -2.13534
| 14> H          5.06354        0.28631       -2.22344
| 15> H          3.53600        1.10160       -1.98897
| 16> *
| 17>
| 18> %MaxCore 64000
| 19>
| 20> %pal nprocs 8
| 21> end
| 22>
| 23> %scf
| 24>   MaxIter 150
| 25> end
| 26>
| 27>
| 28>                          ****END OF INPUT****

CARTESIAN COORDINATES (ANGSTROEM)
---------------------------------
  C      4.490590    1.155900   -2.469290
  N      4.305390    1.222760   -3.908320
  C      4.631920    2.246370   -4.670960
  N      4.541690    2.143990   -5.987140
  N      5.084090    3.393580   -4.118550
  H      4.920670    3.570500   -3.135870
  H      5.254650    4.197390   -4.706960
  H      3.824530    0.449110   -4.350930
  H      4.343370    1.249320   -6.416650
  H      4.676710    2.956620   -6.574110
  H      5.008670    2.030530   -2.135340
  H      5.063540    0.286310   -2.223440
  H      3.536000    1.101600   -1.988970

 Total Charge           Charge          ....    1
 Multiplicity           Mult            ....    1
 Number of Electrons    NEL             ....   40
 Basis Dimension        Dim             ....  164

ORBITAL ENERGIES
----------------

  NO   OCC          E(Eh)            E(eV)
   0   2.0000     -14.669835      -399.1865
   1   2.0000     -14.665586      -399.0709
   2   2.0000     -14.662242      -398.9799
   3   2.0000     -10.634445      -289.3780
   4   2.0000     -10.495941      -285.6091
   5   2.0000      -1.332490       -36.2589
   6   2.0000      -1.219568       -33.1861
   7   2.0000      -1.202754       -32.7286
   8   2.0000      -1.019973       -27.7549
   9   2.0000      -0.936798       -25.4916
  10   2.0000      -0.899171       -24.4677
  11   2.0000      -0.863623       -23.5004
  12   2.0000      -0.797374       -21.6976
  13   2.0000      -0.794132       -21.6094
  14   2.0000      -0.761678       -20.7263
  15   2.0000      -0.744088       -20.2477
  16   2.0000      -0.695627       -18.9290
  17   2.0000      -0.681684       -18.5496
  18   2.0000      -0.576621       -15.6907
  19   2.0000      -0.550779       -14.9875
  20   0.0000      -0.089135        -2.4255
  21   0.0000      -0.077891        -2.1195
  22   0.0000      -0.043052        -1.1715
  23   0.0000      -0.037740        -1.0269
  24   0.0000      -0.009695        -0.2638

MULLIKEN ATOMIC CHARGES
-----------------------
   0 C :    1.078560
   1 N :   -0.627274
   2 C :    1.436583
   3 N :   -0.115571
   4 N :   -0.101747
   5 H :   -0.024826
   6 H :   -0.088326
   7 H :   -0.239382
   8 H :   -0.028123
   9 H :   -0.000249
  10 H :   -0.170498
  11 H :   -0.045543
  12 H :   -0.073603
Sum of atomic charges:    1.0000000

LOEWDIN ATOMIC CHARGES
----------------------
   0 C :    0.267489
   1 N :    0.006600
   2 C :   -0.020473
   3 N :    0.254023
   4 N :    0.266514
   5 H :    0.014215
   6 H :    0.039151
   7 H :    0.066211
   8 H :    0.045180
   9 H :    0.044823
  10 H :   -0.015641
  11 H :    0.016635
  12 H :    0.015272

  Mayer bond orders larger than 0.100000
B(  0-C ,  1-N ) :   0.8785 B(  0-C ,  7-H ) :  -0.1721 B(  0-C , 10-H ) :   0.8600
B(  0-C , 11-H ) :   0.8058 B(  0-C , 12-H ) :   0.8249 B(  1-N ,  2-C ) :   1.0271
B(  1-N ,  3-N ) :   0.2349 B(  1-N ,  4-N ) :   0.2304 B(  1-N ,  7-H ) :   1.3639
B(  1-N , 10-H ) :   0.1798 B(  1-N , 11-H ) :   0.1682 B(  1-N , 12-H ) :   0.1527
B(  2-C ,  3-N ) :   0.8595 B(  2-C ,  4-N ) :   0.9230 B(  2-C ,  5-H ) :  -0.1004
B(  2-C ,  6-H ) :  -0.1371 B(  2-C ,  7-H ) :  -0.2258 B(  2-C ,  8-H ) :  -0.1530
B(  2-C ,  9-H ) :  -0.1081 B(  3-N ,  4-N ) :   0.1633 B(  3-N ,  8-H ) :   1.1875
B(  3-N ,  9-H ) :   1.1780 B(  4-N ,  5-H ) :   1.0818 B(  4-N ,  6-H ) :   1.2108
B(  5-H ,  6-H ) :  -0.1450 B(  8-H ,  9-H ) :  -0.1644

Dispersion correction           -0.002329592
FINAL SINGLE POINT ENERGY      -244.855677000759

DIPOLE MOMENT
-------------
                                X             Y             Z
Electronic contribution:      0.02553       0.69326      -2.68941
Nuclear contribution   :     -0.23495      -0.48067       2.19509
                        -----------------------------------------
Total Dipole Moment    :     -0.20942       0.21259      -0.49432
                        -----------------------------------------
Magnitude (a.u.)       :      0.57741
Magnitude (Debye)      :      1.46767

Rotational constants in cm-1:     0.315679     0.134071     0.096006
Rotational constants in MHz :  9463.824527  4019.347586  2878.182223

                             ****ORCA TERMINATED NORMALLY****
TOTAL RUN TIME: 0 days 0 hours 0 minutes 13 seconds 696 msec
