                         Program Version 5.0.0 -  RELEASE  -
|  1> !wB97X-D3 RIJCOSX def2-SVPD def2/J TightSCF xyzfile
|  2>
|  3> *xyzfile 0 1 B.xyz
|  4>
|  5> %MaxCore 64000
|  6>
|  7> %pal nprocs 18
|  8> end
|  9>
| 10> %scf
| 11>   MaxIter 150
| 12> end
| 13>
| 14>
| 15>                          ****END OF INPUT****

CARTESIAN COORDINATES (ANGSTROEM)
---------------------------------
  C      4.490588    1.155899   -2.469290
  N      4.305394    1.222762   -3.908317
  C      4.906458   -3.102816   -5.954844
  C      3.511771   -2.806215   -6.492283
  H      2.736044   -3.373445   -5.973736
  H      3.444904   -3.040831   -7.555281
  S      3.004618   -1.096206   -6.389259
  C      4.631918    2.246365   -4.670958
  N      4.541686    2.143990   -5.987139
  N      5.084086    3.393584   -4.118545
  H      4.920675    3.570501   -3.135870
  H      5.254652    4.197390   -4.706956
  H      3.824530    0.449113   -4.350926
  H      4.343373    1.249318   -6.416646
  H      4.676712    2.956624   -6.574113
  O      4.128856   -0.329647   -6.953717
  O      1.781285   -1.000779   -7.136399
  C      5.942129    0.939500   -2.036893
  H      3.864305    0.328532   -2.136611
  H      4.076233    2.049994   -1.989010
  C      6.462677   -3.117775   -3.944671
  C      5.024977   -3.025679   -4.437625
  H      4.423321   -3.818693   -3.977648
  H      4.579350   -2.087131   -4.108727
  H      5.201533   -4.100207   -6.296905
  H      5.605922   -2.397822   -6.413368
  C      6.559957   -0.356290   -2.559086
  H      5.967976    0.952567   -0.942444
  H      6.547184    1.788331   -2.368849
  C      6.006283   -1.615917   -1.899301
  H      7.642360   -0.318000   -2.402059
  H      6.414855   -0.403433   -3.642587
  C      6.608718   -2.917014   -2.435655
  H      6.190324   -1.561115   -0.820948
  H      4.919250   -1.651245   -2.016586
  H      7.066975   -2.374258   -4.475514
  H      6.887808   -4.089747   -4.215332
  H      6.135197   -3.755573   -1.915159
  H      7.671142   -2.955503   -2.172291
  O      2.851546   -0.783683   -4.956789

 Total Charge           Charge          ....    0
 Multiplicity           Mult            ....    1
 Number of Electrons    NEL             ....  144
 Basis Dimension        Dim             ....  540

ORBITAL ENERGIES
----------------

  NO   OCC          E(Eh)            E(eV)
   0   2.0000     -89.133286     -2425.4400
   1   2.0000     -19.186167      -522.0821
   2   2.0000     -19.186069      -522.0795
   3   2.0000     -19.172510      -521.7105
   4   2.0000     -14.515331      -394.9822
   5   2.0000     -14.482471      -394.0881
   6   2.0000     -14.480226      -394.0270
   7   2.0000     -10.465621      -284.7840
   8   2.0000     -10.356604      -281.8175
   9   2.0000     -10.310725      -280.5691
  10   2.0000     -10.294370      -280.1240
  11   2.0000     -10.287569      -279.9390
  12   2.0000     -10.283963      -279.8409
  13   2.0000     -10.282413      -279.7987
  14   2.0000     -10.275715      -279.6164
  15   2.0000     -10.274942      -279.5954
  16   2.0000     -10.266607      -279.3686
  17   2.0000      -8.206297      -223.3047
  18   2.0000      -6.166694      -167.8043
  19   2.0000      -6.165795      -167.7798
  20   2.0000      -6.164468      -167.7437
  21   2.0000      -1.206921       -32.8420
  22   2.0000      -1.165081       -31.7035
  23   2.0000      -1.059923       -28.8420
  24   2.0000      -1.058149       -28.7937
  25   2.0000      -1.049581       -28.5606
  26   2.0000      -1.037407       -28.2293
  27   2.0000      -0.936978       -25.4965
  28   2.0000      -0.911450       -24.8018
  29   2.0000      -0.884612       -24.0715
  30   2.0000      -0.846296       -23.0289
  31   2.0000      -0.810049       -22.0426
  32   2.0000      -0.784461       -21.3463
  33   2.0000      -0.755853       -20.5678
  34   2.0000      -0.735372       -20.0105
  35   2.0000      -0.723278       -19.6814
  36   2.0000      -0.701984       -19.1020
  37   2.0000      -0.681617       -18.5477
  38   2.0000      -0.656135       -17.8543
  39   2.0000      -0.650591       -17.7035
  40   2.0000      -0.642439       -17.4817
  41   2.0000      -0.619104       -16.8467
  42   2.0000      -0.607629       -16.5344
  43   2.0000      -0.589157       -16.0318
  44   2.0000      -0.584560       -15.9067
  45   2.0000      -0.569401       -15.4942
  46   2.0000      -0.565383       -15.3849
  47   2.0000      -0.555083       -15.1046
  48   2.0000      -0.538047       -14.6410
  49   2.0000      -0.534283       -14.5386
  50   2.0000      -0.529338       -14.4040
  51   2.0000      -0.516434       -14.0529
  52   2.0000      -0.509249       -13.8574
  53   2.0000      -0.498617       -13.5680
  54   2.0000      -0.487878       -13.2758
  55   2.0000      -0.479032       -13.0351
  56   2.0000      -0.461709       -12.5637
  57   2.0000      -0.454527       -12.3683
  58   2.0000      -0.444651       -12.0996
  59   2.0000      -0.429779       -11.6949
  60   2.0000      -0.421600       -11.4723
  61   2.0000      -0.418393       -11.3850
  62   2.0000      -0.413869       -11.2620
  63   2.0000      -0.408738       -11.1223
  64   2.0000      -0.405309       -11.0290
  65   2.0000      -0.401710       -10.9311
  66   2.0000      -0.396549       -10.7906
  67   2.0000      -0.379594       -10.3293
  68   2.0000      -0.367231        -9.9929
  69   2.0000      -0.358741        -9.7618
  70   2.0000      -0.347924        -9.4675
  71   2.0000      -0.323986        -8.8161
  72   0.0000       0.053138         1.4460
  73   0.0000       0.066459         1.8085
  74   0.0000       0.083045         2.2598
  75   0.0000       0.096375         2.6225
  76   0.0000       0.100259         2.7282

MULLIKEN ATOMIC CHARGES
-----------------------
   0 C :    0.994616
   1 N :    0.091653
   2 C :    0.179428
   3 C :    0.244559
   4 H :    0.026474
   5 H :    0.026034
   6 S :    1.367277
   7 C :    1.322616
   8 N :    0.311669
   9 N :    0.063228
  10 H :   -0.022573
  11 H :   -0.174788
  12 H :   -0.934522
  13 H :   -0.319693
  14 H :   -0.132415
  15 O :   -0.812410
  16 O :   -0.810585
  17 C :    0.298384
  18 H :   -0.209714
  19 H :   -0.175639
  20 C :    0.015227
  21 C :    0.216835
  22 H :    0.037166
  23 H :   -0.488372
  24 H :   -0.089135
  25 H :    0.050296
  26 C :    0.084628
  27 H :   -0.082329
  28 H :   -0.039912
  29 C :   -0.178758
  30 H :   -0.140783
  31 H :   -0.107826
  32 C :    0.625761
  33 H :   -0.328331
  34 H :    0.169846
  35 H :    0.094231
  36 H :   -0.314884
  37 H :   -0.021758
  38 H :    0.015554
  39 O :   -0.851056
Sum of atomic charges:   -0.0000000

LOEWDIN ATOMIC CHARGES
----------------------
   0 C :    0.082130
   1 N :    0.076794
   2 C :   -0.038420
   3 C :   -0.063886
   4 H :    0.026871
   5 H :    0.021887
   6 S :    0.962500
   7 C :   -0.014810
   8 N :    0.281958
   9 N :    0.246202
  10 H :    0.000914
  11 H :    0.018781
  12 H :   -0.083044
  13 H :   -0.101767
  14 H :    0.031093
  15 O :   -0.531587
  16 O :   -0.515558
  17 C :   -0.019794
  18 H :    0.033465
  19 H :    0.018680
  20 C :   -0.039713
  21 C :   -0.031399
  22 H :    0.040305
  23 H :   -0.020765
  24 H :    0.028857
  25 H :    0.022334
  26 C :   -0.029670
  27 H :    0.028280
  28 H :    0.009657
  29 C :   -0.037591
  30 H :    0.030000
  31 H :    0.012228
  32 C :   -0.031789
  33 H :    0.024007
  34 H :    0.009398
  35 H :    0.016674
  36 H :    0.024431
  37 H :    0.024199
  38 H :    0.021926
  39 O :   -0.533778

  Mayer bond orders larger than 0.100000
B(  0-C ,  1-N ) :   0.8652 B(  0-C , 12-H ) :  -0.4325 B(  0-C , 17-C ) :   1.1075
B(  0-C , 18-H ) :   0.7079 B(  0-C , 19-H ) :   0.8687 B(  1-N ,  7-C ) :   1.2348
B(  1-N ,  8-N ) :   0.1080 B(  1-N ,  9-N ) :   0.2186 B(  1-N , 12-H ) :   1.1367
B(  1-N , 13-H ) :   0.1504 B(  1-N , 14-H ) :  -0.1006 B(  1-N , 18-H ) :   0.2527
B(  2-C ,  3-C ) :   1.2278 B(  2-C ,  5-H ) :   0.2414 B(  2-C , 21-C ) :   1.1345
B(  2-C , 24-H ) :   0.8347 B(  2-C , 25-H ) :   0.8591 B(  3-C ,  4-H ) :   0.9202
B(  3-C ,  5-H ) :   0.7472 B(  3-C ,  6-S ) :   1.0101 B(  3-C , 16-O ) :   0.1143
B(  3-C , 25-H ) :   0.1066 B(  5-H ,  6-S ) :   0.1003 B(  6-S , 15-O ) :   1.1285
B(  6-S , 16-O ) :   1.3217 B(  6-S , 39-O ) :   1.1534 B(  7-C ,  8-N ) :   0.9134
B(  7-C ,  9-N ) :   0.8926 B(  7-C , 12-H ) :  -0.6356 B(  7-C , 13-H ) :  -0.2614
B(  7-C , 14-H ) :  -0.1225 B(  8-N ,  9-N ) :   0.1076 B(  8-N , 13-H ) :   1.1382
B(  8-N , 14-H ) :   1.2703 B(  9-N , 10-H ) :   1.0783 B(  9-N , 11-H ) :   1.2305
B( 10-H , 11-H ) :  -0.1909 B( 12-H , 39-O ) :   0.2391 B( 13-H , 14-H ) :  -0.2524
B( 13-H , 15-O ) :   0.2237 B( 17-C , 18-H ) :   0.1057 B( 17-C , 19-H ) :   0.1045
B( 17-C , 26-C ) :   1.2150 B( 17-C , 27-H ) :   0.9283 B( 17-C , 28-H ) :   0.7295
B( 18-H , 19-H ) :  -0.1612 B( 20-C , 21-C ) :   1.2055 B( 20-C , 22-H ) :   0.1080
B( 20-C , 32-C ) :   1.1294 B( 20-C , 35-H ) :   0.8705 B( 20-C , 36-H ) :   0.9652
B( 20-C , 37-H ) :   0.1091 B( 20-C , 38-H ) :   0.2091 B( 21-C , 22-H ) :   0.7214
B( 21-C , 23-H ) :   0.8587 B( 21-C , 24-H ) :   0.1792 B( 21-C , 36-H ) :   0.1935
B( 22-H , 23-H ) :   0.2216 B( 23-H , 34-H ) :   0.1090 B( 26-C , 28-H ) :   0.2017
B( 26-C , 29-C ) :   1.2123 B( 26-C , 30-H ) :   0.8979 B( 26-C , 31-H ) :   0.9180
B( 26-C , 33-H ) :   0.1356 B( 29-C , 30-H ) :   0.1462 B( 29-C , 31-H ) :   0.1181
B( 29-C , 32-C ) :   1.1439 B( 29-C , 33-H ) :   1.0516 B( 29-C , 34-H ) :   0.8315
B( 29-C , 37-H ) :   0.2698 B( 29-C , 38-H ) :   0.1328 B( 32-C , 37-H ) :   0.6915
B( 32-C , 38-H ) :   0.7134

Dispersion correction           -0.021985719
FINAL SINGLE POINT ENERGY     -1182.213199545091

DIPOLE MOMENT
-------------
                                X             Y             Z
Electronic contribution:    -14.46821       8.30933     -15.28842
Nuclear contribution   :     16.79156      -5.47215      17.54258
                        -----------------------------------------
Total Dipole Moment    :      2.32335       2.83719       2.25416
                        -----------------------------------------
Magnitude (a.u.)       :      4.30451
Magnitude (Debye)      :     10.94119

Rotational constants in cm-1:     0.014207     0.012373     0.007472
Rotational constants in MHz :   425.900436   370.942493   224.006604

                             ****ORCA TERMINATED NORMALLY****
TOTAL RUN TIME: 0 days 0 hours 3 minutes 2 seconds 586 msec
