                         Program Version 5.0.0 -  RELEASE  -
|  1> !wB97X-D3 RIJCOSX def2-SVPD def2/J TightSCF
|  2> *xyz 0 1
|  3> C          3.51177       -2.80621       -6.49228
|  4> S          3.00462       -1.09621       -6.38926
|  5> F          4.12886       -0.32965       -6.95372
|  6> O          1.78128       -1.00078       -7.13640
|  7> O          2.85155       -0.78368       -4.95679
|  8> H          3.63615       -3.08010       -7.51913
|  9> H          2.76397       -3.42755       -6.04548
| 10> H          4.43892       -2.93511       -5.97393
| 11> *
| 12>
| 13> %MaxCore 64000
| 14>
| 15> %pal nprocs 8
| 16> end
| 17>
| 18> %scf
| 19>   MaxIter 150
| 20> end
| 21>
| 22>
| 23>                          ****END OF INPUT****

CARTESIAN COORDINATES (ANGSTROEM)
---------------------------------
  C      3.511770   -2.806210   -6.492280
  S      3.004620   -1.096210   -6.389260
  F      4.128860   -0.329650   -6.953720
  O      1.781280   -1.000780   -7.136400
  O      2.851550   -0.783680   -4.956790
  H      3.636150   -3.080100   -7.519130
  H      2.763970   -3.427550   -6.045480
  H      4.438920   -2.935110   -5.973930

 Total Charge           Charge          ....    0
 Multiplicity           Mult            ....    1
 Number of Electrons    NEL             ....   50
 Basis Dimension        Dim             ....  140

ORBITAL ENERGIES
----------------

  NO   OCC          E(Eh)            E(eV)
   0   2.0000     -89.242965     -2428.4245
   1   2.0000     -24.913182      -677.9222
   2   2.0000     -19.266477      -524.2675
   3   2.0000     -19.255342      -523.9645
   4   2.0000     -10.355173      -281.7786
   5   2.0000      -8.316918      -226.3148
   6   2.0000      -6.280538      -170.9021
   7   2.0000      -6.274163      -170.7286
   8   2.0000      -6.273239      -170.7035
   9   2.0000      -1.475175       -40.1416
  10   2.0000      -1.234704       -33.5980
  11   2.0000      -1.130200       -30.7543
  12   2.0000      -0.922458       -25.1013
  13   2.0000      -0.821438       -22.3525
  14   2.0000      -0.706195       -19.2165
  15   2.0000      -0.684688       -18.6313
  16   2.0000      -0.664490       -18.0817
  17   2.0000      -0.587029       -15.9739
  18   2.0000      -0.584878       -15.9153
  19   2.0000      -0.571735       -15.5577
  20   2.0000      -0.544571       -14.8185
  21   2.0000      -0.493679       -13.4337
  22   2.0000      -0.443517       -12.0687
  23   2.0000      -0.432946       -11.7810
  24   2.0000      -0.413755       -11.2589
  25   0.0000       0.061128         1.6634
  26   0.0000       0.094409         2.5690
  27   0.0000       0.100070         2.7230
  28   0.0000       0.101037         2.7493
  29   0.0000       0.111874         3.0442

MULLIKEN ATOMIC CHARGES
-----------------------
   0 C :    0.317236
   1 S :    1.288775
   2 F :   -0.390093
   3 O :   -0.632289
   4 O :   -0.668764
   5 H :    0.034776
   6 H :    0.023130
   7 H :    0.027230
Sum of atomic charges:    0.0000000

LOEWDIN ATOMIC CHARGES
----------------------
   0 C :    0.117215
   1 S :    1.114154
   2 F :   -0.270474
   3 O :   -0.466460
   4 O :   -0.483152
   5 H :   -0.007936
   6 H :    0.004676
   7 H :   -0.008024

  Mayer bond orders larger than 0.100000
B(  0-C ,  1-S ) :   1.0056 B(  0-C ,  5-H ) :   0.9223 B(  0-C ,  6-H ) :   0.9270
B(  0-C ,  7-H ) :   0.9275 B(  1-S ,  2-F ) :   0.6702 B(  1-S ,  3-O ) :   1.5598
B(  1-S ,  4-O ) :   1.5263 B(  1-S ,  6-H ) :   0.1090

Dispersion correction           -0.001527781
FINAL SINGLE POINT ENERGY      -687.908808809214

DIPOLE MOMENT
-------------
                                X             Y             Z
Electronic contribution:      0.60990       5.20848      -0.79163
Nuclear contribution   :      0.51040      -6.36905       0.21167
                        -----------------------------------------
Total Dipole Moment    :      1.12030      -1.16057      -0.57996
                        -----------------------------------------
Magnitude (a.u.)       :      1.71416
Magnitude (Debye)      :      4.35705

Rotational constants in cm-1:     0.163860     0.154073     0.147119
Rotational constants in MHz :  4912.396151  4618.979177  4410.507958

                             ****ORCA TERMINATED NORMALLY****
TOTAL RUN TIME: 0 days 0 hours 0 minutes 10 seconds 188 msec
