                         Program Version 5.0.0 -  RELEASE  -
|  1> !wB97X-D3 RIJCOSX def2-SVPD def2/J TightSCF
|  2> *xyz 0 1
|  3> C          4.49059        1.15590       -2.46929
|  4> C          4.30539        1.22276       -3.90832
|  5> C          4.63192        2.24637       -4.67096
|  6> N          4.54169        2.14399       -5.98714
|  7> N          5.08409        3.39358       -4.11855
|  8> H          4.92067        3.57050       -3.13587
|  9> H          5.25465        4.19739       -4.70696
| 10> H          3.82453        0.44911       -4.35093
| 11> H          4.34337        1.24932       -6.41665
| 12> H          4.67671        2.95662       -6.57411
| 13> H          5.00867        2.03053       -2.13534
| 14> H          5.06354        0.28631       -2.22344
| 15> H          3.53600        1.10160       -1.98897
| 16> *
| 17>
| 18> %MaxCore 64000
| 19>
| 20> %pal nprocs 8
| 21> end
| 22>
| 23> %scf
| 24>   MaxIter 150
| 25> end
| 26>
| 27>
| 28>                          ****END OF INPUT****

CARTESIAN COORDINATES (ANGSTROEM)
---------------------------------
  C      4.490590    1.155900   -2.469290
  C      4.305390    1.222760   -3.908320
  C      4.631920    2.246370   -4.670960
  N      4.541690    2.143990   -5.987140
  N      5.084090    3.393580   -4.118550
  H      4.920670    3.570500   -3.135870
  H      5.254650    4.197390   -4.706960
  H      3.824530    0.449110   -4.350930
  H      4.343370    1.249320   -6.416650
  H      4.676710    2.956620   -6.574110
  H      5.008670    2.030530   -2.135340
  H      5.063540    0.286310   -2.223440
  H      3.536000    1.101600   -1.988970

 Total Charge           Charge          ....    0
 Multiplicity           Mult            ....    1
 Number of Electrons    NEL             ....   40
 Basis Dimension        Dim             ....  164

ORBITAL ENERGIES
----------------

  NO   OCC          E(Eh)            E(eV)
   0   2.0000     -14.434875      -392.7929
   1   2.0000     -14.434221      -392.7751
   2   2.0000     -10.330716      -281.1131
   3   2.0000     -10.252678      -278.9895
   4   2.0000     -10.209787      -277.8224
   5   2.0000      -1.067347       -29.0440
   6   2.0000      -0.974452       -26.5162
   7   2.0000      -0.862437       -23.4681
   8   2.0000      -0.763961       -20.7884
   9   2.0000      -0.686974       -18.6935
  10   2.0000      -0.643632       -17.5141
  11   2.0000      -0.614214       -16.7136
  12   2.0000      -0.572668       -15.5831
  13   2.0000      -0.522432       -14.2161
  14   2.0000      -0.509444       -13.8627
  15   2.0000      -0.474170       -12.9028
  16   2.0000      -0.457832       -12.4582
  17   2.0000      -0.437967       -11.9177
  18   2.0000      -0.359046        -9.7701
  19   2.0000      -0.243468        -6.6251
  20   0.0000       0.090872         2.4727
  21   0.0000       0.117383         3.1942
  22   0.0000       0.127536         3.4704
  23   0.0000       0.156991         4.2719
  24   0.0000       0.160454         4.3662

MULLIKEN ATOMIC CHARGES
-----------------------
   0 C :    0.897057
   1 C :   -0.719834
   2 C :    1.051773
   3 N :    0.004399
   4 N :   -0.034421
   5 H :   -0.050653
   6 H :   -0.233075
   7 H :   -0.397324
   8 H :   -0.059564
   9 H :   -0.133521
  10 H :   -0.262294
  11 H :   -0.001554
  12 H :   -0.060990
Sum of atomic charges:    0.0000000

LOEWDIN ATOMIC CHARGES
----------------------
   0 C :    0.097708
   1 C :   -0.075606
   2 C :   -0.223873
   3 N :    0.166263
   4 N :    0.185536
   5 H :   -0.017826
   6 H :   -0.010692
   7 H :   -0.047243
   8 H :    0.010019
   9 H :   -0.006439
  10 H :   -0.044345
  11 H :   -0.016426
  12 H :   -0.017077

  Mayer bond orders larger than 0.100000
B(  0-C ,  1-C ) :   1.0631 B(  0-C ,  7-H ) :   0.1413 B(  0-C , 10-H ) :   0.7965
B(  0-C , 11-H ) :   0.7205 B(  0-C , 12-H ) :   0.7347 B(  1-C ,  2-C ) :   1.6175
B(  1-C ,  3-N ) :   0.3897 B(  1-C ,  4-N ) :   0.2565 B(  1-C ,  7-H ) :   0.9993
B(  1-C , 10-H ) :   0.3639 B(  1-C , 11-H ) :   0.1838 B(  1-C , 12-H ) :   0.1671
B(  2-C ,  3-N ) :   0.8556 B(  2-C ,  4-N ) :   0.9398 B(  2-C ,  6-H ) :  -0.1414
B(  2-C , 10-H ) :  -0.1142 B(  3-N ,  4-N ) :   0.1154 B(  3-N ,  8-H ) :   1.1782
B(  3-N ,  9-H ) :   1.1757 B(  4-N ,  5-H ) :   1.0668 B(  4-N ,  6-H ) :   1.2603
B(  5-H ,  6-H ) :  -0.1386 B(  8-H ,  9-H ) :  -0.1556 B( 10-H , 11-H ) :   0.1377

Dispersion correction           -0.002331427
FINAL SINGLE POINT ENERGY      -228.389657002419

DIPOLE MOMENT
-------------
                                X             Y             Z
Electronic contribution:      0.29369       1.33984      -2.86332
Nuclear contribution   :     -0.29662      -0.64714       2.26125
                        -----------------------------------------
Total Dipole Moment    :     -0.00293       0.69269      -0.60208
                        -----------------------------------------
Magnitude (a.u.)       :      0.91778
Magnitude (Debye)      :      2.33282

Rotational constants in cm-1:     0.320965     0.135060     0.096994
Rotational constants in MHz :  9622.302637  4048.999301  2907.812202

                             ****ORCA TERMINATED NORMALLY****
TOTAL RUN TIME: 0 days 0 hours 0 minutes 13 seconds 731 msec
