                         Program Version 5.0.0 -  RELEASE  -
|  1> !wB97X-D3 RIJCOSX def2-SVPD def2/J TightSCF
|  2> *xyz 0 1
|  3> C          3.51177       -2.80621       -6.49228
|  4> S          3.00462       -1.09621       -6.38926
|  5> O          4.12886       -0.32965       -6.95372
|  6> F          1.78128       -1.00078       -7.13640
|  7> O          2.85155       -0.78368       -4.95679
|  8> H          3.63615       -3.08010       -7.51913
|  9> H          2.76397       -3.42755       -6.04548
| 10> H          4.43892       -2.93511       -5.97393
| 11> *
| 12>
| 13> %MaxCore 64000
| 14>
| 15> %pal nprocs 8
| 16> end
| 17>
| 18> %scf
| 19>   MaxIter 150
| 20> end
| 21>
| 22>
| 23>                          ****END OF INPUT****

CARTESIAN COORDINATES (ANGSTROEM)
---------------------------------
  C      3.511770   -2.806210   -6.492280
  S      3.004620   -1.096210   -6.389260
  O      4.128860   -0.329650   -6.953720
  F      1.781280   -1.000780   -7.136400
  O      2.851550   -0.783680   -4.956790
  H      3.636150   -3.080100   -7.519130
  H      2.763970   -3.427550   -6.045480
  H      4.438920   -2.935110   -5.973930

 Total Charge           Charge          ....    0
 Multiplicity           Mult            ....    1
 Number of Electrons    NEL             ....   50
 Basis Dimension        Dim             ....  140

ORBITAL ENERGIES
----------------

  NO   OCC          E(Eh)            E(eV)
   0   2.0000     -89.244942     -2428.4783
   1   2.0000     -24.931055      -678.4085
   2   2.0000     -19.255815      -523.9774
   3   2.0000     -19.255151      -523.9593
   4   2.0000     -10.355886      -281.7980
   5   2.0000      -8.318940      -226.3699
   6   2.0000      -6.282771      -170.9629
   7   2.0000      -6.275983      -170.7782
   8   2.0000      -6.275075      -170.7535
   9   2.0000      -1.506318       -40.9890
  10   2.0000      -1.221471       -33.2379
  11   2.0000      -1.116400       -30.3788
  12   2.0000      -0.924511       -25.1572
  13   2.0000      -0.836679       -22.7672
  14   2.0000      -0.721173       -19.6241
  15   2.0000      -0.706324       -19.2201
  16   2.0000      -0.667779       -18.1712
  17   2.0000      -0.586322       -15.9546
  18   2.0000      -0.581850       -15.8329
  19   2.0000      -0.573038       -15.5932
  20   2.0000      -0.538505       -14.6535
  21   2.0000      -0.486494       -13.2382
  22   2.0000      -0.433519       -11.7967
  23   2.0000      -0.429018       -11.6742
  24   2.0000      -0.403075       -10.9682
  25   0.0000       0.059422         1.6169
  26   0.0000       0.093140         2.5345
  27   0.0000       0.099003         2.6940
  28   0.0000       0.101257         2.7554
  29   0.0000       0.114370         3.1122

MULLIKEN ATOMIC CHARGES
-----------------------
   0 C :    0.318838
   1 S :    1.282995
   2 O :   -0.659271
   3 F :   -0.370037
   4 O :   -0.659040
   5 H :    0.034323
   6 H :    0.027744
   7 H :    0.024447
Sum of atomic charges:   -0.0000000

LOEWDIN ATOMIC CHARGES
----------------------
   0 C :    0.116741
   1 S :    1.116241
   2 O :   -0.484377
   3 F :   -0.254650
   4 O :   -0.482658
   5 H :   -0.008176
   6 H :   -0.008816
   7 H :    0.005695

  Mayer bond orders larger than 0.100000
B(  0-C ,  1-S ) :   1.0055 B(  0-C ,  5-H ) :   0.9205 B(  0-C ,  6-H ) :   0.9246
B(  0-C ,  7-H ) :   0.9304 B(  1-S ,  2-O ) :   1.5318 B(  1-S ,  3-F ) :   0.7085
B(  1-S ,  4-O ) :   1.5288 B(  1-S ,  7-H ) :   0.1141

Dispersion correction           -0.001528726
FINAL SINGLE POINT ENERGY      -687.893498556189

DIPOLE MOMENT
-------------
                                X             Y             Z
Electronic contribution:     -3.32950       4.08065      -1.08593
Nuclear contribution   :      2.85578      -5.69854       0.39418
                        -----------------------------------------
Total Dipole Moment    :     -0.47372      -1.61789      -0.69175
                        -----------------------------------------
Magnitude (a.u.)       :      1.82223
Magnitude (Debye)      :      4.63173

Rotational constants in cm-1:     0.163257     0.155833     0.146211
Rotational constants in MHz :  4894.333085  4671.750883  4383.281537

                             ****ORCA TERMINATED NORMALLY****
TOTAL RUN TIME: 0 days 0 hours 0 minutes 10 seconds 438 msec
