                         Program Version 5.0.0 -  RELEASE  -
|  1> !wB97X-D3 RIJCOSX def2-SVPD def2/J TightSCF
|  2> *xyz 0 1
|  3> C          4.49059        1.15590       -2.46929
|  4> N          4.30539        1.22276       -3.90832
|  5> C          4.63192        2.24637       -4.67096
|  6> C          4.54169        2.14399       -5.98714
|  7> N          5.08409        3.39358       -4.11855
|  8> H          4.92067        3.57050       -3.13587
|  9> H          5.25465        4.19739       -4.70696
| 10> H          3.82453        0.44911       -4.35093
| 11> H          4.34337        1.24932       -6.41665
| 12> H          4.67671        2.95662       -6.57411
| 13> H          5.00867        2.03053       -2.13534
| 14> H          5.06354        0.28631       -2.22344
| 15> H          3.53600        1.10160       -1.98897
| 16> *
| 17>
| 18> %MaxCore 64000
| 19>
| 20> %pal nprocs 8
| 21> end
| 22>
| 23> %scf
| 24>   MaxIter 150
| 25> end
| 26>
| 27>
| 28>                          ****END OF INPUT****

CARTESIAN COORDINATES (ANGSTROEM)
---------------------------------
  C      4.490590    1.155900   -2.469290
  N      4.305390    1.222760   -3.908320
  C      4.631920    2.246370   -4.670960
  C      4.541690    2.143990   -5.987140
  N      5.084090    3.393580   -4.118550
  H      4.920670    3.570500   -3.135870
  H      5.254650    4.197390   -4.706960
  H      3.824530    0.449110   -4.350930
  H      4.343370    1.249320   -6.416650
  H      4.676710    2.956620   -6.574110
  H      5.008670    2.030530   -2.135340
  H      5.063540    0.286310   -2.223440
  H      3.536000    1.101600   -1.988970

 Total Charge           Charge          ....    0
 Multiplicity           Mult            ....    1
 Number of Electrons    NEL             ....   40
 Basis Dimension        Dim             ....  164

ORBITAL ENERGIES
----------------

  NO   OCC          E(Eh)            E(eV)
   0   2.0000     -14.438661      -392.8960
   1   2.0000     -14.436193      -392.8288
   2   2.0000     -10.336358      -281.2666
   3   2.0000     -10.321898      -280.8731
   4   2.0000     -10.197139      -277.4783
   5   2.0000      -1.078103       -29.3367
   6   2.0000      -0.987749       -26.8780
   7   2.0000      -0.855021       -23.2663
   8   2.0000      -0.773493       -21.0478
   9   2.0000      -0.707919       -19.2634
  10   2.0000      -0.641419       -17.4539
  11   2.0000      -0.593981       -16.1630
  12   2.0000      -0.575218       -15.6525
  13   2.0000      -0.556186       -15.1346
  14   2.0000      -0.506846       -13.7920
  15   2.0000      -0.489227       -13.3125
  16   2.0000      -0.482485       -13.1291
  17   2.0000      -0.458871       -12.4865
  18   2.0000      -0.348019        -9.4701
  19   2.0000      -0.249105        -6.7785
  20   0.0000       0.085652         2.3307
  21   0.0000       0.118629         3.2281
  22   0.0000       0.123233         3.3533
  23   0.0000       0.152032         4.1370
  24   0.0000       0.160287         4.3616

MULLIKEN ATOMIC CHARGES
-----------------------
   0 C :    1.146600
   1 N :   -0.565166
   2 C :    0.858815
   3 C :    0.283296
   4 N :   -0.002753
   5 H :   -0.125439
   6 H :   -0.114240
   7 H :   -0.301197
   8 H :   -0.330787
   9 H :   -0.362105
  10 H :   -0.218550
  11 H :   -0.120028
  12 H :   -0.148446
Sum of atomic charges:   -0.0000000

LOEWDIN ATOMIC CHARGES
----------------------
   0 C :    0.215818
   1 N :   -0.053540
   2 C :   -0.233566
   3 C :    0.128137
   4 N :    0.187013
   5 H :   -0.030947
   6 H :    0.007170
   7 H :    0.040074
   8 H :   -0.098435
   9 H :   -0.100223
  10 H :   -0.033726
  11 H :   -0.013253
  12 H :   -0.014521

  Mayer bond orders larger than 0.100000
B(  0-C ,  1-N ) :   0.8682 B(  0-C ,  7-H ) :  -0.1775 B(  0-C , 10-H ) :   0.8498
B(  0-C , 11-H ) :   0.7990 B(  0-C , 12-H ) :   0.8165 B(  1-N ,  2-C ) :   1.0268
B(  1-N ,  3-C ) :   0.2332 B(  1-N ,  4-N ) :   0.1812 B(  1-N ,  7-H ) :   1.3302
B(  1-N , 10-H ) :   0.2046 B(  1-N , 11-H ) :   0.1703 B(  1-N , 12-H ) :   0.1688
B(  2-C ,  3-C ) :   1.4686 B(  2-C ,  4-N ) :   0.9296 B(  2-C ,  7-H ) :  -0.2090
B(  2-C ,  9-H ) :   0.1360 B(  3-C ,  4-N ) :   0.2090 B(  3-C ,  8-H ) :   0.8938
B(  3-C ,  9-H ) :   0.8270 B(  4-N ,  5-H ) :   1.0868 B(  4-N ,  6-H ) :   1.1737
B(  5-H ,  6-H ) :  -0.1390

Dispersion correction           -0.002342100
FINAL SINGLE POINT ENERGY      -228.377909941398

DIPOLE MOMENT
-------------
                                X             Y             Z
Electronic contribution:      0.08930       0.50280      -0.75590
Nuclear contribution   :     -0.24876      -0.46055       1.84019
                        -----------------------------------------
Total Dipole Moment    :     -0.15946       0.04224       1.08429
                        -----------------------------------------
Magnitude (a.u.)       :      1.09677
Magnitude (Debye)      :      2.78776

Rotational constants in cm-1:     0.322158     0.139919     0.099594
Rotational constants in MHz :  9658.057362  4194.660927  2985.745059

                             ****ORCA TERMINATED NORMALLY****
TOTAL RUN TIME: 0 days 0 hours 0 minutes 13 seconds 808 msec
