                         Program Version 5.0.0 -  RELEASE  -
|  1> !wB97X-D3 RIJCOSX def2-SVPD def2/J TightSCF
|  2> *xyz 0 1
|  3> C          3.51177       -2.80621       -6.49228
|  4> S          3.00462       -1.09621       -6.38926
|  5> O          4.12886       -0.32965       -6.95372
|  6> O          1.78128       -1.00078       -7.13640
|  7> F          2.85155       -0.78368       -4.95679
|  8> H          3.63615       -3.08010       -7.51913
|  9> H          2.76397       -3.42755       -6.04548
| 10> H          4.43892       -2.93511       -5.97393
| 11> *
| 12>
| 13> %MaxCore 64000
| 14>
| 15> %pal nprocs 8
| 16> end
| 17>
| 18> %scf
| 19>   MaxIter 150
| 20> end
| 21>
| 22>
| 23>                          ****END OF INPUT****

CARTESIAN COORDINATES (ANGSTROEM)
---------------------------------
  C      3.511770   -2.806210   -6.492280
  S      3.004620   -1.096210   -6.389260
  O      4.128860   -0.329650   -6.953720
  O      1.781280   -1.000780   -7.136400
  F      2.851550   -0.783680   -4.956790
  H      3.636150   -3.080100   -7.519130
  H      2.763970   -3.427550   -6.045480
  H      4.438920   -2.935110   -5.973930

 Total Charge           Charge          ....    0
 Multiplicity           Mult            ....    1
 Number of Electrons    NEL             ....   50
 Basis Dimension        Dim             ....  140

ORBITAL ENERGIES
----------------

  NO   OCC          E(Eh)            E(eV)
   0   2.0000     -89.242959     -2428.4244
   1   2.0000     -24.913341      -677.9265
   2   2.0000     -19.266685      -524.2732
   3   2.0000     -19.254912      -523.9528
   4   2.0000     -10.354996      -281.7738
   5   2.0000      -8.316906      -226.3145
   6   2.0000      -6.280518      -170.9016
   7   2.0000      -6.274109      -170.7272
   8   2.0000      -6.273277      -170.7045
   9   2.0000      -1.474668       -40.1278
  10   2.0000      -1.234604       -33.5953
  11   2.0000      -1.131382       -30.7865
  12   2.0000      -0.921193       -25.0669
  13   2.0000      -0.821489       -22.3539
  14   2.0000      -0.706150       -19.2153
  15   2.0000      -0.684036       -18.6136
  16   2.0000      -0.664528       -18.0827
  17   2.0000      -0.586513       -15.9598
  18   2.0000      -0.584358       -15.9012
  19   2.0000      -0.573025       -15.5928
  20   2.0000      -0.544715       -14.8225
  21   2.0000      -0.493077       -13.4173
  22   2.0000      -0.443543       -12.0694
  23   2.0000      -0.431799       -11.7498
  24   2.0000      -0.414773       -11.2865
  25   0.0000       0.060672         1.6510
  26   0.0000       0.094472         2.5707
  27   0.0000       0.100071         2.7231
  28   0.0000       0.100579         2.7369
  29   0.0000       0.108882         2.9628

MULLIKEN ATOMIC CHARGES
-----------------------
   0 C :    0.319268
   1 S :    1.290166
   2 O :   -0.670508
   3 O :   -0.633696
   4 F :   -0.389702
   5 H :    0.029533
   6 H :    0.026542
   7 H :    0.028397
Sum of atomic charges:   -0.0000000

LOEWDIN ATOMIC CHARGES
----------------------
   0 C :    0.117138
   1 S :    1.114671
   2 O :   -0.484789
   3 O :   -0.466482
   4 F :   -0.268963
   5 H :    0.005280
   6 H :   -0.009131
   7 H :   -0.007725

  Mayer bond orders larger than 0.100000
B(  0-C ,  1-S ) :   1.0065 B(  0-C ,  5-H ) :   0.9234 B(  0-C ,  6-H ) :   0.9246
B(  0-C ,  7-H ) :   0.9280 B(  1-S ,  2-O ) :   1.5282 B(  1-S ,  3-O ) :   1.5591
B(  1-S ,  4-F ) :   0.6657 B(  1-S ,  5-H ) :   0.1085

Dispersion correction           -0.001524852
FINAL SINGLE POINT ENERGY      -687.908510512518

DIPOLE MOMENT
-------------
                                X             Y             Z
Electronic contribution:     -1.54398       4.44005       2.57993
Nuclear contribution   :      1.78651      -5.91544      -1.78339
                        -----------------------------------------
Total Dipole Moment    :      0.24253      -1.47539       0.79654
                        -----------------------------------------
Magnitude (a.u.)       :      1.69413
Magnitude (Debye)      :      4.30613

Rotational constants in cm-1:     0.165193     0.152051     0.147788
Rotational constants in MHz :  4952.361749  4558.380225  4430.570551

                             ****ORCA TERMINATED NORMALLY****
TOTAL RUN TIME: 0 days 0 hours 0 minutes 9 seconds 880 msec
