                         Program Version 5.0.0 -  RELEASE  -
|  1> !wB97X-D3 RIJCOSX def2-SVPD def2/J TightSCF
|  2> *xyz 0 1
|  3> C          4.49059        1.15590       -2.46929
|  4> N          4.30539        1.22276       -3.90832
|  5> C          4.63192        2.24637       -4.67096
|  6> N          4.54169        2.14399       -5.98714
|  7> C          5.08409        3.39358       -4.11855
|  8> H          4.92067        3.57050       -3.13587
|  9> H          5.25465        4.19739       -4.70696
| 10> H          3.82453        0.44911       -4.35093
| 11> H          4.34337        1.24932       -6.41665
| 12> H          4.67671        2.95662       -6.57411
| 13> H          5.00867        2.03053       -2.13534
| 14> H          5.06354        0.28631       -2.22344
| 15> H          3.53600        1.10160       -1.98897
| 16> *
| 17>
| 18> %MaxCore 64000
| 19>
| 20> %pal nprocs 8
| 21> end
| 22>
| 23> %scf
| 24>   MaxIter 150
| 25> end
| 26>
| 27>
| 28>                          ****END OF INPUT****

CARTESIAN COORDINATES (ANGSTROEM)
---------------------------------
  C      4.490590    1.155900   -2.469290
  N      4.305390    1.222760   -3.908320
  C      4.631920    2.246370   -4.670960
  N      4.541690    2.143990   -5.987140
  C      5.084090    3.393580   -4.118550
  H      4.920670    3.570500   -3.135870
  H      5.254650    4.197390   -4.706960
  H      3.824530    0.449110   -4.350930
  H      4.343370    1.249320   -6.416650
  H      4.676710    2.956620   -6.574110
  H      5.008670    2.030530   -2.135340
  H      5.063540    0.286310   -2.223440
  H      3.536000    1.101600   -1.988970

 Total Charge           Charge          ....    0
 Multiplicity           Mult            ....    1
 Number of Electrons    NEL             ....   40
 Basis Dimension        Dim             ....  164

ORBITAL ENERGIES
----------------

  NO   OCC          E(Eh)            E(eV)
   0   2.0000     -14.441953      -392.9855
   1   2.0000     -14.439436      -392.9170
   2   2.0000     -10.339838      -281.3613
   3   2.0000     -10.311755      -280.5971
   4   2.0000     -10.197449      -277.4867
   5   2.0000      -1.081993       -29.4425
   6   2.0000      -0.994819       -27.0704
   7   2.0000      -0.826719       -22.4962
   8   2.0000      -0.804258       -21.8850
   9   2.0000      -0.675456       -18.3801
  10   2.0000      -0.656916       -17.8756
  11   2.0000      -0.623536       -16.9673
  12   2.0000      -0.557123       -15.1601
  13   2.0000      -0.544009       -14.8032
  14   2.0000      -0.514138       -13.9904
  15   2.0000      -0.480774       -13.0825
  16   2.0000      -0.477479       -12.9929
  17   2.0000      -0.455060       -12.3828
  18   2.0000      -0.345174        -9.3927
  19   2.0000      -0.249123        -6.7790
  20   0.0000       0.089404         2.4328
  21   0.0000       0.111128         3.0239
  22   0.0000       0.124809         3.3962
  23   0.0000       0.151171         4.1136
  24   0.0000       0.157889         4.2964

MULLIKEN ATOMIC CHARGES
-----------------------
   0 C :    1.114545
   1 N :   -0.547139
   2 C :    0.765092
   3 N :    0.038355
   4 C :    0.257459
   5 H :   -0.195425
   6 H :   -0.463204
   7 H :   -0.366955
   8 H :   -0.168784
   9 H :   -0.027537
  10 H :   -0.157693
  11 H :   -0.104123
  12 H :   -0.144590
Sum of atomic charges:    0.0000000

LOEWDIN ATOMIC CHARGES
----------------------
   0 C :    0.223742
   1 N :   -0.060883
   2 C :   -0.234153
   3 N :    0.174193
   4 C :    0.143611
   5 H :   -0.121632
   6 H :   -0.106111
   7 H :    0.025722
   8 H :   -0.003460
   9 H :    0.012777
  10 H :   -0.031245
  11 H :   -0.011787
  12 H :   -0.010774

  Mayer bond orders larger than 0.100000
B(  0-C ,  1-N ) :   0.8715 B(  0-C ,  7-H ) :  -0.1609 B(  0-C , 10-H ) :   0.8671
B(  0-C , 11-H ) :   0.7687 B(  0-C , 12-H ) :   0.7881 B(  1-N ,  2-C ) :   0.9795
B(  1-N ,  3-N ) :   0.1474 B(  1-N ,  4-C ) :   0.2949 B(  1-N ,  7-H ) :   1.3913
B(  1-N , 10-H ) :   0.1645 B(  1-N , 11-H ) :   0.1999 B(  1-N , 12-H ) :   0.1887
B(  2-C ,  3-N ) :   0.9594 B(  2-C ,  4-C ) :   1.7134 B(  2-C ,  5-H ) :   0.1828
B(  2-C ,  6-H ) :   0.1092 B(  2-C ,  7-H ) :  -0.2435 B(  3-N ,  4-C ) :   0.2164
B(  3-N ,  8-H ) :   1.2100 B(  3-N ,  9-H ) :   1.1586 B(  4-C ,  5-H ) :   0.7357
B(  4-C ,  6-H ) :   0.9707 B(  5-H , 10-H ) :   0.1405 B(  8-H ,  9-H ) :  -0.1621

Dispersion correction           -0.002335114
FINAL SINGLE POINT ENERGY      -228.376548201822

DIPOLE MOMENT
-------------
                                X             Y             Z
Electronic contribution:     -0.39777      -0.73789      -2.64192
Nuclear contribution   :     -0.13890      -0.20745       2.21867
                        -----------------------------------------
Total Dipole Moment    :     -0.53667      -0.94535      -0.42326
                        -----------------------------------------
Magnitude (a.u.)       :      1.16655
Magnitude (Debye)      :      2.96514

Rotational constants in cm-1:     0.339212     0.134625     0.098371
Rotational constants in MHz : 10169.318272  4035.946597  2949.073953

                             ****ORCA TERMINATED NORMALLY****
TOTAL RUN TIME: 0 days 0 hours 0 minutes 13 seconds 815 msec
