                         Program Version 5.0.0 -  RELEASE  -
|  1> !wB97X-D3 RIJCOSX def2-SVPD def2/J TightSCF xyzfile
|  2>
|  3> *xyzfile 0 1 D5.xyz
|  4>
|  5> %MaxCore 64000
|  6>
|  7> %pal nprocs 18
|  8> end
|  9>
| 10> %scf
| 11>   MaxIter 150
| 12> end
| 13>
| 14>
| 15>                          ****END OF INPUT****

CARTESIAN COORDINATES (ANGSTROEM)
---------------------------------
  C      4.490588    1.155899   -2.469290
  N      4.305394    1.222762   -3.908317
  C      4.906458   -3.102816   -5.954844
  C      3.511771   -2.806215   -6.492283
  H      2.736044   -3.373445   -5.973736
  H      3.444904   -3.040831   -7.555281
  S      3.004618   -1.096206   -6.389259
  C      4.631918    2.246365   -4.670958
  C      4.541686    2.143990   -5.987139
  N      5.084086    3.393584   -4.118545
  H      4.920675    3.570501   -3.135870
  H      5.254652    4.197390   -4.706956
  H      3.824530    0.449113   -4.350926
  H      4.343373    1.249318   -6.416646
  H      4.676712    2.956624   -6.574113
  O      4.128856   -0.329647   -6.953717
  F      1.781285   -1.000779   -7.136399
  C      5.942129    0.939500   -2.036893
  H      3.864305    0.328532   -2.136611
  H      4.076233    2.049994   -1.989010
  C      6.462677   -3.117775   -3.944671
  C      5.024977   -3.025679   -4.437625
  H      4.423321   -3.818693   -3.977648
  H      4.579350   -2.087131   -4.108727
  H      5.201533   -4.100207   -6.296905
  H      5.605922   -2.397822   -6.413368
  C      6.559957   -0.356290   -2.559086
  H      5.967976    0.952567   -0.942444
  H      6.547184    1.788331   -2.368849
  C      6.006283   -1.615917   -1.899301
  H      7.642360   -0.318000   -2.402059
  H      6.414855   -0.403433   -3.642587
  C      6.608718   -2.917014   -2.435655
  H      6.190324   -1.561115   -0.820948
  H      4.919250   -1.651245   -2.016586
  H      7.066975   -2.374258   -4.475514
  H      6.887808   -4.089747   -4.215332
  H      6.135197   -3.755573   -1.915159
  H      7.671142   -2.955503   -2.172291
  O      2.851546   -0.783683   -4.956789

 Total Charge           Charge          ....    0
 Multiplicity           Mult            ....    1
 Number of Electrons    NEL             ....  144
 Basis Dimension        Dim             ....  540

ORBITAL ENERGIES
----------------

  NO   OCC          E(Eh)            E(eV)
   0   2.0000     -89.253239     -2428.7041
   1   2.0000     -24.938243      -678.6041
   2   2.0000     -19.271412      -524.4018
   3   2.0000     -19.260548      -524.1062
   4   2.0000     -14.411294      -392.1512
   5   2.0000     -14.394917      -391.7056
   6   2.0000     -10.364200      -282.0242
   7   2.0000     -10.322362      -280.8858
   8   2.0000     -10.305468      -280.4260
   9   2.0000     -10.304113      -280.3892
  10   2.0000     -10.293884      -280.1108
  11   2.0000     -10.288176      -279.9555
  12   2.0000     -10.283968      -279.8410
  13   2.0000     -10.278287      -279.6864
  14   2.0000     -10.272133      -279.5189
  15   2.0000     -10.271187      -279.4932
  16   2.0000     -10.157379      -276.3963
  17   2.0000      -8.326314      -226.5705
  18   2.0000      -6.290116      -171.1628
  19   2.0000      -6.283802      -170.9909
  20   2.0000      -6.282141      -170.9457
  21   2.0000      -1.511808       -41.1384
  22   2.0000      -1.235876       -33.6299
  23   2.0000      -1.131507       -30.7899
  24   2.0000      -1.047754       -28.5108
  25   2.0000      -0.962587       -26.1933
  26   2.0000      -0.960726       -26.1427
  27   2.0000      -0.923347       -25.1256
  28   2.0000      -0.894129       -24.3305
  29   2.0000      -0.864461       -23.5232
  30   2.0000      -0.838481       -22.8162
  31   2.0000      -0.809972       -22.0404
  32   2.0000      -0.779414       -21.2089
  33   2.0000      -0.752193       -20.4682
  34   2.0000      -0.729899       -19.8616
  35   2.0000      -0.715110       -19.4591
  36   2.0000      -0.700080       -19.0501
  37   2.0000      -0.698543       -19.0083
  38   2.0000      -0.684627       -18.6297
  39   2.0000      -0.665937       -18.1211
  40   2.0000      -0.652906       -17.7665
  41   2.0000      -0.618932       -16.8420
  42   2.0000      -0.610704       -16.6181
  43   2.0000      -0.595583       -16.2066
  44   2.0000      -0.582346       -15.8464
  45   2.0000      -0.578474       -15.7411
  46   2.0000      -0.565598       -15.3907
  47   2.0000      -0.563976       -15.3466
  48   2.0000      -0.551354       -15.0031
  49   2.0000      -0.543461       -14.7883
  50   2.0000      -0.532437       -14.4883
  51   2.0000      -0.525015       -14.2864
  52   2.0000      -0.515892       -14.0381
  53   2.0000      -0.497015       -13.5245
  54   2.0000      -0.487623       -13.2689
  55   2.0000      -0.484843       -13.1933
  56   2.0000      -0.474405       -12.9092
  57   2.0000      -0.469080       -12.7643
  58   2.0000      -0.456206       -12.4140
  59   2.0000      -0.452990       -12.3265
  60   2.0000      -0.450138       -12.2489
  61   2.0000      -0.443278       -12.0622
  62   2.0000      -0.432787       -11.7767
  63   2.0000      -0.427503       -11.6330
  64   2.0000      -0.421085       -11.4583
  65   2.0000      -0.413503       -11.2520
  66   2.0000      -0.403462       -10.9788
  67   2.0000      -0.401530       -10.9262
  68   2.0000      -0.395533       -10.7630
  69   2.0000      -0.384415       -10.4605
  70   2.0000      -0.319730        -8.7003
  71   2.0000      -0.218248        -5.9388
  72   0.0000       0.058582         1.5941
  73   0.0000       0.081569         2.2196
  74   0.0000       0.086107         2.3431
  75   0.0000       0.096061         2.6140
  76   0.0000       0.105219         2.8632

MULLIKEN ATOMIC CHARGES
-----------------------
   0 C :    1.013549
   1 N :    0.218168
   2 C :    0.122630
   3 C :    0.202355
   4 H :    0.066685
   5 H :    0.067418
   6 S :    1.662091
   7 C :    0.965700
   8 C :    0.595137
   9 N :    0.179359
  10 H :   -0.058368
  11 H :   -0.193938
  12 H :   -1.085142
  13 H :   -0.402484
  14 H :   -0.689633
  15 O :   -0.696686
  16 F :   -0.537996
  17 C :    0.289487
  18 H :   -0.282947
  19 H :   -0.180668
  20 C :   -0.009982
  21 C :    0.211455
  22 H :    0.046047
  23 H :   -0.495792
  24 H :   -0.063134
  25 H :    0.069240
  26 C :    0.120434
  27 H :   -0.148770
  28 H :   -0.030186
  29 C :   -0.160592
  30 H :   -0.150105
  31 H :   -0.118210
  32 C :    0.622379
  33 H :   -0.325909
  34 H :    0.150134
  35 H :    0.123000
  36 H :   -0.312502
  37 H :   -0.028209
  38 H :    0.023057
  39 O :   -0.777074
Sum of atomic charges:    0.0000000

LOEWDIN ATOMIC CHARGES
----------------------
   0 C :    0.060341
   1 N :    0.008398
   2 C :   -0.018847
   3 C :   -0.048761
   4 H :    0.031121
   5 H :    0.026475
   6 S :    1.205125
   7 C :   -0.207801
   8 C :    0.164305
   9 N :    0.190066
  10 H :   -0.028479
  11 H :    0.001648
  12 H :   -0.089231
  13 H :   -0.193674
  14 H :   -0.097443
  15 O :   -0.448145
  16 F :   -0.235669
  17 C :   -0.023738
  18 H :    0.016867
  19 H :    0.009573
  20 C :   -0.035173
  21 C :   -0.026609
  22 H :    0.041445
  23 H :   -0.014157
  24 H :    0.041239
  25 H :    0.034645
  26 C :   -0.031134
  27 H :    0.019896
  28 H :    0.011854
  29 C :   -0.039668
  30 H :    0.026918
  31 H :    0.011462
  32 C :   -0.031531
  33 H :    0.024445
  34 H :    0.005950
  35 H :    0.021336
  36 H :    0.024376
  37 H :    0.022132
  38 H :    0.024164
  39 O :   -0.453723

  Mayer bond orders larger than 0.100000
B(  0-C ,  1-N ) :   0.9287 B(  0-C , 12-H ) :  -0.5152 B(  0-C , 17-C ) :   1.0948
B(  0-C , 18-H ) :   0.6682 B(  0-C , 19-H ) :   0.8720 B(  0-C , 27-H ) :   0.1040
B(  1-N ,  7-C ) :   1.1403 B(  1-N ,  8-C ) :   0.1333 B(  1-N ,  9-N ) :   0.2947
B(  1-N , 12-H ) :   0.9218 B(  1-N , 18-H ) :   0.2462 B(  2-C ,  3-C ) :   1.2622
B(  2-C ,  5-H ) :   0.2626 B(  2-C , 20-C ) :   0.1003 B(  2-C , 21-C ) :   1.1284
B(  2-C , 24-H ) :   0.8416 B(  2-C , 25-H ) :   0.8711 B(  3-C ,  4-H ) :   0.9120
B(  3-C ,  5-H ) :   0.6989 B(  3-C ,  6-S ) :   0.9981 B(  3-C , 16-F ) :   0.1109
B(  3-C , 25-H ) :   0.1027 B(  6-S , 15-O ) :   1.4293 B(  6-S , 16-F ) :   0.4589
B(  6-S , 39-O ) :   1.3295 B(  7-C ,  8-C ) :   1.4225 B(  7-C ,  9-N ) :   0.7873
B(  7-C , 12-H ) :  -0.7227 B(  7-C , 14-H ) :   0.1014 B(  8-C ,  9-N ) :   0.2983
B(  8-C , 13-H ) :   0.4770 B(  8-C , 14-H ) :   0.7776 B(  9-N , 10-H ) :   0.9745
B(  9-N , 11-H ) :   1.2099 B( 10-H , 11-H ) :  -0.1800 B( 12-H , 18-H ) :   0.1035
B( 12-H , 39-O ) :   0.1412 B( 13-H , 14-H ) :  -0.1805 B( 13-H , 15-O ) :   0.1477
B( 17-C , 18-H ) :   0.1172 B( 17-C , 19-H ) :   0.1036 B( 17-C , 26-C ) :   1.2121
B( 17-C , 27-H ) :   0.9420 B( 17-C , 28-H ) :   0.7389 B( 17-C , 31-H ) :   0.1089
B( 18-H , 19-H ) :  -0.1723 B( 20-C , 21-C ) :   1.2259 B( 20-C , 22-H ) :   0.1110
B( 20-C , 32-C ) :   1.1361 B( 20-C , 35-H ) :   0.8588 B( 20-C , 36-H ) :   0.9689
B( 20-C , 37-H ) :   0.1077 B( 20-C , 38-H ) :   0.2073 B( 21-C , 22-H ) :   0.7189
B( 21-C , 23-H ) :   0.8501 B( 21-C , 24-H ) :   0.1829 B( 21-C , 36-H ) :   0.1894
B( 22-H , 23-H ) :   0.2318 B( 23-H , 34-H ) :   0.1187 B( 26-C , 28-H ) :   0.2025
B( 26-C , 29-C ) :   1.1991 B( 26-C , 30-H ) :   0.8790 B( 26-C , 31-H ) :   0.9257
B( 26-C , 33-H ) :   0.1369 B( 29-C , 30-H ) :   0.1498 B( 29-C , 31-H ) :   0.1093
B( 29-C , 32-C ) :   1.1367 B( 29-C , 33-H ) :   1.0501 B( 29-C , 34-H ) :   0.8408
B( 29-C , 37-H ) :   0.2695 B( 29-C , 38-H ) :   0.1340 B( 32-C , 37-H ) :   0.6935
B( 32-C , 38-H ) :   0.7140

Dispersion correction           -0.022008519
FINAL SINGLE POINT ENERGY     -1190.026509615850

DIPOLE MOMENT
-------------
                                X             Y             Z
Electronic contribution:    -20.61009       2.58453     -20.18500
Nuclear contribution   :     20.03262      -4.53368      20.24480
                        -----------------------------------------
Total Dipole Moment    :     -0.57746      -1.94915       0.05980
                        -----------------------------------------
Magnitude (a.u.)       :      2.03378
Magnitude (Debye)      :      5.16945

Rotational constants in cm-1:     0.014367     0.012055     0.007393
Rotational constants in MHz :   430.711297   361.391195   221.649333

                             ****ORCA TERMINATED NORMALLY****
TOTAL RUN TIME: 0 days 0 hours 3 minutes 3 seconds 611 msec
