                         Program Version 5.0.0 -  RELEASE  -
|  1> !PBE0 D3BJ RIJCOSX def2-SVPD def2/J TightSCF
|  2> *xyz -1 1
|  3> C          0.61188        1.65763       -4.50029
|  4> C          1.69499        1.54179       -5.57045
|  5> H          2.69733        1.73466       -5.18400
|  6> H          1.50666        2.27224       -6.35808
|  7> S          1.78029       -0.03313       -6.42874
|  8> O          2.56929        0.21366       -7.60736
|  9> O          0.41688       -0.46297       -6.61859
| 10> C          0.68036        0.65542       -3.34804
| 11> H         -0.35687        1.54923       -4.99113
| 12> H          0.65023        2.67544       -4.09600
| 13> O          2.50513       -0.93326       -5.48257
| 14> H          0.64318       -0.34009       -3.73853
| 15> H         -0.14865        0.81153       -2.68980
| 16> H          1.59447        0.79330       -2.80925
| 17> *
| 18> %MaxCore 64000
| 19>
| 20> %pal nprocs 8
| 21> end
| 22>
| 23> %scf
| 24>   MaxIter 150
| 25> end
| 26>
| 27>
| 28>                          ****END OF INPUT****

CARTESIAN COORDINATES (ANGSTROEM)
---------------------------------
  C      0.611880    1.657630   -4.500290
  C      1.694990    1.541790   -5.570450
  H      2.697330    1.734660   -5.184000
  H      1.506660    2.272240   -6.358080
  S      1.780290   -0.033130   -6.428740
  O      2.569290    0.213660   -7.607360
  O      0.416880   -0.462970   -6.618590
  C      0.680360    0.655420   -3.348040
  H     -0.356870    1.549230   -4.991130
  H      0.650230    2.675440   -4.096000
  O      2.505130   -0.933260   -5.482570
  H      0.643180   -0.340090   -3.738530
  H     -0.148650    0.811530   -2.689800
  H      1.594470    0.793300   -2.809250

 Total Charge           Charge          ....   -1
 Multiplicity           Mult            ....    1
 Number of Electrons    NEL             ....   66
 Basis Dimension        Dim             ....  212

ORBITAL ENERGIES
----------------

  NO   OCC          E(Eh)            E(eV)
   0   2.0000     -89.038731     -2422.8670
   1   2.0000     -19.002673      -517.0890
   2   2.0000     -19.001053      -517.0449
   3   2.0000     -18.982857      -516.5498
   4   2.0000     -10.104599      -274.9601
   5   2.0000     -10.097129      -274.7569
   6   2.0000     -10.084337      -274.4088
   7   2.0000      -7.998258      -217.6437
   8   2.0000      -5.940594      -161.6518
   9   2.0000      -5.940316      -161.6442
  10   2.0000      -5.939891      -161.6327
  11   2.0000      -0.961404       -26.1611
  12   2.0000      -0.825399       -22.4603
  13   2.0000      -0.790832       -21.5196
  14   2.0000      -0.674805       -18.3624
  15   2.0000      -0.584430       -15.9031
  16   2.0000      -0.486488       -13.2380
  17   2.0000      -0.398311       -10.8386
  18   2.0000      -0.348258        -9.4766
  19   2.0000      -0.333953        -9.0873
  20   2.0000      -0.311989        -8.4897
  21   2.0000      -0.297083        -8.0840
  22   2.0000      -0.280470        -7.6320
  23   2.0000      -0.269105        -7.3227
  24   2.0000      -0.236536        -6.4365
  25   2.0000      -0.230271        -6.2660
  26   2.0000      -0.214520        -5.8374
  27   2.0000      -0.168763        -4.5923
  28   2.0000      -0.167722        -4.5639
  29   2.0000      -0.135072        -3.6755
  30   2.0000      -0.124733        -3.3942
  31   2.0000      -0.109567        -2.9815
  32   2.0000      -0.079234        -2.1561
  33   0.0000       0.142596         3.8802
  34   0.0000       0.167112         4.5474
  35   0.0000       0.173898         4.7320
  36   0.0000       0.181486         4.9385
  37   0.0000       0.201162         5.4739

MULLIKEN ATOMIC CHARGES
-----------------------
   0 C :   -0.410268
   1 C :   -0.105670
   2 H :    0.055548
   3 H :    0.063935
   4 S :    1.412515
   5 O :   -0.853830
   6 O :   -0.823871
   7 C :    0.605998
   8 H :    0.064634
   9 H :   -0.092545
  10 O :   -0.861931
  11 H :   -0.022010
  12 H :   -0.036389
  13 H :    0.003884
Sum of atomic charges:   -1.0000000

LOEWDIN ATOMIC CHARGES
----------------------
   0 C :   -0.101699
   1 C :   -0.098742
   2 H :    0.010522
   3 H :    0.002096
   4 S :    0.865673
   5 O :   -0.574264
   6 O :   -0.568500
   7 C :    0.116477
   8 H :    0.015242
   9 H :    0.007947
  10 O :   -0.601053
  11 H :   -0.025126
  12 H :   -0.030929
  13 H :   -0.017643

  Mayer bond orders larger than 0.100000
B(  0-C ,  1-C ) :   1.2638 B(  0-C ,  2-H ) :   0.1220 B(  0-C ,  3-H ) :   0.1271
B(  0-C ,  7-C ) :   1.2913 B(  0-C ,  8-H ) :   0.9025 B(  0-C ,  9-H ) :   0.9295
B(  0-C , 11-H ) :   0.2030 B(  0-C , 12-H ) :   0.1904 B(  0-C , 13-H ) :   0.2027
B(  1-C ,  2-H ) :   0.9387 B(  1-C ,  3-H ) :   0.9135 B(  1-C ,  4-S ) :   0.9387
B(  1-C ,  8-H ) :   0.1294 B(  1-C ,  9-H ) :   0.1248 B(  4-S ,  5-O ) :   1.3182
B(  4-S ,  6-O ) :   1.2603 B(  4-S , 10-O ) :   1.2248 B(  7-C , 11-H ) :   0.8517
B(  7-C , 12-H ) :   0.7865 B(  7-C , 13-H ) :   0.7880

Dispersion correction           -0.011503491
FINAL SINGLE POINT ENERGY      -741.560863723513

DIPOLE MOMENT
-------------
                                X             Y             Z
Electronic contribution:      3.17246      -5.24969      -8.59885
Nuclear contribution   :     -3.81113       6.97418       9.97106
                        -----------------------------------------
Total Dipole Moment    :     -0.63868       1.72450       1.37221
                        -----------------------------------------
Magnitude (a.u.)       :      2.29451
Magnitude (Debye)      :      5.83217

Rotational constants in cm-1:     0.136135     0.055477     0.052562
Rotational constants in MHz :  4081.221574  1663.170947  1575.772362

                             ****ORCA TERMINATED NORMALLY****
TOTAL RUN TIME: 0 days 0 hours 0 minutes 14 seconds 69 msec
