                         Program Version 5.0.0 -  RELEASE  -
|  1> !PBE0 D3BJ RIJCOSX def2-SVPD def2/J TightSCF
|  2> *xyz 1 1
|  3> C          1.96337       -1.74915       -1.89689
|  4> N          2.73849       -2.01517       -3.09711
|  5> C          4.04974       -2.15472       -3.15204
|  6> N          4.65821       -1.98629       -4.31866
|  7> N          4.76423       -2.45444       -2.05049
|  8> H          4.28736       -2.77626       -1.21750
|  9> H          5.75082       -2.65835       -2.12599
| 10> H          2.34518       -1.69027       -3.97145
| 11> H          4.10900       -1.59268       -5.07176
| 12> H          5.64910       -2.15646       -4.42724
| 13> C          2.08852       -0.30091       -1.41520
| 14> H          2.23127       -2.45162       -1.10264
| 15> H          0.93025       -1.97780       -2.15544
| 16> C          1.96899        0.73358       -2.53565
| 17> H          3.05136       -0.16860       -0.91187
| 18> H          1.31650       -0.13623       -0.65725
| 19> H          2.73046        0.55745       -3.26643
| 20> H          2.08619        1.71595       -2.12808
| 21> H          1.00672        0.65098       -2.99620
| 22> *
| 23> %MaxCore 64000
| 24>
| 25> %pal nprocs 8
| 26> end
| 27>
| 28> %scf
| 29>   MaxIter 150
| 30> end
| 31>
| 32>
| 33>                          ****END OF INPUT****

CARTESIAN COORDINATES (ANGSTROEM)
---------------------------------
  C      1.963370   -1.749150   -1.896890
  N      2.738490   -2.015170   -3.097110
  C      4.049740   -2.154720   -3.152040
  N      4.658210   -1.986290   -4.318660
  N      4.764230   -2.454440   -2.050490
  H      4.287360   -2.776260   -1.217500
  H      5.750820   -2.658350   -2.125990
  H      2.345180   -1.690270   -3.971450
  H      4.109000   -1.592680   -5.071760
  H      5.649100   -2.156460   -4.427240
  C      2.088520   -0.300910   -1.415200
  H      2.231270   -2.451620   -1.102640
  H      0.930250   -1.977800   -2.155440
  C      1.968990    0.733580   -2.535650
  H      3.051360   -0.168600   -0.911870
  H      1.316500   -0.136230   -0.657250
  H      2.730460    0.557450   -3.266430
  H      2.086190    1.715950   -2.128080
  H      1.006720    0.650980   -2.996200

 Total Charge           Charge          ....    1
 Multiplicity           Mult            ....    1
 Number of Electrons    NEL             ....   56
 Basis Dimension        Dim             ....  236

ORBITAL ENERGIES
----------------

  NO   OCC          E(Eh)            E(eV)
   0   2.0000     -14.620173      -397.8351
   1   2.0000     -14.618549      -397.7909
   2   2.0000     -14.617366      -397.7587
   3   2.0000     -10.565366      -287.4982
   4   2.0000     -10.436243      -283.9846
   5   2.0000     -10.376370      -282.3554
   6   2.0000     -10.352475      -281.7052
   7   2.0000      -1.236084       -33.6356
   8   2.0000      -1.122534       -30.5457
   9   2.0000      -1.109156       -30.1817
  10   2.0000      -0.957470       -26.0541
  11   2.0000      -0.882188       -24.0056
  12   2.0000      -0.841899       -22.9092
  13   2.0000      -0.800973       -21.7956
  14   2.0000      -0.785733       -21.3809
  15   2.0000      -0.741869       -20.1873
  16   2.0000      -0.708667       -19.2838
  17   2.0000      -0.700848       -19.0710
  18   2.0000      -0.672805       -18.3080
  19   2.0000      -0.641093       -17.4450
  20   2.0000      -0.615028       -16.7358
  21   2.0000      -0.599490       -16.3130
  22   2.0000      -0.562145       -15.2967
  23   2.0000      -0.520111       -14.1529
  24   2.0000      -0.507896       -13.8206
  25   2.0000      -0.495573       -13.4852
  26   2.0000      -0.485614       -13.2142
  27   2.0000      -0.458660       -12.4808
  28   0.0000      -0.164114        -4.4658
  29   0.0000      -0.147186        -4.0051
  30   0.0000      -0.116330        -3.1655
  31   0.0000      -0.102972        -2.8020
  32   0.0000      -0.079780        -2.1709

MULLIKEN ATOMIC CHARGES
-----------------------
   0 C :    0.736350
   1 N :   -0.579005
   2 C :    1.680893
   3 N :   -0.252317
   4 N :   -0.134166
   5 H :   -0.007893
   6 H :   -0.133001
   7 H :   -0.131807
   8 H :    0.032107
   9 H :   -0.073670
  10 C :   -0.442758
  11 H :   -0.046681
  12 H :   -0.190027
  13 C :    0.616279
  14 H :    0.033962
  15 H :   -0.027587
  16 H :   -0.107205
  17 H :   -0.025537
  18 H :    0.052062
Sum of atomic charges:    1.0000000

LOEWDIN ATOMIC CHARGES
----------------------
   0 C :    0.075732
   1 N :    0.036906
   2 C :   -0.029514
   3 N :    0.262104
   4 N :    0.277807
   5 H :    0.022877
   6 H :    0.037210
   7 H :    0.052183
   8 H :    0.038936
   9 H :    0.044317
  10 C :   -0.050179
  11 H :    0.028935
  12 H :    0.044546
  13 C :    0.132006
  14 H :    0.022910
  15 H :    0.039014
  16 H :   -0.032183
  17 H :    0.000570
  18 H :   -0.004177

  Mayer bond orders larger than 0.100000
B(  0-C ,  1-N ) :   0.8947 B(  0-C ,  7-H ) :  -0.1420 B(  0-C , 10-C ) :   1.0942
B(  0-C , 11-H ) :   0.8990 B(  0-C , 12-H ) :   0.7738 B(  0-C , 15-H ) :   0.1014
B(  1-N ,  2-C ) :   0.9718 B(  1-N ,  3-N ) :   0.3302 B(  1-N ,  4-N ) :   0.2173
B(  1-N ,  7-H ) :   1.2464 B(  1-N , 11-H ) :   0.1220 B(  1-N , 12-H ) :   0.2513
B(  2-C ,  3-N ) :   0.6313 B(  2-C ,  4-N ) :   0.8388 B(  2-C ,  5-H ) :  -0.1175
B(  2-C ,  6-H ) :  -0.1696 B(  2-C ,  7-H ) :  -0.2048 B(  2-C ,  8-H ) :  -0.1459
B(  2-C ,  9-H ) :  -0.1739 B(  3-N ,  4-N ) :   0.1794 B(  3-N ,  8-H ) :   1.1278
B(  3-N ,  9-H ) :   1.2979 B(  4-N ,  5-H ) :   1.0762 B(  4-N ,  6-H ) :   1.3058
B(  5-H ,  6-H ) :  -0.2017 B(  8-H ,  9-H ) :  -0.1727 B( 10-C , 12-H ) :   0.1285
B( 10-C , 13-C ) :   1.3187 B( 10-C , 14-H ) :   0.9544 B( 10-C , 15-H ) :   0.9734
B( 10-C , 16-H ) :   0.1898 B( 10-C , 17-H ) :   0.1826 B( 10-C , 18-H ) :   0.1837
B( 13-C , 16-H ) :   0.8667 B( 13-C , 17-H ) :   0.8259 B( 13-C , 18-H ) :   0.7863
B( 16-H , 18-H ) :   0.1001

Dispersion correction           -0.013737618
FINAL SINGLE POINT ENERGY      -323.134987793516

DIPOLE MOMENT
-------------
                                X             Y             Z
Electronic contribution:      3.88727      -4.88906      -2.31686
Nuclear contribution   :     -2.72963       4.05673       1.67650
                        -----------------------------------------
Total Dipole Moment    :      1.15764      -0.83233      -0.64036
                        -----------------------------------------
Magnitude (a.u.)       :      1.56300
Magnitude (Debye)      :      3.97282

Rotational constants in cm-1:     0.140891     0.054763     0.048590
Rotational constants in MHz :  4223.814968  1641.764475  1456.690885

                             ****ORCA TERMINATED NORMALLY****
TOTAL RUN TIME: 0 days 0 hours 0 minutes 17 seconds 761 msec
