                         Program Version 5.0.0 -  RELEASE  -
|  1> !PBE0 D3BJ RIJCOSX def2-SVPD def2/J TightSCF xyzfile
|  2>
|  3> *xyzfile 0 1 B.xyz
|  4>
|  5> %MaxCore 64000
|  6>
|  7> %pal nprocs 4
|  8> end
|  9>
| 10> %scf
| 11>   MaxIter 150
| 12> end
| 13>
| 14>
| 15>                          ****END OF INPUT****

CARTESIAN COORDINATES (ANGSTROEM)
---------------------------------
  C      1.963365   -1.749150   -1.896887
  N      2.738490   -2.015170   -3.097113
  C      0.611877    1.657634   -4.500288
  C      1.694991    1.541794   -5.570447
  H      2.697326    1.734659   -5.183996
  H      1.506656    2.272239   -6.358076
  S      1.780287   -0.033128   -6.428739
  C      4.049736   -2.154717   -3.152044
  N      4.658206   -1.986293   -4.318655
  N      4.764231   -2.454435   -2.050491
  H      4.287363   -2.776259   -1.217496
  H      5.750825   -2.658351   -2.125988
  H      2.345176   -1.690274   -3.971447
  H      4.109004   -1.592677   -5.071760
  H      5.649095   -2.156462   -4.427237
  O      2.569287    0.213657   -7.607360
  O      0.416880   -0.462969   -6.618595
  C      2.088520   -0.300912   -1.415204
  H      2.231272   -2.451616   -1.102643
  H      0.930249   -1.977801   -2.155438
  C      0.680356    0.655418   -3.348038
  H     -0.356865    1.549231   -4.991128
  H      0.650228    2.675438   -4.096000
  C      1.968993    0.733582   -2.535654
  H      3.051356   -0.168602   -0.911868
  H      1.316501   -0.136231   -0.657252
  O      2.505129   -0.933263   -5.482570
  H      2.824195    0.624726   -3.208464
  H      2.058919    1.730331   -2.093112
  H      0.542252   -0.344731   -3.766662
  H     -0.174219    0.829692   -2.685182

 Total Charge           Charge          ....    0
 Multiplicity           Mult            ....    1
 Number of Electrons    NEL             ....  120
 Basis Dimension        Dim             ....  432

ORBITAL ENERGIES
----------------

  NO   OCC          E(Eh)            E(eV)
   0   2.0000     -89.185902     -2426.8718
   1   2.0000     -19.159033      -521.3438
   2   2.0000     -19.137668      -520.7624
   3   2.0000     -19.136490      -520.7304
   4   2.0000     -14.484756      -394.1502
   5   2.0000     -14.455744      -393.3608
   6   2.0000     -14.452859      -393.2823
   7   2.0000     -10.415522      -283.4208
   8   2.0000     -10.306961      -280.4667
   9   2.0000     -10.257542      -279.1219
  10   2.0000     -10.238445      -278.6022
  11   2.0000     -10.226649      -278.2813
  12   2.0000     -10.224545      -278.2240
  13   2.0000     -10.223210      -278.1877
  14   2.0000      -8.144275      -221.6170
  15   2.0000      -6.087559      -165.6509
  16   2.0000      -6.086107      -165.6114
  17   2.0000      -6.085388      -165.5918
  18   2.0000      -1.107589       -30.1390
  19   2.0000      -1.085591       -29.5404
  20   2.0000      -0.976649       -26.5760
  21   2.0000      -0.962862       -26.2008
  22   2.0000      -0.960472       -26.1358
  23   2.0000      -0.955212       -25.9926
  24   2.0000      -0.840959       -22.8837
  25   2.0000      -0.801834       -21.8190
  26   2.0000      -0.753507       -20.5040
  27   2.0000      -0.714617       -19.4457
  28   2.0000      -0.687994       -18.7213
  29   2.0000      -0.654098       -17.7989
  30   2.0000      -0.646481       -17.5916
  31   2.0000      -0.612601       -16.6697
  32   2.0000      -0.589591       -16.0436
  33   2.0000      -0.573357       -15.6018
  34   2.0000      -0.558995       -15.2110
  35   2.0000      -0.537684       -14.6311
  36   2.0000      -0.520970       -14.1763
  37   2.0000      -0.498758       -13.5719
  38   2.0000      -0.494135       -13.4461
  39   2.0000      -0.485456       -13.2099
  40   2.0000      -0.472333       -12.8528
  41   2.0000      -0.456851       -12.4316
  42   2.0000      -0.445381       -12.1194
  43   2.0000      -0.434780       -11.8310
  44   2.0000      -0.420215       -11.4346
  45   2.0000      -0.411319       -11.1926
  46   2.0000      -0.393369       -10.7041
  47   2.0000      -0.385286       -10.4842
  48   2.0000      -0.378659       -10.3038
  49   2.0000      -0.351150        -9.5553
  50   2.0000      -0.347397        -9.4532
  51   2.0000      -0.343701        -9.3526
  52   2.0000      -0.327964        -8.9244
  53   2.0000      -0.321152        -8.7390
  54   2.0000      -0.312909        -8.5147
  55   2.0000      -0.310135        -8.4392
  56   2.0000      -0.278056        -7.5663
  57   2.0000      -0.268338        -7.3018
  58   2.0000      -0.259103        -7.0506
  59   2.0000      -0.234304        -6.3757
  60   0.0000      -0.024438        -0.6650
  61   0.0000      -0.019117        -0.5202
  62   0.0000       0.006392         0.1739
  63   0.0000       0.029890         0.8134
  64   0.0000       0.036388         0.9902

MULLIKEN ATOMIC CHARGES
-----------------------
   0 C :    0.899057
   1 N :   -0.208877
   2 C :    0.307743
   3 C :   -0.027072
   4 H :    0.136077
   5 H :   -0.030973
   6 S :    1.508652
   7 C :    1.648176
   8 N :    0.040911
   9 N :   -0.106465
  10 H :   -0.030766
  11 H :   -0.166447
  12 H :   -0.537673
  13 H :   -0.110597
  14 H :   -0.194094
  15 O :   -0.833952
  16 O :   -0.842973
  17 C :    0.275928
  18 H :   -0.352440
  19 H :   -0.045337
  20 C :   -0.154595
  21 H :    0.083126
  22 H :    0.004459
  23 C :   -0.143373
  24 H :   -0.003332
  25 H :    0.025163
  26 O :   -0.943989
  27 H :    0.156428
  28 H :   -0.254099
  29 H :    0.031939
  30 H :   -0.130605
Sum of atomic charges:   -0.0000000

LOEWDIN ATOMIC CHARGES
----------------------
   0 C :    0.076303
   1 N :    0.068819
   2 C :   -0.036807
   3 C :   -0.070652
   4 H :    0.009195
   5 H :    0.018820
   6 S :    0.958113
   7 C :   -0.026685
   8 N :    0.277882
   9 N :    0.249100
  10 H :    0.005626
  11 H :    0.019013
  12 H :   -0.066653
  13 H :   -0.057213
  14 H :    0.028940
  15 O :   -0.524116
  16 O :   -0.520624
  17 C :   -0.016117
  18 H :    0.012914
  19 H :    0.034679
  20 C :   -0.029126
  21 H :    0.029118
  22 H :    0.026953
  23 C :   -0.031241
  24 H :    0.016438
  25 H :    0.028878
  26 O :   -0.559706
  27 H :    0.009361
  28 H :    0.029910
  29 H :    0.007750
  30 H :    0.031128

  Mayer bond orders larger than 0.100000
B(  0-C ,  1-N ) :   0.8174 B(  0-C , 12-H ) :  -0.3079 B(  0-C , 17-C ) :   1.0955
B(  0-C , 18-H ) :   0.9374 B(  0-C , 19-H ) :   0.6922 B(  0-C , 25-H ) :   0.1013
B(  1-N ,  7-C ) :   1.0508 B(  1-N ,  8-N ) :   0.1595 B(  1-N ,  9-N ) :   0.2421
B(  1-N , 12-H ) :   1.2763 B(  1-N , 18-H ) :   0.1084 B(  1-N , 19-H ) :   0.1626
B(  2-C ,  3-C ) :   1.2713 B(  2-C ,  5-H ) :   0.1549 B(  2-C , 20-C ) :   1.2901
B(  2-C , 21-H ) :   0.6966 B(  2-C , 22-H ) :   0.8092 B(  3-C ,  4-H ) :   0.8837
B(  3-C ,  5-H ) :   0.8935 B(  3-C ,  6-S ) :   1.0069 B(  3-C , 21-H ) :   0.1244
B(  3-C , 22-H ) :   0.1191 B(  6-S , 15-O ) :   1.3137 B(  6-S , 16-O ) :   1.2264
B(  6-S , 26-O ) :   1.0336 B(  7-C ,  8-N ) :   0.7187 B(  7-C ,  9-N ) :   0.7670
B(  7-C , 10-H ) :  -0.1203 B(  7-C , 11-H ) :  -0.1453 B(  7-C , 12-H ) :  -0.4193
B(  7-C , 13-H ) :  -0.1992 B(  7-C , 14-H ) :  -0.2480 B(  8-N ,  9-N ) :   0.1649
B(  8-N , 13-H ) :   1.1219 B(  8-N , 14-H ) :   1.3990 B(  9-N , 10-H ) :   1.0863
B(  9-N , 11-H ) :   1.3067 B( 10-H , 11-H ) :  -0.2104 B( 12-H , 19-H ) :   0.1444
B( 12-H , 28-H ) :  -0.1029 B( 13-H , 14-H ) :  -0.2164 B( 13-H , 26-O ) :   0.2361
B( 16-O , 26-O ) :   0.1280 B( 17-C , 18-H ) :   0.1269 B( 17-C , 23-C ) :   1.2771
B( 17-C , 24-H ) :   0.8005 B( 17-C , 25-H ) :   0.8603 B( 18-H , 19-H ) :  -0.1061
B( 20-C , 21-H ) :   0.2326 B( 20-C , 23-C ) :   1.1943 B( 20-C , 28-H ) :   0.1392
B( 20-C , 29-H ) :   0.9467 B( 20-C , 30-H ) :   0.8883 B( 23-C , 24-H ) :   0.1807
B( 23-C , 25-H ) :   0.1203 B( 23-C , 27-H ) :   0.8599 B( 23-C , 28-H ) :   0.9848
B( 23-C , 30-H ) :   0.1348

Dispersion correction           -0.032960852
FINAL SINGLE POINT ENERGY     -1063.674405136946

DIPOLE MOMENT
-------------
                                X             Y             Z
Electronic contribution:      2.24860      -4.94332     -14.17316
Nuclear contribution   :      0.44641       3.59123      19.13564
                        -----------------------------------------
Total Dipole Moment    :      2.69501      -1.35208       4.96248
                        -----------------------------------------
Magnitude (a.u.)       :      5.80667
Magnitude (Debye)      :     14.75938

Rotational constants in cm-1:     0.029186     0.014646     0.011115
Rotational constants in MHz :   874.975540   439.070287   333.231642

                             ****ORCA TERMINATED NORMALLY****
TOTAL RUN TIME: 0 days 0 hours 2 minutes 36 seconds 23 msec
