                         Program Version 5.0.0 -  RELEASE  -
|  1> !PBE0 D3BJ RIJCOSX def2-SVPD def2/J TightSCF
|  2> *xyz 0 1
|  3> C          0.61188        1.65763       -4.50029
|  4> C          1.69499        1.54179       -5.57045
|  5> H          2.69733        1.73466       -5.18400
|  6> H          1.50666        2.27224       -6.35808
|  7> S          1.78029       -0.03313       -6.42874
|  8> F          2.56929        0.21366       -7.60736
|  9> O          0.41688       -0.46297       -6.61859
| 10> C          0.68036        0.65542       -3.34804
| 11> H         -0.35687        1.54923       -4.99113
| 12> H          0.65023        2.67544       -4.09600
| 13> O          2.50513       -0.93326       -5.48257
| 14> H          0.64318       -0.34009       -3.73853
| 15> H         -0.14865        0.81153       -2.68980
| 16> H          1.59447        0.79330       -2.80925
| 17> *
| 18> %MaxCore 64000
| 19>
| 20> %pal nprocs 8
| 21> end
| 22>
| 23> %scf
| 24>   MaxIter 150
| 25> end
| 26>
| 27>
| 28>                          ****END OF INPUT****

CARTESIAN COORDINATES (ANGSTROEM)
---------------------------------
  C      0.611880    1.657630   -4.500290
  C      1.694990    1.541790   -5.570450
  H      2.697330    1.734660   -5.184000
  H      1.506660    2.272240   -6.358080
  S      1.780290   -0.033130   -6.428740
  F      2.569290    0.213660   -7.607360
  O      0.416880   -0.462970   -6.618590
  C      0.680360    0.655420   -3.348040
  H     -0.356870    1.549230   -4.991130
  H      0.650230    2.675440   -4.096000
  O      2.505130   -0.933260   -5.482570
  H      0.643180   -0.340090   -3.738530
  H     -0.148650    0.811530   -2.689800
  H      1.594470    0.793300   -2.809250

 Total Charge           Charge          ....    0
 Multiplicity           Mult            ....    1
 Number of Electrons    NEL             ....   66
 Basis Dimension        Dim             ....  212

ORBITAL ENERGIES
----------------

  NO   OCC          E(Eh)            E(eV)
   0   2.0000     -89.296869     -2429.8913
   1   2.0000     -24.905714      -677.7189
   2   2.0000     -19.234852      -523.4069
   3   2.0000     -19.215032      -522.8676
   4   2.0000     -10.296903      -280.1930
   5   2.0000     -10.263260      -279.2775
   6   2.0000     -10.224019      -278.2097
   7   2.0000      -8.257295      -224.6924
   8   2.0000      -6.203487      -168.8055
   9   2.0000      -6.197235      -168.6353
  10   2.0000      -6.195908      -168.5992
  11   2.0000      -1.412779       -38.4437
  12   2.0000      -1.136170       -30.9168
  13   2.0000      -1.025904       -27.9163
  14   2.0000      -0.851186       -23.1620
  15   2.0000      -0.778706       -21.1897
  16   2.0000      -0.729655       -19.8549
  17   2.0000      -0.654800       -17.8180
  18   2.0000      -0.611488       -16.6394
  19   2.0000      -0.599804       -16.3215
  20   2.0000      -0.574365       -15.6293
  21   2.0000      -0.510733       -13.8977
  22   2.0000      -0.501293       -13.6409
  23   2.0000      -0.472776       -12.8649
  24   2.0000      -0.463990       -12.6258
  25   2.0000      -0.442116       -12.0306
  26   2.0000      -0.404386       -11.0039
  27   2.0000      -0.390261       -10.6196
  28   2.0000      -0.384700       -10.4682
  29   2.0000      -0.368371       -10.0239
  30   2.0000      -0.351705        -9.5704
  31   2.0000      -0.329426        -8.9641
  32   2.0000      -0.318573        -8.6688
  33   0.0000       0.002759         0.0751
  34   0.0000       0.021699         0.5905
  35   0.0000       0.040323         1.0972
  36   0.0000       0.042770         1.1638
  37   0.0000       0.052833         1.4377

MULLIKEN ATOMIC CHARGES
-----------------------
   0 C :   -0.413207
   1 C :   -0.133799
   2 H :    0.103512
   3 H :    0.116066
   4 S :    1.598517
   5 F :   -0.452393
   6 O :   -0.690185
   7 C :    0.619181
   8 H :    0.080871
   9 H :   -0.062522
  10 O :   -0.730134
  11 H :   -0.039314
  12 H :   -0.014308
  13 H :    0.017714
Sum of atomic charges:    0.0000000

LOEWDIN ATOMIC CHARGES
----------------------
   0 C :   -0.071412
   1 C :   -0.064203
   2 H :    0.028945
   3 H :    0.018622
   4 S :    1.130792
   5 F :   -0.256973
   6 O :   -0.460517
   7 C :    0.138303
   8 H :    0.028903
   9 H :    0.034897
  10 O :   -0.491185
  11 H :   -0.020445
  12 H :   -0.009901
  13 H :   -0.005825

  Mayer bond orders larger than 0.100000
B(  0-C ,  1-C ) :   1.3211 B(  0-C ,  2-H ) :   0.1179 B(  0-C ,  3-H ) :   0.1383
B(  0-C ,  7-C ) :   1.3092 B(  0-C ,  8-H ) :   0.8960 B(  0-C ,  9-H ) :   0.9256
B(  0-C , 11-H ) :   0.1877 B(  0-C , 12-H ) :   0.1825 B(  0-C , 13-H ) :   0.1962
B(  1-C ,  2-H ) :   0.9277 B(  1-C ,  3-H ) :   0.8594 B(  1-C ,  4-S ) :   0.9804
B(  1-C ,  8-H ) :   0.1255 B(  1-C ,  9-H ) :   0.1150 B(  4-S ,  5-F ) :   0.6449
B(  4-S ,  6-O ) :   1.4670 B(  4-S , 10-O ) :   1.4238 B(  7-C , 11-H ) :   0.8595
B(  7-C , 12-H ) :   0.7868 B(  7-C , 13-H ) :   0.7880

Dispersion correction           -0.011126072
FINAL SINGLE POINT ENERGY      -766.031058677474

DIPOLE MOMENT
-------------
                                X             Y             Z
Electronic contribution:      5.10316      -5.39679     -11.97334
Nuclear contribution   :     -4.93724       7.05784      11.92827
                        -----------------------------------------
Total Dipole Moment    :      0.16591       1.66105      -0.04506
                        -----------------------------------------
Magnitude (a.u.)       :      1.66992
Magnitude (Debye)      :      4.24460

Rotational constants in cm-1:     0.134572     0.053398     0.050578
Rotational constants in MHz :  4034.377338  1600.833917  1516.302250

                             ****ORCA TERMINATED NORMALLY****
TOTAL RUN TIME: 0 days 0 hours 0 minutes 13 seconds 452 msec
