                         Program Version 5.0.0 -  RELEASE  -
|  1> !PBE0 D3BJ RIJCOSX def2-SVPD def2/J TightSCF
|  2> *xyz 0 1
|  3> C          1.96337       -1.74915       -1.89689
|  4> C          2.73849       -2.01517       -3.09711
|  5> C          4.04974       -2.15472       -3.15204
|  6> N          4.65821       -1.98629       -4.31866
|  7> N          4.76423       -2.45444       -2.05049
|  8> H          4.28736       -2.77626       -1.21750
|  9> H          5.75082       -2.65835       -2.12599
| 10> H          2.34518       -1.69027       -3.97145
| 11> H          4.10900       -1.59268       -5.07176
| 12> H          5.64910       -2.15646       -4.42724
| 13> C          2.08852       -0.30091       -1.41520
| 14> H          2.23127       -2.45162       -1.10264
| 15> H          0.93025       -1.97780       -2.15544
| 16> C          1.96899        0.73358       -2.53565
| 17> H          3.05136       -0.16860       -0.91187
| 18> H          1.31650       -0.13623       -0.65725
| 19> H          2.73046        0.55745       -3.26643
| 20> H          2.08619        1.71595       -2.12808
| 21> H          1.00672        0.65098       -2.99620
| 22> *
| 23> %MaxCore 64000
| 24>
| 25> %pal nprocs 8
| 26> end
| 27>
| 28> %scf
| 29>   MaxIter 150
| 30> end
| 31>
| 32>
| 33>                          ****END OF INPUT****

CARTESIAN COORDINATES (ANGSTROEM)
---------------------------------
  C      1.963370   -1.749150   -1.896890
  C      2.738490   -2.015170   -3.097110
  C      4.049740   -2.154720   -3.152040
  N      4.658210   -1.986290   -4.318660
  N      4.764230   -2.454440   -2.050490
  H      4.287360   -2.776260   -1.217500
  H      5.750820   -2.658350   -2.125990
  H      2.345180   -1.690270   -3.971450
  H      4.109000   -1.592680   -5.071760
  H      5.649100   -2.156460   -4.427240
  C      2.088520   -0.300910   -1.415200
  H      2.231270   -2.451620   -1.102640
  H      0.930250   -1.977800   -2.155440
  C      1.968990    0.733580   -2.535650
  H      3.051360   -0.168600   -0.911870
  H      1.316500   -0.136230   -0.657250
  H      2.730460    0.557450   -3.266430
  H      2.086190    1.715950   -2.128080
  H      1.006720    0.650980   -2.996200

 Total Charge           Charge          ....    0
 Multiplicity           Mult            ....    1
 Number of Electrons    NEL             ....   56
 Basis Dimension        Dim             ....  236

ORBITAL ENERGIES
----------------

  NO   OCC          E(Eh)            E(eV)
   0   2.0000     -14.398556      -391.8046
   1   2.0000     -14.396803      -391.7569
   2   2.0000     -10.275494      -279.6104
   3   2.0000     -10.208876      -277.7976
   4   2.0000     -10.206237      -277.7258
   5   2.0000     -10.198422      -277.5132
   6   2.0000     -10.153142      -276.2810
   7   2.0000      -0.979676       -26.6583
   8   2.0000      -0.888359       -24.1735
   9   2.0000      -0.802879       -21.8475
  10   2.0000      -0.734962       -19.9993
  11   2.0000      -0.674672       -18.3588
  12   2.0000      -0.612863       -16.6769
  13   2.0000      -0.583306       -15.8726
  14   2.0000      -0.560046       -15.2396
  15   2.0000      -0.519475       -14.1356
  16   2.0000      -0.489816       -13.3286
  17   2.0000      -0.458392       -12.4735
  18   2.0000      -0.449189       -12.2230
  19   2.0000      -0.420917       -11.4537
  20   2.0000      -0.400750       -10.9050
  21   2.0000      -0.386566       -10.5190
  22   2.0000      -0.368610       -10.0304
  23   2.0000      -0.342459        -9.3188
  24   2.0000      -0.324348        -8.8260
  25   2.0000      -0.318744        -8.6735
  26   2.0000      -0.278840        -7.5876
  27   2.0000      -0.170436        -4.6378
  28   0.0000       0.019292         0.5250
  29   0.0000       0.045718         1.2441
  30   0.0000       0.048556         1.3213
  31   0.0000       0.063381         1.7247
  32   0.0000       0.077543         2.1100

MULLIKEN ATOMIC CHARGES
-----------------------
   0 C :    0.158885
   1 C :   -0.407986
   2 C :    1.001693
   3 N :   -0.211791
   4 N :   -0.210444
   5 H :    0.008269
   6 H :   -0.244094
   7 H :   -0.009003
   8 H :    0.050522
   9 H :   -0.189209
  10 C :   -0.391429
  11 H :   -0.031302
  12 H :   -0.015387
  13 C :    0.575079
  14 H :    0.015172
  15 H :   -0.015322
  16 H :   -0.092998
  17 H :   -0.020641
  18 H :    0.029986
Sum of atomic charges:   -0.0000000

LOEWDIN ATOMIC CHARGES
----------------------
   0 C :   -0.066717
   1 C :   -0.052843
   2 C :   -0.215215
   3 N :    0.175880
   4 N :    0.197279
   5 H :   -0.005912
   6 H :   -0.010931
   7 H :   -0.047543
   8 H :    0.008165
   9 H :   -0.005201
  10 C :   -0.075667
  11 H :    0.004815
  12 H :    0.016174
  13 C :    0.114283
  14 H :    0.014924
  15 H :    0.013551
  16 H :   -0.028695
  17 H :   -0.021581
  18 H :   -0.014767

  Mayer bond orders larger than 0.100000
B(  0-C ,  1-C ) :   1.2341 B(  0-C ,  7-H ) :   0.2876 B(  0-C , 10-C ) :   1.1390
B(  0-C , 11-H ) :   0.8691 B(  0-C , 12-H ) :   0.7807 B(  0-C , 14-H ) :   0.1007
B(  0-C , 15-H ) :   0.1323 B(  1-C ,  2-C ) :   1.8303 B(  1-C ,  3-N ) :   0.2856
B(  1-C ,  4-N ) :   0.2224 B(  1-C ,  7-H ) :   0.6834 B(  1-C , 11-H ) :   0.2026
B(  1-C , 12-H ) :   0.2389 B(  2-C ,  3-N ) :   0.7231 B(  2-C ,  4-N ) :   0.7800
B(  2-C ,  6-H ) :  -0.2183 B(  2-C ,  7-H ) :   0.2848 B(  2-C ,  9-H ) :  -0.1677
B(  3-N ,  4-N ) :   0.1297 B(  3-N ,  8-H ) :   1.0993 B(  3-N ,  9-H ) :   1.3431
B(  4-N ,  5-H ) :   1.0371 B(  4-N ,  6-H ) :   1.4055 B(  5-H ,  6-H ) :  -0.2017
B(  8-H ,  9-H ) :  -0.1727 B( 10-C , 12-H ) :   0.1083 B( 10-C , 13-C ) :   1.3104
B( 10-C , 14-H ) :   0.9659 B( 10-C , 15-H ) :   0.9085 B( 10-C , 16-H ) :   0.2164
B( 10-C , 17-H ) :   0.1941 B( 10-C , 18-H ) :   0.1984 B( 13-C , 16-H ) :   0.8688
B( 13-C , 17-H ) :   0.7948 B( 13-C , 18-H ) :   0.7899

Dispersion correction           -0.014224168
FINAL SINGLE POINT ENERGY      -306.672192886490

DIPOLE MOMENT
-------------
                                X             Y             Z
Electronic contribution:      3.84106      -4.06622      -1.73273
Nuclear contribution   :     -2.83106       3.92601       1.57906
                        -----------------------------------------
Total Dipole Moment    :      1.01000      -0.14021      -0.15366
                        -----------------------------------------
Magnitude (a.u.)       :      1.03120
Magnitude (Debye)      :      2.62109

Rotational constants in cm-1:     0.142679     0.055043     0.048600
Rotational constants in MHz :  4277.395781  1650.135877  1456.977167

                             ****ORCA TERMINATED NORMALLY****
TOTAL RUN TIME: 0 days 0 hours 0 minutes 17 seconds 734 msec
