                         Program Version 5.0.0 -  RELEASE  -
|  1> !PBE0 D3BJ RIJCOSX def2-SVPD def2/J TightSCF
|  2> *xyz 0 1
|  3> C          0.61188        1.65763       -4.50029
|  4> C          1.69499        1.54179       -5.57045
|  5> H          2.69733        1.73466       -5.18400
|  6> H          1.50666        2.27224       -6.35808
|  7> S          1.78029       -0.03313       -6.42874
|  8> O          2.56929        0.21366       -7.60736
|  9> F          0.41688       -0.46297       -6.61859
| 10> C          0.68036        0.65542       -3.34804
| 11> H         -0.35687        1.54923       -4.99113
| 12> H          0.65023        2.67544       -4.09600
| 13> O          2.50513       -0.93326       -5.48257
| 14> H          0.64318       -0.34009       -3.73853
| 15> H         -0.14865        0.81153       -2.68980
| 16> H          1.59447        0.79330       -2.80925
| 17> *
| 18> %MaxCore 64000
| 19>
| 20> %pal nprocs 8
| 21> end
| 22>
| 23> %scf
| 24>   MaxIter 150
| 25> end
| 26>
| 27>
| 28>                          ****END OF INPUT****

CARTESIAN COORDINATES (ANGSTROEM)
---------------------------------
  C      0.611880    1.657630   -4.500290
  C      1.694990    1.541790   -5.570450
  H      2.697330    1.734660   -5.184000
  H      1.506660    2.272240   -6.358080
  S      1.780290   -0.033130   -6.428740
  O      2.569290    0.213660   -7.607360
  F      0.416880   -0.462970   -6.618590
  C      0.680360    0.655420   -3.348040
  H     -0.356870    1.549230   -4.991130
  H      0.650230    2.675440   -4.096000
  O      2.505130   -0.933260   -5.482570
  H      0.643180   -0.340090   -3.738530
  H     -0.148650    0.811530   -2.689800
  H      1.594470    0.793300   -2.809250

 Total Charge           Charge          ....    0
 Multiplicity           Mult            ....    1
 Number of Electrons    NEL             ....   66
 Basis Dimension        Dim             ....  212

ORBITAL ENERGIES
----------------

  NO   OCC          E(Eh)            E(eV)
   0   2.0000     -89.296436     -2429.8796
   1   2.0000     -24.905715      -677.7190
   2   2.0000     -19.233636      -523.3738
   3   2.0000     -19.214410      -522.8507
   4   2.0000     -10.296638      -280.1858
   5   2.0000     -10.268466      -279.4192
   6   2.0000     -10.232926      -278.4521
   7   2.0000      -8.256850      -224.6803
   8   2.0000      -6.203247      -168.7989
   9   2.0000      -6.196664      -168.6198
  10   2.0000      -6.195386      -168.5850
  11   2.0000      -1.411466       -38.4079
  12   2.0000      -1.136565       -30.9275
  13   2.0000      -1.025233       -27.8980
  14   2.0000      -0.856325       -23.3018
  15   2.0000      -0.776441       -21.1280
  16   2.0000      -0.734714       -19.9926
  17   2.0000      -0.656898       -17.8751
  18   2.0000      -0.615895       -16.7593
  19   2.0000      -0.610154       -16.6031
  20   2.0000      -0.563348       -15.3295
  21   2.0000      -0.510418       -13.8892
  22   2.0000      -0.501525       -13.6472
  23   2.0000      -0.479662       -13.0523
  24   2.0000      -0.461846       -12.5675
  25   2.0000      -0.450643       -12.2626
  26   2.0000      -0.405274       -11.0281
  27   2.0000      -0.398928       -10.8554
  28   2.0000      -0.393960       -10.7202
  29   2.0000      -0.376241       -10.2381
  30   2.0000      -0.347199        -9.4478
  31   2.0000      -0.330687        -8.9985
  32   2.0000      -0.316583        -8.6147
  33   0.0000      -0.003514        -0.0956
  34   0.0000       0.029471         0.8019
  35   0.0000       0.038401         1.0449
  36   0.0000       0.040306         1.0968
  37   0.0000       0.048375         1.3163

MULLIKEN ATOMIC CHARGES
-----------------------
   0 C :   -0.390042
   1 C :   -0.106049
   2 H :    0.097428
   3 H :    0.104170
   4 S :    1.551534
   5 O :   -0.707976
   6 F :   -0.417957
   7 C :    0.641690
   8 H :    0.056845
   9 H :   -0.066527
  10 O :   -0.724283
  11 H :   -0.050284
  12 H :   -0.012506
  13 H :    0.023958
Sum of atomic charges:    0.0000000

LOEWDIN ATOMIC CHARGES
----------------------
   0 C :   -0.086336
   1 C :   -0.051434
   2 H :    0.041556
   3 H :    0.022575
   4 S :    1.126645
   5 O :   -0.461138
   6 F :   -0.254172
   7 C :    0.134371
   8 H :    0.023281
   9 H :    0.033081
  10 O :   -0.489143
  11 H :   -0.026324
  12 H :   -0.010192
  13 H :   -0.002771

  Mayer bond orders larger than 0.100000
B(  0-C ,  1-C ) :   1.2553 B(  0-C ,  2-H ) :   0.1188 B(  0-C ,  3-H ) :   0.1246
B(  0-C ,  7-C ) :   1.3123 B(  0-C ,  8-H ) :   0.9035 B(  0-C ,  9-H ) :   0.9301
B(  0-C , 11-H ) :   0.1917 B(  0-C , 12-H ) :   0.1823 B(  0-C , 13-H ) :   0.2016
B(  1-C ,  2-H ) :   0.9244 B(  1-C ,  3-H ) :   0.9093 B(  1-C ,  4-S ) :   1.0118
B(  1-C ,  8-H ) :   0.1170 B(  1-C ,  9-H ) :   0.1150 B(  4-S ,  5-O ) :   1.5372
B(  4-S ,  6-F ) :   0.6325 B(  4-S , 10-O ) :   1.4496 B(  7-C , 11-H ) :   0.8523
B(  7-C , 12-H ) :   0.7872 B(  7-C , 13-H ) :   0.7887

Dispersion correction           -0.011038007
FINAL SINGLE POINT ENERGY      -766.030221424802

DIPOLE MOMENT
-------------
                                X             Y             Z
Electronic contribution:      1.43475      -6.52930     -10.22938
Nuclear contribution   :     -2.62245       7.78551      10.86491
                        -----------------------------------------
Total Dipole Moment    :     -1.18770       1.25622       0.63553
                        -----------------------------------------
Magnitude (a.u.)       :      1.84191
Magnitude (Debye)      :      4.68175

Rotational constants in cm-1:     0.129509     0.054228     0.052367
Rotational constants in MHz :  3882.596420  1625.701900  1569.934536

                             ****ORCA TERMINATED NORMALLY****
TOTAL RUN TIME: 0 days 0 hours 0 minutes 14 seconds 101 msec
