                         Program Version 5.0.0 -  RELEASE  -
|  1> !PBE0 D3BJ RIJCOSX def2-SVPD def2/J TightSCF
|  2> *xyz 0 1
|  3> C          1.96337       -1.74915       -1.89689
|  4> N          2.73849       -2.01517       -3.09711
|  5> C          4.04974       -2.15472       -3.15204
|  6> C          4.65821       -1.98629       -4.31866
|  7> N          4.76423       -2.45444       -2.05049
|  8> H          4.28736       -2.77626       -1.21750
|  9> H          5.75082       -2.65835       -2.12599
| 10> H          2.34518       -1.69027       -3.97145
| 11> H          4.10900       -1.59268       -5.07176
| 12> H          5.64910       -2.15646       -4.42724
| 13> C          2.08852       -0.30091       -1.41520
| 14> H          2.23127       -2.45162       -1.10264
| 15> H          0.93025       -1.97780       -2.15544
| 16> C          1.96899        0.73358       -2.53565
| 17> H          3.05136       -0.16860       -0.91187
| 18> H          1.31650       -0.13623       -0.65725
| 19> H          2.73046        0.55745       -3.26643
| 20> H          2.08619        1.71595       -2.12808
| 21> H          1.00672        0.65098       -2.99620
| 22> *
| 23> %MaxCore 64000
| 24>
| 25> %pal nprocs 8
| 26> end
| 27>
| 28> %scf
| 29>   MaxIter 150
| 30> end
| 31>
| 32>
| 33>                          ****END OF INPUT****

CARTESIAN COORDINATES (ANGSTROEM)
---------------------------------
  C      1.963370   -1.749150   -1.896890
  N      2.738490   -2.015170   -3.097110
  C      4.049740   -2.154720   -3.152040
  C      4.658210   -1.986290   -4.318660
  N      4.764230   -2.454440   -2.050490
  H      4.287360   -2.776260   -1.217500
  H      5.750820   -2.658350   -2.125990
  H      2.345180   -1.690270   -3.971450
  H      4.109000   -1.592680   -5.071760
  H      5.649100   -2.156460   -4.427240
  C      2.088520   -0.300910   -1.415200
  H      2.231270   -2.451620   -1.102640
  H      0.930250   -1.977800   -2.155440
  C      1.968990    0.733580   -2.535650
  H      3.051360   -0.168600   -0.911870
  H      1.316500   -0.136230   -0.657250
  H      2.730460    0.557450   -3.266430
  H      2.086190    1.715950   -2.128080
  H      1.006720    0.650980   -2.996200

 Total Charge           Charge          ....    0
 Multiplicity           Mult            ....    1
 Number of Electrons    NEL             ....   56
 Basis Dimension        Dim             ....  236

ORBITAL ENERGIES
----------------

  NO   OCC          E(Eh)            E(eV)
   0   2.0000     -14.396434      -391.7469
   1   2.0000     -14.395922      -391.7329
   2   2.0000     -10.276534      -279.6387
   3   2.0000     -10.270627      -279.4780
   4   2.0000     -10.231791      -278.4212
   5   2.0000     -10.217663      -278.0367
   6   2.0000     -10.145180      -276.0644
   7   2.0000      -0.988239       -26.8913
   8   2.0000      -0.901185       -24.5225
   9   2.0000      -0.803961       -21.8769
  10   2.0000      -0.741725       -20.1834
  11   2.0000      -0.685856       -18.6631
  12   2.0000      -0.625393       -17.0178
  13   2.0000      -0.601972       -16.3805
  14   2.0000      -0.550012       -14.9666
  15   2.0000      -0.510549       -13.8927
  16   2.0000      -0.495928       -13.4949
  17   2.0000      -0.472569       -12.8592
  18   2.0000      -0.458149       -12.4669
  19   2.0000      -0.418325       -11.3832
  20   2.0000      -0.407207       -11.0807
  21   2.0000      -0.404194       -10.9987
  22   2.0000      -0.384889       -10.4734
  23   2.0000      -0.363804        -9.8996
  24   2.0000      -0.362332        -9.8596
  25   2.0000      -0.348355        -9.4792
  26   2.0000      -0.266192        -7.2435
  27   2.0000      -0.174103        -4.7376
  28   0.0000       0.018812         0.5119
  29   0.0000       0.039302         1.0695
  30   0.0000       0.049843         1.3563
  31   0.0000       0.055356         1.5063
  32   0.0000       0.079061         2.1514

MULLIKEN ATOMIC CHARGES
-----------------------
   0 C :    0.743854
   1 N :   -0.529277
   2 C :    0.800366
   3 C :    0.278226
   4 N :   -0.035049
   5 H :   -0.090088
   6 H :   -0.166713
   7 H :   -0.156124
   8 H :   -0.172662
   9 H :   -0.363178
  10 C :   -0.472111
  11 H :   -0.077979
  12 H :   -0.232816
  13 C :    0.602770
  14 H :    0.044253
  15 H :   -0.078326
  16 H :   -0.082640
  17 H :   -0.046172
  18 H :    0.033666
Sum of atomic charges:    0.0000000

LOEWDIN ATOMIC CHARGES
----------------------
   0 C :    0.045767
   1 N :   -0.024888
   2 C :   -0.238072
   3 C :    0.141752
   4 N :    0.195592
   5 H :   -0.021429
   6 H :    0.006211
   7 H :    0.029695
   8 H :   -0.098404
   9 H :   -0.096787
  10 C :   -0.069361
  11 H :    0.011537
  12 H :    0.022292
  13 C :    0.119623
  14 H :    0.016387
  15 H :    0.017262
  16 H :   -0.025212
  17 H :   -0.016472
  18 H :   -0.015494

  Mayer bond orders larger than 0.100000
B(  0-C ,  1-N ) :   0.8875 B(  0-C ,  7-H ) :  -0.1449 B(  0-C , 10-C ) :   1.0738
B(  0-C , 11-H ) :   0.8979 B(  0-C , 12-H ) :   0.7773 B(  0-C , 15-H ) :   0.1083
B(  1-N ,  2-C ) :   1.0027 B(  1-N ,  3-C ) :   0.2727 B(  1-N ,  4-N ) :   0.1621
B(  1-N ,  7-H ) :   1.1773 B(  1-N , 11-H ) :   0.1392 B(  1-N , 12-H ) :   0.2552
B(  2-C ,  3-C ) :   1.4141 B(  2-C ,  4-N ) :   0.8975 B(  2-C ,  6-H ) :  -0.1218
B(  2-C ,  7-H ) :  -0.1386 B(  2-C ,  9-H ) :   0.1562 B(  3-C ,  4-N ) :   0.2055
B(  3-C ,  8-H ) :   0.9110 B(  3-C ,  9-H ) :   0.8242 B(  4-N ,  5-H ) :   1.0606
B(  4-N ,  6-H ) :   1.2725 B(  5-H ,  6-H ) :  -0.1955 B( 10-C , 12-H ) :   0.1355
B( 10-C , 13-C ) :   1.3104 B( 10-C , 14-H ) :   0.9463 B( 10-C , 15-H ) :   1.0070
B( 10-C , 16-H ) :   0.1983 B( 10-C , 17-H ) :   0.1862 B( 10-C , 18-H ) :   0.1880
B( 13-C , 16-H ) :   0.8740 B( 13-C , 17-H ) :   0.8161 B( 13-C , 18-H ) :   0.7888
B( 16-H , 18-H ) :   0.1001

Dispersion correction           -0.014108473
FINAL SINGLE POINT ENERGY      -306.666741697245

DIPOLE MOMENT
-------------
                                X             Y             Z
Electronic contribution:      1.94462      -3.92524      -0.42805
Nuclear contribution   :     -2.41054       3.93233       1.31148
                        -----------------------------------------
Total Dipole Moment    :     -0.46592       0.00709       0.88343
                        -----------------------------------------
Magnitude (a.u.)       :      0.99879
Magnitude (Debye)      :      2.53873

Rotational constants in cm-1:     0.144008     0.056232     0.050126
Rotational constants in MHz :  4317.255215  1685.791221  1502.728769

                             ****ORCA TERMINATED NORMALLY****
TOTAL RUN TIME: 0 days 0 hours 0 minutes 17 seconds 365 msec
