                         Program Version 5.0.0 -  RELEASE  -
|  1> !PBE0 D3BJ RIJCOSX def2-SVPD def2/J TightSCF
|  2> *xyz 0 1
|  3> C          0.61188        1.65763       -4.50029
|  4> C          1.69499        1.54179       -5.57045
|  5> H          2.69733        1.73466       -5.18400
|  6> H          1.50666        2.27224       -6.35808
|  7> S          1.78029       -0.03313       -6.42874
|  8> O          2.56929        0.21366       -7.60736
|  9> O          0.41688       -0.46297       -6.61859
| 10> C          0.68036        0.65542       -3.34804
| 11> H         -0.35687        1.54923       -4.99113
| 12> H          0.65023        2.67544       -4.09600
| 13> F          2.50513       -0.93326       -5.48257
| 14> H          0.64318       -0.34009       -3.73853
| 15> H         -0.14865        0.81153       -2.68980
| 16> H          1.59447        0.79330       -2.80925
| 17> *
| 18> %MaxCore 64000
| 19>
| 20> %pal nprocs 8
| 21> end
| 22>
| 23> %scf
| 24>   MaxIter 150
| 25> end
| 26>
| 27>
| 28>                          ****END OF INPUT****

CARTESIAN COORDINATES (ANGSTROEM)
---------------------------------
  C      0.611880    1.657630   -4.500290
  C      1.694990    1.541790   -5.570450
  H      2.697330    1.734660   -5.184000
  H      1.506660    2.272240   -6.358080
  S      1.780290   -0.033130   -6.428740
  O      2.569290    0.213660   -7.607360
  O      0.416880   -0.462970   -6.618590
  C      0.680360    0.655420   -3.348040
  H     -0.356870    1.549230   -4.991130
  H      0.650230    2.675440   -4.096000
  F      2.505130   -0.933260   -5.482570
  H      0.643180   -0.340090   -3.738530
  H     -0.148650    0.811530   -2.689800
  H      1.594470    0.793300   -2.809250

 Total Charge           Charge          ....    0
 Multiplicity           Mult            ....    1
 Number of Electrons    NEL             ....   66
 Basis Dimension        Dim             ....  212

ORBITAL ENERGIES
----------------

  NO   OCC          E(Eh)            E(eV)
   0   2.0000     -89.294041     -2429.8144
   1   2.0000     -24.877803      -676.9594
   2   2.0000     -19.233905      -523.3812
   3   2.0000     -19.233037      -523.3575
   4   2.0000     -10.295569      -280.1567
   5   2.0000     -10.264008      -279.2979
   6   2.0000     -10.237135      -278.5666
   7   2.0000      -8.254312      -224.6112
   8   2.0000      -6.200333      -168.7196
   9   2.0000      -6.194510      -168.5612
  10   2.0000      -6.193127      -168.5235
  11   2.0000      -1.366635       -37.1880
  12   2.0000      -1.147947       -31.2372
  13   2.0000      -1.053894       -28.6779
  14   2.0000      -0.853765       -23.2321
  15   2.0000      -0.771376       -20.9902
  16   2.0000      -0.717695       -19.5295
  17   2.0000      -0.653252       -17.7759
  18   2.0000      -0.586813       -15.9680
  19   2.0000      -0.579104       -15.7582
  20   2.0000      -0.568938       -15.4816
  21   2.0000      -0.514602       -14.0030
  22   2.0000      -0.496400       -13.5077
  23   2.0000      -0.478616       -13.0238
  24   2.0000      -0.470489       -12.8027
  25   2.0000      -0.453588       -12.3428
  26   2.0000      -0.413162       -11.2427
  27   2.0000      -0.401061       -10.9134
  28   2.0000      -0.388760       -10.5787
  29   2.0000      -0.375534       -10.2188
  30   2.0000      -0.358015        -9.7421
  31   2.0000      -0.345115        -9.3911
  32   2.0000      -0.338977        -9.2240
  33   0.0000       0.004598         0.1251
  34   0.0000       0.030042         0.8175
  35   0.0000       0.036676         0.9980
  36   0.0000       0.040560         1.1037
  37   0.0000       0.051662         1.4058

MULLIKEN ATOMIC CHARGES
-----------------------
   0 C :   -0.365825
   1 C :   -0.129810
   2 H :    0.110151
   3 H :    0.108836
   4 S :    1.557990
   5 O :   -0.719559
   6 O :   -0.702205
   7 C :    0.609547
   8 H :    0.083365
   9 H :   -0.061679
  10 F :   -0.430818
  11 H :   -0.067085
  12 H :   -0.011312
  13 H :    0.018403
Sum of atomic charges:   -0.0000000

LOEWDIN ATOMIC CHARGES
----------------------
   0 C :   -0.081232
   1 C :   -0.054040
   2 H :    0.027816
   3 H :    0.033524
   4 S :    1.120954
   5 O :   -0.462260
   6 O :   -0.458925
   7 C :    0.133121
   8 H :    0.029285
   9 H :    0.033203
  10 F :   -0.281243
  11 H :   -0.023956
  12 H :   -0.007853
  13 H :   -0.008395

  Mayer bond orders larger than 0.100000
B(  0-C ,  1-C ) :   1.3004 B(  0-C ,  2-H ) :   0.1224 B(  0-C ,  3-H ) :   0.1194
B(  0-C ,  7-C ) :   1.3056 B(  0-C ,  8-H ) :   0.9022 B(  0-C ,  9-H ) :   0.9181
B(  0-C , 11-H ) :   0.1862 B(  0-C , 12-H ) :   0.1815 B(  0-C , 13-H ) :   0.1947
B(  1-C ,  2-H ) :   0.9217 B(  1-C ,  3-H ) :   0.8928 B(  1-C ,  4-S ) :   1.0122
B(  1-C ,  8-H ) :   0.1279 B(  1-C ,  9-H ) :   0.1163 B(  4-S ,  5-O ) :   1.5306
B(  4-S ,  6-O ) :   1.4892 B(  4-S , 10-F ) :   0.5740 B(  7-C , 11-H ) :   0.8621
B(  7-C , 12-H ) :   0.7937 B(  7-C , 13-H ) :   0.7926

Dispersion correction           -0.011040462
FINAL SINGLE POINT ENERGY      -766.054976654682

DIPOLE MOMENT
-------------
                                X             Y             Z
Electronic contribution:      4.98204      -7.34724      -8.27643
Nuclear contribution   :     -4.86824       8.29128       9.64318
                        -----------------------------------------
Total Dipole Moment    :      0.11380       0.94405       1.36676
                        -----------------------------------------
Magnitude (a.u.)       :      1.66499
Magnitude (Debye)      :      4.23207

Rotational constants in cm-1:     0.129339     0.055092     0.051542
Rotational constants in MHz :  3877.477482  1651.602611  1545.182728

                             ****ORCA TERMINATED NORMALLY****
TOTAL RUN TIME: 0 days 0 hours 0 minutes 13 seconds 664 msec
