                         Program Version 5.0.0 -  RELEASE  -
|  1> !PBE0 D3BJ RIJCOSX def2-SVPD def2/J TightSCF
|  2> *xyz 0 1
|  3> C          1.96337       -1.74915       -1.89689
|  4> N          2.73849       -2.01517       -3.09711
|  5> C          4.04974       -2.15472       -3.15204
|  6> N          4.65821       -1.98629       -4.31866
|  7> C          4.76423       -2.45444       -2.05049
|  8> H          4.28736       -2.77626       -1.21750
|  9> H          5.75082       -2.65835       -2.12599
| 10> H          2.34518       -1.69027       -3.97145
| 11> H          4.10900       -1.59268       -5.07176
| 12> H          5.64910       -2.15646       -4.42724
| 13> C          2.08852       -0.30091       -1.41520
| 14> H          2.23127       -2.45162       -1.10264
| 15> H          0.93025       -1.97780       -2.15544
| 16> C          1.96899        0.73358       -2.53565
| 17> H          3.05136       -0.16860       -0.91187
| 18> H          1.31650       -0.13623       -0.65725
| 19> H          2.73046        0.55745       -3.26643
| 20> H          2.08619        1.71595       -2.12808
| 21> H          1.00672        0.65098       -2.99620
| 22> *
| 23> %MaxCore 64000
| 24>
| 25> %pal nprocs 8
| 26> end
| 27>
| 28> %scf
| 29>   MaxIter 150
| 30> end
| 31>
| 32>
| 33>                          ****END OF INPUT****

CARTESIAN COORDINATES (ANGSTROEM)
---------------------------------
  C      1.963370   -1.749150   -1.896890
  N      2.738490   -2.015170   -3.097110
  C      4.049740   -2.154720   -3.152040
  N      4.658210   -1.986290   -4.318660
  C      4.764230   -2.454440   -2.050490
  H      4.287360   -2.776260   -1.217500
  H      5.750820   -2.658350   -2.125990
  H      2.345180   -1.690270   -3.971450
  H      4.109000   -1.592680   -5.071760
  H      5.649100   -2.156460   -4.427240
  C      2.088520   -0.300910   -1.415200
  H      2.231270   -2.451620   -1.102640
  H      0.930250   -1.977800   -2.155440
  C      1.968990    0.733580   -2.535650
  H      3.051360   -0.168600   -0.911870
  H      1.316500   -0.136230   -0.657250
  H      2.730460    0.557450   -3.266430
  H      2.086190    1.715950   -2.128080
  H      1.006720    0.650980   -2.996200

 Total Charge           Charge          ....    0
 Multiplicity           Mult            ....    1
 Number of Electrons    NEL             ....   56
 Basis Dimension        Dim             ....  236

ORBITAL ENERGIES
----------------

  NO   OCC          E(Eh)            E(eV)
   0   2.0000     -14.399918      -391.8417
   1   2.0000     -14.399029      -391.8175
   2   2.0000     -10.278013      -279.6790
   3   2.0000     -10.264620      -279.3145
   4   2.0000     -10.226118      -278.2668
   5   2.0000     -10.217291      -278.0266
   6   2.0000     -10.145048      -276.0608
   7   2.0000      -0.994176       -27.0529
   8   2.0000      -0.905684       -24.6449
   9   2.0000      -0.794283       -21.6135
  10   2.0000      -0.726945       -19.7812
  11   2.0000      -0.707852       -19.2616
  12   2.0000      -0.623687       -16.9714
  13   2.0000      -0.568771       -15.4770
  14   2.0000      -0.563990       -15.3470
  15   2.0000      -0.540011       -14.6945
  16   2.0000      -0.488914       -13.3040
  17   2.0000      -0.465510       -12.6672
  18   2.0000      -0.453179       -12.3316
  19   2.0000      -0.417099       -11.3498
  20   2.0000      -0.408458       -11.1147
  21   2.0000      -0.395340       -10.7577
  22   2.0000      -0.382475       -10.4077
  23   2.0000      -0.363659        -9.8957
  24   2.0000      -0.359176        -9.7737
  25   2.0000      -0.341693        -9.2979
  26   2.0000      -0.264148        -7.1878
  27   2.0000      -0.174923        -4.7599
  28   0.0000       0.015214         0.4140
  29   0.0000       0.042027         1.1436
  30   0.0000       0.052135         1.4187
  31   0.0000       0.057021         1.5516
  32   0.0000       0.073543         2.0012

MULLIKEN ATOMIC CHARGES
-----------------------
   0 C :    0.705359
   1 N :   -0.555185
   2 C :    0.871692
   3 N :   -0.147813
   4 C :    0.272378
   5 H :   -0.015457
   6 H :   -0.515422
   7 H :   -0.242024
   8 H :   -0.073729
   9 H :   -0.108368
  10 C :   -0.433426
  11 H :    0.049609
  12 H :   -0.252689
  13 C :    0.598351
  14 H :    0.004286
  15 H :   -0.054294
  16 H :   -0.094882
  17 H :   -0.043507
  18 H :    0.035122
Sum of atomic charges:    0.0000000

LOEWDIN ATOMIC CHARGES
----------------------
   0 C :    0.054854
   1 N :   -0.027599
   2 C :   -0.240378
   3 N :    0.181183
   4 C :    0.157243
   5 H :   -0.109712
   6 H :   -0.103626
   7 H :    0.016677
   8 H :   -0.008096
   9 H :    0.013341
  10 C :   -0.062801
  11 H :    0.019824
  12 H :    0.022182
  13 C :    0.114751
  14 H :    0.017236
  15 H :    0.019614
  16 H :   -0.030489
  17 H :   -0.016918
  18 H :   -0.017285

  Mayer bond orders larger than 0.100000
B(  0-C ,  1-N ) :   0.8522 B(  0-C ,  7-H ) :  -0.1442 B(  0-C , 10-C ) :   1.0531
B(  0-C , 11-H ) :   0.8738 B(  0-C , 12-H ) :   0.8462 B(  0-C , 15-H ) :   0.1054
B(  1-N ,  2-C ) :   0.8511 B(  1-N ,  3-N ) :   0.2391 B(  1-N ,  4-C ) :   0.3552
B(  1-N ,  7-H ) :   1.2760 B(  1-N , 12-H ) :   0.2078 B(  2-C ,  3-N ) :   0.7243
B(  2-C ,  4-C ) :   1.6526 B(  2-C ,  5-H ) :   0.2376 B(  2-C ,  6-H ) :   0.1483
B(  2-C ,  7-H ) :  -0.2076 B(  2-C ,  9-H ) :  -0.1236 B(  3-N ,  4-C ) :   0.2213
B(  3-N ,  8-H ) :   1.1491 B(  3-N ,  9-H ) :   1.2803 B(  4-C ,  5-H ) :   0.6544
B(  4-C ,  6-H ) :   0.9605 B(  5-H , 11-H ) :   0.1181 B(  8-H ,  9-H ) :  -0.1610
B( 10-C , 12-H ) :   0.1292 B( 10-C , 13-C ) :   1.3064 B( 10-C , 14-H ) :   0.9776
B( 10-C , 15-H ) :   0.9723 B( 10-C , 16-H ) :   0.2022 B( 10-C , 17-H ) :   0.1857
B( 10-C , 18-H ) :   0.1880 B( 11-H , 12-H ) :  -0.1141 B( 13-C , 16-H ) :   0.8712
B( 13-C , 17-H ) :   0.8154 B( 13-C , 18-H ) :   0.7857

Dispersion correction           -0.014156371
FINAL SINGLE POINT ENERGY      -306.665792693359

DIPOLE MOMENT
-------------
                                X             Y             Z
Electronic contribution:      1.87236      -3.41980      -2.62133
Nuclear contribution   :     -2.38731       3.82978       1.80833
                        -----------------------------------------
Total Dipole Moment    :     -0.51496       0.40999      -0.81300
                        -----------------------------------------
Magnitude (a.u.)       :      1.04606
Magnitude (Debye)      :      2.65886

Rotational constants in cm-1:     0.144922     0.055791     0.049560
Rotational constants in MHz :  4344.653038  1672.561873  1485.775629

                             ****ORCA TERMINATED NORMALLY****
TOTAL RUN TIME: 0 days 0 hours 0 minutes 17 seconds 317 msec
