                         Program Version 5.0.0 -  RELEASE  -
|  1> !PBE0 D3BJ RIJCOSX def2-SVPD def2/J TightSCF xyzfile
|  2>
|  3> *xyzfile 0 1 D2.xyz
|  4>
|  5> %MaxCore 64000
|  6>
|  7> %pal nprocs 4
|  8> end
|  9>
| 10> %scf
| 11>   MaxIter 150
| 12> end
| 13>
| 14>
| 15>                          ****END OF INPUT****

CARTESIAN COORDINATES (ANGSTROEM)
---------------------------------
  C      1.963365   -1.749150   -1.896887
  N      2.738490   -2.015170   -3.097113
  C      0.611877    1.657634   -4.500288
  C      1.694991    1.541794   -5.570447
  H      2.697326    1.734659   -5.183996
  H      1.506656    2.272239   -6.358076
  S      1.780287   -0.033128   -6.428739
  C      4.049736   -2.154717   -3.152044
  C      4.658206   -1.986293   -4.318655
  N      4.764231   -2.454435   -2.050491
  H      4.287363   -2.776259   -1.217496
  H      5.750825   -2.658351   -2.125988
  H      2.345176   -1.690274   -3.971447
  H      4.109004   -1.592677   -5.071760
  H      5.649095   -2.156462   -4.427237
  F      2.569287    0.213657   -7.607360
  O      0.416880   -0.462969   -6.618595
  C      2.088520   -0.300912   -1.415204
  H      2.231272   -2.451616   -1.102643
  H      0.930249   -1.977801   -2.155438
  C      0.680356    0.655418   -3.348038
  H     -0.356865    1.549231   -4.991128
  H      0.650228    2.675438   -4.096000
  C      1.968993    0.733582   -2.535654
  H      3.051356   -0.168602   -0.911868
  H      1.316501   -0.136231   -0.657252
  O      2.505129   -0.933263   -5.482570
  H      2.824195    0.624726   -3.208464
  H      2.058919    1.730331   -2.093112
  H      0.542252   -0.344731   -3.766662
  H     -0.174219    0.829692   -2.685182

 Total Charge           Charge          ....    0
 Multiplicity           Mult            ....    1
 Number of Electrons    NEL             ....  120
 Basis Dimension        Dim             ....  432

ORBITAL ENERGIES
----------------

  NO   OCC          E(Eh)            E(eV)
   0   2.0000     -89.310919     -2430.2737
   1   2.0000     -24.915914      -677.9965
   2   2.0000     -19.245147      -523.6871
   3   2.0000     -19.230143      -523.2788
   4   2.0000     -14.377856      -391.2414
   5   2.0000     -14.364042      -390.8655
   6   2.0000     -10.303585      -280.3748
   7   2.0000     -10.267801      -279.4011
   8   2.0000     -10.256175      -279.0847
   9   2.0000     -10.252560      -278.9863
  10   2.0000     -10.241753      -278.6923
  11   2.0000     -10.231696      -278.4186
  12   2.0000     -10.226234      -278.2700
  13   2.0000     -10.114418      -275.2273
  14   2.0000      -8.270079      -225.0403
  15   2.0000      -6.216221      -169.1520
  16   2.0000      -6.210307      -168.9910
  17   2.0000      -6.208717      -168.9478
  18   2.0000      -1.422134       -38.6982
  19   2.0000      -1.148853       -31.2619
  20   2.0000      -1.043870       -28.4051
  21   2.0000      -0.965014       -26.2594
  22   2.0000      -0.881674       -23.9916
  23   2.0000      -0.863379       -23.4937
  24   2.0000      -0.813097       -22.1255
  25   2.0000      -0.780879       -21.2488
  26   2.0000      -0.743937       -20.2435
  27   2.0000      -0.715484       -19.4693
  28   2.0000      -0.677191       -18.4273
  29   2.0000      -0.645209       -17.5570
  30   2.0000      -0.626694       -17.0532
  31   2.0000      -0.612204       -16.6589
  32   2.0000      -0.608252       -16.5514
  33   2.0000      -0.581349       -15.8193
  34   2.0000      -0.575114       -15.6497
  35   2.0000      -0.532734       -14.4964
  36   2.0000      -0.520640       -14.1673
  37   2.0000      -0.516320       -14.0498
  38   2.0000      -0.493469       -13.4280
  39   2.0000      -0.492837       -13.4108
  40   2.0000      -0.483061       -13.1448
  41   2.0000      -0.474071       -12.9001
  42   2.0000      -0.456136       -12.4121
  43   2.0000      -0.447536       -12.1781
  44   2.0000      -0.431835       -11.7508
  45   2.0000      -0.416798       -11.3416
  46   2.0000      -0.402005       -10.9391
  47   2.0000      -0.398959       -10.8562
  48   2.0000      -0.386539       -10.5183
  49   2.0000      -0.377087       -10.2611
  50   2.0000      -0.369749       -10.0614
  51   2.0000      -0.368033       -10.0147
  52   2.0000      -0.362259        -9.8576
  53   2.0000      -0.346878        -9.4390
  54   2.0000      -0.342090        -9.3087
  55   2.0000      -0.336824        -9.1655
  56   2.0000      -0.332662        -9.0522
  57   2.0000      -0.317051        -8.6274
  58   2.0000      -0.244754        -6.6601
  59   2.0000      -0.150384        -4.0922
  60   0.0000      -0.001666        -0.0453
  61   0.0000       0.014202         0.3865
  62   0.0000       0.029119         0.7924
  63   0.0000       0.031423         0.8551
  64   0.0000       0.045432         1.2363

MULLIKEN ATOMIC CHARGES
-----------------------
   0 C :    0.872830
   1 N :   -0.220766
   2 C :    0.278894
   3 C :   -0.083318
   4 H :    0.210760
   5 H :    0.013055
   6 S :    1.762839
   7 C :    0.854486
   8 C :    0.471738
   9 N :   -0.004183
  10 H :   -0.052903
  11 H :   -0.192895
  12 H :   -0.510884
  13 H :   -0.104682
  14 H :   -0.584095
  15 F :   -0.491529
  16 O :   -0.740251
  17 C :    0.248243
  18 H :   -0.339330
  19 H :   -0.089852
  20 C :   -0.140503
  21 H :    0.081574
  22 H :    0.022632
  23 C :   -0.136934
  24 H :    0.033677
  25 H :   -0.031406
  26 O :   -0.933201
  27 H :    0.182379
  28 H :   -0.268168
  29 H :    0.013614
  30 H :   -0.121820
Sum of atomic charges:   -0.0000000

LOEWDIN ATOMIC CHARGES
----------------------
   0 C :    0.058553
   1 N :    0.003407
   2 C :   -0.022078
   3 C :   -0.047005
   4 H :    0.025771
   5 H :    0.020791
   6 S :    1.199435
   7 C :   -0.218578
   8 C :    0.160335
   9 N :    0.189401
  10 H :   -0.026141
  11 H :    0.001629
  12 H :   -0.070304
  13 H :   -0.163122
  14 H :   -0.099117
  15 F :   -0.239877
  16 O :   -0.446020
  17 C :   -0.019250
  18 H :    0.008460
  19 H :    0.018529
  20 C :   -0.024827
  21 H :    0.031733
  22 H :    0.040827
  23 C :   -0.029407
  24 H :    0.019429
  25 H :    0.019038
  26 O :   -0.477217
  27 H :    0.012921
  28 H :    0.025865
  29 H :    0.010708
  30 H :    0.036109

  Mayer bond orders larger than 0.100000
B(  0-C ,  1-N ) :   0.8678 B(  0-C , 12-H ) :  -0.3054 B(  0-C , 17-C ) :   1.0811
B(  0-C , 18-H ) :   0.9374 B(  0-C , 19-H ) :   0.6883 B(  0-C , 25-H ) :   0.1116
B(  1-N ,  7-C ) :   0.9824 B(  1-N ,  8-C ) :   0.2299 B(  1-N ,  9-N ) :   0.2413
B(  1-N , 12-H ) :   1.1591 B(  1-N , 18-H ) :   0.1027 B(  1-N , 19-H ) :   0.1354
B(  2-C ,  3-C ) :   1.3325 B(  2-C ,  5-H ) :   0.1794 B(  2-C , 20-C ) :   1.2808
B(  2-C , 21-H ) :   0.7033 B(  2-C , 22-H ) :   0.8092 B(  3-C ,  4-H ) :   0.8580
B(  3-C ,  5-H ) :   0.8307 B(  3-C ,  6-S ) :   1.0541 B(  3-C , 21-H ) :   0.1125
B(  3-C , 22-H ) :   0.1175 B(  6-S , 15-F ) :   0.5444 B(  6-S , 16-O ) :   1.4108
B(  6-S , 26-O ) :   1.2661 B(  7-C ,  8-C ) :   1.4377 B(  7-C ,  9-N ) :   0.8322
B(  7-C , 11-H ) :  -0.1411 B(  7-C , 12-H ) :  -0.3224 B(  7-C , 13-H ) :   0.1187
B(  7-C , 14-H ) :   0.2147 B(  8-C ,  9-N ) :   0.2670 B(  8-C , 13-H ) :   0.6194
B(  8-C , 14-H ) :   0.8102 B(  9-N , 10-H ) :   0.9882 B(  9-N , 11-H ) :   1.2928
B( 10-H , 11-H ) :  -0.2013 B( 12-H , 19-H ) :   0.1720 B( 12-H , 24-H ) :   0.1280
B( 12-H , 27-H ) :   0.1062 B( 13-H , 14-H ) :  -0.1618 B( 13-H , 26-O ) :   0.2143
B( 16-O , 26-O ) :   0.1520 B( 17-C , 18-H ) :   0.1125 B( 17-C , 19-H ) :   0.1019
B( 17-C , 23-C ) :   1.2827 B( 17-C , 24-H ) :   0.7856 B( 17-C , 25-H ) :   0.9068
B( 18-H , 19-H ) :  -0.1110 B( 20-C , 21-H ) :   0.2355 B( 20-C , 23-C ) :   1.1733
B( 20-C , 28-H ) :   0.1364 B( 20-C , 29-H ) :   0.9574 B( 20-C , 30-H ) :   0.8929
B( 23-C , 24-H ) :   0.1802 B( 23-C , 25-H ) :   0.1221 B( 23-C , 27-H ) :   0.8560
B( 23-C , 28-H ) :   0.9887 B( 23-C , 30-H ) :   0.1303

Dispersion correction           -0.033028518
FINAL SINGLE POINT ENERGY     -1071.505967273231

DIPOLE MOMENT
-------------
                                X             Y             Z
Electronic contribution:     -0.88922      -0.79117     -22.46912
Nuclear contribution   :      0.43347       2.59110      22.83150
                        -----------------------------------------
Total Dipole Moment    :     -0.45576       1.79993       0.36238
                        -----------------------------------------
Magnitude (a.u.)       :      1.89177
Magnitude (Debye)      :      4.80850

Rotational constants in cm-1:     0.029257     0.014415     0.010996
Rotational constants in MHz :   877.098782   432.159206   329.643335

                             ****ORCA TERMINATED NORMALLY****
TOTAL RUN TIME: 0 days 0 hours 2 minutes 51 seconds 122 msec
