                         Program Version 5.0.0 -  RELEASE  -
|  1> !LC-BLYP RIJCOSX def2-TZVP def2/J TightSCF
|  2> *xyz -1 1
|  3> C          1.44442        5.26658       -0.97546
|  4> O          1.56525        4.23349       -1.86489
|  5> C          0.14812        5.21087       -0.13809
|  6> H          1.47425        6.26464       -1.47692
|  7> H          2.28962        5.30327       -0.26445
|  8> H         -0.69779        5.17417       -0.79230
|  9> H          0.08430        6.08276        0.47887
| 10> H          0.15965        4.33708        0.47938
| 11> *
| 12> %MaxCore 64000
| 13>
| 14> %pal nprocs 4
| 15> end
| 16>
| 17> %scf
| 18>   MaxIter 150
| 19> end
| 20>
| 21>
| 22>                          ****END OF INPUT****

CARTESIAN COORDINATES (ANGSTROEM)
---------------------------------
  C      1.444420    5.266580   -0.975460
  O      1.565250    4.233490   -1.864890
  C      0.148120    5.210870   -0.138090
  H      1.474250    6.264640   -1.476920
  H      2.289620    5.303270   -0.264450
  H     -0.697790    5.174170   -0.792300
  H      0.084300    6.082760    0.478870
  H      0.159650    4.337080    0.479380

 Total Charge           Charge          ....   -1
 Multiplicity           Mult            ....    1
 Number of Electrons    NEL             ....   26
 Basis Dimension        Dim             ....  123

ORBITAL ENERGIES
----------------

  NO   OCC          E(Eh)            E(eV)
   0   2.0000     -18.578122      -505.5364
   1   2.0000      -9.873051      -268.6594
   2   2.0000      -9.852686      -268.1052
   3   2.0000      -0.759310       -20.6619
   4   2.0000      -0.626002       -17.0344
   5   2.0000      -0.470821       -12.8117
   6   2.0000      -0.349112        -9.4998
   7   2.0000      -0.325035        -8.8447
   8   2.0000      -0.267201        -7.2709
   9   2.0000      -0.248222        -6.7545
  10   2.0000      -0.196956        -5.3595
  11   2.0000      -0.050136        -1.3643
  12   2.0000      -0.046942        -1.2774
  13   0.0000       0.280292         7.6271
  14   0.0000       0.317988         8.6529
  15   0.0000       0.343311         9.3420
  16   0.0000       0.348328         9.4785
  17   0.0000       0.381699        10.3866

MULLIKEN ATOMIC CHARGES
-----------------------
   0 C :   -0.015806
   1 O :   -0.736983
   2 C :   -0.223763
   3 H :   -0.055925
   4 H :   -0.051016
   5 H :    0.044325
   6 H :   -0.005179
   7 H :    0.044346
Sum of atomic charges:   -1.0000000

LOEWDIN ATOMIC CHARGES
----------------------
   0 C :   -0.571834
   1 O :   -0.426176
   2 C :   -0.377182
   3 H :    0.055489
   4 H :    0.057563
   5 H :    0.091493
   6 H :    0.079552
   7 H :    0.091095

  Mayer bond orders larger than 0.100000
B(  0-C ,  1-O ) :   1.6760 B(  0-C ,  2-C ) :   0.8681 B(  0-C ,  3-H ) :   0.9337
B(  0-C ,  4-H ) :   0.9329 B(  1-O ,  2-C ) :  -0.2165 B(  2-C ,  5-H ) :   0.9705
B(  2-C ,  6-H ) :   0.9386 B(  2-C ,  7-H ) :   0.9744

FINAL SINGLE POINT ENERGY      -154.100572893392

DIPOLE MOMENT
-------------
                                X             Y             Z
Electronic contribution:      1.17763      -1.71509      -2.11863
Nuclear contribution   :     -1.83256       2.47114       3.17273
                        -----------------------------------------
Total Dipole Moment    :     -0.65493       0.75605       1.05411
                        -----------------------------------------
Magnitude (a.u.)       :      1.45316
Magnitude (Debye)      :      3.69365

Rotational constants in cm-1:     1.286062     0.322579     0.284728
Rotational constants in MHz : 38555.180127  9670.683110  8535.939140

                             ****ORCA TERMINATED NORMALLY****
TOTAL RUN TIME: 0 days 0 hours 0 minutes 12 seconds 750 msec
