                         Program Version 5.0.0 -  RELEASE  -
|  1> !LC-BLYP RIJCOSX def2-TZVP def2/J TightSCF
|  2> *xyz 1 1
|  3> C         -0.70169        4.07250       -4.00392
|  4> N          0.68053        4.61482       -4.04800
|  5> H          0.69993        5.58489       -4.38827
|  6> H          1.27804        4.05598       -4.66824
|  7> H          1.08573        4.53358       -3.10652
|  8> C         -1.70347        5.09320       -3.47740
|  9> H         -0.99590        3.74039       -5.00065
| 10> H         -0.64358        3.20191       -3.35153
| 11> H         -1.73704        5.93384       -4.13853
| 12> H         -1.40338        5.41759       -2.50291
| 13> H         -2.67335        4.64479       -3.42108
| 14> *
| 15> %MaxCore 64000
| 16>
| 17> %pal nprocs 4
| 18> end
| 19>
| 20> %scf
| 21>   MaxIter 150
| 22> end
| 23>
| 24>
| 25>                          ****END OF INPUT****

CARTESIAN COORDINATES (ANGSTROEM)
---------------------------------
  C     -0.701690    4.072500   -4.003920
  N      0.680530    4.614820   -4.048000
  H      0.699930    5.584890   -4.388270
  H      1.278040    4.055980   -4.668240
  H      1.085730    4.533580   -3.106520
  C     -1.703470    5.093200   -3.477400
  H     -0.995900    3.740390   -5.000650
  H     -0.643580    3.201910   -3.351530
  H     -1.737040    5.933840   -4.138530
  H     -1.403380    5.417590   -2.502910
  H     -2.673350    4.644790   -3.421080

 Total Charge           Charge          ....    1
 Multiplicity           Mult            ....    1
 Number of Electrons    NEL             ....   26
 Basis Dimension        Dim             ....  141

ORBITAL ENERGIES
----------------

  NO   OCC          E(Eh)            E(eV)
   0   2.0000     -14.503856      -394.6700
   1   2.0000     -10.321957      -280.8747
   2   2.0000     -10.241995      -278.6988
   3   2.0000      -1.319046       -35.8931
   4   2.0000      -1.074587       -29.2410
   5   2.0000      -0.953400       -25.9433
   6   2.0000      -0.910018       -24.7629
   7   2.0000      -0.890980       -24.2448
   8   2.0000      -0.799894       -21.7662
   9   2.0000      -0.746623       -20.3167
  10   2.0000      -0.683859       -18.6088
  11   2.0000      -0.667601       -18.1663
  12   2.0000      -0.648920       -17.6580
  13   0.0000      -0.130407        -3.5486
  14   0.0000      -0.068818        -1.8726
  15   0.0000      -0.063195        -1.7196
  16   0.0000      -0.044570        -1.2128
  17   0.0000      -0.006298        -0.1714

MULLIKEN ATOMIC CHARGES
-----------------------
   0 C :   -0.260960
   1 N :   -0.287719
   2 H :    0.330542
   3 H :    0.336271
   4 H :    0.336434
   5 C :   -0.410089
   6 H :    0.211488
   7 H :    0.209231
   8 H :    0.172240
   9 H :    0.164629
  10 H :    0.197932
Sum of atomic charges:    1.0000000

LOEWDIN ATOMIC CHARGES
----------------------
   0 C :   -0.293399
   1 N :    0.167166
   2 H :    0.225010
   3 H :    0.226178
   4 H :    0.229088
   5 C :   -0.290740
   6 H :    0.157900
   7 H :    0.156560
   8 H :    0.135244
   9 H :    0.134494
  10 H :    0.152500

  Mayer bond orders larger than 0.100000
B(  0-C ,  1-N ) :   0.8403 B(  0-C ,  5-C ) :   0.9522 B(  0-C ,  6-H ) :   0.9541
B(  0-C ,  7-H ) :   0.9556 B(  1-N ,  2-H ) :   0.8726 B(  1-N ,  3-H ) :   0.8792
B(  1-N ,  4-H ) :   0.8780 B(  5-C ,  8-H ) :   0.9554 B(  5-C ,  9-H ) :   0.9547
B(  5-C , 10-H ) :   0.9583

FINAL SINGLE POINT ENERGY      -135.190088014883

DIPOLE MOMENT
-------------
                                X             Y             Z
Electronic contribution:      1.78115      -0.33469      -0.46048
Nuclear contribution   :     -0.23930       0.27560       0.19485
                        -----------------------------------------
Total Dipole Moment    :      1.54185      -0.05909      -0.26563
                        -----------------------------------------
Magnitude (a.u.)       :      1.56568
Magnitude (Debye)      :      3.97965

Rotational constants in cm-1:     1.018556     0.279088     0.248454
Rotational constants in MHz : 30535.536069  8366.847891  7448.451392

                             ****ORCA TERMINATED NORMALLY****
TOTAL RUN TIME: 0 days 0 hours 0 minutes 14 seconds 104 msec
