                         Program Version 5.0.0 -  RELEASE  -
|  1> !LC-BLYP RIJCOSX def2-TZVP def2/J TightSCF xyzfile
|  2>
|  3> *xyzfile 0 1 B.xyz
|  4>
|  5> %MaxCore 64000
|  6>
|  7> %pal nprocs 18
|  8> end
|  9>
| 10> %scf
| 11>   MaxIter 150
| 12> end
| 13>
| 14>
| 15>                          ****END OF INPUT****

CARTESIAN COORDINATES (ANGSTROEM)
---------------------------------
  C     -0.701686    4.072499   -4.003920
  N      0.680528    4.614820   -4.048005
  C      1.444422    5.266576   -0.975463
  O      1.565248    4.233493   -1.864885
  H      0.699926    5.584890   -4.388272
  H      1.278044    4.055977   -4.668235
  H      1.085729    4.533581   -3.106524
  C     -1.703475    5.093197   -3.477396
  H     -0.995895    3.740394   -5.000654
  H     -0.643580    3.201910   -3.351533
  C     -1.313997    5.785995   -2.169271
  H     -1.877057    5.850103   -4.251154
  H     -2.653264    4.564475   -3.354796
  H     -2.097137    6.509395   -1.929558
  H     -0.416875    6.387594   -2.339097
  C     -1.073895    4.844728   -0.979904
  H     -1.968893    4.809608   -0.352568
  C      0.148120    5.210874   -0.138092
  H     -0.909754    3.827531   -1.338975
  H      1.474250    6.264638   -1.476917
  H      2.289622    5.303267   -0.264450
  H      0.261827    4.450942    0.640711
  H     -0.002516    6.171031    0.371483

 Total Charge           Charge          ....    0
 Multiplicity           Mult            ....    1
 Number of Electrons    NEL             ....   66
 Basis Dimension        Dim             ....  338

ORBITAL ENERGIES
----------------

  NO   OCC          E(Eh)            E(eV)
   0   2.0000     -18.799871      -511.5705
   1   2.0000     -14.247322      -387.6893
   2   2.0000     -10.133520      -275.7471
   3   2.0000     -10.088761      -274.5291
   4   2.0000     -10.063457      -273.8406
   5   2.0000     -10.050833      -273.4971
   6   2.0000     -10.041629      -273.2466
   7   2.0000     -10.023270      -272.7470
   8   2.0000      -1.090116       -29.6636
   9   2.0000      -0.983154       -26.7530
  10   2.0000      -0.919974       -25.0338
  11   2.0000      -0.855234       -23.2721
  12   2.0000      -0.803070       -21.8527
  13   2.0000      -0.744437       -20.2572
  14   2.0000      -0.696692       -18.9579
  15   2.0000      -0.675526       -18.3820
  16   2.0000      -0.673751       -18.3337
  17   2.0000      -0.626010       -17.0346
  18   2.0000      -0.593967       -16.1627
  19   2.0000      -0.569513       -15.4972
  20   2.0000      -0.562254       -15.2997
  21   2.0000      -0.522344       -14.2137
  22   2.0000      -0.510620       -13.8947
  23   2.0000      -0.495072       -13.4716
  24   2.0000      -0.475689       -12.9442
  25   2.0000      -0.454439       -12.3659
  26   2.0000      -0.447856       -12.1868
  27   2.0000      -0.428150       -11.6505
  28   2.0000      -0.405501       -11.0342
  29   2.0000      -0.397172       -10.8076
  30   2.0000      -0.387934       -10.5562
  31   2.0000      -0.272814        -7.4237
  32   2.0000      -0.269169        -7.3245
  33   0.0000       0.056431         1.5356
  34   0.0000       0.098238         2.6732
  35   0.0000       0.104273         2.8374
  36   0.0000       0.125043         3.4026
  37   0.0000       0.135275         3.6810

MULLIKEN ATOMIC CHARGES
-----------------------
   0 C :   -0.261586
   1 N :   -0.297683
   2 C :   -0.132468
   3 O :   -0.644297
   4 H :    0.263048
   5 H :    0.273488
   6 H :    0.288467
   7 C :   -0.280010
   8 H :    0.156637
   9 H :    0.201655
  10 C :   -0.282121
  11 H :    0.143600
  12 H :    0.143473
  13 H :    0.132615
  14 H :    0.122063
  15 C :   -0.218033
  16 H :    0.114438
  17 C :   -0.151844
  18 H :    0.114495
  19 H :    0.051479
  20 H :    0.076206
  21 H :    0.100152
  22 H :    0.086227
Sum of atomic charges:   -0.0000000

LOEWDIN ATOMIC CHARGES
----------------------
   0 C :   -0.295036
   1 N :    0.137293
   2 C :   -0.497175
   3 O :   -0.264138
   4 H :    0.191447
   5 H :    0.194936
   6 H :    0.083429
   7 C :   -0.287257
   8 H :    0.134296
   9 H :    0.149336
  10 C :   -0.274466
  11 H :    0.140412
  12 H :    0.152267
  13 H :    0.141254
  14 H :    0.138022
  15 C :   -0.283732
  16 H :    0.133543
  17 C :   -0.295106
  18 H :    0.141282
  19 H :    0.085451
  20 H :    0.109575
  21 H :    0.134865
  22 H :    0.129502

  Mayer bond orders larger than 0.100000
B(  0-C ,  1-N ) :   0.8488 B(  0-C ,  7-C ) :   0.9372 B(  0-C ,  8-H ) :   0.9788
B(  0-C ,  9-H ) :   0.9736 B(  1-N ,  4-H ) :   0.9050 B(  1-N ,  5-H ) :   0.9132
B(  1-N ,  6-H ) :   0.6146 B(  2-C ,  3-O ) :   1.2499 B(  2-C , 17-C ) :   0.8769
B(  2-C , 19-H ) :   0.9925 B(  2-C , 20-H ) :   0.9801 B(  3-O ,  6-H ) :   0.4586
B(  3-O , 17-C ) :  -0.1163 B(  7-C , 10-C ) :   0.9142 B(  7-C , 11-H ) :   0.9885
B(  7-C , 12-H ) :   0.9733 B( 10-C , 13-H ) :   0.9826 B( 10-C , 14-H ) :   0.9854
B( 10-C , 15-C ) :   0.8761 B( 15-C , 16-H ) :   0.9764 B( 15-C , 17-C ) :   0.9438
B( 15-C , 18-H ) :   0.9738 B( 17-C , 21-H ) :   0.9680 B( 17-C , 22-H ) :   0.9654

FINAL SINGLE POINT ENERGY      -366.759345842754

DIPOLE MOMENT
-------------
                                X             Y             Z
Electronic contribution:      2.01840      -1.55590      -1.30896
Nuclear contribution   :     -3.16446       1.92310      -1.11926
                        -----------------------------------------
Total Dipole Moment    :     -1.14606       0.36721      -2.42822
                        -----------------------------------------
Magnitude (a.u.)       :      2.71008
Magnitude (Debye)      :      6.88847

Rotational constants in cm-1:     0.085554     0.055600     0.038553
Rotational constants in MHz :  2564.854379  1666.836664  1155.798427

                             ****ORCA TERMINATED NORMALLY****
TOTAL RUN TIME: 0 days 0 hours 0 minutes 34 seconds 729 msec
