                         Program Version 5.0.0 -  RELEASE  -
|  1> !LC-BLYP RIJCOSX def2-TZVP def2/J TightSCF
|  2> *xyz 0 1
|  3> C          1.44442        5.26658       -0.97546
|  4> F          1.56525        4.23349       -1.86489
|  5> C          0.14812        5.21087       -0.13809
|  6> H          1.47425        6.26464       -1.47692
|  7> H          2.28962        5.30327       -0.26445
|  8> H         -0.69779        5.17417       -0.79230
|  9> H          0.08430        6.08276        0.47887
| 10> H          0.15965        4.33708        0.47938
| 11> *
| 12> %MaxCore 64000
| 13>
| 14> %pal nprocs 4
| 15> end
| 16>
| 17> %scf
| 18>   MaxIter 150
| 19> end
| 20>
| 21>
| 22>                          ****END OF INPUT****

CARTESIAN COORDINATES (ANGSTROEM)
---------------------------------
  C      1.444420    5.266580   -0.975460
  F      1.565250    4.233490   -1.864890
  C      0.148120    5.210870   -0.138090
  H      1.474250    6.264640   -1.476920
  H      2.289620    5.303270   -0.264450
  H     -0.697790    5.174170   -0.792300
  H      0.084300    6.082760    0.478870
  H      0.159650    4.337080    0.479380

 Total Charge           Charge          ....    0
 Multiplicity           Mult            ....    1
 Number of Electrons    NEL             ....   26
 Basis Dimension        Dim             ....  123

ORBITAL ENERGIES
----------------

  NO   OCC          E(Eh)            E(eV)
   0   2.0000     -24.438249      -664.9986
   1   2.0000     -10.147485      -276.1271
   2   2.0000     -10.063718      -273.8477
   3   2.0000      -1.277340       -34.7582
   4   2.0000      -0.872955       -23.7543
   5   2.0000      -0.739394       -20.1199
   6   2.0000      -0.612382       -16.6638
   7   2.0000      -0.601004       -16.3542
   8   2.0000      -0.560794       -15.2600
   9   2.0000      -0.506345       -13.7783
  10   2.0000      -0.502198       -13.6655
  11   2.0000      -0.433894       -11.8069
  12   2.0000      -0.426230       -11.5983
  13   0.0000       0.105217         2.8631
  14   0.0000       0.144331         3.9275
  15   0.0000       0.165264         4.4971
  16   0.0000       0.169141         4.6026
  17   0.0000       0.181702         4.9444

MULLIKEN ATOMIC CHARGES
-----------------------
   0 C :   -0.013080
   1 F :   -0.215436
   2 C :   -0.381404
   3 H :    0.106088
   4 H :    0.106554
   5 H :    0.136182
   6 H :    0.126164
   7 H :    0.134932
Sum of atomic charges:   -0.0000000

LOEWDIN ATOMIC CHARGES
----------------------
   0 C :   -0.390286
   1 F :    0.105905
   2 C :   -0.323729
   3 H :    0.121400
   4 H :    0.119607
   5 H :    0.121328
   6 H :    0.125427
   7 H :    0.120348

  Mayer bond orders larger than 0.100000
B(  0-C ,  1-F ) :   1.0273 B(  0-C ,  2-C ) :   0.9549 B(  0-C ,  3-H ) :   0.9722
B(  0-C ,  4-H ) :   0.9714 B(  2-C ,  5-H ) :   0.9691 B(  2-C ,  6-H ) :   0.9572
B(  2-C ,  7-H ) :   0.9705

FINAL SINGLE POINT ENERGY      -178.739210316349

DIPOLE MOMENT
-------------
                                X             Y             Z
Electronic contribution:      2.30341      -2.74251      -3.70188
Nuclear contribution   :     -2.43357       3.25919       4.19687
                        -----------------------------------------
Total Dipole Moment    :     -0.13017       0.51668       0.49499
                        -----------------------------------------
Magnitude (a.u.)       :      0.72727
Magnitude (Debye)      :      1.84856

Rotational constants in cm-1:     1.264662     0.300144     0.266170
Rotational constants in MHz : 37913.611527  8998.095216  7979.576054

                             ****ORCA TERMINATED NORMALLY****
TOTAL RUN TIME: 0 days 0 hours 0 minutes 9 seconds 223 msec
