                         Program Version 5.0.0 -  RELEASE  -
|  1> !LC-BLYP RIJCOSX def2-TZVP def2/J TightSCF
|  2> *xyz 0 1
|  3> C         -0.70169        4.07250       -4.00392
|  4> C          0.68053        4.61482       -4.04800
|  5> H          0.69993        5.58489       -4.38827
|  6> H          1.27804        4.05598       -4.66824
|  7> H          1.08573        4.53358       -3.10652
|  8> C         -1.70347        5.09320       -3.47740
|  9> H         -0.99590        3.74039       -5.00065
| 10> H         -0.64358        3.20191       -3.35153
| 11> H         -1.73704        5.93384       -4.13853
| 12> H         -1.40338        5.41759       -2.50291
| 13> H         -2.67335        4.64479       -3.42108
| 14> *
| 15> %MaxCore 64000
| 16>
| 17> %pal nprocs 4
| 18> end
| 19>
| 20> %scf
| 21>   MaxIter 150
| 22> end
| 23>
| 24>
| 25>                          ****END OF INPUT****

CARTESIAN COORDINATES (ANGSTROEM)
---------------------------------
  C     -0.701690    4.072500   -4.003920
  C      0.680530    4.614820   -4.048000
  H      0.699930    5.584890   -4.388270
  H      1.278040    4.055980   -4.668240
  H      1.085730    4.533580   -3.106520
  C     -1.703470    5.093200   -3.477400
  H     -0.995900    3.740390   -5.000650
  H     -0.643580    3.201910   -3.351530
  H     -1.737040    5.933840   -4.138530
  H     -1.403380    5.417590   -2.502910
  H     -2.673350    4.644790   -3.421080

 Total Charge           Charge          ....    0
 Multiplicity           Mult            ....    1
 Number of Electrons    NEL             ....   26
 Basis Dimension        Dim             ....  141

ORBITAL ENERGIES
----------------

  NO   OCC          E(Eh)            E(eV)
   0   2.0000     -10.053614      -273.5727
   1   2.0000     -10.044801      -273.3329
   2   2.0000     -10.027169      -272.8532
   3   2.0000      -0.901887       -24.5416
   4   2.0000      -0.799148       -21.7459
   5   2.0000      -0.692376       -18.8405
   6   2.0000      -0.577621       -15.7179
   7   2.0000      -0.551271       -15.0008
   8   2.0000      -0.504613       -13.7312
   9   2.0000      -0.492604       -13.4044
  10   2.0000      -0.435434       -11.8487
  11   2.0000      -0.432086       -11.7577
  12   2.0000      -0.422593       -11.4993
  13   0.0000       0.103727         2.8225
  14   0.0000       0.146679         3.9913
  15   0.0000       0.153837         4.1861
  16   0.0000       0.159901         4.3511
  17   0.0000       0.180261         4.9051

MULLIKEN ATOMIC CHARGES
-----------------------
   0 C :   -0.193897
   1 C :   -0.382041
   2 H :    0.118417
   3 H :    0.129191
   4 H :    0.127608
   5 C :   -0.384321
   6 H :    0.106733
   7 H :    0.105048
   8 H :    0.125350
   9 H :    0.121347
  10 H :    0.126565
Sum of atomic charges:    0.0000000

LOEWDIN ATOMIC CHARGES
----------------------
   0 C :   -0.331864
   1 C :   -0.318411
   2 H :    0.112508
   3 H :    0.113718
   4 H :    0.115604
   5 C :   -0.319599
   6 H :    0.133572
   7 H :    0.136685
   8 H :    0.119094
   9 H :    0.119753
  10 H :    0.118939

  Mayer bond orders larger than 0.100000
B(  0-C ,  1-C ) :   0.9218 B(  0-C ,  5-C ) :   0.9440 B(  0-C ,  6-H ) :   0.9815
B(  0-C ,  7-H ) :   0.9801 B(  1-C ,  2-H ) :   0.9796 B(  1-C ,  3-H ) :   0.9860
B(  1-C ,  4-H ) :   0.9793 B(  5-C ,  8-H ) :   0.9769 B(  5-C ,  9-H ) :   0.9753
B(  5-C , 10-H ) :   0.9837

FINAL SINGLE POINT ENERGY      -118.783687099717

DIPOLE MOMENT
-------------
                                X             Y             Z
Electronic contribution:     -0.13625      -0.31611      -0.13979
Nuclear contribution   :      0.16058       0.27975       0.12812
                        -----------------------------------------
Total Dipole Moment    :      0.02433      -0.03636      -0.01167
                        -----------------------------------------
Magnitude (a.u.)       :      0.04528
Magnitude (Debye)      :      0.11509

Rotational constants in cm-1:     1.027122     0.293327     0.260229
Rotational constants in MHz : 30792.337141  8793.723318  7801.458329

                             ****ORCA TERMINATED NORMALLY****
TOTAL RUN TIME: 0 days 0 hours 0 minutes 12 seconds 414 msec
