                         Program Version 5.0.0 -  RELEASE  -
|  1> !LC-BLYP RIJCOSX def2-TZVP def2/J TightSCF xyzfile
|  2>
|  3> *xyzfile 0 1 D.xyz
|  4>
|  5> %MaxCore 64000
|  6>
|  7> %pal nprocs 18
|  8> end
|  9>
| 10> %scf
| 11>   MaxIter 150
| 12> end
| 13>
| 14>
| 15>                          ****END OF INPUT****

CARTESIAN COORDINATES (ANGSTROEM)
---------------------------------
  C     -0.701686    4.072499   -4.003920
  C      0.680528    4.614820   -4.048005
  C      1.444422    5.266576   -0.975463
  F      1.565248    4.233493   -1.864885
  H      0.699926    5.584890   -4.388272
  H      1.278044    4.055977   -4.668235
  H      1.085729    4.533581   -3.106524
  C     -1.703475    5.093197   -3.477396
  H     -0.995895    3.740394   -5.000654
  H     -0.643580    3.201910   -3.351533
  C     -1.313997    5.785995   -2.169271
  H     -1.877057    5.850103   -4.251154
  H     -2.653264    4.564475   -3.354796
  H     -2.097137    6.509395   -1.929558
  H     -0.416875    6.387594   -2.339097
  C     -1.073895    4.844728   -0.979904
  H     -1.968893    4.809608   -0.352568
  C      0.148120    5.210874   -0.138092
  H     -0.909754    3.827531   -1.338975
  H      1.474250    6.264638   -1.476917
  H      2.289622    5.303267   -0.264450
  H      0.261827    4.450942    0.640711
  H     -0.002516    6.171031    0.371483

 Total Charge           Charge          ....    0
 Multiplicity           Mult            ....    1
 Number of Electrons    NEL             ....   66
 Basis Dimension        Dim             ....  338

ORBITAL ENERGIES
----------------

  NO   OCC          E(Eh)            E(eV)
   0   2.0000     -24.460188      -665.5955
   1   2.0000     -10.154956      -276.3304
   2   2.0000     -10.078356      -274.2460
   3   2.0000     -10.063625      -273.8451
   4   2.0000     -10.056999      -273.6648
   5   2.0000     -10.050037      -273.4754
   6   2.0000     -10.037445      -273.1328
   7   2.0000      -9.984054      -271.6799
   8   2.0000      -1.311763       -35.6949
   9   2.0000      -0.925428       -25.1822
  10   2.0000      -0.894157       -24.3313
  11   2.0000      -0.832546       -22.6547
  12   2.0000      -0.799944       -21.7676
  13   2.0000      -0.740295       -20.1445
  14   2.0000      -0.704588       -19.1728
  15   2.0000      -0.649476       -17.6731
  16   2.0000      -0.643505       -17.5106
  17   2.0000      -0.627127       -17.0650
  18   2.0000      -0.600046       -16.3281
  19   2.0000      -0.565573       -15.3900
  20   2.0000      -0.557960       -15.1829
  21   2.0000      -0.532379       -14.4868
  22   2.0000      -0.516737       -14.0611
  23   2.0000      -0.490954       -13.3595
  24   2.0000      -0.481574       -13.1043
  25   2.0000      -0.468726       -12.7547
  26   2.0000      -0.458165       -12.4673
  27   2.0000      -0.438316       -11.9272
  28   2.0000      -0.427617       -11.6361
  29   2.0000      -0.411689       -11.2026
  30   2.0000      -0.399466       -10.8700
  31   2.0000      -0.396023       -10.7763
  32   2.0000      -0.372540       -10.1373
  33   0.0000       0.097606         2.6560
  34   0.0000       0.113011         3.0752
  35   0.0000       0.117587         3.1997
  36   0.0000       0.135513         3.6875
  37   0.0000       0.145910         3.9704

MULLIKEN ATOMIC CHARGES
-----------------------
   0 C :   -0.233301
   1 C :   -0.472864
   2 C :   -0.109548
   3 F :   -0.156189
   4 H :    0.121457
   5 H :    0.126611
   6 H :    0.172219
   7 C :   -0.240281
   8 H :    0.112728
   9 H :    0.118380
  10 C :   -0.270061
  11 H :    0.126212
  12 H :    0.115866
  13 H :    0.126034
  14 H :    0.128046
  15 C :   -0.253613
  16 H :    0.132642
  17 C :   -0.241827
  18 H :    0.143159
  19 H :    0.149128
  20 H :    0.138432
  21 H :    0.133372
  22 H :    0.133397
Sum of atomic charges:   -0.0000000

LOEWDIN ATOMIC CHARGES
----------------------
   0 C :   -0.316834
   1 C :   -0.335297
   2 C :   -0.366266
   3 F :    0.186941
   4 H :    0.107267
   5 H :    0.108851
   6 H :    0.068633
   7 C :   -0.281160
   8 H :    0.135063
   9 H :    0.134481
  10 C :   -0.273374
  11 H :    0.140536
  12 H :    0.138782
  13 H :    0.138408
  14 H :    0.139512
  15 C :   -0.274879
  16 H :    0.140446
  17 C :   -0.285231
  18 H :    0.145147
  19 H :    0.130521
  20 H :    0.130391
  21 H :    0.141242
  22 H :    0.146823

  Mayer bond orders larger than 0.100000
B(  0-C ,  1-C ) :   0.8601 B(  0-C ,  7-C ) :   0.9282 B(  0-C ,  8-H ) :   0.9926
B(  0-C ,  9-H ) :   0.9905 B(  1-C ,  4-H ) :   0.9832 B(  1-C ,  5-H ) :   0.9970
B(  1-C ,  6-H ) :   0.9497 B(  2-C ,  3-F ) :   0.9577 B(  2-C , 17-C ) :   0.9323
B(  2-C , 19-H ) :   0.9877 B(  2-C , 20-H ) :   0.9796 B(  7-C , 10-C ) :   0.9227
B(  7-C , 11-H ) :   0.9853 B(  7-C , 12-H ) :   0.9834 B( 10-C , 13-H ) :   0.9817
B( 10-C , 14-H ) :   0.9888 B( 10-C , 15-C ) :   0.8727 B( 15-C , 16-H ) :   0.9800
B( 15-C , 17-C ) :   0.9239 B( 15-C , 18-H ) :   0.9873 B( 17-C , 21-H ) :   0.9797
B( 17-C , 22-H ) :   0.9592

FINAL SINGLE POINT ENERGY      -374.721161405177

DIPOLE MOMENT
-------------
                                X             Y             Z
Electronic contribution:      5.12429      -2.26479       2.79275
Nuclear contribution   :     -5.08831       2.68947      -1.99048
                        -----------------------------------------
Total Dipole Moment    :      0.03598       0.42468       0.80227
                        -----------------------------------------
Magnitude (a.u.)       :      0.90845
Magnitude (Debye)      :      2.30911

Rotational constants in cm-1:     0.084646     0.055672     0.038419
Rotational constants in MHz :  2537.625105  1668.992890  1151.781380

                             ****ORCA TERMINATED NORMALLY****
TOTAL RUN TIME: 0 days 0 hours 0 minutes 30 seconds 381 msec
