                         Program Version 5.0.0 -  RELEASE  -
|  1> !TPSS D3BJ RIJCOSX def2-SVP def2/J TightSCF
|  2> *xyz -1 1
|  3> C         -2.79070       -0.78527        5.70281
|  4> C         -2.45380        0.05510        6.94145
|  5> C         -2.07842        1.48042        6.56410
|  6> H         -1.62558       -0.38216        7.49891
|  7> H         -3.32527        0.08775        7.59917
|  8> O         -0.90125        1.85816        6.82810
|  9> O         -2.93658        2.17731        5.96415
| 10> H         -1.94052       -0.82114        5.05412
| 11> H         -3.61590       -0.34261        5.18514
| 12> H         -3.05063       -1.77815        6.00536
| 13> *
| 14> %MaxCore 64000
| 15>
| 16> %pal nprocs 4
| 17> end
| 18>
| 19> %scf
| 20>   MaxIter 150
| 21> end
| 22>
| 23>
| 24>                          ****END OF INPUT****

CARTESIAN COORDINATES (ANGSTROEM)
---------------------------------
  C     -2.790700   -0.785270    5.702810
  C     -2.453800    0.055100    6.941450
  C     -2.078420    1.480420    6.564100
  H     -1.625580   -0.382160    7.498910
  H     -3.325270    0.087750    7.599170
  O     -0.901250    1.858160    6.828100
  O     -2.936580    2.177310    5.964150
  H     -1.940520   -0.821140    5.054120
  H     -3.615900   -0.342610    5.185140
  H     -3.050630   -1.778150    6.005360

 Total Charge           Charge          ....   -1
 Multiplicity           Mult            ....    1
 Number of Electrons    NEL             ....   40
 Basis Dimension        Dim             ....   95

ORBITAL ENERGIES
----------------

  NO   OCC          E(Eh)            E(eV)
   0   2.0000     -18.592471      -505.9268
   1   2.0000     -18.590046      -505.8609
   2   2.0000      -9.839096      -267.7354
   3   2.0000      -9.830213      -267.4937
   4   2.0000      -9.806420      -266.8463
   5   2.0000      -0.698328       -19.0025
   6   2.0000      -0.607671       -16.5356
   7   2.0000      -0.527190       -14.3456
   8   2.0000      -0.401983       -10.9385
   9   2.0000      -0.253593        -6.9006
  10   2.0000      -0.236469        -6.4346
  11   2.0000      -0.190923        -5.1953
  12   2.0000      -0.168259        -4.5786
  13   2.0000      -0.153634        -4.1806
  14   2.0000      -0.132275        -3.5994
  15   2.0000      -0.098524        -2.6810
  16   2.0000      -0.090891        -2.4733
  17   2.0000       0.028836         0.7847
  18   2.0000       0.037304         1.0151
  19   2.0000       0.057724         1.5708
  20   0.0000       0.205746         5.5986
  21   0.0000       0.251944         6.8558
  22   0.0000       0.259519         7.0619
  23   0.0000       0.269964         7.3461
  24   0.0000       0.274496         7.4694

MULLIKEN ATOMIC CHARGES
-----------------------
   0 C :    0.022160
   1 C :    0.022900
   2 C :    0.016861
   3 H :   -0.061051
   4 H :   -0.048233
   5 O :   -0.435853
   6 O :   -0.434004
   7 H :   -0.016405
   8 H :   -0.014232
   9 H :   -0.052142
Sum of atomic charges:   -1.0000000

LOEWDIN ATOMIC CHARGES
----------------------
   0 C :   -0.050380
   1 C :   -0.084073
   2 C :   -0.068824
   3 H :   -0.010825
   4 H :   -0.004264
   5 O :   -0.389847
   6 O :   -0.387709
   7 H :    0.005189
   8 H :    0.003664
   9 H :   -0.012931

  Mayer bond orders larger than 0.100000
B(  0-C ,  1-C ) :   1.0949 B(  0-C ,  7-H ) :   0.9695 B(  0-C ,  8-H ) :   0.9587
B(  0-C ,  9-H ) :   0.9595 B(  1-C ,  2-C ) :   0.9151 B(  1-C ,  3-H ) :   0.9277
B(  1-C ,  4-H ) :   0.9256 B(  2-C ,  5-O ) :   1.8400 B(  2-C ,  6-O ) :   1.8154
B(  5-O ,  6-O ) :   0.1356

Dispersion correction           -0.008068427
FINAL SINGLE POINT ENERGY      -267.660104028856

DIPOLE MOMENT
-------------
                                X             Y             Z
Electronic contribution:      1.73561       5.86244       0.62061
Nuclear contribution   :     -2.24498      -7.51881      -0.57245
                        -----------------------------------------
Total Dipole Moment    :     -0.50937      -1.65637       0.04816
                        -----------------------------------------
Magnitude (a.u.)       :      1.73359
Magnitude (Debye)      :      4.40643

Rotational constants in cm-1:     0.305589     0.135336     0.107479
Rotational constants in MHz :  9161.317320  4057.276612  3222.126231

                             ****ORCA TERMINATED NORMALLY****
TOTAL RUN TIME: 0 days 0 hours 0 minutes 8 seconds 87 msec
