                         Program Version 5.0.0 -  RELEASE  -
|  1> !TPSS D3BJ RIJCOSX def2-SVP def2/J TightSCF
|  2> *xyz 1 1
|  3> C         -0.69912        3.48945        3.75516
|  4> H         -0.96672        4.34901        3.14049
|  5> N         -1.08067        3.79296        5.15686
|  6> C          0.77696        3.13839        3.61741
|  7> H         -1.33146        2.65651        3.44632
|  8> H         -0.87449        4.76274        5.42734
|  9> H         -0.68079        3.13476        5.83900
| 10> H         -2.05755        3.53169        5.34620
| 11> H          0.99957        2.92898        2.59199
| 12> H          0.99576        2.27685        4.21303
| 13> H          1.37223        3.96279        3.95046
| 14> *
| 15> %MaxCore 64000
| 16>
| 17> %pal nprocs 4
| 18> end
| 19>
| 20> %scf
| 21>   MaxIter 150
| 22> end
| 23>
| 24>
| 25>                          ****END OF INPUT****

CARTESIAN COORDINATES (ANGSTROEM)
---------------------------------
  C     -0.699120    3.489450    3.755160
  H     -0.966720    4.349010    3.140490
  N     -1.080670    3.792960    5.156860
  C      0.776960    3.138390    3.617410
  H     -1.331460    2.656510    3.446320
  H     -0.874490    4.762740    5.427340
  H     -0.680790    3.134760    5.839000
  H     -2.057550    3.531690    5.346200
  H      0.999570    2.928980    2.591990
  H      0.995760    2.276850    4.213030
  H      1.372230    3.962790    3.950460

 Total Charge           Charge          ....    1
 Multiplicity           Mult            ....    1
 Number of Electrons    NEL             ....   26
 Basis Dimension        Dim             ....   82

ORBITAL ENERGIES
----------------

  NO   OCC          E(Eh)            E(eV)
   0   2.0000     -14.455429      -393.3522
   1   2.0000     -10.254728      -279.0453
   2   2.0000     -10.178034      -276.9584
   3   2.0000      -1.150575       -31.3087
   4   2.0000      -0.906940       -24.6791
   5   2.0000      -0.793400       -21.5895
   6   2.0000      -0.772778       -21.0284
   7   2.0000      -0.724696       -19.7200
   8   2.0000      -0.658750       -17.9255
   9   2.0000      -0.603761       -16.4292
  10   2.0000      -0.543576       -14.7915
  11   2.0000      -0.530459       -14.4345
  12   2.0000      -0.514960       -14.0128
  13   0.0000      -0.199543        -5.4298
  14   0.0000      -0.145010        -3.9459
  15   0.0000      -0.140595        -3.8258
  16   0.0000      -0.103934        -2.8282
  17   0.0000      -0.067651        -1.8409

MULLIKEN ATOMIC CHARGES
-----------------------
   0 C :   -0.040090
   1 H :    0.103482
   2 N :    0.031578
   3 C :   -0.015941
   4 H :    0.094255
   5 H :    0.219009
   6 H :    0.193846
   7 H :    0.202742
   8 H :    0.093473
   9 H :    0.058025
  10 H :    0.059620
Sum of atomic charges:    1.0000000

LOEWDIN ATOMIC CHARGES
----------------------
   0 C :    0.055611
   1 H :    0.053955
   2 N :    0.297758
   3 C :   -0.026593
   4 H :    0.050463
   5 H :    0.146052
   6 H :    0.141354
   7 H :    0.147213
   8 H :    0.060841
   9 H :    0.036090
  10 H :    0.037256

  Mayer bond orders larger than 0.100000
B(  0-C ,  1-H ) :   0.9490 B(  0-C ,  2-N ) :   0.9247 B(  0-C ,  3-C ) :   1.1033
B(  0-C ,  4-H ) :   0.9517 B(  2-N ,  5-H ) :   0.9328 B(  2-N ,  6-H ) :   0.9329
B(  2-N ,  7-H ) :   0.9344 B(  3-C ,  8-H ) :   0.9565 B(  3-C ,  9-H ) :   0.9660
B(  3-C , 10-H ) :   0.9698

Dispersion correction           -0.007415619
FINAL SINGLE POINT ENERGY      -135.458887107912

DIPOLE MOMENT
-------------
                                X             Y             Z
Electronic contribution:     -1.34674       0.58561       1.13490
Nuclear contribution   :      0.33986      -0.24565       0.10678
                        -----------------------------------------
Total Dipole Moment    :     -1.00689       0.33996       1.24168
                        -----------------------------------------
Magnitude (a.u.)       :      1.63437
Magnitude (Debye)      :      4.15423

Rotational constants in cm-1:     1.016237     0.277523     0.247812
Rotational constants in MHz : 30466.024354  8319.937961  7429.230177

                             ****ORCA TERMINATED NORMALLY****
TOTAL RUN TIME: 0 days 0 hours 0 minutes 6 seconds 744 msec
