                         Program Version 5.0.0 -  RELEASE  -
|  1> !TPSS D3BJ RIJCOSX def2-TZVP def2/J TightSCF xyzfile
|  2>
|  3> *xyzfile 0 1 B.xyz
|  4>
|  5> %MaxCore 64000
|  6>
|  7> %pal nprocs 18
|  8> end
|  9>
| 10> %scf
| 11>   MaxIter 150
| 12> end
| 13>
| 14>
| 15>                          ****END OF INPUT****

CARTESIAN COORDINATES (ANGSTROEM)
---------------------------------
  C     -0.699123    3.489451    3.755163
  H     -0.966716    4.349013    3.140491
  N     -1.080669    3.792957    5.156857
  C      0.776956    3.138391    3.617408
  H     -1.331455    2.656510    3.446323
  H      1.371398    3.888342    4.149744
  H      1.046926    3.232057    2.561331
  C      1.118917    1.731170    4.115155
  H      2.200573    1.654226    4.254882
  C      0.659466    0.635182    3.153306
  H      0.677024    1.576674    5.103150
  H      1.312288    0.638870    2.274207
  H     -0.339563    0.868049    2.772876
  C      0.639957   -0.771175    3.755619
  C     -0.341821   -0.965537    4.915046
  H      1.648266   -1.028665    4.097015
  H      0.398568   -1.482386    2.958453
  H     -0.279892   -2.005646    5.252547
  C     -1.789164   -0.639231    4.557496
  H     -0.032380   -0.352918    5.765118
  H     -2.107151   -1.270102    3.719619
  H     -1.856352    0.391636    4.197604
  C     -2.790700   -0.785275    5.702812
  H     -2.867308   -1.835651    6.001675
  H     -3.774554   -0.486577    5.334807
  C     -2.453797    0.055101    6.941445
  C     -2.078419    1.480421    6.564098
  H     -1.625584   -0.382163    7.498914
  H     -3.325274    0.087746    7.599175
  H     -0.874488    4.762737    5.427344
  H     -0.680793    3.134762    5.839000
  H     -2.057550    3.531691    5.346197
  O     -0.901252    1.858156    6.828104
  O     -2.936582    2.177309    5.964151

 Total Charge           Charge          ....    0
 Multiplicity           Mult            ....    1
 Number of Electrons    NEL             ....  104
 Basis Dimension        Dim             ....  529

ORBITAL ENERGIES
----------------

  NO   OCC          E(Eh)            E(eV)
   0   2.0000     -18.816893      -512.0337
   1   2.0000     -18.815122      -511.9855
   2   2.0000     -14.179047      -385.8315
   3   2.0000     -10.053434      -273.5678
   4   2.0000     -10.046417      -273.3769
   5   2.0000     -10.007596      -272.3205
   6   2.0000      -9.983594      -271.6674
   7   2.0000      -9.980283      -271.5773
   8   2.0000      -9.973675      -271.3975
   9   2.0000      -9.964097      -271.1369
  10   2.0000      -9.963977      -271.1336
  11   2.0000      -9.963137      -271.1107
  12   2.0000      -9.956001      -270.9166
  13   2.0000      -0.956582       -26.0299
  14   2.0000      -0.918666       -24.9982
  15   2.0000      -0.860702       -23.4209
  16   2.0000      -0.763673       -20.7806
  17   2.0000      -0.735849       -20.0235
  18   2.0000      -0.708826       -19.2881
  19   2.0000      -0.665473       -18.1084
  20   2.0000      -0.634398       -17.2628
  21   2.0000      -0.597882       -16.2692
  22   2.0000      -0.562284       -15.3005
  23   2.0000      -0.546856       -14.8807
  24   2.0000      -0.529307       -14.4032
  25   2.0000      -0.504036       -13.7155
  26   2.0000      -0.497586       -13.5400
  27   2.0000      -0.458589       -12.4788
  28   2.0000      -0.436347       -11.8736
  29   2.0000      -0.431218       -11.7340
  30   2.0000      -0.427771       -11.6403
  31   2.0000      -0.403416       -10.9775
  32   2.0000      -0.398220       -10.8361
  33   2.0000      -0.390278       -10.6200
  34   2.0000      -0.377417       -10.2700
  35   2.0000      -0.370026       -10.0689
  36   2.0000      -0.357104        -9.7173
  37   2.0000      -0.352788        -9.5999
  38   2.0000      -0.347117        -9.4455
  39   2.0000      -0.336540        -9.1577
  40   2.0000      -0.324448        -8.8287
  41   2.0000      -0.318939        -8.6788
  42   2.0000      -0.311135        -8.4664
  43   2.0000      -0.298772        -8.1300
  44   2.0000      -0.290996        -7.9184
  45   2.0000      -0.284524        -7.7423
  46   2.0000      -0.272118        -7.4047
  47   2.0000      -0.266928        -7.2635
  48   2.0000      -0.261462        -7.1147
  49   2.0000      -0.209205        -5.6928
  50   2.0000      -0.193340        -5.2610
  51   2.0000      -0.186977        -5.0879
  52   0.0000      -0.010519        -0.2862
  53   0.0000       0.023223         0.6319
  54   0.0000       0.025567         0.6957
  55   0.0000       0.036176         0.9844
  56   0.0000       0.039804         1.0831

MULLIKEN ATOMIC CHARGES
-----------------------
   0 C :   -0.175210
   1 H :    0.127649
   2 N :   -0.235845
   3 C :   -0.116491
   4 H :    0.140514
   5 H :    0.090508
   6 H :    0.094565
   7 C :   -0.232540
   8 H :    0.083140
   9 C :   -0.232710
  10 H :    0.152485
  11 H :    0.087355
  12 H :    0.096472
  13 C :   -0.063506
  14 C :   -0.255549
  15 H :    0.074133
  16 H :    0.076112
  17 H :    0.073867
  18 C :   -0.175723
  19 H :    0.141728
  20 H :    0.067466
  21 H :    0.085425
  22 C :   -0.122587
  23 H :    0.072470
  24 H :    0.085313
  25 C :   -0.143723
  26 C :    0.263384
  27 H :    0.097668
  28 H :    0.086359
  29 H :    0.244244
  30 H :    0.260100
  31 H :    0.271933
  32 O :   -0.511987
  33 O :   -0.507019
Sum of atomic charges:   -0.0000000

LOEWDIN ATOMIC CHARGES
----------------------
   0 C :   -0.271168
   1 H :    0.130498
   2 N :    0.137550
   3 C :   -0.265541
   4 H :    0.139394
   5 H :    0.133972
   6 H :    0.142212
   7 C :   -0.259457
   8 H :    0.134895
   9 C :   -0.265999
  10 H :    0.142728
  11 H :    0.131493
  12 H :    0.129379
  13 C :   -0.260876
  14 C :   -0.262783
  15 H :    0.132787
  16 H :    0.132593
  17 H :    0.132095
  18 C :   -0.265066
  19 H :    0.139448
  20 H :    0.130554
  21 H :    0.130801
  22 C :   -0.256737
  23 H :    0.129761
  24 H :    0.136891
  25 C :   -0.236140
  26 C :   -0.638351
  27 H :    0.135675
  28 H :    0.139963
  29 H :    0.181039
  30 H :    0.158532
  31 H :    0.171601
  32 O :   -0.049557
  33 O :   -0.042187

  Mayer bond orders larger than 0.100000
B(  0-C ,  1-H ) :   0.9520 B(  0-C ,  2-N ) :   0.9466 B(  0-C ,  3-C ) :   1.0255
B(  0-C ,  4-H ) :   0.9497 B(  2-N , 29-H ) :   0.8962 B(  2-N , 30-H ) :   0.7576
B(  2-N , 31-H ) :   0.7779 B(  3-C ,  5-H ) :   0.9448 B(  3-C ,  6-H ) :   0.9366
B(  3-C ,  7-C ) :   1.0066 B(  7-C ,  8-H ) :   0.9346 B(  7-C ,  9-C ) :   0.9962
B(  7-C , 10-H ) :   0.9650 B(  9-C , 11-H ) :   0.9363 B(  9-C , 12-H ) :   0.9677
B(  9-C , 13-C ) :   1.0107 B( 13-C , 14-C ) :   1.0219 B( 13-C , 15-H ) :   0.9443
B( 13-C , 16-H ) :   0.9420 B( 14-C , 17-H ) :   0.9372 B( 14-C , 18-C ) :   1.0029
B( 14-C , 19-H ) :   0.9614 B( 18-C , 20-H ) :   0.9393 B( 18-C , 21-H ) :   0.9540
B( 18-C , 22-C ) :   1.0417 B( 22-C , 23-H ) :   0.9430 B( 22-C , 24-H ) :   0.9357
B( 22-C , 25-C ) :   1.0081 B( 25-C , 26-C ) :   0.9872 B( 25-C , 27-H ) :   0.9609
B( 25-C , 28-H ) :   0.9206 B( 26-C , 32-O ) :   1.6098 B( 26-C , 33-O ) :   1.6684
B( 30-H , 32-O ) :   0.2331 B( 31-H , 33-O ) :   0.1940

Dispersion correction           -0.047789239
FINAL SINGLE POINT ENERGY      -599.292033699241

DIPOLE MOMENT
-------------
                                X             Y             Z
Electronic contribution:     -4.68238       4.85260       6.73461
Nuclear contribution   :      5.60885      -3.40606      -8.06960
                        -----------------------------------------
Total Dipole Moment    :      0.92646       1.44654      -1.33498
                        -----------------------------------------
Magnitude (a.u.)       :      2.17555
Magnitude (Debye)      :      5.52980

Rotational constants in cm-1:     0.028465     0.023505     0.015110
Rotational constants in MHz :   853.363165   704.655786   452.976312

                             ****ORCA TERMINATED NORMALLY****
TOTAL RUN TIME: 0 days 0 hours 0 minutes 22 seconds 927 msec
