                         Program Version 5.0.0 -  RELEASE  -
|  1> !TPSS D3BJ RIJCOSX def2-SVP def2/J TightSCF
|  2> *xyz 0 1
|  3> C         -2.79070       -0.78527        5.70281
|  4> C         -2.45380        0.05510        6.94145
|  5> C         -2.07842        1.48042        6.56410
|  6> H         -1.62558       -0.38216        7.49891
|  7> H         -3.32527        0.08775        7.59917
|  8> F         -0.90125        1.85816        6.82810
|  9> O         -2.93658        2.17731        5.96415
| 10> H         -1.94052       -0.82114        5.05412
| 11> H         -3.61590       -0.34261        5.18514
| 12> H         -3.05063       -1.77815        6.00536
| 13> *
| 14> %MaxCore 64000
| 15>
| 16> %pal nprocs 4
| 17> end
| 18>
| 19> %scf
| 20>   MaxIter 150
| 21> end
| 22>
| 23>
| 24>                          ****END OF INPUT****

CARTESIAN COORDINATES (ANGSTROEM)
---------------------------------
  C     -2.790700   -0.785270    5.702810
  C     -2.453800    0.055100    6.941450
  C     -2.078420    1.480420    6.564100
  H     -1.625580   -0.382160    7.498910
  H     -3.325270    0.087750    7.599170
  F     -0.901250    1.858160    6.828100
  O     -2.936580    2.177310    5.964150
  H     -1.940520   -0.821140    5.054120
  H     -3.615900   -0.342610    5.185140
  H     -3.050630   -1.778150    6.005360

 Total Charge           Charge          ....    0
 Multiplicity           Mult            ....    1
 Number of Electrons    NEL             ....   40
 Basis Dimension        Dim             ....   95

ORBITAL ENERGIES
----------------

  NO   OCC          E(Eh)            E(eV)
   0   2.0000     -24.475134      -666.0023
   1   2.0000     -18.889824      -514.0182
   2   2.0000     -10.156166      -276.3633
   3   2.0000     -10.027361      -272.8584
   4   2.0000     -10.007766      -272.3252
   5   2.0000      -1.206118       -32.8202
   6   2.0000      -0.941405       -25.6169
   7   2.0000      -0.733776       -19.9671
   8   2.0000      -0.622935       -16.9509
   9   2.0000      -0.570080       -15.5127
  10   2.0000      -0.483756       -13.1637
  11   2.0000      -0.468617       -12.7517
  12   2.0000      -0.446288       -12.1441
  13   2.0000      -0.416629       -11.3370
  14   2.0000      -0.382920       -10.4198
  15   2.0000      -0.354937        -9.6583
  16   2.0000      -0.336644        -9.1606
  17   2.0000      -0.328366        -8.9353
  18   2.0000      -0.300240        -8.1699
  19   2.0000      -0.237749        -6.4695
  20   0.0000      -0.053283        -1.4499
  21   0.0000       0.050870         1.3842
  22   0.0000       0.091474         2.4891
  23   0.0000       0.095373         2.5952
  24   0.0000       0.113023         3.0755

MULLIKEN ATOMIC CHARGES
-----------------------
   0 C :    0.005482
   1 C :   -0.065212
   2 C :    0.223305
   3 H :    0.021993
   4 H :    0.057551
   5 F :   -0.072988
   6 O :   -0.259685
   7 H :    0.022790
   8 H :    0.041813
   9 H :    0.024951
Sum of atomic charges:    0.0000000

LOEWDIN ATOMIC CHARGES
----------------------
   0 C :   -0.024288
   1 C :   -0.063145
   2 C :    0.088417
   3 H :    0.022948
   4 H :    0.046442
   5 F :    0.044095
   6 O :   -0.188162
   7 H :    0.021986
   8 H :    0.027564
   9 H :    0.024144

  Mayer bond orders larger than 0.100000
B(  0-C ,  1-C ) :   1.0902 B(  0-C ,  7-H ) :   0.9750 B(  0-C ,  8-H ) :   0.9693
B(  0-C ,  9-H ) :   0.9671 B(  1-C ,  2-C ) :   0.9980 B(  1-C ,  3-H ) :   0.9349
B(  1-C ,  4-H ) :   0.9297 B(  2-C ,  5-F ) :   1.1949 B(  2-C ,  6-O ) :   2.0473

Dispersion correction           -0.007649999
FINAL SINGLE POINT ENERGY      -292.219936092186

DIPOLE MOMENT
-------------
                                X             Y             Z
Electronic contribution:      3.96677       7.54916       1.44775
Nuclear contribution   :     -3.69486      -8.49563      -1.04945
                        -----------------------------------------
Total Dipole Moment    :      0.27191      -0.94647       0.39830
                        -----------------------------------------
Magnitude (a.u.)       :      1.06225
Magnitude (Debye)      :      2.70003

Rotational constants in cm-1:     0.293725     0.129218     0.102393
Rotational constants in MHz :  8805.653529  3873.869810  3069.666716

                             ****ORCA TERMINATED NORMALLY****
TOTAL RUN TIME: 0 days 0 hours 0 minutes 7 seconds 881 msec
