                         Program Version 5.0.0 -  RELEASE  -
|  1> !TPSS D3BJ RIJCOSX def2-SVP def2/J TightSCF
|  2> *xyz 0 1
|  3> C         -0.69912        3.48945        3.75516
|  4> H         -0.96672        4.34901        3.14049
|  5> C         -1.08067        3.79296        5.15686
|  6> C          0.77696        3.13839        3.61741
|  7> H         -1.33146        2.65651        3.44632
|  8> H         -0.87449        4.76274        5.42734
|  9> H         -0.68079        3.13476        5.83900
| 10> H         -2.05755        3.53169        5.34620
| 11> H          0.99957        2.92898        2.59199
| 12> H          0.99576        2.27685        4.21303
| 13> H          1.37223        3.96279        3.95046
| 14> *
| 15> %MaxCore 64000
| 16>
| 17> %pal nprocs 4
| 18> end
| 19>
| 20> %scf
| 21>   MaxIter 150
| 22> end
| 23>
| 24>
| 25>                          ****END OF INPUT****

CARTESIAN COORDINATES (ANGSTROEM)
---------------------------------
  C     -0.699120    3.489450    3.755160
  H     -0.966720    4.349010    3.140490
  C     -1.080670    3.792960    5.156860
  C      0.776960    3.138390    3.617410
  H     -1.331460    2.656510    3.446320
  H     -0.874490    4.762740    5.427340
  H     -0.680790    3.134760    5.839000
  H     -2.057550    3.531690    5.346200
  H      0.999570    2.928980    2.591990
  H      0.995760    2.276850    4.213030
  H      1.372230    3.962790    3.950460

 Total Charge           Charge          ....    0
 Multiplicity           Mult            ....    1
 Number of Electrons    NEL             ....   26
 Basis Dimension        Dim             ....   82

ORBITAL ENERGIES
----------------

  NO   OCC          E(Eh)            E(eV)
   0   2.0000      -9.986035      -271.7338
   1   2.0000      -9.980518      -271.5837
   2   2.0000      -9.963436      -271.1189
   3   2.0000      -0.724467       -19.7137
   4   2.0000      -0.631081       -17.1726
   5   2.0000      -0.533632       -14.5209
   6   2.0000      -0.426971       -11.6185
   7   2.0000      -0.395065       -10.7503
   8   2.0000      -0.358801        -9.7635
   9   2.0000      -0.354683        -9.6514
  10   2.0000      -0.301389        -8.2012
  11   2.0000      -0.292184        -7.9507
  12   2.0000      -0.286397        -7.7932
  13   0.0000       0.054096         1.4720
  14   0.0000       0.097529         2.6539
  15   0.0000       0.102489         2.7889
  16   0.0000       0.104758         2.8506
  17   0.0000       0.133779         3.6403

MULLIKEN ATOMIC CHARGES
-----------------------
   0 C :   -0.086456
   1 H :    0.009590
   2 C :    0.080545
   3 C :    0.015769
   4 H :    0.004672
   5 H :    0.001242
   6 H :   -0.028269
   7 H :   -0.023900
   8 H :    0.008516
   9 H :    0.009121
  10 H :    0.009170
Sum of atomic charges:   -0.0000000

LOEWDIN ATOMIC CHARGES
----------------------
   0 C :   -0.036260
   1 H :    0.017009
   2 C :   -0.041094
   3 C :   -0.040996
   4 H :    0.016370
   5 H :    0.010760
   6 H :    0.011426
   7 H :    0.014847
   8 H :    0.016023
   9 H :    0.015911
  10 H :    0.016004

  Mayer bond orders larger than 0.100000
B(  0-C ,  1-H ) :   0.9538 B(  0-C ,  2-C ) :   1.1156 B(  0-C ,  3-C ) :   1.1057
B(  0-C ,  4-H ) :   0.9544 B(  2-C ,  5-H ) :   0.9726 B(  2-C ,  6-H ) :   0.9552
B(  2-C ,  7-H ) :   0.9540 B(  3-C ,  8-H ) :   0.9682 B(  3-C ,  9-H ) :   0.9714
B(  3-C , 10-H ) :   0.9743

Dispersion correction           -0.007440263
FINAL SINGLE POINT ENERGY      -119.061098008128

DIPOLE MOMENT
-------------
                                X             Y             Z
Electronic contribution:     -0.12989       0.12321      -0.39340
Nuclear contribution   :      0.10024      -0.14218       0.41628
                        -----------------------------------------
Total Dipole Moment    :     -0.02964      -0.01898       0.02288
                        -----------------------------------------
Magnitude (a.u.)       :      0.04198
Magnitude (Debye)      :      0.10671

Rotational constants in cm-1:     1.024179     0.291605     0.259489
Rotational constants in MHz : 30704.103454  8742.106283  7779.285909

                             ****ORCA TERMINATED NORMALLY****
TOTAL RUN TIME: 0 days 0 hours 0 minutes 7 seconds 228 msec
