                         Program Version 5.0.0 -  RELEASE  -
|  1> !TPSS D3BJ RIJCOSX def2-SVP def2/J TightSCF
|  2> *xyz 0 1
|  3> C         -2.79070       -0.78527        5.70281
|  4> C         -2.45380        0.05510        6.94145
|  5> C         -2.07842        1.48042        6.56410
|  6> H         -1.62558       -0.38216        7.49891
|  7> H         -3.32527        0.08775        7.59917
|  8> O         -0.90125        1.85816        6.82810
|  9> F         -2.93658        2.17731        5.96415
| 10> H         -1.94052       -0.82114        5.05412
| 11> H         -3.61590       -0.34261        5.18514
| 12> H         -3.05063       -1.77815        6.00536
| 13> *
| 14> %MaxCore 64000
| 15>
| 16> %pal nprocs 4
| 17> end
| 18>
| 19> %scf
| 20>   MaxIter 150
| 21> end
| 22>
| 23>
| 24>                          ****END OF INPUT****

CARTESIAN COORDINATES (ANGSTROEM)
---------------------------------
  C     -2.790700   -0.785270    5.702810
  C     -2.453800    0.055100    6.941450
  C     -2.078420    1.480420    6.564100
  H     -1.625580   -0.382160    7.498910
  H     -3.325270    0.087750    7.599170
  O     -0.901250    1.858160    6.828100
  F     -2.936580    2.177310    5.964150
  H     -1.940520   -0.821140    5.054120
  H     -3.615900   -0.342610    5.185140
  H     -3.050630   -1.778150    6.005360

 Total Charge           Charge          ....    0
 Multiplicity           Mult            ....    1
 Number of Electrons    NEL             ....   40
 Basis Dimension        Dim             ....   95

ORBITAL ENERGIES
----------------

  NO   OCC          E(Eh)            E(eV)
   0   2.0000     -24.478848      -666.1033
   1   2.0000     -18.887385      -513.9519
   2   2.0000     -10.155657      -276.3495
   3   2.0000     -10.026687      -272.8400
   4   2.0000     -10.011419      -272.4246
   5   2.0000      -1.211740       -32.9731
   6   2.0000      -0.936114       -25.4729
   7   2.0000      -0.736701       -20.0466
   8   2.0000      -0.620856       -16.8943
   9   2.0000      -0.576566       -15.6891
  10   2.0000      -0.487684       -13.2706
  11   2.0000      -0.473909       -12.8957
  12   2.0000      -0.442552       -12.0424
  13   2.0000      -0.415689       -11.3115
  14   2.0000      -0.386082       -10.5058
  15   2.0000      -0.356589        -9.7033
  16   2.0000      -0.339518        -9.2388
  17   2.0000      -0.330386        -8.9902
  18   2.0000      -0.301084        -8.1929
  19   2.0000      -0.231227        -6.2920
  20   0.0000      -0.050528        -1.3749
  21   0.0000       0.046889         1.2759
  22   0.0000       0.090068         2.4509
  23   0.0000       0.097174         2.6442
  24   0.0000       0.117962         3.2099

MULLIKEN ATOMIC CHARGES
-----------------------
   0 C :   -0.013662
   1 C :   -0.056633
   2 C :    0.221566
   3 H :    0.048701
   4 H :    0.039775
   5 O :   -0.260941
   6 F :   -0.069723
   7 H :    0.033808
   8 H :    0.027294
   9 H :    0.029815
Sum of atomic charges:    0.0000000

LOEWDIN ATOMIC CHARGES
----------------------
   0 C :   -0.032322
   1 C :   -0.059332
   2 C :    0.086388
   3 H :    0.040020
   4 H :    0.034966
   5 O :   -0.191375
   6 F :    0.050144
   7 H :    0.024539
   8 H :    0.020786
   9 H :    0.026185

  Mayer bond orders larger than 0.100000
B(  0-C ,  1-C ) :   1.0755 B(  0-C ,  7-H ) :   0.9748 B(  0-C ,  8-H ) :   0.9720
B(  0-C ,  9-H ) :   0.9669 B(  1-C ,  2-C ) :   1.0077 B(  1-C ,  3-H ) :   0.9472
B(  1-C ,  4-H ) :   0.9249 B(  2-C ,  5-O ) :   2.0549 B(  2-C ,  6-F ) :   1.1903

Dispersion correction           -0.007609410
FINAL SINGLE POINT ENERGY      -292.217368512517

DIPOLE MOMENT
-------------
                                X             Y             Z
Electronic contribution:      0.64862       8.05715       0.03651
Nuclear contribution   :     -1.47571      -8.84360      -0.10748
                        -----------------------------------------
Total Dipole Moment    :     -0.82709      -0.78646      -0.07096
                        -----------------------------------------
Magnitude (a.u.)       :      1.14352
Magnitude (Debye)      :      2.90659

Rotational constants in cm-1:     0.283081     0.133379     0.103386
Rotational constants in MHz :  8486.545774  3998.599544  3099.448040

                             ****ORCA TERMINATED NORMALLY****
TOTAL RUN TIME: 0 days 0 hours 0 minutes 7 seconds 963 msec
