                         Program Version 5.0.0 -  RELEASE  -
|  1> !TPSS D3BJ RIJCOSX def2-TZVP def2/J TightSCF xyzfile
|  2>
|  3> *xyzfile 0 1 D1.xyz
|  4>
|  5> %MaxCore 64000
|  6>
|  7> %pal nprocs 18
|  8> end
|  9>
| 10> %scf
| 11>   MaxIter 150
| 12> end
| 13>
| 14>
| 15>                          ****END OF INPUT****

CARTESIAN COORDINATES (ANGSTROEM)
---------------------------------
  C     -0.699123    3.489451    3.755163
  H     -0.966716    4.349013    3.140491
  C     -1.080669    3.792957    5.156857
  C      0.776956    3.138391    3.617408
  H     -1.331455    2.656510    3.446323
  H      1.371398    3.888342    4.149744
  H      1.046926    3.232057    2.561331
  C      1.118917    1.731170    4.115155
  H      2.200573    1.654226    4.254882
  C      0.659466    0.635182    3.153306
  H      0.677024    1.576674    5.103150
  H      1.312288    0.638870    2.274207
  H     -0.339563    0.868049    2.772876
  C      0.639957   -0.771175    3.755619
  C     -0.341821   -0.965537    4.915046
  H      1.648266   -1.028665    4.097015
  H      0.398568   -1.482386    2.958453
  H     -0.279892   -2.005646    5.252547
  C     -1.789164   -0.639231    4.557496
  H     -0.032380   -0.352918    5.765118
  H     -2.107151   -1.270102    3.719619
  H     -1.856352    0.391636    4.197604
  C     -2.790700   -0.785275    5.702812
  H     -2.867308   -1.835651    6.001675
  H     -3.774554   -0.486577    5.334807
  C     -2.453797    0.055101    6.941445
  C     -2.078419    1.480421    6.564098
  H     -1.625584   -0.382163    7.498914
  H     -3.325274    0.087746    7.599175
  H     -0.874488    4.762737    5.427344
  H     -0.680793    3.134762    5.839000
  H     -2.057550    3.531691    5.346197
  F     -0.901252    1.858156    6.828104
  O     -2.936582    2.177309    5.964151

 Total Charge           Charge          ....    0
 Multiplicity           Mult            ....    1
 Number of Electrons    NEL             ....  104
 Basis Dimension        Dim             ....  529

ORBITAL ENERGIES
----------------

  NO   OCC          E(Eh)            E(eV)
   0   2.0000     -24.483783      -666.2376
   1   2.0000     -18.892938      -514.1030
   2   2.0000     -10.159994      -276.4675
   3   2.0000     -10.018618      -272.6205
   4   2.0000     -10.001956      -272.1671
   5   2.0000      -9.987463      -271.7727
   6   2.0000      -9.984563      -271.6938
   7   2.0000      -9.979435      -271.5542
   8   2.0000      -9.972581      -271.3677
   9   2.0000      -9.969946      -271.2960
  10   2.0000      -9.962675      -271.0982
  11   2.0000      -9.952882      -270.8317
  12   2.0000      -9.900542      -269.4074
  13   2.0000      -1.248011       -33.9601
  14   2.0000      -0.975026       -26.5318
  15   2.0000      -0.772105       -21.0100
  16   2.0000      -0.748728       -20.3739
  17   2.0000      -0.720242       -19.5988
  18   2.0000      -0.693013       -18.8578
  19   2.0000      -0.653529       -17.7834
  20   2.0000      -0.629789       -17.1374
  21   2.0000      -0.602286       -16.3890
  22   2.0000      -0.575853       -15.6698
  23   2.0000      -0.556994       -15.1566
  24   2.0000      -0.520294       -14.1579
  25   2.0000      -0.507073       -13.7981
  26   2.0000      -0.501785       -13.6543
  27   2.0000      -0.483798       -13.1648
  28   2.0000      -0.471444       -12.8286
  29   2.0000      -0.435805       -11.8589
  30   2.0000      -0.432479       -11.7683
  31   2.0000      -0.417764       -11.3679
  32   2.0000      -0.413326       -11.2472
  33   2.0000      -0.395477       -10.7615
  34   2.0000      -0.384775       -10.4703
  35   2.0000      -0.370687       -10.0869
  36   2.0000      -0.366135        -9.9630
  37   2.0000      -0.360216        -9.8020
  38   2.0000      -0.349175        -9.5015
  39   2.0000      -0.339643        -9.2422
  40   2.0000      -0.329303        -8.9608
  41   2.0000      -0.320434        -8.7195
  42   2.0000      -0.314043        -8.5456
  43   2.0000      -0.309349        -8.4178
  44   2.0000      -0.300753        -8.1839
  45   2.0000      -0.292194        -7.9510
  46   2.0000      -0.286565        -7.7978
  47   2.0000      -0.277837        -7.5603
  48   2.0000      -0.273074        -7.4307
  49   2.0000      -0.264304        -7.1921
  50   2.0000      -0.258816        -7.0427
  51   2.0000      -0.225798        -6.1443
  52   0.0000      -0.073251        -1.9933
  53   0.0000       0.018514         0.5038
  54   0.0000       0.035933         0.9778
  55   0.0000       0.038641         1.0515
  56   0.0000       0.046282         1.2594

MULLIKEN ATOMIC CHARGES
-----------------------
   0 C :   -0.173872
   1 H :    0.073028
   2 C :   -0.366979
   3 C :   -0.061773
   4 H :    0.078821
   5 H :    0.073212
   6 H :    0.065107
   7 C :   -0.210379
   8 H :    0.076180
   9 C :   -0.235698
  10 H :    0.082584
  11 H :    0.086527
  12 H :    0.109459
  13 C :   -0.058647
  14 C :   -0.247769
  15 H :    0.075877
  16 H :    0.079690
  17 H :    0.083209
  18 C :   -0.226425
  19 H :    0.103630
  20 H :    0.084357
  21 H :    0.120886
  22 C :   -0.121652
  23 H :    0.091986
  24 H :    0.107697
  25 C :   -0.189840
  26 C :    0.325231
  27 H :    0.120801
  28 H :    0.128535
  29 H :    0.089798
  30 H :    0.092633
  31 H :    0.143788
  32 F :   -0.086771
  33 O :   -0.313231
Sum of atomic charges:   -0.0000000

LOEWDIN ATOMIC CHARGES
----------------------
   0 C :   -0.297174
   1 H :    0.129564
   2 C :   -0.324568
   3 C :   -0.261226
   4 H :    0.127257
   5 H :    0.131906
   6 H :    0.130016
   7 C :   -0.260715
   8 H :    0.130886
   9 C :   -0.264706
  10 H :    0.128080
  11 H :    0.133166
  12 H :    0.132036
  13 C :   -0.260816
  14 C :   -0.265075
  15 H :    0.133410
  16 H :    0.133369
  17 H :    0.133383
  18 C :   -0.263336
  19 H :    0.129047
  20 H :    0.137448
  21 H :    0.138298
  22 C :   -0.247106
  23 H :    0.137329
  24 H :    0.142893
  25 C :   -0.228851
  26 C :   -0.495284
  27 H :    0.140047
  28 H :    0.155479
  29 H :    0.097378
  30 H :    0.096546
  31 H :    0.108134
  32 F :    0.338869
  33 O :    0.104315

  Mayer bond orders larger than 0.100000
B(  0-C ,  1-H ) :   0.9432 B(  0-C ,  2-C ) :   1.0049 B(  0-C ,  3-C ) :   1.0053
B(  0-C ,  4-H ) :   0.9789 B(  2-C , 29-H ) :   0.9425 B(  2-C , 30-H ) :   0.9899
B(  2-C , 31-H ) :   0.9538 B(  3-C ,  5-H ) :   0.9413 B(  3-C ,  6-H ) :   0.9399
B(  3-C ,  7-C ) :   1.0232 B(  7-C ,  8-H ) :   0.9348 B(  7-C ,  9-C ) :   1.0191
B(  7-C , 10-H ) :   0.9701 B(  9-C , 11-H ) :   0.9388 B(  9-C , 12-H ) :   0.9675
B(  9-C , 13-C ) :   0.9992 B( 13-C , 14-C ) :   1.0265 B( 13-C , 15-H ) :   0.9439
B( 13-C , 16-H ) :   0.9436 B( 14-C , 17-H ) :   0.9381 B( 14-C , 18-C ) :   1.0065
B( 14-C , 19-H ) :   0.9629 B( 18-C , 20-H ) :   0.9391 B( 18-C , 21-H ) :   0.9549
B( 18-C , 22-C ) :   1.0293 B( 22-C , 23-H ) :   0.9428 B( 22-C , 24-H ) :   0.9394
B( 22-C , 25-C ) :   0.9979 B( 25-C , 26-C ) :   1.0168 B( 25-C , 27-H ) :   0.9515
B( 25-C , 28-H ) :   0.9209 B( 26-C , 32-F ) :   1.1212 B( 26-C , 33-O ) :   1.9778

Dispersion correction           -0.046840589
FINAL SINGLE POINT ENERGY      -607.192802573747

DIPOLE MOMENT
-------------
                                X             Y             Z
Electronic contribution:     -5.48079       2.52981      10.82769
Nuclear contribution   :      5.54676      -3.70047     -10.28793
                        -----------------------------------------
Total Dipole Moment    :      0.06597      -1.17066       0.53976
                        -----------------------------------------
Magnitude (a.u.)       :      1.29079
Magnitude (Debye)      :      3.28092

Rotational constants in cm-1:     0.028503     0.023389     0.015214
Rotational constants in MHz :   854.502405   701.197575   456.108322

                             ****ORCA TERMINATED NORMALLY****
TOTAL RUN TIME: 0 days 0 hours 0 minutes 28 seconds 965 msec
