                         Program Version 5.0.0 -  RELEASE  -
|  1> !TPSS D3BJ RIJCOSX def2-TZVP def2/J TightSCF xyzfile
|  2>
|  3> *xyzfile 0 1 D2.xyz
|  4>
|  5> %MaxCore 64000
|  6>
|  7> %pal nprocs 18
|  8> end
|  9>
| 10> %scf
| 11>   MaxIter 150
| 12> end
| 13>
| 14>
| 15>                          ****END OF INPUT****

CARTESIAN COORDINATES (ANGSTROEM)
---------------------------------
  C     -0.699123    3.489451    3.755163
  H     -0.966716    4.349013    3.140491
  C     -1.080669    3.792957    5.156857
  C      0.776956    3.138391    3.617408
  H     -1.331455    2.656510    3.446323
  H      1.371398    3.888342    4.149744
  H      1.046926    3.232057    2.561331
  C      1.118917    1.731170    4.115155
  H      2.200573    1.654226    4.254882
  C      0.659466    0.635182    3.153306
  H      0.677024    1.576674    5.103150
  H      1.312288    0.638870    2.274207
  H     -0.339563    0.868049    2.772876
  C      0.639957   -0.771175    3.755619
  C     -0.341821   -0.965537    4.915046
  H      1.648266   -1.028665    4.097015
  H      0.398568   -1.482386    2.958453
  H     -0.279892   -2.005646    5.252547
  C     -1.789164   -0.639231    4.557496
  H     -0.032380   -0.352918    5.765118
  H     -2.107151   -1.270102    3.719619
  H     -1.856352    0.391636    4.197604
  C     -2.790700   -0.785275    5.702812
  H     -2.867308   -1.835651    6.001675
  H     -3.774554   -0.486577    5.334807
  C     -2.453797    0.055101    6.941445
  C     -2.078419    1.480421    6.564098
  H     -1.625584   -0.382163    7.498914
  H     -3.325274    0.087746    7.599175
  H     -0.874488    4.762737    5.427344
  H     -0.680793    3.134762    5.839000
  H     -2.057550    3.531691    5.346197
  O     -0.901252    1.858156    6.828104
  F     -2.936582    2.177309    5.964151

 Total Charge           Charge          ....    0
 Multiplicity           Mult            ....    1
 Number of Electrons    NEL             ....  104
 Basis Dimension        Dim             ....  529

ORBITAL ENERGIES
----------------

  NO   OCC          E(Eh)            E(eV)
   0   2.0000     -24.486880      -666.3219
   1   2.0000     -18.893062      -514.1064
   2   2.0000     -10.161511      -276.5088
   3   2.0000     -10.018972      -272.6301
   4   2.0000     -10.004855      -272.2459
   5   2.0000      -9.989468      -271.8273
   6   2.0000      -9.979364      -271.5523
   7   2.0000      -9.975580      -271.4493
   8   2.0000      -9.968629      -271.2602
   9   2.0000      -9.962189      -271.0849
  10   2.0000      -9.959490      -271.0115
  11   2.0000      -9.952690      -270.8265
  12   2.0000      -9.899375      -269.3757
  13   2.0000      -1.251335       -34.0506
  14   2.0000      -0.974651       -26.5216
  15   2.0000      -0.773240       -21.0409
  16   2.0000      -0.745887       -20.2966
  17   2.0000      -0.718465       -19.5504
  18   2.0000      -0.691497       -18.8166
  19   2.0000      -0.650619       -17.7042
  20   2.0000      -0.626881       -17.0583
  21   2.0000      -0.604216       -16.4415
  22   2.0000      -0.572454       -15.5773
  23   2.0000      -0.558347       -15.1934
  24   2.0000      -0.517382       -14.0787
  25   2.0000      -0.507487       -13.8094
  26   2.0000      -0.501475       -13.6458
  27   2.0000      -0.487311       -13.2604
  28   2.0000      -0.466609       -12.6971
  29   2.0000      -0.438301       -11.9268
  30   2.0000      -0.433777       -11.8037
  31   2.0000      -0.416265       -11.3272
  32   2.0000      -0.409029       -11.1303
  33   2.0000      -0.390781       -10.6337
  34   2.0000      -0.381447       -10.3797
  35   2.0000      -0.370430       -10.0799
  36   2.0000      -0.367245        -9.9932
  37   2.0000      -0.361266        -9.8306
  38   2.0000      -0.347202        -9.4479
  39   2.0000      -0.335968        -9.1421
  40   2.0000      -0.330897        -9.0042
  41   2.0000      -0.329029        -8.9533
  42   2.0000      -0.313493        -8.5306
  43   2.0000      -0.306048        -8.3280
  44   2.0000      -0.300249        -8.1702
  45   2.0000      -0.290445        -7.9034
  46   2.0000      -0.285184        -7.7603
  47   2.0000      -0.275879        -7.5070
  48   2.0000      -0.268923        -7.3178
  49   2.0000      -0.261214        -7.1080
  50   2.0000      -0.257210        -6.9990
  51   2.0000      -0.217071        -5.9068
  52   0.0000      -0.072778        -1.9804
  53   0.0000       0.014911         0.4058
  54   0.0000       0.036979         1.0062
  55   0.0000       0.038451         1.0463
  56   0.0000       0.048115         1.3093

MULLIKEN ATOMIC CHARGES
-----------------------
   0 C :   -0.161476
   1 H :    0.071375
   2 C :   -0.373130
   3 C :   -0.063635
   4 H :    0.063115
   5 H :    0.073675
   6 H :    0.062707
   7 C :   -0.225395
   8 H :    0.070692
   9 C :   -0.232794
  10 H :    0.124945
  11 H :    0.084469
  12 H :    0.103288
  13 C :   -0.062251
  14 C :   -0.253661
  15 H :    0.075706
  16 H :    0.076365
  17 H :    0.079436
  18 C :   -0.201999
  19 H :    0.131907
  20 H :    0.085676
  21 H :    0.100002
  22 C :   -0.150642
  23 H :    0.095450
  24 H :    0.103668
  25 C :   -0.182605
  26 C :    0.329771
  27 H :    0.140810
  28 H :    0.119938
  29 H :    0.090917
  30 H :    0.160533
  31 H :    0.076018
  32 O :   -0.326521
  33 F :   -0.086353
Sum of atomic charges:    0.0000000

LOEWDIN ATOMIC CHARGES
----------------------
   0 C :   -0.300264
   1 H :    0.127782
   2 C :   -0.324014
   3 C :   -0.259776
   4 H :    0.123743
   5 H :    0.132744
   6 H :    0.129119
   7 C :   -0.258832
   8 H :    0.130316
   9 C :   -0.265587
  10 H :    0.137236
  11 H :    0.132228
  12 H :    0.130032
  13 C :   -0.261069
  14 C :   -0.263617
  15 H :    0.133874
  16 H :    0.131853
  17 H :    0.132463
  18 C :   -0.263104
  19 H :    0.136779
  20 H :    0.137140
  21 H :    0.134612
  22 C :   -0.254938
  23 H :    0.138515
  24 H :    0.137863
  25 C :   -0.225621
  26 C :   -0.492508
  27 H :    0.153247
  28 H :    0.148501
  29 H :    0.097940
  30 H :    0.101149
  31 H :    0.099334
  32 O :    0.091750
  33 F :    0.351108

  Mayer bond orders larger than 0.100000
B(  0-C ,  1-H ) :   0.9425 B(  0-C ,  2-C ) :   1.0009 B(  0-C ,  3-C ) :   1.0199
B(  0-C ,  4-H ) :   0.9711 B(  2-C , 29-H ) :   0.9453 B(  2-C , 30-H ) :   0.9671
B(  2-C , 31-H ) :   0.9719 B(  3-C ,  5-H ) :   0.9413 B(  3-C ,  6-H ) :   0.9406
B(  3-C ,  7-C ) :   1.0205 B(  7-C ,  8-H ) :   0.9333 B(  7-C ,  9-C ) :   1.0155
B(  7-C , 10-H ) :   0.9693 B(  9-C , 11-H ) :   0.9385 B(  9-C , 12-H ) :   0.9678
B(  9-C , 13-C ) :   1.0019 B( 13-C , 14-C ) :   1.0259 B( 13-C , 15-H ) :   0.9429
B( 13-C , 16-H ) :   0.9447 B( 14-C , 17-H ) :   0.9366 B( 14-C , 18-C ) :   1.0031
B( 14-C , 19-H ) :   0.9594 B( 18-C , 20-H ) :   0.9402 B( 18-C , 21-H ) :   0.9577
B( 18-C , 22-C ) :   1.0130 B( 22-C , 23-H ) :   0.9408 B( 22-C , 24-H ) :   0.9504
B( 22-C , 25-C ) :   0.9837 B( 25-C , 26-C ) :   1.0289 B( 25-C , 27-H ) :   0.9587
B( 25-C , 28-H ) :   0.9198 B( 26-C , 32-O ) :   1.9426 B( 26-C , 33-F ) :   1.1269

Dispersion correction           -0.046961951
FINAL SINGLE POINT ENERGY      -607.191269809445

DIPOLE MOMENT
-------------
                                X             Y             Z
Electronic contribution:     -8.92025       3.05634       9.46081
Nuclear contribution   :      8.07181      -4.09641      -9.21610
                        -----------------------------------------
Total Dipole Moment    :     -0.84845      -1.04008       0.24471
                        -----------------------------------------
Magnitude (a.u.)       :      1.36437
Magnitude (Debye)      :      3.46795

Rotational constants in cm-1:     0.028400     0.023377     0.015073
Rotational constants in MHz :   851.414727   700.831775   451.871218

                             ****ORCA TERMINATED NORMALLY****
TOTAL RUN TIME: 0 days 0 hours 0 minutes 25 seconds 608 msec
