                         Program Version 5.0.0 -  RELEASE  -
|  1> !wB97X-D3 RIJCOSX def2-TZVP def2/J TightSCF
|  2> *xyz -1 1
|  3> C          0.70466        1.44313       -4.50363
|  4> C          1.72854        1.42432       -5.63944
|  5> H          2.64672        1.95379       -5.38105
|  6> H          1.29992        1.93061       -6.50361
|  7> S          2.25263       -0.18811       -6.27184
|  8> O          3.56261       -0.44446       -5.63155
|  9> O          2.34494       -0.03374       -7.69650
| 10> O          1.26606       -1.15918       -5.80536
| 11> H         -0.17385        0.91270       -4.80656
| 12> H          0.44778        2.45562       -4.27173
| 13> H          1.12367        0.97423       -3.63791
| 14> *
| 15>
| 16> %MaxCore 64000
| 17>
| 18> %pal nprocs 4
| 19> end
| 20>
| 21> %scf
| 22>   MaxIter 150
| 23> end
| 24>
| 25>
| 26>                          ****END OF INPUT****

CARTESIAN COORDINATES (ANGSTROEM)
---------------------------------
  C      0.704660    1.443130   -4.503630
  C      1.728540    1.424320   -5.639440
  H      2.646720    1.953790   -5.381050
  H      1.299920    1.930610   -6.503610
  S      2.252630   -0.188110   -6.271840
  O      3.562610   -0.444460   -5.631550
  O      2.344940   -0.033740   -7.696500
  O      1.266060   -1.159180   -5.805360
  H     -0.173850    0.912700   -4.806560
  H      0.447780    2.455620   -4.271730
  H      1.123670    0.974230   -3.637910

 Total Charge           Charge          ....   -1
 Multiplicity           Mult            ....    1
 Number of Electrons    NEL             ....   58
 Basis Dimension        Dim             ....  222

ORBITAL ENERGIES
----------------

  NO   OCC          E(Eh)            E(eV)
   0   2.0000     -88.928337     -2419.8631
   1   2.0000     -19.004712      -517.1445
   2   2.0000     -18.997723      -516.9543
   3   2.0000     -18.988109      -516.6927
   4   2.0000     -10.133399      -275.7438
   5   2.0000     -10.129799      -275.6458
   6   2.0000      -7.990937      -217.4445
   7   2.0000      -5.945310      -161.7801
   8   2.0000      -5.943904      -161.7418
   9   2.0000      -5.943599      -161.7335
  10   2.0000      -1.032475       -28.0951
  11   2.0000      -0.900149       -24.4943
  12   2.0000      -0.876869       -23.8608
  13   2.0000      -0.746396       -20.3105
  14   2.0000      -0.617039       -16.7905
  15   2.0000      -0.482983       -13.1426
  16   2.0000      -0.417883       -11.3712
  17   2.0000      -0.412016       -11.2115
  18   2.0000      -0.371354       -10.1051
  19   2.0000      -0.353655        -9.6234
  20   2.0000      -0.352162        -9.5828
  21   2.0000      -0.319434        -8.6922
  22   2.0000      -0.311474        -8.4756
  23   2.0000      -0.241885        -6.5820
  24   2.0000      -0.240705        -6.5499
  25   2.0000      -0.203944        -5.5496
  26   2.0000      -0.196114        -5.3365
  27   2.0000      -0.186760        -5.0820
  28   2.0000      -0.150622        -4.0986
  29   0.0000       0.250670         6.8211
  30   0.0000       0.298908         8.1337
  31   0.0000       0.311531         8.4772
  32   0.0000       0.317311         8.6345
  33   0.0000       0.338746         9.2177

MULLIKEN ATOMIC CHARGES
-----------------------
   0 C :   -0.313725
   1 C :   -0.262348
   2 H :    0.094135
   3 H :    0.086622
   4 S :    0.861622
   5 O :   -0.607029
   6 O :   -0.559165
   7 O :   -0.582999
   8 H :    0.113033
   9 H :    0.066356
  10 H :    0.103497
Sum of atomic charges:   -1.0000000

LOEWDIN ATOMIC CHARGES
----------------------
   0 C :   -0.340342
   1 C :   -0.424681
   2 H :    0.118323
   3 H :    0.117152
   4 S :    0.416819
   5 O :   -0.436578
   6 O :   -0.374958
   7 O :   -0.401163
   8 H :    0.113934
   9 H :    0.098697
  10 H :    0.112798

  Mayer bond orders larger than 0.100000
B(  0-C ,  1-C ) :   0.9663 B(  0-C ,  8-H ) :   0.9773 B(  0-C ,  9-H ) :   0.9693
B(  0-C , 10-H ) :   0.9801 B(  1-C ,  2-H ) :   0.9678 B(  1-C ,  3-H ) :   0.9637
B(  1-C ,  4-S ) :   0.8804 B(  4-S ,  5-O ) :   1.7546 B(  4-S ,  6-O ) :   1.8089
B(  4-S ,  7-O ) :   1.7630

Dispersion correction           -0.002812042
FINAL SINGLE POINT ENERGY      -703.214172311247

DIPOLE MOMENT
-------------
                                X             Y             Z
Electronic contribution:      3.65741      -5.62837      -4.31137
Nuclear contribution   :     -4.50297       7.24642       5.01775
                        -----------------------------------------
Total Dipole Moment    :     -0.84556       1.61805       0.70638
                        -----------------------------------------
Magnitude (a.u.)       :      1.95756
Magnitude (Debye)      :      4.97571

Rotational constants in cm-1:     0.162459     0.081286     0.079601
Rotational constants in MHz :  4870.394399  2436.893583  2386.374948

                             ****ORCA TERMINATED NORMALLY****
TOTAL RUN TIME: 0 days 0 hours 0 minutes 40 seconds 214 msec
