                         Program Version 5.0.0 -  RELEASE  -
|  1> !wB97X-D3 RIJCOSX def2-TZVP def2/J TightSCF
|  2> *xyz 1 1
|  3> C          2.91632       -1.24259       -1.54313
|  4> C          3.46659       -1.59097       -2.88908
|  5> N          4.65227       -1.14316       -3.25969
|  6> N          2.75226       -2.29204       -3.72803
|  7> H          1.77836       -2.48960       -3.51274
|  8> H          2.94861       -2.20854       -4.71681
|  9> H          5.14672       -0.51251       -2.63385
| 10> H          4.78303       -1.00720       -4.25350
| 11> C          2.80408        0.29070       -1.35924
| 12> H          1.94047       -1.71653       -1.44116
| 13> H          3.55857       -1.66343       -0.76637
| 14> H          2.17393        0.69633       -2.12297
| 15> H          3.77707        0.73043       -1.42880
| 16> H          2.38369        0.50492       -0.39889
| 17> *
| 18>
| 19> %MaxCore 64000
| 20>
| 21> %pal nprocs 4
| 22> end
| 23>
| 24> %scf
| 25>   MaxIter 150
| 26> end
| 27>
| 28>
| 29>                          ****END OF INPUT****

CARTESIAN COORDINATES (ANGSTROEM)
---------------------------------
  C      2.916320   -1.242590   -1.543130
  C      3.466590   -1.590970   -2.889080
  N      4.652270   -1.143160   -3.259690
  N      2.752260   -2.292040   -3.728030
  H      1.778360   -2.489600   -3.512740
  H      2.948610   -2.208540   -4.716810
  H      5.146720   -0.512510   -2.633850
  H      4.783030   -1.007200   -4.253500
  C      2.804080    0.290700   -1.359240
  H      1.940470   -1.716530   -1.441160
  H      3.558570   -1.663430   -0.766370
  H      2.173930    0.696330   -2.122970
  H      3.777070    0.730430   -1.428800
  H      2.383690    0.504920   -0.398890

 Total Charge           Charge          ....    1
 Multiplicity           Mult            ....    1
 Number of Electrons    NEL             ....   40
 Basis Dimension        Dim             ....  209

ORBITAL ENERGIES
----------------

  NO   OCC          E(Eh)            E(eV)
   0   2.0000     -14.670158      -399.1953
   1   2.0000     -14.664755      -399.0483
   2   2.0000     -10.602761      -288.5158
   3   2.0000     -10.477701      -285.1127
   4   2.0000     -10.435932      -283.9762
   5   2.0000      -1.329791       -36.1855
   6   2.0000      -1.227862       -33.4118
   7   2.0000      -1.088527       -29.6203
   8   2.0000      -0.975870       -26.5548
   9   2.0000      -0.925789       -25.1920
  10   2.0000      -0.872120       -23.7316
  11   2.0000      -0.858108       -23.3503
  12   2.0000      -0.797688       -21.7062
  13   2.0000      -0.767860       -20.8945
  14   2.0000      -0.726171       -19.7601
  15   2.0000      -0.699445       -19.0329
  16   2.0000      -0.648690       -17.6518
  17   2.0000      -0.638945       -17.3866
  18   2.0000      -0.626066       -17.0361
  19   2.0000      -0.592130       -16.1127
  20   0.0000      -0.137172        -3.7327
  21   0.0000      -0.075745        -2.0611
  22   0.0000      -0.031657        -0.8614
  23   0.0000      -0.029278        -0.7967
  24   0.0000       0.006902         0.1878

MULLIKEN ATOMIC CHARGES
-----------------------
   0 C :   -0.231975
   1 C :    0.347483
   2 N :   -0.374307
   3 N :   -0.368745
   4 H :    0.310966
   5 H :    0.288855
   6 H :    0.307046
   7 H :    0.289752
   8 C :   -0.346776
   9 H :    0.142425
  10 H :    0.190373
  11 H :    0.147138
  12 H :    0.118213
  13 H :    0.179552
Sum of atomic charges:    1.0000000

LOEWDIN ATOMIC CHARGES
----------------------
   0 C :   -0.215094
   1 C :   -0.287795
   2 N :    0.103025
   3 N :    0.116092
   4 H :    0.211718
   5 H :    0.201770
   6 H :    0.208833
   7 H :    0.202138
   8 C :   -0.256689
   9 H :    0.157418
  10 H :    0.171248
  11 H :    0.128610
  12 H :    0.119285
  13 H :    0.139443

  Mayer bond orders larger than 0.100000
B(  0-C ,  1-C ) :   0.9860 B(  0-C ,  8-C ) :   0.9524 B(  0-C ,  9-H ) :   0.9697
B(  0-C , 10-H ) :   0.9376 B(  1-C ,  2-N ) :   1.4083 B(  1-C ,  3-N ) :   1.4697
B(  2-N ,  6-H ) :   0.8883 B(  2-N ,  7-H ) :   0.8879 B(  3-N ,  4-H ) :   0.8802
B(  3-N ,  5-H ) :   0.8889 B(  8-C , 11-H ) :   0.9623 B(  8-C , 12-H ) :   0.9725
B(  8-C , 13-H ) :   0.9631

Dispersion correction           -0.003004665
FINAL SINGLE POINT ENERGY      -229.050160399711

DIPOLE MOMENT
-------------
                                X             Y             Z
Electronic contribution:      1.30286      -2.84613      -2.78477
Nuclear contribution   :     -1.30215       2.77761       1.84194
                        -----------------------------------------
Total Dipole Moment    :      0.00071      -0.06852      -0.94283
                        -----------------------------------------
Magnitude (a.u.)       :      0.94532
Magnitude (Debye)      :      2.40281

Rotational constants in cm-1:     0.267442     0.127541     0.099068
Rotational constants in MHz :  8017.703171  3823.592522  2969.992494

                             ****ORCA TERMINATED NORMALLY****
TOTAL RUN TIME: 0 days 0 hours 0 minutes 38 seconds 152 msec
