                         Program Version 5.0.0 -  RELEASE  -
|  1> !wB97X-D3 RIJCOSX def2-TZVP def2/J TightSCF
|  2> *xyz 0 1
|  3> C          0.70466        1.44313       -4.50363
|  4> C          1.72854        1.42432       -5.63944
|  5> H          2.64672        1.95379       -5.38105
|  6> H          1.29992        1.93061       -6.50361
|  7> S          2.25263       -0.18811       -6.27184
|  8> F          3.56261       -0.44446       -5.63155
|  9> O          2.34494       -0.03374       -7.69650
| 10> O          1.26606       -1.15918       -5.80536
| 11> H         -0.17385        0.91270       -4.80656
| 12> H          0.44778        2.45562       -4.27173
| 13> H          1.12367        0.97423       -3.63791
| 14> *
| 15>
| 16> %MaxCore 64000
| 17>
| 18> %pal nprocs 4
| 19> end
| 20>
| 21> %scf
| 22>   MaxIter 150
| 23> end
| 24>
| 25>
| 26>                          ****END OF INPUT****

CARTESIAN COORDINATES (ANGSTROEM)
---------------------------------
  C      0.704660    1.443130   -4.503630
  C      1.728540    1.424320   -5.639440
  H      2.646720    1.953790   -5.381050
  H      1.299920    1.930610   -6.503610
  S      2.252630   -0.188110   -6.271840
  F      3.562610   -0.444460   -5.631550
  O      2.344940   -0.033740   -7.696500
  O      1.266060   -1.159180   -5.805360
  H     -0.173850    0.912700   -4.806560
  H      0.447780    2.455620   -4.271730
  H      1.123670    0.974230   -3.637910

 Total Charge           Charge          ....    0
 Multiplicity           Mult            ....    1
 Number of Electrons    NEL             ....   58
 Basis Dimension        Dim             ....  222

ORBITAL ENERGIES
----------------

  NO   OCC          E(Eh)            E(eV)
   0   2.0000     -89.193705     -2427.0841
   1   2.0000     -24.886977      -677.2091
   2   2.0000     -19.245055      -523.6846
   3   2.0000     -19.237555      -523.4805
   4   2.0000     -10.337565      -281.2994
   5   2.0000     -10.292631      -280.0767
   6   2.0000      -8.256960      -224.6833
   7   2.0000      -6.214404      -169.1025
   8   2.0000      -6.208211      -168.9340
   9   2.0000      -6.207360      -168.9109
  10   2.0000      -1.468728       -39.9661
  11   2.0000      -1.227542       -33.4031
  12   2.0000      -1.133049       -30.8318
  13   2.0000      -0.937534       -25.5116
  14   2.0000      -0.835760       -22.7422
  15   2.0000      -0.779422       -21.2091
  16   2.0000      -0.681600       -18.5473
  17   2.0000      -0.668482       -18.1903
  18   2.0000      -0.654620       -17.8131
  19   2.0000      -0.593956       -16.1624
  20   2.0000      -0.581395       -15.8206
  21   2.0000      -0.554415       -15.0864
  22   2.0000      -0.529175       -14.3996
  23   2.0000      -0.500014       -13.6061
  24   2.0000      -0.497341       -13.5333
  25   2.0000      -0.480009       -13.0617
  26   2.0000      -0.431774       -11.7492
  27   2.0000      -0.425029       -11.5656
  28   2.0000      -0.412761       -11.2318
  29   0.0000       0.100069         2.7230
  30   0.0000       0.115915         3.1542
  31   0.0000       0.137894         3.7523
  32   0.0000       0.157796         4.2939
  33   0.0000       0.160496         4.3673

MULLIKEN ATOMIC CHARGES
-----------------------
   0 C :   -0.332394
   1 C :   -0.276337
   2 H :    0.140600
   3 H :    0.164569
   4 S :    0.891749
   5 F :   -0.127949
   6 O :   -0.419538
   7 O :   -0.445274
   8 H :    0.148786
   9 H :    0.130090
  10 H :    0.125697
Sum of atomic charges:   -0.0000000

LOEWDIN ATOMIC CHARGES
----------------------
   0 C :   -0.307560
   1 C :   -0.390027
   2 H :    0.134183
   3 H :    0.147402
   4 S :    0.545894
   5 F :    0.049657
   6 O :   -0.262247
   7 O :   -0.288981
   8 H :    0.126766
   9 H :    0.123544
  10 H :    0.121368

  Mayer bond orders larger than 0.100000
B(  0-C ,  1-C ) :   0.9785 B(  0-C ,  8-H ) :   0.9680 B(  0-C ,  9-H ) :   0.9610
B(  0-C , 10-H ) :   0.9737 B(  1-C ,  2-H ) :   0.9486 B(  1-C ,  3-H ) :   0.9439
B(  1-C ,  4-S ) :   0.9062 B(  4-S ,  5-F ) :   1.1101 B(  4-S ,  6-O ) :   1.9389
B(  4-S ,  7-O ) :   1.8992

Dispersion correction           -0.002792976
FINAL SINGLE POINT ENERGY      -727.751431102271

DIPOLE MOMENT
-------------
                                X             Y             Z
Electronic contribution:      6.32826      -6.48360      -3.70168
Nuclear contribution   :     -6.09914       7.80989       4.64238
                        -----------------------------------------
Total Dipole Moment    :      0.22912       1.32629       0.94071
                        -----------------------------------------
Magnitude (a.u.)       :      1.64210
Magnitude (Debye)      :      4.17388

Rotational constants in cm-1:     0.154372     0.078826     0.078033
Rotational constants in MHz :  4627.943144  2363.154585  2339.382767

                             ****ORCA TERMINATED NORMALLY****
TOTAL RUN TIME: 0 days 0 hours 0 minutes 39 seconds 216 msec
