                         Program Version 5.0.0 -  RELEASE  -
|  1> !wB97X-D3 RIJCOSX def2-TZVP def2/J TightSCF
|  2> *xyz 0 1
|  3> C          2.91632       -1.24259       -1.54313
|  4> C          3.46659       -1.59097       -2.88908
|  5> C          4.65227       -1.14316       -3.25969
|  6> N          2.75226       -2.29204       -3.72803
|  7> H          1.77836       -2.48960       -3.51274
|  8> H          2.94861       -2.20854       -4.71681
|  9> H          5.14672       -0.51251       -2.63385
| 10> H          4.78303       -1.00720       -4.25350
| 11> C          2.80408        0.29070       -1.35924
| 12> H          1.94047       -1.71653       -1.44116
| 13> H          3.55857       -1.66343       -0.76637
| 14> H          2.17393        0.69633       -2.12297
| 15> H          3.77707        0.73043       -1.42880
| 16> H          2.38369        0.50492       -0.39889
| 17> *
| 18>
| 19> %MaxCore 64000
| 20>
| 21> %pal nprocs 4
| 22> end
| 23>
| 24> %scf
| 25>   MaxIter 150
| 26> end
| 27>
| 28>
| 29>                          ****END OF INPUT****

CARTESIAN COORDINATES (ANGSTROEM)
---------------------------------
  C      2.916320   -1.242590   -1.543130
  C      3.466590   -1.590970   -2.889080
  C      4.652270   -1.143160   -3.259690
  N      2.752260   -2.292040   -3.728030
  H      1.778360   -2.489600   -3.512740
  H      2.948610   -2.208540   -4.716810
  H      5.146720   -0.512510   -2.633850
  H      4.783030   -1.007200   -4.253500
  C      2.804080    0.290700   -1.359240
  H      1.940470   -1.716530   -1.441160
  H      3.558570   -1.663430   -0.766370
  H      2.173930    0.696330   -2.122970
  H      3.777070    0.730430   -1.428800
  H      2.383690    0.504920   -0.398890

 Total Charge           Charge          ....    0
 Multiplicity           Mult            ....    1
 Number of Electrons    NEL             ....   40
 Basis Dimension        Dim             ....  209

ORBITAL ENERGIES
----------------

  NO   OCC          E(Eh)            E(eV)
   0   2.0000     -14.422621      -392.4595
   1   2.0000     -10.296087      -280.1708
   2   2.0000     -10.277952      -279.6773
   3   2.0000     -10.260366      -279.1988
   4   2.0000     -10.198528      -277.5161
   5   2.0000      -1.054289       -28.6887
   6   2.0000      -0.898419       -24.4472
   7   2.0000      -0.826239       -22.4831
   8   2.0000      -0.756066       -20.5736
   9   2.0000      -0.670260       -18.2387
  10   2.0000      -0.624470       -16.9927
  11   2.0000      -0.581663       -15.8279
  12   2.0000      -0.550780       -14.9875
  13   2.0000      -0.508515       -13.8374
  14   2.0000      -0.487359       -13.2617
  15   2.0000      -0.473601       -12.8873
  16   2.0000      -0.451297       -12.2804
  17   2.0000      -0.437755       -11.9119
  18   2.0000      -0.421737       -11.4760
  19   2.0000      -0.276797        -7.5320
  20   0.0000       0.107656         2.9295
  21   0.0000       0.113785         3.0962
  22   0.0000       0.150225         4.0878
  23   0.0000       0.155610         4.2344
  24   0.0000       0.171843         4.6761

MULLIKEN ATOMIC CHARGES
-----------------------
   0 C :   -0.179981
   1 C :    0.204729
   2 C :   -0.401253
   3 N :   -0.477076
   4 H :    0.232166
   5 H :    0.239224
   6 H :    0.081551
   7 H :    0.079221
   8 C :   -0.321655
   9 H :    0.080149
  10 H :    0.124580
  11 H :    0.111792
  12 H :    0.113872
  13 H :    0.112681
Sum of atomic charges:    0.0000000

LOEWDIN ATOMIC CHARGES
----------------------
   0 C :   -0.232698
   1 C :   -0.371590
   2 C :   -0.284581
   3 N :    0.002808
   4 H :    0.168323
   5 H :    0.175063
   6 H :    0.103255
   7 H :    0.099916
   8 C :   -0.284250
   9 H :    0.130766
  10 H :    0.147762
  11 H :    0.116369
  12 H :    0.116676
  13 H :    0.112182

  Mayer bond orders larger than 0.100000
B(  0-C ,  1-C ) :   0.9406 B(  0-C ,  8-C ) :   0.9668 B(  0-C ,  9-H ) :   0.9868
B(  0-C , 10-H ) :   0.9796 B(  1-C ,  2-C ) :   1.7429 B(  1-C ,  3-N ) :   1.1749
B(  2-C ,  6-H ) :   1.0156 B(  2-C ,  7-H ) :   0.9890 B(  3-N ,  4-H ) :   0.9233
B(  3-N ,  5-H ) :   0.9185 B(  8-C , 11-H ) :   0.9778 B(  8-C , 12-H ) :   0.9793
B(  8-C , 13-H ) :   0.9774

Dispersion correction           -0.002988923
FINAL SINGLE POINT ENERGY      -212.573939956846

DIPOLE MOMENT
-------------
                                X             Y             Z
Electronic contribution:      0.05179      -2.73331      -1.81765
Nuclear contribution   :     -0.99366       2.78648       1.68526
                        -----------------------------------------
Total Dipole Moment    :     -0.94187       0.05317      -0.13239
                        -----------------------------------------
Magnitude (a.u.)       :      0.95261
Magnitude (Debye)      :      2.42134

Rotational constants in cm-1:     0.282898     0.128664     0.101801
Rotational constants in MHz :  8481.061354  3857.240210  3051.924245

                             ****ORCA TERMINATED NORMALLY****
TOTAL RUN TIME: 0 days 0 hours 0 minutes 41 seconds 621 msec
