                         Program Version 5.0.0 -  RELEASE  -
|  1> !wB97X-D3 RIJCOSX def2-TZVP def2/J TightSCF
|  2> *xyz 0 1
|  3> C          0.70466        1.44313       -4.50363
|  4> C          1.72854        1.42432       -5.63944
|  5> H          2.64672        1.95379       -5.38105
|  6> H          1.29992        1.93061       -6.50361
|  7> S          2.25263       -0.18811       -6.27184
|  8> O          3.56261       -0.44446       -5.63155
|  9> F          2.34494       -0.03374       -7.69650
| 10> O          1.26606       -1.15918       -5.80536
| 11> H         -0.17385        0.91270       -4.80656
| 12> H          0.44778        2.45562       -4.27173
| 13> H          1.12367        0.97423       -3.63791
| 14> *
| 15>
| 16> %MaxCore 64000
| 17>
| 18> %pal nprocs 4
| 19> end
| 20>
| 21> %scf
| 22>   MaxIter 150
| 23> end
| 24>
| 25>
| 26>                          ****END OF INPUT****

CARTESIAN COORDINATES (ANGSTROEM)
---------------------------------
  C      0.704660    1.443130   -4.503630
  C      1.728540    1.424320   -5.639440
  H      2.646720    1.953790   -5.381050
  H      1.299920    1.930610   -6.503610
  S      2.252630   -0.188110   -6.271840
  O      3.562610   -0.444460   -5.631550
  F      2.344940   -0.033740   -7.696500
  O      1.266060   -1.159180   -5.805360
  H     -0.173850    0.912700   -4.806560
  H      0.447780    2.455620   -4.271730
  H      1.123670    0.974230   -3.637910

 Total Charge           Charge          ....    0
 Multiplicity           Mult            ....    1
 Number of Electrons    NEL             ....   58
 Basis Dimension        Dim             ....  222

ORBITAL ENERGIES
----------------

  NO   OCC          E(Eh)            E(eV)
   0   2.0000     -89.195863     -2427.1428
   1   2.0000     -24.910815      -677.8578
   2   2.0000     -19.237796      -523.4870
   3   2.0000     -19.229176      -523.2525
   4   2.0000     -10.338522      -281.3255
   5   2.0000     -10.293150      -280.0908
   6   2.0000      -8.259126      -224.7422
   7   2.0000      -6.216417      -169.1573
   8   2.0000      -6.210213      -168.9885
   9   2.0000      -6.209677      -168.9739
  10   2.0000      -1.506761       -41.0010
  11   2.0000      -1.212950       -33.0061
  12   2.0000      -1.113043       -30.2874
  13   2.0000      -0.938254       -25.5312
  14   2.0000      -0.850347       -23.1391
  15   2.0000      -0.787862       -21.4388
  16   2.0000      -0.697677       -18.9848
  17   2.0000      -0.695620       -18.9288
  18   2.0000      -0.659208       -17.9380
  19   2.0000      -0.594887       -16.1877
  20   2.0000      -0.582266       -15.8443
  21   2.0000      -0.542157       -14.7528
  22   2.0000      -0.526027       -14.3139
  23   2.0000      -0.503037       -13.6883
  24   2.0000      -0.486422       -13.2362
  25   2.0000      -0.479007       -13.0344
  26   2.0000      -0.424405       -11.5486
  27   2.0000      -0.414126       -11.2689
  28   2.0000      -0.396688       -10.7944
  29   0.0000       0.101584         2.7642
  30   0.0000       0.111238         3.0269
  31   0.0000       0.137028         3.7287
  32   0.0000       0.154892         4.2148
  33   0.0000       0.158258         4.3064

MULLIKEN ATOMIC CHARGES
-----------------------
   0 C :   -0.334753
   1 C :   -0.268955
   2 H :    0.164135
   3 H :    0.129029
   4 S :    0.887304
   5 O :   -0.456904
   6 F :   -0.095574
   7 O :   -0.436752
   8 H :    0.139293
   9 H :    0.130613
  10 H :    0.142565
Sum of atomic charges:   -0.0000000

LOEWDIN ATOMIC CHARGES
----------------------
   0 C :   -0.301622
   1 C :   -0.391778
   2 H :    0.142666
   3 H :    0.132149
   4 S :    0.538466
   5 O :   -0.315987
   6 F :    0.105371
   7 O :   -0.285122
   8 H :    0.125082
   9 H :    0.124178
  10 H :    0.126595

  Mayer bond orders larger than 0.100000
B(  0-C ,  1-C ) :   0.9832 B(  0-C ,  8-H ) :   0.9682 B(  0-C ,  9-H ) :   0.9605
B(  0-C , 10-H ) :   0.9713 B(  1-C ,  2-H ) :   0.9424 B(  1-C ,  3-H ) :   0.9456
B(  1-C ,  4-S ) :   0.9090 B(  4-S ,  5-O ) :   1.8872 B(  4-S ,  6-F ) :   1.1537
B(  4-S ,  7-O ) :   1.9018

Dispersion correction           -0.002819710
FINAL SINGLE POINT ENERGY      -727.731637747707

DIPOLE MOMENT
-------------
                                X             Y             Z
Electronic contribution:      4.21342      -5.78163      -7.24469
Nuclear contribution   :     -4.83029       7.38191       6.79413
                        -----------------------------------------
Total Dipole Moment    :     -0.61686       1.60028      -0.45056
                        -----------------------------------------
Magnitude (a.u.)       :      1.77325
Magnitude (Debye)      :      4.50724

Rotational constants in cm-1:     0.156575     0.079070     0.076729
Rotational constants in MHz :  4694.010604  2370.444114  2300.280155

                             ****ORCA TERMINATED NORMALLY****
TOTAL RUN TIME: 0 days 0 hours 0 minutes 32 seconds 598 msec
