                         Program Version 5.0.0 -  RELEASE  -
|  1> !wB97X-D3 RIJCOSX def2-TZVP def2/J TightSCF
|  2> *xyz 0 1
|  3> C          2.91632       -1.24259       -1.54313
|  4> C          3.46659       -1.59097       -2.88908
|  5> N          4.65227       -1.14316       -3.25969
|  6> C          2.75226       -2.29204       -3.72803
|  7> H          1.77836       -2.48960       -3.51274
|  8> H          2.94861       -2.20854       -4.71681
|  9> H          5.14672       -0.51251       -2.63385
| 10> H          4.78303       -1.00720       -4.25350
| 11> C          2.80408        0.29070       -1.35924
| 12> H          1.94047       -1.71653       -1.44116
| 13> H          3.55857       -1.66343       -0.76637
| 14> H          2.17393        0.69633       -2.12297
| 15> H          3.77707        0.73043       -1.42880
| 16> H          2.38369        0.50492       -0.39889
| 17> *
| 18>
| 19> %MaxCore 64000
| 20>
| 21> %pal nprocs 4
| 22> end
| 23>
| 24> %scf
| 25>   MaxIter 150
| 26> end
| 27>
| 28>
| 29>                          ****END OF INPUT****

CARTESIAN COORDINATES (ANGSTROEM)
---------------------------------
  C      2.916320   -1.242590   -1.543130
  C      3.466590   -1.590970   -2.889080
  N      4.652270   -1.143160   -3.259690
  C      2.752260   -2.292040   -3.728030
  H      1.778360   -2.489600   -3.512740
  H      2.948610   -2.208540   -4.716810
  H      5.146720   -0.512510   -2.633850
  H      4.783030   -1.007200   -4.253500
  C      2.804080    0.290700   -1.359240
  H      1.940470   -1.716530   -1.441160
  H      3.558570   -1.663430   -0.766370
  H      2.173930    0.696330   -2.122970
  H      3.777070    0.730430   -1.428800
  H      2.383690    0.504920   -0.398890

 Total Charge           Charge          ....    0
 Multiplicity           Mult            ....    1
 Number of Electrons    NEL             ....   40
 Basis Dimension        Dim             ....  209

ORBITAL ENERGIES
----------------

  NO   OCC          E(Eh)            E(eV)
   0   2.0000     -14.419001      -392.3610
   1   2.0000     -10.294573      -280.1296
   2   2.0000     -10.276392      -279.6348
   3   2.0000     -10.265450      -279.3371
   4   2.0000     -10.202672      -277.6288
   5   2.0000      -1.049272       -28.5521
   6   2.0000      -0.895910       -24.3790
   7   2.0000      -0.838009       -22.8034
   8   2.0000      -0.748522       -20.3683
   9   2.0000      -0.670189       -18.2368
  10   2.0000      -0.628848       -17.1118
  11   2.0000      -0.578428       -15.7398
  12   2.0000      -0.536995       -14.6124
  13   2.0000      -0.534283       -14.5386
  14   2.0000      -0.484443       -13.1824
  15   2.0000      -0.478330       -13.0160
  16   2.0000      -0.452351       -12.3091
  17   2.0000      -0.436620       -11.8810
  18   2.0000      -0.416308       -11.3283
  19   2.0000      -0.284092        -7.7305
  20   0.0000       0.104738         2.8501
  21   0.0000       0.117229         3.1900
  22   0.0000       0.154749         4.2109
  23   0.0000       0.159329         4.3356
  24   0.0000       0.169059         4.6003

MULLIKEN ATOMIC CHARGES
-----------------------
   0 C :   -0.183162
   1 C :    0.200006
   2 N :   -0.487938
   3 C :   -0.389817
   4 H :    0.090419
   5 H :    0.076603
   6 H :    0.232144
   7 H :    0.242265
   8 C :   -0.329999
   9 H :    0.109319
  10 H :    0.108756
  11 H :    0.122484
  12 H :    0.087271
  13 H :    0.121647
Sum of atomic charges:    0.0000000

LOEWDIN ATOMIC CHARGES
----------------------
   0 C :   -0.233321
   1 C :   -0.371249
   2 N :   -0.007546
   3 C :   -0.272852
   4 H :    0.105778
   5 H :    0.099558
   6 H :    0.168284
   7 H :    0.176440
   8 C :   -0.290549
   9 H :    0.145652
  10 H :    0.137905
  11 H :    0.118946
  12 H :    0.107250
  13 H :    0.115704

  Mayer bond orders larger than 0.100000
B(  0-C ,  1-C ) :   0.9748 B(  0-C ,  8-C ) :   0.9510 B(  0-C ,  9-H ) :   0.9827
B(  0-C , 10-H ) :   0.9738 B(  1-C ,  2-N ) :   1.1173 B(  1-C ,  3-C ) :   1.8063
B(  2-N ,  6-H ) :   0.9328 B(  2-N ,  7-H ) :   0.9199 B(  3-C ,  4-H ) :   0.9987
B(  3-C ,  5-H ) :   0.9929 B(  8-C , 11-H ) :   0.9762 B(  8-C , 12-H ) :   0.9801
B(  8-C , 13-H ) :   0.9791

Dispersion correction           -0.003012779
FINAL SINGLE POINT ENERGY      -212.577915917667

DIPOLE MOMENT
-------------
                                X             Y             Z
Electronic contribution:      1.74466      -1.70782      -1.40123
Nuclear contribution   :     -1.43372       2.52039       1.57679
                        -----------------------------------------
Total Dipole Moment    :      0.31094       0.81257       0.17556
                        -----------------------------------------
Magnitude (a.u.)       :      0.88756
Magnitude (Debye)      :      2.25600

Rotational constants in cm-1:     0.274962     0.131786     0.102554
Rotational constants in MHz :  8243.150005  3950.846092  3074.493018

                             ****ORCA TERMINATED NORMALLY****
TOTAL RUN TIME: 0 days 0 hours 0 minutes 31 seconds 642 msec
