                         Program Version 5.0.0 -  RELEASE  -
|  1> !wB97X-D3 RIJCOSX def2-TZVP def2/J TightSCF
|  2> *xyz 0 1
|  3> C          0.70466        1.44313       -4.50363
|  4> C          1.72854        1.42432       -5.63944
|  5> H          2.64672        1.95379       -5.38105
|  6> H          1.29992        1.93061       -6.50361
|  7> S          2.25263       -0.18811       -6.27184
|  8> O          3.56261       -0.44446       -5.63155
|  9> O          2.34494       -0.03374       -7.69650
| 10> F          1.26606       -1.15918       -5.80536
| 11> H         -0.17385        0.91270       -4.80656
| 12> H          0.44778        2.45562       -4.27173
| 13> H          1.12367        0.97423       -3.63791
| 14> *
| 15>
| 16> %MaxCore 64000
| 17>
| 18> %pal nprocs 4
| 19> end
| 20>
| 21> %scf
| 22>   MaxIter 150
| 23> end
| 24>
| 25>
| 26>                          ****END OF INPUT****

CARTESIAN COORDINATES (ANGSTROEM)
---------------------------------
  C      0.704660    1.443130   -4.503630
  C      1.728540    1.424320   -5.639440
  H      2.646720    1.953790   -5.381050
  H      1.299920    1.930610   -6.503610
  S      2.252630   -0.188110   -6.271840
  O      3.562610   -0.444460   -5.631550
  O      2.344940   -0.033740   -7.696500
  F      1.266060   -1.159180   -5.805360
  H     -0.173850    0.912700   -4.806560
  H      0.447780    2.455620   -4.271730
  H      1.123670    0.974230   -3.637910

 Total Charge           Charge          ....    0
 Multiplicity           Mult            ....    1
 Number of Electrons    NEL             ....   58
 Basis Dimension        Dim             ....  222

ORBITAL ENERGIES
----------------

  NO   OCC          E(Eh)            E(eV)
   0   2.0000     -89.194257     -2427.0991
   1   2.0000     -24.897999      -677.5090
   2   2.0000     -19.244995      -523.6829
   3   2.0000     -19.228632      -523.2377
   4   2.0000     -10.337468      -281.2968
   5   2.0000     -10.300549      -280.2922
   6   2.0000      -8.257550      -224.6994
   7   2.0000      -6.215059      -169.1203
   8   2.0000      -6.208529      -168.9427
   9   2.0000      -6.208087      -168.9306
  10   2.0000      -1.485319       -40.4176
  11   2.0000      -1.223130       -33.2831
  12   2.0000      -1.121083       -30.5062
  13   2.0000      -0.941604       -25.6224
  14   2.0000      -0.839084       -22.8326
  15   2.0000      -0.789048       -21.4711
  16   2.0000      -0.696877       -18.9630
  17   2.0000      -0.681141       -18.5348
  18   2.0000      -0.647972       -17.6322
  19   2.0000      -0.598679       -16.2909
  20   2.0000      -0.575057       -15.6481
  21   2.0000      -0.549446       -14.9512
  22   2.0000      -0.541692       -14.7402
  23   2.0000      -0.510396       -13.8886
  24   2.0000      -0.492755       -13.4086
  25   2.0000      -0.482414       -13.1271
  26   2.0000      -0.429533       -11.6882
  27   2.0000      -0.415454       -11.3051
  28   2.0000      -0.403188       -10.9713
  29   0.0000       0.088159         2.3989
  30   0.0000       0.127776         3.4770
  31   0.0000       0.145218         3.9516
  32   0.0000       0.151104         4.1117
  33   0.0000       0.157664         4.2902

MULLIKEN ATOMIC CHARGES
-----------------------
   0 C :   -0.354344
   1 C :   -0.266746
   2 H :    0.168957
   3 H :    0.154320
   4 S :    0.887394
   5 O :   -0.462720
   6 O :   -0.414653
   7 F :   -0.114088
   8 H :    0.127586
   9 H :    0.135299
  10 H :    0.138996
Sum of atomic charges:    0.0000000

LOEWDIN ATOMIC CHARGES
----------------------
   0 C :   -0.314507
   1 C :   -0.383942
   2 H :    0.147636
   3 H :    0.141323
   4 S :    0.542846
   5 O :   -0.319271
   6 O :   -0.260132
   7 F :    0.078127
   8 H :    0.119101
   9 H :    0.125884
  10 H :    0.122935

  Mayer bond orders larger than 0.100000
B(  0-C ,  1-C ) :   0.9776 B(  0-C ,  8-H ) :   0.9706 B(  0-C ,  9-H ) :   0.9647
B(  0-C , 10-H ) :   0.9701 B(  1-C ,  2-H ) :   0.9428 B(  1-C ,  3-H ) :   0.9460
B(  1-C ,  4-S ) :   0.9107 B(  4-S ,  5-O ) :   1.8848 B(  4-S ,  6-O ) :   1.9395
B(  4-S ,  7-F ) :   1.1257

Dispersion correction           -0.002791679
FINAL SINGLE POINT ENERGY      -727.741552323284

DIPOLE MOMENT
-------------
                                X             Y             Z
Electronic contribution:      2.36312      -7.67264      -3.99756
Nuclear contribution   :     -3.70606       8.55465       4.82350
                        -----------------------------------------
Total Dipole Moment    :     -1.34294       0.88201       0.82594
                        -----------------------------------------
Magnitude (a.u.)       :      1.80654
Magnitude (Debye)      :      4.59187

Rotational constants in cm-1:     0.153201     0.080978     0.077494
Rotational constants in MHz :  4592.852844  2427.650814  2323.207507

                             ****ORCA TERMINATED NORMALLY****
TOTAL RUN TIME: 0 days 0 hours 0 minutes 33 seconds 674 msec
