                         Program Version 5.0.0 -  RELEASE  -
|  1> !wB97X-D3 RIJCOSX def2-TZVP def2/J TightSCF xyzfile
|  2>
|  3> *xyzfile 0 1 D1.xyz
|  4>
|  5> %MaxCore 64000
|  6>
|  7> %pal nprocs 18
|  8> end
|  9>
| 10> %scf
| 11>   MaxIter 150
| 12> end
| 13>
| 14>
| 15>                          ****END OF INPUT****

CARTESIAN COORDINATES (ANGSTROEM)
---------------------------------
  C      2.916324   -1.242589   -1.543125
  C      0.704661    1.443129   -4.503630
  C      1.728539    1.424320   -5.639443
  H      2.646718    1.953794   -5.381054
  H      1.299916    1.930613   -6.503614
  S      2.252625   -0.188115   -6.271840
  C      3.466585   -1.590971   -2.889082
  C      4.652275   -1.143164   -3.259692
  N      2.752264   -2.292043   -3.728029
  H      1.778364   -2.489604   -3.512738
  H      2.948612   -2.208544   -4.716813
  H      5.146723   -0.512508   -2.633852
  H      4.783030   -1.007203   -4.253498
  F      3.562607   -0.444464   -5.631552
  O      2.344944   -0.033742   -7.696501
  C      2.804084    0.290698   -1.359243
  C      1.052550    0.695659   -3.214915
  H     -0.232483    1.032925   -4.884449
  H      0.511700    2.495794   -4.267966
  C      2.388380    1.093669   -2.597108
  H      3.763425    0.674718   -0.999889
  H      2.094788    0.461222   -0.545756
  O      1.266058   -1.159177   -5.805365
  H      3.167316    1.013242   -3.359430
  H      2.357690    2.149375   -2.310997
  H      1.039284   -0.368429   -3.449329
  H      0.250787    0.865605   -2.488283
  H      1.940472   -1.716529   -1.441161
  H      3.558569   -1.663433   -0.766371

 Total Charge           Charge          ....    0
 Multiplicity           Mult            ....    1
 Number of Electrons    NEL             ....  112
 Basis Dimension        Dim             ....  505

ORBITAL ENERGIES
----------------

  NO   OCC          E(Eh)            E(eV)
   0   2.0000     -89.202482     -2427.3229
   1   2.0000     -24.897466      -677.4945
   2   2.0000     -19.253222      -523.9068
   3   2.0000     -19.249648      -523.8095
   4   2.0000     -14.415252      -392.2589
   5   2.0000     -10.340045      -281.3669
   6   2.0000     -10.304942      -280.4117
   7   2.0000     -10.295024      -280.1418
   8   2.0000     -10.282478      -279.8005
   9   2.0000     -10.280646      -279.7506
  10   2.0000     -10.278926      -279.7038
  11   2.0000     -10.278088      -279.6810
  12   2.0000     -10.196610      -277.4639
  13   2.0000      -8.266110      -224.9323
  14   2.0000      -6.223648      -169.3541
  15   2.0000      -6.217196      -169.1785
  16   2.0000      -6.216462      -169.1585
  17   2.0000      -1.481949       -40.3259
  18   2.0000      -1.238087       -33.6901
  19   2.0000      -1.145105       -31.1599
  20   2.0000      -1.051721       -28.6188
  21   2.0000      -0.959269       -26.1030
  22   2.0000      -0.921864       -25.0852
  23   2.0000      -0.879731       -23.9387
  24   2.0000      -0.847540       -23.0627
  25   2.0000      -0.812743       -22.1159
  26   2.0000      -0.801496       -21.8098
  27   2.0000      -0.745878       -20.2964
  28   2.0000      -0.706951       -19.2371
  29   2.0000      -0.687981       -18.7209
  30   2.0000      -0.679234       -18.4829
  31   2.0000      -0.669060       -18.2060
  32   2.0000      -0.654618       -17.8131
  33   2.0000      -0.618780       -16.8379
  34   2.0000      -0.603374       -16.4186
  35   2.0000      -0.595464       -16.2034
  36   2.0000      -0.581314       -15.8184
  37   2.0000      -0.575701       -15.6656
  38   2.0000      -0.561949       -15.2914
  39   2.0000      -0.544938       -14.8285
  40   2.0000      -0.533095       -14.5063
  41   2.0000      -0.522367       -14.2143
  42   2.0000      -0.500529       -13.6201
  43   2.0000      -0.491075       -13.3628
  44   2.0000      -0.483072       -13.1450
  45   2.0000      -0.479289       -13.0421
  46   2.0000      -0.471518       -12.8307
  47   2.0000      -0.454624       -12.3710
  48   2.0000      -0.448397       -12.2015
  49   2.0000      -0.438492       -11.9320
  50   2.0000      -0.432883       -11.7793
  51   2.0000      -0.423083       -11.5127
  52   2.0000      -0.417905       -11.3718
  53   2.0000      -0.414800       -11.2873
  54   2.0000      -0.409556       -11.1446
  55   2.0000      -0.274036        -7.4569
  56   0.0000       0.093697         2.5496
  57   0.0000       0.102328         2.7845
  58   0.0000       0.108286         2.9466
  59   0.0000       0.114434         3.1139
  60   0.0000       0.123355         3.3567

MULLIKEN ATOMIC CHARGES
-----------------------
   0 C :   -0.222106
   1 C :   -0.156040
   2 C :   -0.346740
   3 H :    0.168905
   4 H :    0.187348
   5 S :    0.913990
   6 C :    0.152875
   7 C :   -0.415687
   8 N :   -0.410098
   9 H :    0.237115
  10 H :    0.215066
  11 H :    0.091490
  12 H :    0.080389
  13 F :   -0.126605
  14 O :   -0.421109
  15 C :   -0.251136
  16 C :   -0.262009
  17 H :    0.138253
  18 H :    0.122029
  19 C :   -0.130680
  20 H :    0.125106
  21 H :    0.105468
  22 O :   -0.460938
  23 H :    0.098479
  24 H :    0.106674
  25 H :    0.100875
  26 H :    0.113014
  27 H :    0.107813
  28 H :    0.138258
Sum of atomic charges:    0.0000000

LOEWDIN ATOMIC CHARGES
----------------------
   0 C :   -0.211375
   1 C :   -0.279091
   2 C :   -0.362229
   3 H :    0.139471
   4 H :    0.151674
   5 S :    0.556623
   6 C :   -0.383771
   7 C :   -0.295376
   8 N :    0.021073
   9 H :    0.166948
  10 H :    0.159333
  11 H :    0.103392
  12 H :    0.091214
  13 F :    0.066153
  14 O :   -0.254771
  15 C :   -0.250083
  16 C :   -0.270504
  17 H :    0.147165
  18 H :    0.146700
  19 C :   -0.268493
  20 H :    0.138950
  21 H :    0.135784
  22 O :   -0.281770
  23 H :    0.134523
  24 H :    0.136317
  25 H :    0.134863
  26 H :    0.139761
  27 H :    0.135753
  28 H :    0.151768

  Mayer bond orders larger than 0.100000
B(  0-C ,  6-C ) :   0.9191 B(  0-C , 15-C ) :   0.9490 B(  0-C , 27-H ) :   0.9875
B(  0-C , 28-H ) :   0.9768 B(  1-C ,  2-C ) :   0.9527 B(  1-C , 16-C ) :   0.9788
B(  1-C , 17-H ) :   0.9739 B(  1-C , 18-H ) :   0.9581 B(  2-C ,  3-H ) :   0.9481
B(  2-C ,  4-H ) :   0.9460 B(  2-C ,  5-S ) :   0.9096 B(  5-S , 13-F ) :   1.0872
B(  5-S , 14-O ) :   1.9733 B(  5-S , 22-O ) :   1.8335 B(  6-C ,  7-C ) :   1.6896
B(  6-C ,  8-N ) :   1.2175 B(  7-C , 11-H ) :   1.0161 B(  7-C , 12-H ) :   1.0134
B(  8-N ,  9-H ) :   0.9201 B(  8-N , 10-H ) :   0.9242 B( 15-C , 19-C ) :   0.9825
B( 15-C , 20-H ) :   0.9822 B( 15-C , 21-H ) :   0.9776 B( 16-C , 19-C ) :   0.9219
B( 16-C , 25-H ) :   0.9806 B( 16-C , 26-H ) :   0.9675 B( 19-C , 23-H ) :   0.9713
B( 19-C , 24-H ) :   0.9677

Dispersion correction           -0.016341872
FINAL SINGLE POINT ENERGY     -1017.750289098647

DIPOLE MOMENT
-------------
                                X             Y             Z
Electronic contribution:      2.14090      -4.93588     -18.58145
Nuclear contribution   :     -2.89481       6.29550      19.36835
                        -----------------------------------------
Total Dipole Moment    :     -0.75391       1.35962       0.78690
                        -----------------------------------------
Magnitude (a.u.)       :      1.74246
Magnitude (Debye)      :      4.42897

Rotational constants in cm-1:     0.036515     0.018832     0.015081
Rotational constants in MHz :  1094.679513   564.567051   452.109105

                             ****ORCA TERMINATED NORMALLY****
TOTAL RUN TIME: 0 days 0 hours 1 minutes 21 seconds 932 msec
