                         Program Version 5.0.0 -  RELEASE  -
|  1> !wB97X-D3 RIJCOSX def2-TZVP def2/J TightSCF xyzfile
|  2>
|  3> *xyzfile 0 1 D2.xyz
|  4>
|  5> %MaxCore 64000
|  6>
|  7> %pal nprocs 18
|  8> end
|  9>
| 10> %scf
| 11>   MaxIter 150
| 12> end
| 13>
| 14>
| 15>                          ****END OF INPUT****

CARTESIAN COORDINATES (ANGSTROEM)
---------------------------------
  C      2.916324   -1.242589   -1.543125
  C      0.704661    1.443129   -4.503630
  C      1.728539    1.424320   -5.639443
  H      2.646718    1.953794   -5.381054
  H      1.299916    1.930613   -6.503614
  S      2.252625   -0.188115   -6.271840
  C      3.466585   -1.590971   -2.889082
  N      4.652275   -1.143164   -3.259692
  C      2.752264   -2.292043   -3.728029
  H      1.778364   -2.489604   -3.512738
  H      2.948612   -2.208544   -4.716813
  H      5.146723   -0.512508   -2.633852
  H      4.783030   -1.007203   -4.253498
  F      3.562607   -0.444464   -5.631552
  O      2.344944   -0.033742   -7.696501
  C      2.804084    0.290698   -1.359243
  C      1.052550    0.695659   -3.214915
  H     -0.232483    1.032925   -4.884449
  H      0.511700    2.495794   -4.267966
  C      2.388380    1.093669   -2.597108
  H      3.763425    0.674718   -0.999889
  H      2.094788    0.461222   -0.545756
  O      1.266058   -1.159177   -5.805365
  H      3.167316    1.013242   -3.359430
  H      2.357690    2.149375   -2.310997
  H      1.039284   -0.368429   -3.449329
  H      0.250787    0.865605   -2.488283
  H      1.940472   -1.716529   -1.441161
  H      3.558569   -1.663433   -0.766371

 Total Charge           Charge          ....    0
 Multiplicity           Mult            ....    1
 Number of Electrons    NEL             ....  112
 Basis Dimension        Dim             ....  505

ORBITAL ENERGIES
----------------

  NO   OCC          E(Eh)            E(eV)
   0   2.0000     -89.196249     -2427.1533
   1   2.0000     -24.895309      -677.4358
   2   2.0000     -19.248137      -523.7684
   3   2.0000     -19.238362      -523.5024
   4   2.0000     -14.417277      -392.3141
   5   2.0000     -10.336616      -281.2736
   6   2.0000     -10.300820      -280.2996
   7   2.0000     -10.290134      -280.0088
   8   2.0000     -10.283458      -279.8271
   9   2.0000     -10.281462      -279.7728
  10   2.0000     -10.276398      -279.6350
  11   2.0000     -10.276301      -279.6324
  12   2.0000     -10.198596      -277.5179
  13   2.0000      -8.259780      -224.7600
  14   2.0000      -6.217486      -169.1864
  15   2.0000      -6.210770      -169.0036
  16   2.0000      -6.210048      -168.9840
  17   2.0000      -1.479475       -40.2586
  18   2.0000      -1.230983       -33.4967
  19   2.0000      -1.135927       -30.9101
  20   2.0000      -1.050198       -28.5773
  21   2.0000      -0.955785       -26.0082
  22   2.0000      -0.919670       -25.0255
  23   2.0000      -0.877274       -23.8718
  24   2.0000      -0.849187       -23.1076
  25   2.0000      -0.821965       -22.3668
  26   2.0000      -0.793825       -21.6011
  27   2.0000      -0.739858       -20.1326
  28   2.0000      -0.705479       -19.1971
  29   2.0000      -0.682530       -18.5726
  30   2.0000      -0.678036       -18.4503
  31   2.0000      -0.664617       -18.0852
  32   2.0000      -0.654593       -17.8124
  33   2.0000      -0.626278       -17.0419
  34   2.0000      -0.597432       -16.2570
  35   2.0000      -0.594523       -16.1778
  36   2.0000      -0.581178       -15.8147
  37   2.0000      -0.567211       -15.4346
  38   2.0000      -0.552853       -15.0439
  39   2.0000      -0.544752       -14.8235
  40   2.0000      -0.535596       -14.5743
  41   2.0000      -0.516673       -14.0594
  42   2.0000      -0.502121       -13.6634
  43   2.0000      -0.488928       -13.3044
  44   2.0000      -0.483299       -13.1512
  45   2.0000      -0.479126       -13.0377
  46   2.0000      -0.463422       -12.6103
  47   2.0000      -0.452963       -12.3257
  48   2.0000      -0.443650       -12.0723
  49   2.0000      -0.430140       -11.7047
  50   2.0000      -0.427507       -11.6330
  51   2.0000      -0.419925       -11.4267
  52   2.0000      -0.416432       -11.3317
  53   2.0000      -0.408398       -11.1131
  54   2.0000      -0.406953       -11.0738
  55   2.0000      -0.280709        -7.6385
  56   0.0000       0.090521         2.4632
  57   0.0000       0.104204         2.8355
  58   0.0000       0.107505         2.9254
  59   0.0000       0.112956         3.0737
  60   0.0000       0.130851         3.5606

MULLIKEN ATOMIC CHARGES
-----------------------
   0 C :   -0.215066
   1 C :   -0.158897
   2 C :   -0.345131
   3 H :    0.159926
   4 H :    0.187250
   5 S :    0.923393
   6 C :    0.179595
   7 N :   -0.464091
   8 C :   -0.392799
   9 H :    0.102518
  10 H :    0.065907
  11 H :    0.236981
  12 H :    0.229948
  13 F :   -0.147343
  14 O :   -0.424314
  15 C :   -0.275558
  16 C :   -0.263509
  17 H :    0.138757
  18 H :    0.118401
  19 C :   -0.134347
  20 H :    0.120614
  21 H :    0.111973
  22 O :   -0.436024
  23 H :    0.069073
  24 H :    0.107729
  25 H :    0.142712
  26 H :    0.107609
  27 H :    0.128961
  28 H :    0.125734
Sum of atomic charges:    0.0000000

LOEWDIN ATOMIC CHARGES
----------------------
   0 C :   -0.213250
   1 C :   -0.279511
   2 C :   -0.363958
   3 H :    0.136142
   4 H :    0.151309
   5 S :    0.561506
   6 C :   -0.387336
   7 N :   -0.008506
   8 C :   -0.267627
   9 H :    0.105202
  10 H :    0.089623
  11 H :    0.168566
  12 H :    0.162083
  13 F :    0.053898
  14 O :   -0.257437
  15 C :   -0.258997
  16 C :   -0.268532
  17 H :    0.148069
  18 H :    0.145164
  19 C :   -0.269483
  20 H :    0.132685
  21 H :    0.138575
  22 O :   -0.257541
  23 H :    0.126591
  24 H :    0.136307
  25 H :    0.146470
  26 H :    0.138827
  27 H :    0.149279
  28 H :    0.141882

  Mayer bond orders larger than 0.100000
B(  0-C ,  6-C ) :   0.9442 B(  0-C , 15-C ) :   0.9298 B(  0-C , 27-H ) :   0.9854
B(  0-C , 28-H ) :   0.9830 B(  1-C ,  2-C ) :   0.9523 B(  1-C , 16-C ) :   0.9753
B(  1-C , 17-H ) :   0.9727 B(  1-C , 18-H ) :   0.9585 B(  2-C ,  3-H ) :   0.9500
B(  2-C ,  4-H ) :   0.9474 B(  2-C ,  5-S ) :   0.9097 B(  5-S , 13-F ) :   1.0628
B(  5-S , 14-O ) :   1.9690 B(  5-S , 22-O ) :   1.8635 B(  6-C ,  7-N ) :   1.1177
B(  6-C ,  8-C ) :   1.7319 B(  7-N , 11-H ) :   0.9297 B(  7-N , 12-H ) :   0.9240
B(  8-C ,  9-H ) :   1.0158 B(  8-C , 10-H ) :   1.0347 B( 15-C , 19-C ) :   0.9588
B( 15-C , 20-H ) :   0.9945 B( 15-C , 21-H ) :   0.9724 B( 16-C , 19-C ) :   0.9163
B( 16-C , 25-H ) :   0.9810 B( 16-C , 26-H ) :   0.9668 B( 19-C , 23-H ) :   0.9773
B( 19-C , 24-H ) :   0.9709

Dispersion correction           -0.016286462
FINAL SINGLE POINT ENERGY     -1017.750443959792

DIPOLE MOMENT
-------------
                                X             Y             Z
Electronic contribution:      3.48161      -4.22196     -18.25480
Nuclear contribution   :     -3.13969       6.14743      19.30799
                        -----------------------------------------
Total Dipole Moment    :      0.34192       1.92547       1.05320
                        -----------------------------------------
Magnitude (a.u.)       :      2.22116
Magnitude (Debye)      :      5.64575

Rotational constants in cm-1:     0.036460     0.018762     0.015014
Rotational constants in MHz :  1093.039020   562.475626   450.105862

                             ****ORCA TERMINATED NORMALLY****
TOTAL RUN TIME: 0 days 0 hours 1 minutes 20 seconds 815 msec
