                         Program Version 5.0.0 -  RELEASE  -
|  1> !wB97X-D3 RIJCOSX def2-TZVP def2/J TightSCF xyzfile
|  2>
|  3> *xyzfile 0 1 D4.xyz
|  4>
|  5> %MaxCore 64000
|  6>
|  7> %pal nprocs 18
|  8> end
|  9>
| 10> %scf
| 11>   MaxIter 150
| 12> end
| 13>
| 14>
| 15>                          ****END OF INPUT****

CARTESIAN COORDINATES (ANGSTROEM)
---------------------------------
  C      2.916324   -1.242589   -1.543125
  C      0.704661    1.443129   -4.503630
  C      1.728539    1.424320   -5.639443
  H      2.646718    1.953794   -5.381054
  H      1.299916    1.930613   -6.503614
  S      2.252625   -0.188115   -6.271840
  C      3.466585   -1.590971   -2.889082
  N      4.652275   -1.143164   -3.259692
  C      2.752264   -2.292043   -3.728029
  H      1.778364   -2.489604   -3.512738
  H      2.948612   -2.208544   -4.716813
  H      5.146723   -0.512508   -2.633852
  H      4.783030   -1.007203   -4.253498
  O      3.562607   -0.444464   -5.631552
  F      2.344944   -0.033742   -7.696501
  C      2.804084    0.290698   -1.359243
  C      1.052550    0.695659   -3.214915
  H     -0.232483    1.032925   -4.884449
  H      0.511700    2.495794   -4.267966
  C      2.388380    1.093669   -2.597108
  H      3.763425    0.674718   -0.999889
  H      2.094788    0.461222   -0.545756
  O      1.266058   -1.159177   -5.805365
  H      3.167316    1.013242   -3.359430
  H      2.357690    2.149375   -2.310997
  H      1.039284   -0.368429   -3.449329
  H      0.250787    0.865605   -2.488283
  H      1.940472   -1.716529   -1.441161
  H      3.558569   -1.663433   -0.766371

 Total Charge           Charge          ....    0
 Multiplicity           Mult            ....    1
 Number of Electrons    NEL             ....  112
 Basis Dimension        Dim             ....  505

ORBITAL ENERGIES
----------------

  NO   OCC          E(Eh)            E(eV)
   0   2.0000     -89.204653     -2427.3820
   1   2.0000     -24.917313      -678.0346
   2   2.0000     -19.244329      -523.6648
   3   2.0000     -19.241005      -523.5744
   4   2.0000     -14.389143      -391.5485
   5   2.0000     -10.340426      -281.3773
   6   2.0000     -10.302412      -280.3429
   7   2.0000     -10.270881      -279.4849
   8   2.0000     -10.269886      -279.4578
   9   2.0000     -10.268901      -279.4310
  10   2.0000     -10.268097      -279.4091
  11   2.0000     -10.260935      -279.2142
  12   2.0000     -10.174379      -276.8589
  13   2.0000      -8.267990      -224.9835
  14   2.0000      -6.225213      -169.3967
  15   2.0000      -6.218869      -169.2240
  16   2.0000      -6.218804      -169.2223
  17   2.0000      -1.513314       -41.1794
  18   2.0000      -1.224002       -33.3068
  19   2.0000      -1.125545       -30.6276
  20   2.0000      -1.023646       -27.8548
  21   2.0000      -0.954346       -25.9691
  22   2.0000      -0.911304       -24.7978
  23   2.0000      -0.873164       -23.7600
  24   2.0000      -0.841639       -22.9021
  25   2.0000      -0.817681       -22.2502
  26   2.0000      -0.783828       -21.3290
  27   2.0000      -0.736798       -20.0493
  28   2.0000      -0.706630       -19.2284
  29   2.0000      -0.701322       -19.0839
  30   2.0000      -0.677551       -18.4371
  31   2.0000      -0.668188       -18.1823
  32   2.0000      -0.638744       -17.3811
  33   2.0000      -0.609009       -16.5720
  34   2.0000      -0.599333       -16.3087
  35   2.0000      -0.595264       -16.1980
  36   2.0000      -0.571671       -15.5560
  37   2.0000      -0.556899       -15.1540
  38   2.0000      -0.548884       -14.9359
  39   2.0000      -0.539359       -14.6767
  40   2.0000      -0.525051       -14.2874
  41   2.0000      -0.505751       -13.7622
  42   2.0000      -0.497038       -13.5251
  43   2.0000      -0.479304       -13.0425
  44   2.0000      -0.474342       -12.9075
  45   2.0000      -0.464938       -12.6516
  46   2.0000      -0.452221       -12.3056
  47   2.0000      -0.443888       -12.0788
  48   2.0000      -0.434294       -11.8177
  49   2.0000      -0.421999       -11.4832
  50   2.0000      -0.416112       -11.3230
  51   2.0000      -0.410747       -11.1770
  52   2.0000      -0.407317       -11.0837
  53   2.0000      -0.396712       -10.7951
  54   2.0000      -0.387717       -10.5503
  55   2.0000      -0.257205        -6.9989
  56   0.0000       0.095245         2.5918
  57   0.0000       0.100144         2.7251
  58   0.0000       0.114645         3.1196
  59   0.0000       0.128704         3.5022
  60   0.0000       0.135300         3.6817

MULLIKEN ATOMIC CHARGES
-----------------------
   0 C :   -0.217185
   1 C :   -0.172301
   2 C :   -0.329351
   3 H :    0.173779
   4 H :    0.159906
   5 S :    0.933046
   6 C :    0.193475
   7 N :   -0.470391
   8 C :   -0.395372
   9 H :    0.088125
  10 H :    0.084859
  11 H :    0.224119
  12 H :    0.253490
  13 O :   -0.490896
  14 F :   -0.094392
  15 C :   -0.273646
  16 C :   -0.243197
  17 H :    0.132706
  18 H :    0.121735
  19 C :   -0.147274
  20 H :    0.116852
  21 H :    0.104230
  22 O :   -0.431732
  23 H :    0.098024
  24 H :    0.098832
  25 H :    0.137088
  26 H :    0.104174
  27 H :    0.122231
  28 H :    0.119065
Sum of atomic charges:   -0.0000000

LOEWDIN ATOMIC CHARGES
----------------------
   0 C :   -0.216199
   1 C :   -0.276900
   2 C :   -0.365655
   3 H :    0.144366
   4 H :    0.137174
   5 S :    0.562671
   6 C :   -0.385847
   7 N :   -0.006190
   8 C :   -0.274547
   9 H :    0.099601
  10 H :    0.094578
  11 H :    0.163369
  12 H :    0.167904
  13 O :   -0.305345
  14 F :    0.109364
  15 C :   -0.260450
  16 C :   -0.265226
  17 H :    0.146267
  18 H :    0.146637
  19 C :   -0.269187
  20 H :    0.132129
  21 H :    0.135759
  22 O :   -0.254040
  23 H :    0.134577
  24 H :    0.133315
  25 H :    0.147495
  26 H :    0.137872
  27 H :    0.146806
  28 H :    0.139702

  Mayer bond orders larger than 0.100000
B(  0-C ,  6-C ) :   0.9548 B(  0-C , 15-C ) :   0.9312 B(  0-C , 27-H ) :   0.9864
B(  0-C , 28-H ) :   0.9850 B(  1-C ,  2-C ) :   0.9606 B(  1-C , 16-C ) :   0.9797
B(  1-C , 17-H ) :   0.9749 B(  1-C , 18-H ) :   0.9594 B(  2-C ,  3-H ) :   0.9445
B(  2-C ,  4-H ) :   0.9492 B(  2-C ,  5-S ) :   0.9129 B(  5-S , 13-O ) :   1.8001
B(  5-S , 14-F ) :   1.1626 B(  5-S , 22-O ) :   1.8873 B(  6-C ,  7-N ) :   1.1319
B(  6-C ,  8-C ) :   1.7307 B(  7-N , 11-H ) :   0.9344 B(  7-N , 12-H ) :   0.9091
B(  8-C ,  9-H ) :   1.0190 B(  8-C , 10-H ) :   1.0207 B( 15-C , 19-C ) :   0.9625
B( 15-C , 20-H ) :   0.9930 B( 15-C , 21-H ) :   0.9736 B( 16-C , 19-C ) :   0.9135
B( 16-C , 25-H ) :   0.9783 B( 16-C , 26-H ) :   0.9683 B( 19-C , 23-H ) :   0.9743
B( 19-C , 24-H ) :   0.9700

Dispersion correction           -0.016333136
FINAL SINGLE POINT ENERGY     -1017.736461156602

DIPOLE MOMENT
-------------
                                X             Y             Z
Electronic contribution:      1.33909      -3.42511     -22.24226
Nuclear contribution   :     -1.74760       5.67788      21.66873
                        -----------------------------------------
Total Dipole Moment    :     -0.40851       2.25276      -0.57354
                        -----------------------------------------
Magnitude (a.u.)       :      2.36025
Magnitude (Debye)      :      5.99928

Rotational constants in cm-1:     0.036818     0.018222     0.014682
Rotational constants in MHz :  1103.783048   546.296792   440.157914

                             ****ORCA TERMINATED NORMALLY****
TOTAL RUN TIME: 0 days 0 hours 1 minutes 20 seconds 776 msec
