                         Program Version 5.0.0 -  RELEASE  -
|  1> !LC-PBE RIJCOSX def2-TZVPD def2/J TightSCF
|  2> *xyz -1 1
|  3> C         -0.10608        1.76991       -4.08984
|  4> C         -0.25875        1.00432       -5.40983
|  5> C          0.39596       -0.37070       -5.33994
|  6> H          0.23915        1.56939       -6.20125
|  7> H         -1.30936        0.88869       -5.68245
|  8> O         -0.32633       -1.39040       -5.49128
|  9> O          1.61941       -0.40073       -5.03683
| 10> H         -0.57627        2.72718       -4.17630
| 11> H          0.93321        1.90140       -3.87192
| 12> H         -0.56868        1.21534       -3.30031
| 13> *
| 14> %MaxCore 64000
| 15>
| 16> %pal nprocs 4
| 17> end
| 18>
| 19> %scf
| 20>   MaxIter 150
| 21> end
| 22>
| 23>
| 24>                          ****END OF INPUT****

CARTESIAN COORDINATES (ANGSTROEM)
---------------------------------
  C     -0.106080    1.769910   -4.089840
  C     -0.258750    1.004320   -5.409830
  C      0.395960   -0.370700   -5.339940
  H      0.239150    1.569390   -6.201250
  H     -1.309360    0.888690   -5.682450
  O     -0.326330   -1.390400   -5.491280
  O      1.619410   -0.400730   -5.036830
  H     -0.576270    2.727180   -4.176300
  H      0.933210    1.901400   -3.871920
  H     -0.568680    1.215340   -3.300310

 Total Charge           Charge          ....   -1
 Multiplicity           Mult            ....    1
 Number of Electrons    NEL             ....   40
 Basis Dimension        Dim             ....  236

ORBITAL ENERGIES
----------------

  NO   OCC          E(Eh)            E(eV)
   0   2.0000     -18.709168      -509.1023
   1   2.0000     -18.707521      -509.0575
   2   2.0000     -10.002373      -272.1784
   3   2.0000      -9.950803      -270.7751
   4   2.0000      -9.942821      -270.5579
   5   2.0000      -0.986503       -26.8441
   6   2.0000      -0.882915       -24.0253
   7   2.0000      -0.784194       -21.3390
   8   2.0000      -0.640537       -17.4299
   9   2.0000      -0.472409       -12.8549
  10   2.0000      -0.439439       -11.9577
  11   2.0000      -0.404617       -11.0102
  12   2.0000      -0.374276       -10.1846
  13   2.0000      -0.353382        -9.6160
  14   2.0000      -0.347167        -9.4469
  15   2.0000      -0.312244        -8.4966
  16   2.0000      -0.298816        -8.1312
  17   2.0000      -0.175841        -4.7849
  18   2.0000      -0.172901        -4.7049
  19   2.0000      -0.161156        -4.3853
  20   0.0000       0.188345         5.1251
  21   0.0000       0.209214         5.6930
  22   0.0000       0.215195         5.8558
  23   0.0000       0.229531         6.2459
  24   0.0000       0.257444         7.0054

MULLIKEN ATOMIC CHARGES
-----------------------
   0 C :   -1.125920
   1 C :   -0.367430
   2 C :    0.368481
   3 H :    0.271373
   4 H :    0.277823
   5 O :   -0.705641
   6 O :   -0.697905
   7 H :    0.327039
   8 H :    0.318363
   9 H :    0.333816
Sum of atomic charges:   -1.0000000

LOEWDIN ATOMIC CHARGES
----------------------
   0 C :   -0.149908
   1 C :   -0.229220
   2 C :   -0.789732
   3 H :    0.104168
   4 H :    0.098707
   5 O :   -0.111261
   6 O :   -0.110943
   7 H :    0.052183
   8 H :    0.064426
   9 H :    0.071579

  Mayer bond orders larger than 0.100000
B(  0-C ,  1-C ) :   0.5521 B(  0-C ,  7-H ) :   0.9153 B(  0-C ,  8-H ) :   0.9846
B(  0-C ,  9-H ) :   0.9366 B(  1-C ,  2-C ) :   0.9467 B(  1-C ,  3-H ) :   0.9490
B(  1-C ,  4-H ) :   0.9697 B(  2-C ,  5-O ) :   1.4689 B(  2-C ,  6-O ) :   1.4706

FINAL SINGLE POINT ENERGY      -267.156886517251

DIPOLE MOMENT
-------------
                                X             Y             Z
Electronic contribution:      1.70328      -5.21747      -1.70321
Nuclear contribution   :     -2.46071       7.20791       1.95694
                        -----------------------------------------
Total Dipole Moment    :     -0.75743       1.99045       0.25373
                        -----------------------------------------
Magnitude (a.u.)       :      2.14475
Magnitude (Debye)      :      5.45153

Rotational constants in cm-1:     0.309435     0.135317     0.107436
Rotational constants in MHz :  9276.637721  4056.700783  3220.846587

                             ****ORCA TERMINATED NORMALLY****
TOTAL RUN TIME: 0 days 0 hours 0 minutes 31 seconds 435 msec
