                         Program Version 5.0.0 -  RELEASE  -
|  1> !LC-PBE RIJCOSX def2-TZVPD def2/J TightSCF
|  2> *xyz 1 1
|  3> C          0.81607       -2.10149       -2.18655
|  4> H          1.69623       -2.36869       -1.60046
|  5> N          1.10055       -2.46749       -3.59927
|  6> C          0.51624       -0.61363       -2.03937
|  7> H         -0.02007       -2.71285       -1.84084
|  8> H          1.70061       -1.75723       -4.07838
|  9> H          0.29386       -2.35977       -4.25632
| 10> H          1.50132       -3.42848       -3.69491
| 11> H         -0.34841       -0.36504       -2.61858
| 12> H          1.35358       -0.04503       -2.38643
| 13> H          0.33317       -0.38682       -1.00984
| 14> *
| 15> %MaxCore 64000
| 16>
| 17> %pal nprocs 4
| 18> end
| 19>
| 20> %scf
| 21>   MaxIter 150
| 22> end
| 23>
| 24>
| 25>                          ****END OF INPUT****

CARTESIAN COORDINATES (ANGSTROEM)
---------------------------------
  C      0.816070   -2.101490   -2.186550
  H      1.696230   -2.368690   -1.600460
  N      1.100550   -2.467490   -3.599270
  C      0.516240   -0.613630   -2.039370
  H     -0.020070   -2.712850   -1.840840
  H      1.700610   -1.757230   -4.078380
  H      0.293860   -2.359770   -4.256320
  H      1.501320   -3.428480   -3.694910
  H     -0.348410   -0.365040   -2.618580
  H      1.353580   -0.045030   -2.386430
  H      0.333170   -0.386820   -1.009840

 Total Charge           Charge          ....    1
 Multiplicity           Mult            ....    1
 Number of Electrons    NEL             ....   26
 Basis Dimension        Dim             ....  183

ORBITAL ENERGIES
----------------

  NO   OCC          E(Eh)            E(eV)
   0   2.0000     -14.552521      -395.9942
   1   2.0000     -10.369778      -282.1760
   2   2.0000     -10.287456      -279.9359
   3   2.0000      -1.384263       -37.6677
   4   2.0000      -1.139926       -31.0190
   5   2.0000      -1.012419       -27.5493
   6   2.0000      -0.936471       -25.4827
   7   2.0000      -0.920528       -25.0488
   8   2.0000      -0.844651       -22.9841
   9   2.0000      -0.778465       -21.1831
  10   2.0000      -0.717700       -19.5296
  11   2.0000      -0.701611       -19.0918
  12   2.0000      -0.680412       -18.5149
  13   0.0000      -0.122498        -3.3333
  14   0.0000      -0.070646        -1.9224
  15   0.0000      -0.062588        -1.7031
  16   0.0000      -0.061290        -1.6678
  17   0.0000      -0.024626        -0.6701

MULLIKEN ATOMIC CHARGES
-----------------------
   0 C :   -0.358975
   1 H :    0.365263
   2 N :   -0.488232
   3 C :   -1.341946
   4 H :    0.370840
   5 H :    0.403145
   6 H :    0.404058
   7 H :    0.401490
   8 H :    0.424078
   9 H :    0.449387
  10 H :    0.370892
Sum of atomic charges:    1.0000000

LOEWDIN ATOMIC CHARGES
----------------------
   0 C :   -0.223715
   1 H :    0.142433
   2 N :    0.151029
   3 C :   -0.081651
   4 H :    0.143945
   5 H :    0.192587
   6 H :    0.196479
   7 H :    0.199049
   8 H :    0.090269
   9 H :    0.089875
  10 H :    0.099700

  Mayer bond orders larger than 0.100000
B(  0-C ,  1-H ) :   0.8998 B(  0-C ,  2-N ) :   0.8250 B(  0-C ,  3-C ) :   0.5607
B(  0-C ,  4-H ) :   0.9035 B(  2-N ,  5-H ) :   0.8321 B(  2-N ,  6-H ) :   0.8335
B(  2-N ,  7-H ) :   0.8379 B(  3-C ,  8-H ) :   0.8661 B(  3-C ,  9-H ) :   0.8348
B(  3-C , 10-H ) :   0.9457

FINAL SINGLE POINT ENERGY      -135.126960025360

DIPOLE MOMENT
-------------
                                X             Y             Z
Electronic contribution:      0.42222      -1.43888      -1.09008
Nuclear contribution   :     -0.07506       0.54337      -0.16191
                        -----------------------------------------
Total Dipole Moment    :      0.34716      -0.89552      -1.25199
                        -----------------------------------------
Magnitude (a.u.)       :      1.57796
Magnitude (Debye)      :      4.01085

Rotational constants in cm-1:     0.999557     0.280801     0.246932
Rotational constants in MHz : 29965.963633  8418.199581  7402.841054

                             ****ORCA TERMINATED NORMALLY****
TOTAL RUN TIME: 0 days 0 hours 0 minutes 18 seconds 663 msec
