                         Program Version 5.0.0 -  RELEASE  -
|  1> !LC-PBE RIJCOSX def2-TZVPD def2/J TightSCF xyzfile
|  2>
|  3> *xyzfile 0 1 B.xyz
|  4>
|  5> %MaxCore 64000
|  6>
|  7> %pal nprocs 4
|  8> end
|  9>
| 10> %scf
| 11>   MaxIter 150
| 12> end
| 13>
| 14>
| 15>                          ****END OF INPUT****

CARTESIAN COORDINATES (ANGSTROEM)
---------------------------------
  C      0.816067   -2.101491   -2.186546
  H      1.696232   -2.368691   -1.600457
  N      1.100552   -2.467492   -3.599269
  C      0.516243   -0.613634   -2.039373
  H     -0.020066   -2.712849   -1.840844
  C     -0.868621   -0.193925   -2.546303
  C     -0.984801    1.284739   -2.928686
  H     -0.764939    1.904116   -2.051568
  H     -2.032613    1.478953   -3.178952
  C     -0.106085    1.769914   -4.089836
  H     -0.347744    2.822196   -4.262942
  H      0.949683    1.745875   -3.808781
  C     -0.258747    1.004323   -5.409829
  C      0.395958   -0.370696   -5.339939
  H      0.239150    1.569393   -6.201253
  H     -1.309360    0.888694   -5.682455
  H      1.700606   -1.757225   -4.078378
  H      0.293855   -2.359766   -4.256324
  H      1.501324   -3.428479   -3.694915
  O     -0.326329   -1.390398   -5.491279
  O      1.619412   -0.400726   -5.036827
  H     -1.607271   -0.412651   -1.768955
  H     -1.157234   -0.796164   -3.409254
  H      1.299044   -0.056805   -2.558982
  H      0.612393   -0.365579   -0.979171

 Total Charge           Charge          ....    0
 Multiplicity           Mult            ....    1
 Number of Electrons    NEL             ....   80
 Basis Dimension        Dim             ....  511

ORBITAL ENERGIES
----------------

  NO   OCC          E(Eh)            E(eV)
   0   2.0000     -18.911493      -514.6079
   1   2.0000     -18.910032      -514.5681
   2   2.0000     -14.301653      -389.1678
   3   2.0000     -10.196216      -277.4531
   4   2.0000     -10.189227      -277.2630
   5   2.0000     -10.129531      -275.6386
   6   2.0000     -10.111547      -275.1492
   7   2.0000     -10.107461      -275.0380
   8   2.0000     -10.101136      -274.8659
   9   2.0000     -10.092138      -274.6210
  10   2.0000      -1.201987       -32.7077
  11   2.0000      -1.152002       -31.3476
  12   2.0000      -1.090637       -29.6777
  13   2.0000      -0.997026       -27.1304
  14   2.0000      -0.949681       -25.8421
  15   2.0000      -0.898862       -24.4593
  16   2.0000      -0.827973       -22.5303
  17   2.0000      -0.791986       -21.5510
  18   2.0000      -0.730688       -19.8830
  19   2.0000      -0.719279       -19.5726
  20   2.0000      -0.692480       -18.8434
  21   2.0000      -0.665870       -18.1193
  22   2.0000      -0.629268       -17.1233
  23   2.0000      -0.618132       -16.8202
  24   2.0000      -0.602282       -16.3889
  25   2.0000      -0.589307       -16.0358
  26   2.0000      -0.569391       -15.4939
  27   2.0000      -0.560072       -15.2403
  28   2.0000      -0.539533       -14.6814
  29   2.0000      -0.529092       -14.3973
  30   2.0000      -0.527280       -14.3480
  31   2.0000      -0.505571       -13.7573
  32   2.0000      -0.483269       -13.1504
  33   2.0000      -0.479219       -13.0402
  34   2.0000      -0.453405       -12.3378
  35   2.0000      -0.436785       -11.8855
  36   2.0000      -0.433917       -11.8075
  37   2.0000      -0.380156       -10.3446
  38   2.0000      -0.369583       -10.0569
  39   2.0000      -0.363364        -9.8876
  40   0.0000       0.042939         1.1684
  41   0.0000       0.070172         1.9095
  42   0.0000       0.076150         2.0722
  43   0.0000       0.077280         2.1029
  44   0.0000       0.094457         2.5703

MULLIKEN ATOMIC CHARGES
-----------------------
   0 C :   -0.730359
   1 H :    0.409787
   2 N :   -0.425434
   3 C :   -0.628331
   4 H :    0.371514
   5 C :   -0.812999
   6 C :   -0.774145
   7 H :    0.326631
   8 H :    0.392534
   9 C :   -0.785430
  10 H :    0.356804
  11 H :    0.344195
  12 C :   -0.508743
  13 C :    0.529276
  14 H :    0.394816
  15 H :    0.308264
  16 H :    0.394362
  17 H :    0.397507
  18 H :    0.341117
  19 O :   -0.796144
  20 O :   -0.794103
  21 H :    0.391238
  22 H :    0.484615
  23 H :    0.358332
  24 H :    0.454694
Sum of atomic charges:    0.0000000

LOEWDIN ATOMIC CHARGES
----------------------
   0 C :   -0.182591
   1 H :    0.128612
   2 N :    0.123383
   3 C :   -0.201475
   4 H :    0.135073
   5 C :   -0.217165
   6 C :   -0.217657
   7 H :    0.119366
   8 H :    0.120491
   9 C :   -0.221318
  10 H :    0.115916
  11 H :    0.112340
  12 C :   -0.127749
  13 C :   -0.679982
  14 H :    0.127114
  15 H :    0.125885
  16 H :    0.099189
  17 H :    0.099247
  18 H :    0.182737
  19 O :   -0.061238
  20 O :   -0.052338
  21 H :    0.122131
  22 H :    0.107003
  23 H :    0.116008
  24 H :    0.127020

  Mayer bond orders larger than 0.100000
B(  0-C ,  1-H ) :   0.8911 B(  0-C ,  2-N ) :   0.8731 B(  0-C ,  3-C ) :   0.8419
B(  0-C ,  4-H ) :   0.9013 B(  2-N , 16-H ) :   0.7283 B(  2-N , 17-H ) :   0.7293
B(  2-N , 18-H ) :   0.8768 B(  3-C ,  5-C ) :   0.3832 B(  3-C , 23-H ) :   0.9530
B(  3-C , 24-H ) :   0.8318 B(  5-C ,  6-C ) :   0.8197 B(  5-C , 21-H ) :   0.9210
B(  5-C , 22-H ) :   0.8763 B(  6-C ,  7-H ) :   0.9699 B(  6-C ,  8-H ) :   0.9230
B(  6-C ,  9-C ) :   0.6893 B(  9-C , 10-H ) :   0.9420 B(  9-C , 11-H ) :   0.9301
B(  9-C , 12-C ) :   0.7322 B( 12-C , 13-C ) :   0.8857 B( 12-C , 14-H ) :   0.8641
B( 12-C , 15-H ) :   1.0360 B( 13-C , 19-O ) :   1.2269 B( 13-C , 20-O ) :   1.2244
B( 16-H , 20-O ) :   0.1619 B( 17-H , 19-O ) :   0.1634 B( 19-O , 20-O ) :   0.1110

FINAL SINGLE POINT ENERGY      -479.681385203170

DIPOLE MOMENT
-------------
                                X             Y             Z
Electronic contribution:      2.27988      -3.08039      -6.22587
Nuclear contribution   :     -2.02598       1.95876       8.24116
                        -----------------------------------------
Total Dipole Moment    :      0.25390      -1.12163       2.01528
                        -----------------------------------------
Magnitude (a.u.)       :      2.32032
Magnitude (Debye)      :      5.89778

Rotational constants in cm-1:     0.052900     0.041948     0.028766
Rotational constants in MHz :  1585.892512  1257.572595   862.390225

                             ****ORCA TERMINATED NORMALLY****
TOTAL RUN TIME: 0 days 0 hours 3 minutes 32 seconds 324 msec
