                         Program Version 5.0.0 -  RELEASE  -
|  1> !LC-PBE RIJCOSX def2-TZVPD def2/J TightSCF
|  2> *xyz 0 1
|  3> C         -0.10608        1.76991       -4.08984
|  4> C         -0.25875        1.00432       -5.40983
|  5> C          0.39596       -0.37070       -5.33994
|  6> H          0.23915        1.56939       -6.20125
|  7> H         -1.30936        0.88869       -5.68245
|  8> F         -0.32633       -1.39040       -5.49128
|  9> O          1.61941       -0.40073       -5.03683
| 10> H         -0.57627        2.72718       -4.17630
| 11> H          0.93321        1.90140       -3.87192
| 12> H         -0.56868        1.21534       -3.30031
| 13> *
| 14> %MaxCore 64000
| 15>
| 16> %pal nprocs 4
| 17> end
| 18>
| 19> %scf
| 20>   MaxIter 150
| 21> end
| 22>
| 23>
| 24>                          ****END OF INPUT****

CARTESIAN COORDINATES (ANGSTROEM)
---------------------------------
  C     -0.106080    1.769910   -4.089840
  C     -0.258750    1.004320   -5.409830
  C      0.395960   -0.370700   -5.339940
  H      0.239150    1.569390   -6.201250
  H     -1.309360    0.888690   -5.682450
  F     -0.326330   -1.390400   -5.491280
  O      1.619410   -0.400730   -5.036830
  H     -0.576270    2.727180   -4.176300
  H      0.933210    1.901400   -3.871920
  H     -0.568680    1.215340   -3.300310

 Total Charge           Charge          ....    0
 Multiplicity           Mult            ....    1
 Number of Electrons    NEL             ....   40
 Basis Dimension        Dim             ....  236

ORBITAL ENERGIES
----------------

  NO   OCC          E(Eh)            E(eV)
   0   2.0000     -24.562574      -668.3816
   1   2.0000     -18.984372      -516.5910
   2   2.0000     -10.303438      -280.3708
   3   2.0000     -10.151178      -276.2276
   4   2.0000     -10.119415      -275.3633
   5   2.0000      -1.477476       -40.2042
   6   2.0000      -1.197855       -32.5953
   7   2.0000      -0.981879       -26.7183
   8   2.0000      -0.855959       -23.2918
   9   2.0000      -0.798534       -21.7292
  10   2.0000      -0.706610       -19.2278
  11   2.0000      -0.690166       -18.7804
  12   2.0000      -0.660992       -17.9865
  13   2.0000      -0.612415       -16.6647
  14   2.0000      -0.578110       -15.7312
  15   2.0000      -0.538792       -14.6613
  16   2.0000      -0.514644       -14.0042
  17   2.0000      -0.508634       -13.8406
  18   2.0000      -0.480632       -13.0787
  19   2.0000      -0.431443       -11.7402
  20   0.0000       0.055845         1.5196
  21   0.0000       0.065392         1.7794
  22   0.0000       0.084284         2.2935
  23   0.0000       0.090362         2.4589
  24   0.0000       0.099558         2.7091

MULLIKEN ATOMIC CHARGES
-----------------------
   0 C :   -1.194326
   1 C :   -0.424794
   2 C :    0.520063
   3 H :    0.310211
   4 H :    0.339388
   5 F :   -0.163323
   6 O :   -0.469908
   7 H :    0.348143
   8 H :    0.361767
   9 H :    0.372780
Sum of atomic charges:    0.0000000

LOEWDIN ATOMIC CHARGES
----------------------
   0 C :   -0.109034
   1 C :   -0.175070
   2 C :   -0.496533
   3 H :    0.130230
   4 H :    0.118615
   5 F :    0.215325
   6 O :    0.074447
   7 H :    0.077504
   8 H :    0.080904
   9 H :    0.083614

  Mayer bond orders larger than 0.100000
B(  0-C ,  1-C ) :   0.6188 B(  0-C ,  7-H ) :   0.9227 B(  0-C ,  8-H ) :   0.9534
B(  0-C ,  9-H ) :   0.8922 B(  1-C ,  2-C ) :   0.9171 B(  1-C ,  3-H ) :   0.9385
B(  1-C ,  4-H ) :   0.9044 B(  2-C ,  5-F ) :   1.0449 B(  2-C ,  6-O ) :   1.7377

FINAL SINGLE POINT ENERGY      -291.695865047038

DIPOLE MOMENT
-------------
                                X             Y             Z
Electronic contribution:      0.80888      -8.14762      -2.57913
Nuclear contribution   :     -1.80992       8.85192       2.42184
                        -----------------------------------------
Total Dipole Moment    :     -1.00105       0.70430      -0.15729
                        -----------------------------------------
Magnitude (a.u.)       :      1.23405
Magnitude (Debye)      :      3.13670

Rotational constants in cm-1:     0.298360     0.128849     0.102271
Rotational constants in MHz :  8944.606599  3862.796179  3066.020510

                             ****ORCA TERMINATED NORMALLY****
TOTAL RUN TIME: 0 days 0 hours 0 minutes 30 seconds 920 msec
