                         Program Version 5.0.0 -  RELEASE  -
|  1> !LC-PBE RIJCOSX def2-TZVPD def2/J TightSCF
|  2> *xyz 0 1
|  3> C          0.81607       -2.10149       -2.18655
|  4> H          1.69623       -2.36869       -1.60046
|  5> C          1.10055       -2.46749       -3.59927
|  6> C          0.51624       -0.61363       -2.03937
|  7> H         -0.02007       -2.71285       -1.84084
|  8> H          1.70061       -1.75723       -4.07838
|  9> H          0.29386       -2.35977       -4.25632
| 10> H          1.50132       -3.42848       -3.69491
| 11> H         -0.34841       -0.36504       -2.61858
| 12> H          1.35358       -0.04503       -2.38643
| 13> H          0.33317       -0.38682       -1.00984
| 14> *
| 15> %MaxCore 64000
| 16>
| 17> %pal nprocs 4
| 18> end
| 19>
| 20> %scf
| 21>   MaxIter 150
| 22> end
| 23>
| 24>
| 25>                          ****END OF INPUT****

CARTESIAN COORDINATES (ANGSTROEM)
---------------------------------
  C      0.816070   -2.101490   -2.186550
  H      1.696230   -2.368690   -1.600460
  C      1.100550   -2.467490   -3.599270
  C      0.516240   -0.613630   -2.039370
  H     -0.020070   -2.712850   -1.840840
  H      1.700610   -1.757230   -4.078380
  H      0.293860   -2.359770   -4.256320
  H      1.501320   -3.428480   -3.694910
  H     -0.348410   -0.365040   -2.618580
  H      1.353580   -0.045030   -2.386430
  H      0.333170   -0.386820   -1.009840

 Total Charge           Charge          ....    0
 Multiplicity           Mult            ....    1
 Number of Electrons    NEL             ....   26
 Basis Dimension        Dim             ....  183

ORBITAL ENERGIES
----------------

  NO   OCC          E(Eh)            E(eV)
   0   2.0000     -10.102432      -274.9012
   1   2.0000     -10.090309      -274.5713
   2   2.0000     -10.077188      -274.2142
   3   2.0000      -0.969967       -26.3941
   4   2.0000      -0.857986       -23.3470
   5   2.0000      -0.749513       -20.3953
   6   2.0000      -0.607726       -16.5371
   7   2.0000      -0.590661       -16.0727
   8   2.0000      -0.551185       -14.9985
   9   2.0000      -0.510468       -13.8905
  10   2.0000      -0.470558       -12.8045
  11   2.0000      -0.466155       -12.6847
  12   2.0000      -0.446422       -12.1478
  13   0.0000       0.074002         2.0137
  14   0.0000       0.091564         2.4916
  15   0.0000       0.093293         2.5386
  16   0.0000       0.127403         3.4668
  17   0.0000       0.147099         4.0028

MULLIKEN ATOMIC CHARGES
-----------------------
   0 C :   -0.274312
   1 H :    0.325077
   2 C :   -1.334587
   3 C :   -1.224441
   4 H :    0.308549
   5 H :    0.393147
   6 H :    0.404430
   7 H :    0.334033
   8 H :    0.358780
   9 H :    0.379671
  10 H :    0.329652
Sum of atomic charges:   -0.0000000

LOEWDIN ATOMIC CHARGES
----------------------
   0 C :   -0.339447
   1 H :    0.110838
   2 C :   -0.164207
   3 C :   -0.141198
   4 H :    0.111998
   5 H :    0.066412
   6 H :    0.068456
   7 H :    0.067620
   8 H :    0.075710
   9 H :    0.074666
  10 H :    0.069153

  Mayer bond orders larger than 0.100000
B(  0-C ,  1-H ) :   0.9299 B(  0-C ,  2-C ) :   0.5418 B(  0-C ,  3-C ) :   0.5843
B(  0-C ,  4-H ) :   0.9282 B(  2-C ,  5-H ) :   0.9070 B(  2-C ,  6-H ) :   0.9203
B(  2-C ,  7-H ) :   0.9653 B(  3-C ,  8-H ) :   0.9313 B(  3-C ,  9-H ) :   0.9166
B(  3-C , 10-H ) :   0.9766

FINAL SINGLE POINT ENERGY      -118.738861956303

DIPOLE MOMENT
-------------
                                X             Y             Z
Electronic contribution:     -0.01890      -0.30529       0.45729
Nuclear contribution   :      0.01737       0.30387      -0.47422
                        -----------------------------------------
Total Dipole Moment    :     -0.00152      -0.00142      -0.01692
                        -----------------------------------------
Magnitude (a.u.)       :      0.01705
Magnitude (Debye)      :      0.04334

Rotational constants in cm-1:     1.006891     0.295208     0.258491
Rotational constants in MHz : 30185.831813  8850.104914  7749.351732

                             ****ORCA TERMINATED NORMALLY****
TOTAL RUN TIME: 0 days 0 hours 0 minutes 17 seconds 166 msec
