                         Program Version 5.0.0 -  RELEASE  -
|  1> !LC-PBE RIJCOSX def2-TZVPD def2/J TightSCF
|  2> *xyz 0 1
|  3> C         -0.10608        1.76991       -4.08984
|  4> C         -0.25875        1.00432       -5.40983
|  5> C          0.39596       -0.37070       -5.33994
|  6> H          0.23915        1.56939       -6.20125
|  7> H         -1.30936        0.88869       -5.68245
|  8> O         -0.32633       -1.39040       -5.49128
|  9> F          1.61941       -0.40073       -5.03683
| 10> H         -0.57627        2.72718       -4.17630
| 11> H          0.93321        1.90140       -3.87192
| 12> H         -0.56868        1.21534       -3.30031
| 13> *
| 14> %MaxCore 64000
| 15>
| 16> %pal nprocs 4
| 17> end
| 18>
| 19> %scf
| 20>   MaxIter 150
| 21> end
| 22>
| 23>
| 24>                          ****END OF INPUT****

CARTESIAN COORDINATES (ANGSTROEM)
---------------------------------
  C     -0.106080    1.769910   -4.089840
  C     -0.258750    1.004320   -5.409830
  C      0.395960   -0.370700   -5.339940
  H      0.239150    1.569390   -6.201250
  H     -1.309360    0.888690   -5.682450
  O     -0.326330   -1.390400   -5.491280
  F      1.619410   -0.400730   -5.036830
  H     -0.576270    2.727180   -4.176300
  H      0.933210    1.901400   -3.871920
  H     -0.568680    1.215340   -3.300310

 Total Charge           Charge          ....    0
 Multiplicity           Mult            ....    1
 Number of Electrons    NEL             ....   40
 Basis Dimension        Dim             ....  236

ORBITAL ENERGIES
----------------

  NO   OCC          E(Eh)            E(eV)
   0   2.0000     -24.561045      -668.3400
   1   2.0000     -18.985303      -516.6163
   2   2.0000     -10.302601      -280.3480
   3   2.0000     -10.151002      -276.2228
   4   2.0000     -10.124769      -275.5090
   5   2.0000      -1.475890       -40.1610
   6   2.0000      -1.197811       -32.5941
   7   2.0000      -0.986926       -26.8556
   8   2.0000      -0.852971       -23.2105
   9   2.0000      -0.802415       -21.8348
  10   2.0000      -0.707906       -19.2631
  11   2.0000      -0.694441       -18.8967
  12   2.0000      -0.652780       -17.7630
  13   2.0000      -0.612795       -16.6750
  14   2.0000      -0.578559       -15.7434
  15   2.0000      -0.543075       -14.7778
  16   2.0000      -0.521905       -14.2018
  17   2.0000      -0.511647       -13.9226
  18   2.0000      -0.486593       -13.2409
  19   2.0000      -0.427625       -11.6363
  20   0.0000       0.056205         1.5294
  21   0.0000       0.068044         1.8516
  22   0.0000       0.082882         2.2553
  23   0.0000       0.089944         2.4475
  24   0.0000       0.099824         2.7164

MULLIKEN ATOMIC CHARGES
-----------------------
   0 C :   -1.207475
   1 C :   -0.407734
   2 C :    0.530860
   3 H :    0.335465
   4 H :    0.298803
   5 O :   -0.480265
   6 F :   -0.160899
   7 H :    0.341731
   8 H :    0.369187
   9 H :    0.380326
Sum of atomic charges:   -0.0000000

LOEWDIN ATOMIC CHARGES
----------------------
   0 C :   -0.111221
   1 C :   -0.170776
   2 C :   -0.502731
   3 H :    0.126826
   4 H :    0.127313
   5 O :    0.076939
   6 F :    0.212514
   7 H :    0.078178
   8 H :    0.077763
   9 H :    0.085194

  Mayer bond orders larger than 0.100000
B(  0-C ,  1-C ) :   0.5685 B(  0-C ,  7-H ) :   0.9380 B(  0-C ,  8-H ) :   0.9173
B(  0-C ,  9-H ) :   0.9139 B(  1-C ,  2-C ) :   0.9196 B(  1-C ,  3-H ) :   0.9185
B(  1-C ,  4-H ) :   0.9495 B(  2-C ,  5-O ) :   1.7345 B(  2-C ,  6-F ) :   1.0235

FINAL SINGLE POINT ENERGY      -291.697339148610

DIPOLE MOMENT
-------------
                                X             Y             Z
Electronic contribution:      4.07310      -6.45395      -1.80825
Nuclear contribution   :     -3.93139       7.77287       1.92635
                        -----------------------------------------
Total Dipole Moment    :      0.14171       1.31892       0.11810
                        -----------------------------------------
Magnitude (a.u.)       :      1.33176
Magnitude (Debye)      :      3.38506

Rotational constants in cm-1:     0.286068     0.133630     0.103472
Rotational constants in MHz :  8576.109806  4006.118234  3102.010802

                             ****ORCA TERMINATED NORMALLY****
TOTAL RUN TIME: 0 days 0 hours 0 minutes 31 seconds 431 msec
