                         Program Version 5.0.0 -  RELEASE  -
|  1> !LC-PBE RIJCOSX def2-TZVPD def2/J TightSCF xyzfile
|  2>
|  3> *xyzfile 0 1 D1.xyz
|  4>
|  5> %MaxCore 64000
|  6>
|  7> %pal nprocs 4
|  8> end
|  9>
| 10> %scf
| 11>   MaxIter 150
| 12> end
| 13>
| 14>
| 15>                          ****END OF INPUT****

CARTESIAN COORDINATES (ANGSTROEM)
---------------------------------
  C      0.816067   -2.101491   -2.186546
  H      1.696232   -2.368691   -1.600457
  C      1.100552   -2.467492   -3.599269
  C      0.516243   -0.613634   -2.039373
  H     -0.020066   -2.712849   -1.840844
  C     -0.868621   -0.193925   -2.546303
  C     -0.984801    1.284739   -2.928686
  H     -0.764939    1.904116   -2.051568
  H     -2.032613    1.478953   -3.178952
  C     -0.106085    1.769914   -4.089836
  H     -0.347744    2.822196   -4.262942
  H      0.949683    1.745875   -3.808781
  C     -0.258747    1.004323   -5.409829
  C      0.395958   -0.370696   -5.339939
  H      0.239150    1.569393   -6.201253
  H     -1.309360    0.888694   -5.682455
  H      1.700606   -1.757225   -4.078378
  H      0.293855   -2.359766   -4.256324
  H      1.501324   -3.428479   -3.694915
  F     -0.326329   -1.390398   -5.491279
  O      1.619412   -0.400726   -5.036827
  H     -1.607271   -0.412651   -1.768955
  H     -1.157234   -0.796164   -3.409254
  H      1.299044   -0.056805   -2.558982
  H      0.612393   -0.365579   -0.979171

 Total Charge           Charge          ....    0
 Multiplicity           Mult            ....    1
 Number of Electrons    NEL             ....   80
 Basis Dimension        Dim             ....  511

ORBITAL ENERGIES
----------------

  NO   OCC          E(Eh)            E(eV)
   0   2.0000     -24.570453      -668.5960
   1   2.0000     -18.991321      -516.7801
   2   2.0000     -10.311943      -280.6022
   3   2.0000     -10.151986      -276.2496
   4   2.0000     -10.130755      -275.6719
   5   2.0000     -10.118458      -275.3373
   6   2.0000     -10.110602      -275.1235
   7   2.0000     -10.096379      -274.7364
   8   2.0000     -10.086743      -274.4742
   9   2.0000     -10.035344      -273.0756
  10   2.0000      -1.491091       -40.5747
  11   2.0000      -1.213076       -33.0095
  12   2.0000      -1.009627       -27.4734
  13   2.0000      -0.974578       -26.5196
  14   2.0000      -0.920924       -25.0596
  15   2.0000      -0.877825       -23.8868
  16   2.0000      -0.827980       -22.5305
  17   2.0000      -0.803286       -21.8585
  18   2.0000      -0.762553       -20.7501
  19   2.0000      -0.718310       -19.5462
  20   2.0000      -0.713579       -19.4175
  21   2.0000      -0.696841       -18.9620
  22   2.0000      -0.679424       -18.4881
  23   2.0000      -0.627354       -17.0712
  24   2.0000      -0.605106       -16.4658
  25   2.0000      -0.588807       -16.0222
  26   2.0000      -0.582692       -15.8559
  27   2.0000      -0.567244       -15.4355
  28   2.0000      -0.553062       -15.0496
  29   2.0000      -0.538717       -14.6592
  30   2.0000      -0.520170       -14.1545
  31   2.0000      -0.501547       -13.6478
  32   2.0000      -0.497806       -13.5460
  33   2.0000      -0.481078       -13.0908
  34   2.0000      -0.465743       -12.6735
  35   2.0000      -0.455493       -12.3946
  36   2.0000      -0.445474       -12.1220
  37   2.0000      -0.432131       -11.7589
  38   2.0000      -0.422500       -11.4968
  39   2.0000      -0.391805       -10.6616
  40   0.0000       0.048894         1.3305
  41   0.0000       0.061383         1.6703
  42   0.0000       0.075818         2.0631
  43   0.0000       0.076730         2.0879
  44   0.0000       0.082115         2.2345

MULLIKEN ATOMIC CHARGES
-----------------------
   0 C :   -0.309405
   1 H :    0.364038
   2 C :   -2.077736
   3 C :   -0.704171
   4 H :    0.303401
   5 C :   -0.713391
   6 C :   -0.786192
   7 H :    0.337473
   8 H :    0.383415
   9 C :   -0.786370
  10 H :    0.362942
  11 H :    0.381199
  12 C :   -0.483053
  13 C :    0.425775
  14 H :    0.397819
  15 H :    0.347221
  16 H :    0.765396
  17 H :    0.632322
  18 H :    0.425255
  19 F :   -0.231428
  20 O :   -0.536213
  21 H :    0.403849
  22 H :    0.365073
  23 H :    0.325541
  24 H :    0.407240
Sum of atomic charges:   -0.0000000

LOEWDIN ATOMIC CHARGES
----------------------
   0 C :   -0.259767
   1 H :    0.116161
   2 C :   -0.147380
   3 C :   -0.224246
   4 H :    0.119058
   5 C :   -0.216419
   6 C :   -0.219196
   7 H :    0.123786
   8 H :    0.118700
   9 C :   -0.211869
  10 H :    0.121379
  11 H :    0.118240
  12 C :   -0.103223
  13 C :   -0.470847
  14 H :    0.136434
  15 H :    0.131123
  16 H :    0.028304
  17 H :    0.043263
  18 H :    0.081132
  19 F :    0.186042
  20 O :    0.064986
  21 H :    0.125303
  22 H :    0.107928
  23 H :    0.111260
  24 H :    0.119850

  Mayer bond orders larger than 0.100000
B(  0-C ,  1-H ) :   0.9118 B(  0-C ,  2-C ) :   0.1845 B(  0-C ,  3-C ) :   0.8439
B(  0-C ,  4-H ) :   0.9392 B(  2-C , 13-C ) :   0.1502 B(  2-C , 16-H ) :   0.5532
B(  2-C , 17-H ) :   0.6503 B(  2-C , 18-H ) :   0.8834 B(  2-C , 19-F ) :   0.1111
B(  2-C , 20-O ) :   0.1690 B(  3-C ,  5-C ) :   0.4334 B(  3-C , 23-H ) :   1.0089
B(  3-C , 24-H ) :   0.8372 B(  5-C ,  6-C ) :   0.7915 B(  5-C , 21-H ) :   0.8985
B(  5-C , 22-H ) :   0.9232 B(  6-C ,  7-H ) :   0.9635 B(  6-C ,  8-H ) :   0.9414
B(  6-C ,  9-C ) :   0.7250 B(  9-C , 10-H ) :   0.9452 B(  9-C , 11-H ) :   0.9000
B(  9-C , 12-C ) :   0.7099 B( 12-C , 13-C ) :   0.8229 B( 12-C , 14-H ) :   0.8753
B( 12-C , 15-H ) :   0.9826 B( 13-C , 19-F ) :   0.8916 B( 13-C , 20-O ) :   1.6887
B( 16-H , 20-O ) :  -0.2406 B( 17-H , 19-F ) :  -0.1283

FINAL SINGLE POINT ENERGY      -487.581840787655

DIPOLE MOMENT
-------------
                                X             Y             Z
Electronic contribution:      0.30731      -1.94840     -10.58202
Nuclear contribution   :     -1.21560       2.80077      10.24180
                        -----------------------------------------
Total Dipole Moment    :     -0.90829       0.85237      -0.34022
                        -----------------------------------------
Magnitude (a.u.)       :      1.29123
Magnitude (Debye)      :      3.28206

Rotational constants in cm-1:     0.051255     0.042531     0.028894
Rotational constants in MHz :  1536.587743  1275.050721   866.218876

                             ****ORCA TERMINATED NORMALLY****
TOTAL RUN TIME: 0 days 0 hours 3 minutes 52 seconds 607 msec
