                         Program Version 5.0.0 -  RELEASE  -
|  1> !LC-PBE RIJCOSX def2-TZVPD def2/J TightSCF xyzfile
|  2>
|  3> *xyzfile 0 1 D2.xyz
|  4>
|  5> %MaxCore 64000
|  6>
|  7> %pal nprocs 4
|  8> end
|  9>
| 10> %scf
| 11>   MaxIter 150
| 12> end
| 13>
| 14>
| 15>                          ****END OF INPUT****

CARTESIAN COORDINATES (ANGSTROEM)
---------------------------------
  C      0.816067   -2.101491   -2.186546
  H      1.696232   -2.368691   -1.600457
  C      1.100552   -2.467492   -3.599269
  C      0.516243   -0.613634   -2.039373
  H     -0.020066   -2.712849   -1.840844
  C     -0.868621   -0.193925   -2.546303
  C     -0.984801    1.284739   -2.928686
  H     -0.764939    1.904116   -2.051568
  H     -2.032613    1.478953   -3.178952
  C     -0.106085    1.769914   -4.089836
  H     -0.347744    2.822196   -4.262942
  H      0.949683    1.745875   -3.808781
  C     -0.258747    1.004323   -5.409829
  C      0.395958   -0.370696   -5.339939
  H      0.239150    1.569393   -6.201253
  H     -1.309360    0.888694   -5.682455
  H      1.700606   -1.757225   -4.078378
  H      0.293855   -2.359766   -4.256324
  H      1.501324   -3.428479   -3.694915
  O     -0.326329   -1.390398   -5.491279
  F      1.619412   -0.400726   -5.036827
  H     -1.607271   -0.412651   -1.768955
  H     -1.157234   -0.796164   -3.409254
  H      1.299044   -0.056805   -2.558982
  H      0.612393   -0.365579   -0.979171

 Total Charge           Charge          ....    0
 Multiplicity           Mult            ....    1
 Number of Electrons    NEL             ....   80
 Basis Dimension        Dim             ....  511

ORBITAL ENERGIES
----------------

  NO   OCC          E(Eh)            E(eV)
   0   2.0000     -24.570316      -668.5923
   1   2.0000     -18.991133      -516.7750
   2   2.0000     -10.311339      -280.5858
   3   2.0000     -10.151859      -276.2461
   4   2.0000     -10.135122      -275.7907
   5   2.0000     -10.118555      -275.3399
   6   2.0000     -10.105153      -274.9752
   7   2.0000     -10.100547      -274.8499
   8   2.0000     -10.087843      -274.5042
   9   2.0000     -10.036523      -273.1077
  10   2.0000      -1.490592       -40.5611
  11   2.0000      -1.212706       -32.9994
  12   2.0000      -1.012317       -27.5465
  13   2.0000      -0.976471       -26.5711
  14   2.0000      -0.921786       -25.0831
  15   2.0000      -0.877145       -23.8683
  16   2.0000      -0.826230       -22.4829
  17   2.0000      -0.804425       -21.8895
  18   2.0000      -0.764117       -20.7927
  19   2.0000      -0.721641       -19.6369
  20   2.0000      -0.718188       -19.5429
  21   2.0000      -0.701933       -19.1006
  22   2.0000      -0.663388       -18.0517
  23   2.0000      -0.628522       -17.1030
  24   2.0000      -0.603832       -16.4311
  25   2.0000      -0.589985       -16.0543
  26   2.0000      -0.585024       -15.9193
  27   2.0000      -0.572128       -15.5684
  28   2.0000      -0.557407       -15.1678
  29   2.0000      -0.529980       -14.4215
  30   2.0000      -0.522105       -14.2072
  31   2.0000      -0.513243       -13.9660
  32   2.0000      -0.501447       -13.6451
  33   2.0000      -0.480808       -13.0835
  34   2.0000      -0.460905       -12.5419
  35   2.0000      -0.460188       -12.5223
  36   2.0000      -0.443504       -12.0684
  37   2.0000      -0.427938       -11.6448
  38   2.0000      -0.426988       -11.6189
  39   2.0000      -0.392429       -10.6785
  40   0.0000       0.049665         1.3514
  41   0.0000       0.062788         1.7085
  42   0.0000       0.074032         2.0145
  43   0.0000       0.075855         2.0641
  44   0.0000       0.082303         2.2396

MULLIKEN ATOMIC CHARGES
-----------------------
   0 C :   -0.309137
   1 H :    0.359101
   2 C :   -2.028385
   3 C :   -0.679761
   4 H :    0.309070
   5 C :   -0.774830
   6 C :   -0.739416
   7 H :    0.340813
   8 H :    0.388469
   9 C :   -0.809987
  10 H :    0.354961
  11 H :    0.385486
  12 C :   -0.463062
  13 C :    0.450319
  14 H :    0.412858
  15 H :    0.307551
  16 H :    0.637957
  17 H :    0.710896
  18 H :    0.421196
  19 O :   -0.558898
  20 F :   -0.229540
  21 H :    0.402210
  22 H :    0.420769
  23 H :    0.287709
  24 H :    0.403652
Sum of atomic charges:   -0.0000000

LOEWDIN ATOMIC CHARGES
----------------------
   0 C :   -0.260098
   1 H :    0.114196
   2 C :   -0.144461
   3 C :   -0.224773
   4 H :    0.121689
   5 C :   -0.216215
   6 C :   -0.218298
   7 H :    0.122653
   8 H :    0.120496
   9 C :   -0.216069
  10 H :    0.120835
  11 H :    0.115136
  12 C :   -0.097938
  13 C :   -0.476171
  14 H :    0.133640
  15 H :    0.139025
  16 H :    0.046775
  17 H :    0.026449
  18 H :    0.082065
  19 O :    0.057838
  20 F :    0.190534
  21 H :    0.125310
  22 H :    0.108869
  23 H :    0.108757
  24 H :    0.119755

  Mayer bond orders larger than 0.100000
B(  0-C ,  1-H ) :   0.9231 B(  0-C ,  2-C ) :   0.1973 B(  0-C ,  3-C ) :   0.8535
B(  0-C ,  4-H ) :   0.9275 B(  2-C , 13-C ) :   0.1412 B(  2-C , 16-H ) :   0.6208
B(  2-C , 17-H ) :   0.6397 B(  2-C , 18-H ) :   0.8802 B(  2-C , 19-O ) :   0.1427
B(  2-C , 20-F ) :   0.1137 B(  3-C ,  5-C ) :   0.4265 B(  3-C , 23-H ) :   1.0226
B(  3-C , 24-H ) :   0.8414 B(  5-C ,  6-C ) :   0.7975 B(  5-C , 21-H ) :   0.9037
B(  5-C , 22-H ) :   0.9160 B(  6-C ,  7-H ) :   0.9709 B(  6-C ,  8-H ) :   0.9356
B(  6-C ,  9-C ) :   0.7377 B(  9-C , 10-H ) :   0.9601 B(  9-C , 11-H ) :   0.8898
B(  9-C , 12-C ) :   0.6597 B( 12-C , 13-C ) :   0.8325 B( 12-C , 14-H ) :   0.8842
B( 12-C , 15-H ) :   1.0090 B( 13-C , 19-O ) :   1.6431 B( 13-C , 20-F ) :   0.8769
B( 16-H , 20-F ) :  -0.1298 B( 17-H , 19-O ) :  -0.1917

FINAL SINGLE POINT ENERGY      -487.581962848413

DIPOLE MOMENT
-------------
                                X             Y             Z
Electronic contribution:      3.59046      -0.26841      -9.80543
Nuclear contribution   :     -3.57245       1.60200       9.69133
                        -----------------------------------------
Total Dipole Moment    :      0.01801       1.33358      -0.11410
                        -----------------------------------------
Magnitude (a.u.)       :      1.33858
Magnitude (Debye)      :      3.40239

Rotational constants in cm-1:     0.051520     0.042563     0.028962
Rotational constants in MHz :  1544.537298  1275.996546   868.258224

                             ****ORCA TERMINATED NORMALLY****
TOTAL RUN TIME: 0 days 0 hours 4 minutes 5 seconds 989 msec
