                         Program Version 5.0.0 -  RELEASE  -
|  1> !LC-BLYP RIJCOSX def2-SVPD def2/J TightSCF
|  2> *xyz -1 1
|  3> C          3.76678       -2.26611       -6.51175
|  4> C          2.49670       -1.84416       -5.73570
|  5> H          1.62642       -2.21743       -6.30895
|  6> H          2.48182       -2.45607       -4.79341
|  7> O          2.45973       -0.50920       -5.50576
|  8> H          3.82914       -1.70941       -7.42340
|  9> H          3.71764       -3.31144       -6.73483
| 10> H          4.63199       -2.06931       -5.91377
| 11> *
| 12>
| 13> %MaxCore 64000
| 14>
| 15> %pal nprocs 4
| 16> end
| 17>
| 18> %scf
| 19>   MaxIter 150
| 20> end
| 21>
| 22>
| 23>                          ****END OF INPUT****

CARTESIAN COORDINATES (ANGSTROEM)
---------------------------------
  C      3.766780   -2.266110   -6.511750
  C      2.496700   -1.844160   -5.735700
  H      1.626420   -2.217430   -6.308950
  H      2.481820   -2.456070   -4.793410
  O      2.459730   -0.509200   -5.505760
  H      3.829140   -1.709410   -7.423400
  H      3.717640   -3.311440   -6.734830
  H      4.631990   -2.069310   -5.913770

 Total Charge           Charge          ....   -1
 Multiplicity           Mult            ....    1
 Number of Electrons    NEL             ....   26
 Basis Dimension        Dim             ....  103

ORBITAL ENERGIES
----------------

  NO   OCC          E(Eh)            E(eV)
   0   2.0000     -18.623251      -506.7644
   1   2.0000      -9.901716      -269.4394
   2   2.0000      -9.876653      -268.7574
   3   2.0000      -0.772240       -21.0137
   4   2.0000      -0.626066       -17.0361
   5   2.0000      -0.473665       -12.8891
   6   2.0000      -0.356421        -9.6987
   7   2.0000      -0.330625        -8.9968
   8   2.0000      -0.276457        -7.5228
   9   2.0000      -0.256875        -6.9899
  10   2.0000      -0.214704        -5.8424
  11   2.0000      -0.066430        -1.8076
  12   2.0000      -0.064609        -1.7581
  13   0.0000       0.230244         6.2652
  14   0.0000       0.261310         7.1106
  15   0.0000       0.299998         8.1634
  16   0.0000       0.312547         8.5048
  17   0.0000       0.328597         8.9416

MULLIKEN ATOMIC CHARGES
-----------------------
   0 C :    0.526482
   1 C :    0.123107
   2 H :   -0.222433
   3 H :   -0.173833
   4 O :   -0.787429
   5 H :   -0.165767
   6 H :   -0.136987
   7 H :   -0.163139
Sum of atomic charges:   -1.0000000

LOEWDIN ATOMIC CHARGES
----------------------
   0 C :    0.052511
   1 C :   -0.292842
   2 H :   -0.030676
   3 H :   -0.022739
   4 O :   -0.568625
   5 H :   -0.039920
   6 H :   -0.056875
   7 H :   -0.040833

  Mayer bond orders larger than 0.100000
B(  0-C ,  1-C ) :   1.1536 B(  0-C ,  2-H ) :   0.1357 B(  0-C ,  3-H ) :   0.1313
B(  0-C ,  4-O ) :   0.1138 B(  0-C ,  5-H ) :   0.8711 B(  0-C ,  6-H ) :   0.8608
B(  0-C ,  7-H ) :   0.8620 B(  1-C ,  2-H ) :   0.9591 B(  1-C ,  3-H ) :   0.9714
B(  1-C ,  4-O ) :   1.2796 B(  1-C ,  5-H ) :   0.1956 B(  1-C ,  6-H ) :   0.1477
B(  1-C ,  7-H ) :   0.1910

FINAL SINGLE POINT ENERGY      -153.941431592423

DIPOLE MOMENT
-------------
                                X             Y             Z
Electronic contribution:     -1.04277       2.36896       0.91545
Nuclear contribution   :      1.63615      -3.79938      -1.48621
                        -----------------------------------------
Total Dipole Moment    :      0.59339      -1.43042      -0.57076
                        -----------------------------------------
Magnitude (a.u.)       :      1.65045
Magnitude (Debye)      :      4.19511

Rotational constants in cm-1:     1.265582     0.329289     0.289024
Rotational constants in MHz : 37941.194363  9871.829581  8664.719106

                             ****ORCA TERMINATED NORMALLY****
TOTAL RUN TIME: 0 days 0 hours 0 minutes 11 seconds 519 msec
