                         Program Version 5.0.0 -  RELEASE  -
|  1> !LC-BLYP RIJCOSX def2-SVPD def2/J TightSCF
|  2> *xyz 1 1
|  3> C          4.99986       -1.59613       -5.92488
|  4> N          5.28156       -1.97413       -4.53576
|  5> C          3.76678       -2.26611       -6.51175
|  6> C          4.79250       -1.36132       -3.45730
|  7> N          3.93990       -0.37492       -3.55736
|  8> N          5.25986       -1.75422       -2.23913
|  9> H          5.92282       -2.52145       -2.18672
| 10> H          4.65468       -1.64040       -1.44202
| 11> H          5.70914       -2.87560       -4.38702
| 12> H          3.33010       -0.31764       -4.36125
| 13> H          3.69849        0.11447       -2.70833
| 14> H          4.84333       -0.51793       -5.94302
| 15> H          5.90170       -1.82250       -6.49647
| 16> H          3.63046       -1.94025       -7.52177
| 17> H          2.90710       -2.00116       -5.93240
| 18> H          3.89538       -3.32820       -6.49392
| 19> *
| 20>
| 21> %MaxCore 64000
| 22>
| 23> %pal nprocs 4
| 24> end
| 25>
| 26> %scf
| 27>   MaxIter 150
| 28> end
| 29>
| 30>
| 31>                          ****END OF INPUT****

CARTESIAN COORDINATES (ANGSTROEM)
---------------------------------
  C      4.999860   -1.596130   -5.924880
  N      5.281560   -1.974130   -4.535760
  C      3.766780   -2.266110   -6.511750
  C      4.792500   -1.361320   -3.457300
  N      3.939900   -0.374920   -3.557360
  N      5.259860   -1.754220   -2.239130
  H      5.922820   -2.521450   -2.186720
  H      4.654680   -1.640400   -1.442020
  H      5.709140   -2.875600   -4.387020
  H      3.330100   -0.317640   -4.361250
  H      3.698490    0.114470   -2.708330
  H      4.843330   -0.517930   -5.943020
  H      5.901700   -1.822500   -6.496470
  H      3.630460   -1.940250   -7.521770
  H      2.907100   -2.001160   -5.932400
  H      3.895380   -3.328200   -6.493920

 Total Charge           Charge          ....    1
 Multiplicity           Mult            ....    1
 Number of Electrons    NEL             ....   48
 Basis Dimension        Dim             ....  200

ORBITAL ENERGIES
----------------

  NO   OCC          E(Eh)            E(eV)
   0   2.0000     -14.418204      -392.3393
   1   2.0000     -14.413437      -392.2096
   2   2.0000     -14.408143      -392.0655
   3   2.0000     -10.425572      -283.6942
   4   2.0000     -10.291232      -280.0387
   5   2.0000     -10.225766      -278.2572
   6   2.0000      -1.311312       -35.6826
   7   2.0000      -1.201317       -32.6895
   8   2.0000      -1.186020       -32.2733
   9   2.0000      -1.036065       -28.1928
  10   2.0000      -0.944785       -25.7089
  11   2.0000      -0.909542       -24.7499
  12   2.0000      -0.897361       -24.4184
  13   2.0000      -0.845344       -23.0030
  14   2.0000      -0.800154       -21.7733
  15   2.0000      -0.796286       -21.6680
  16   2.0000      -0.747223       -20.3330
  17   2.0000      -0.741313       -20.1721
  18   2.0000      -0.711540       -19.3620
  19   2.0000      -0.666520       -18.1369
  20   2.0000      -0.634140       -17.2558
  21   2.0000      -0.613975       -16.7071
  22   2.0000      -0.581544       -15.8246
  23   2.0000      -0.550355       -14.9759
  24   0.0000      -0.103422        -2.8142
  25   0.0000      -0.089736        -2.4418
  26   0.0000      -0.060582        -1.6485
  27   0.0000      -0.051767        -1.4087
  28   0.0000      -0.027206        -0.7403

MULLIKEN ATOMIC CHARGES
-----------------------
   0 C :    0.419561
   1 N :   -0.215117
   2 C :    0.962601
   3 C :    0.833076
   4 N :    0.295482
   5 N :    0.141723
   6 H :   -0.066644
   7 H :   -0.047507
   8 H :   -0.272699
   9 H :   -0.097263
  10 H :   -0.116088
  11 H :   -0.130762
  12 H :   -0.361679
  13 H :   -0.026576
  14 H :   -0.202771
  15 H :   -0.115336
Sum of atomic charges:    1.0000000

LOEWDIN ATOMIC CHARGES
----------------------
   0 C :    0.022622
   1 N :    0.060689
   2 C :    0.146864
   3 C :   -0.062666
   4 N :    0.295224
   5 N :    0.271894
   6 H :    0.033906
   7 H :    0.028225
   8 H :    0.057487
   9 H :    0.027772
  10 H :    0.046584
  11 H :    0.030558
  12 H :    0.047065
  13 H :    0.010698
  14 H :   -0.017108
  15 H :    0.000187

  Mayer bond orders larger than 0.100000
B(  0-C ,  1-N ) :   1.0078 B(  0-C ,  2-C ) :   1.2310 B(  0-C ,  8-H ) :  -0.2162
B(  0-C , 11-H ) :   0.8133 B(  0-C , 12-H ) :   0.8625 B(  0-C , 13-H ) :   0.1941
B(  0-C , 14-H ) :   0.2329 B(  0-C , 15-H ) :   0.2635 B(  1-N ,  3-C ) :   1.1386
B(  1-N ,  4-N ) :   0.2251 B(  1-N ,  5-N ) :   0.1886 B(  1-N ,  8-H ) :   1.2887
B(  1-N , 11-H ) :   0.1614 B(  1-N , 12-H ) :   0.1611 B(  2-C , 13-H ) :   0.7368
B(  2-C , 14-H ) :   0.7418 B(  2-C , 15-H ) :   0.7331 B(  3-C ,  4-N ) :   1.1736
B(  3-C ,  5-N ) :   0.9406 B(  3-C ,  6-H ) :  -0.1095 B(  3-C ,  8-H ) :  -0.2326
B(  3-C ,  9-H ) :  -0.1244 B(  3-C , 10-H ) :  -0.1065 B(  4-N ,  5-N ) :   0.1469
B(  4-N ,  9-H ) :   1.1407 B(  4-N , 10-H ) :   1.1845 B(  5-N ,  6-H ) :   1.0913
B(  5-N ,  7-H ) :   1.1391 B(  6-H ,  7-H ) :  -0.1404 B(  9-H , 10-H ) :  -0.1834
B( 11-H , 12-H ) :  -0.1073 B( 13-H , 14-H ) :   0.1020

FINAL SINGLE POINT ENERGY      -283.480214156354

DIPOLE MOMENT
-------------
                                X             Y             Z
Electronic contribution:      1.74775       1.09141       4.73089
Nuclear contribution   :     -1.95709      -1.20097      -3.70214
                        -----------------------------------------
Total Dipole Moment    :     -0.20934      -0.10956       1.02875
                        -----------------------------------------
Magnitude (a.u.)       :      1.05553
Magnitude (Debye)      :      2.68295

Rotational constants in cm-1:     0.241661     0.071598     0.061743
Rotational constants in MHz :  7244.800091  2146.442409  1851.001864

                             ****ORCA TERMINATED NORMALLY****
TOTAL RUN TIME: 0 days 0 hours 0 minutes 32 seconds 354 msec
