                         Program Version 5.0.0 -  RELEASE  -
|  1> !LC-BLYP RIJCOSX def2-SVPD def2/J TightSCF
|  2> *xyz 0 1
|  3> C          3.76678       -2.26611       -6.51175
|  4> C          2.49670       -1.84416       -5.73570
|  5> H          1.62642       -2.21743       -6.30895
|  6> H          2.48182       -2.45607       -4.79341
|  7> F          2.45973       -0.50920       -5.50576
|  8> H          3.82914       -1.70941       -7.42340
|  9> H          3.71764       -3.31144       -6.73483
| 10> H          4.63199       -2.06931       -5.91377
| 11> *
| 12>
| 13> %MaxCore 64000
| 14>
| 15> %pal nprocs 4
| 16> end
| 17>
| 18> %scf
| 19>   MaxIter 150
| 20> end
| 21>
| 22>
| 23>                          ****END OF INPUT****

CARTESIAN COORDINATES (ANGSTROEM)
---------------------------------
  C      3.766780   -2.266110   -6.511750
  C      2.496700   -1.844160   -5.735700
  H      1.626420   -2.217430   -6.308950
  H      2.481820   -2.456070   -4.793410
  F      2.459730   -0.509200   -5.505760
  H      3.829140   -1.709410   -7.423400
  H      3.717640   -3.311440   -6.734830
  H      4.631990   -2.069310   -5.913770

 Total Charge           Charge          ....    0
 Multiplicity           Mult            ....    1
 Number of Electrons    NEL             ....   26
 Basis Dimension        Dim             ....  103

ORBITAL ENERGIES
----------------

  NO   OCC          E(Eh)            E(eV)
   0   2.0000     -24.467032      -665.7818
   1   2.0000     -10.167714      -276.6776
   2   2.0000     -10.082432      -274.3569
   3   2.0000      -1.273004       -34.6402
   4   2.0000      -0.866598       -23.5813
   5   2.0000      -0.735524       -20.0146
   6   2.0000      -0.620270       -16.8784
   7   2.0000      -0.606305       -16.4984
   8   2.0000      -0.567662       -15.4469
   9   2.0000      -0.508520       -13.8375
  10   2.0000      -0.502894       -13.6844
  11   2.0000      -0.435905       -11.8616
  12   2.0000      -0.428859       -11.6698
  13   0.0000       0.074102         2.0164
  14   0.0000       0.104477         2.8430
  15   0.0000       0.134658         3.6642
  16   0.0000       0.139509         3.7962
  17   0.0000       0.169429         4.6104

MULLIKEN ATOMIC CHARGES
-----------------------
   0 C :    0.588474
   1 C :    0.437057
   2 H :   -0.144124
   3 H :   -0.100717
   4 F :   -0.362884
   5 H :   -0.150888
   6 H :   -0.123525
   7 H :   -0.143393
Sum of atomic charges:   -0.0000000

LOEWDIN ATOMIC CHARGES
----------------------
   0 C :    0.126185
   1 C :    0.027072
   2 H :    0.032423
   3 H :    0.042227
   4 F :   -0.192629
   5 H :   -0.011689
   6 H :   -0.011083
   7 H :   -0.012507

  Mayer bond orders larger than 0.100000
B(  0-C ,  1-C ) :   1.3101 B(  0-C ,  5-H ) :   0.8511 B(  0-C ,  6-H ) :   0.8199
B(  0-C ,  7-H ) :   0.8481 B(  1-C ,  2-H ) :   0.9197 B(  1-C ,  3-H ) :   0.9261
B(  1-C ,  4-F ) :   0.8730 B(  1-C ,  5-H ) :   0.1613 B(  1-C ,  6-H ) :   0.1370
B(  1-C ,  7-H ) :   0.1569

FINAL SINGLE POINT ENERGY      -178.538691852943

DIPOLE MOMENT
-------------
                                X             Y             Z
Electronic contribution:     -2.07604       4.29505       1.80458
Nuclear contribution   :      2.16248      -5.01128      -1.96962
                        -----------------------------------------
Total Dipole Moment    :      0.08643      -0.71623      -0.16504
                        -----------------------------------------
Magnitude (a.u.)       :      0.74007
Magnitude (Debye)      :      1.88110

Rotational constants in cm-1:     1.244010     0.306580     0.270375
Rotational constants in MHz : 37294.476802  9191.037795  8105.639967

                             ****ORCA TERMINATED NORMALLY****
TOTAL RUN TIME: 0 days 0 hours 0 minutes 10 seconds 334 msec
