                         Program Version 5.0.0 -  RELEASE  -
|  1> !LC-BLYP RIJCOSX def2-SVPD def2/J TightSCF
|  2> *xyz 0 1
|  3> C          4.99986       -1.59613       -5.92488
|  4> C          5.28156       -1.97413       -4.53576
|  5> C          3.76678       -2.26611       -6.51175
|  6> C          4.79250       -1.36132       -3.45730
|  7> N          3.93990       -0.37492       -3.55736
|  8> N          5.25986       -1.75422       -2.23913
|  9> H          5.92282       -2.52145       -2.18672
| 10> H          4.65468       -1.64040       -1.44202
| 11> H          5.70914       -2.87560       -4.38702
| 12> H          3.33010       -0.31764       -4.36125
| 13> H          3.69849        0.11447       -2.70833
| 14> H          4.84333       -0.51793       -5.94302
| 15> H          5.90170       -1.82250       -6.49647
| 16> H          3.63046       -1.94025       -7.52177
| 17> H          2.90710       -2.00116       -5.93240
| 18> H          3.89538       -3.32820       -6.49392
| 19> *
| 20>
| 21> %MaxCore 64000
| 22>
| 23> %pal nprocs 4
| 24> end
| 25>
| 26> %scf
| 27>   MaxIter 150
| 28> end
| 29>
| 30>
| 31>                          ****END OF INPUT****

CARTESIAN COORDINATES (ANGSTROEM)
---------------------------------
  C      4.999860   -1.596130   -5.924880
  C      5.281560   -1.974130   -4.535760
  C      3.766780   -2.266110   -6.511750
  C      4.792500   -1.361320   -3.457300
  N      3.939900   -0.374920   -3.557360
  N      5.259860   -1.754220   -2.239130
  H      5.922820   -2.521450   -2.186720
  H      4.654680   -1.640400   -1.442020
  H      5.709140   -2.875600   -4.387020
  H      3.330100   -0.317640   -4.361250
  H      3.698490    0.114470   -2.708330
  H      4.843330   -0.517930   -5.943020
  H      5.901700   -1.822500   -6.496470
  H      3.630460   -1.940250   -7.521770
  H      2.907100   -2.001160   -5.932400
  H      3.895380   -3.328200   -6.493920

 Total Charge           Charge          ....    0
 Multiplicity           Mult            ....    1
 Number of Electrons    NEL             ....   48
 Basis Dimension        Dim             ....  200

ORBITAL ENERGIES
----------------

  NO   OCC          E(Eh)            E(eV)
   0   2.0000     -14.193584      -386.2271
   1   2.0000     -14.184981      -385.9930
   2   2.0000     -10.130401      -275.6622
   3   2.0000     -10.058530      -273.7065
   4   2.0000     -10.054807      -273.6052
   5   2.0000     -10.010846      -272.4090
   6   2.0000      -1.057359       -28.7722
   7   2.0000      -0.964362       -26.2416
   8   2.0000      -0.877325       -23.8732
   9   2.0000      -0.797217       -21.6934
  10   2.0000      -0.718198       -19.5432
  11   2.0000      -0.683579       -18.6011
  12   2.0000      -0.652245       -17.7485
  13   2.0000      -0.608255       -16.5515
  14   2.0000      -0.580543       -15.7974
  15   2.0000      -0.548604       -14.9283
  16   2.0000      -0.520373       -14.1601
  17   2.0000      -0.502782       -13.6814
  18   2.0000      -0.486324       -13.2336
  19   2.0000      -0.455128       -12.3847
  20   2.0000      -0.425544       -11.5796
  21   2.0000      -0.416868       -11.3436
  22   2.0000      -0.367121        -9.9899
  23   2.0000      -0.257085        -6.9956
  24   0.0000       0.069162         1.8820
  25   0.0000       0.094547         2.5728
  26   0.0000       0.106292         2.8924
  27   0.0000       0.117935         3.2092
  28   0.0000       0.133261         3.6262

MULLIKEN ATOMIC CHARGES
-----------------------
   0 C :    0.016474
   1 C :   -0.312216
   2 C :    0.918401
   3 C :    0.594589
   4 N :    0.378156
   5 N :    0.120548
   6 H :   -0.046483
   7 H :   -0.139062
   8 H :   -0.459871
   9 H :   -0.137401
  10 H :   -0.248763
  11 H :   -0.091532
  12 H :   -0.172177
  13 H :   -0.071713
  14 H :   -0.223999
  15 H :   -0.124952
Sum of atomic charges:    0.0000000

LOEWDIN ATOMIC CHARGES
----------------------
   0 C :   -0.112279
   1 C :   -0.035112
   2 C :    0.104474
   3 C :   -0.246624
   4 N :    0.211413
   5 N :    0.191675
   6 H :   -0.000848
   7 H :   -0.023438
   8 H :   -0.050530
   9 H :   -0.004408
  10 H :   -0.002823
  11 H :    0.008872
  12 H :    0.019522
  13 H :   -0.019186
  14 H :   -0.026642
  15 H :   -0.014063

  Mayer bond orders larger than 0.100000
B(  0-C ,  1-C ) :   1.1856 B(  0-C ,  2-C ) :   1.2016 B(  0-C ,  8-H ) :   0.2651
B(  0-C , 11-H ) :   0.7690 B(  0-C , 12-H ) :   0.7987 B(  0-C , 13-H ) :   0.1912
B(  0-C , 14-H ) :   0.2359 B(  0-C , 15-H ) :   0.2553 B(  1-C ,  3-C ) :   1.5319
B(  1-C ,  4-N ) :   0.3425 B(  1-C ,  5-N ) :   0.3462 B(  1-C ,  8-H ) :   0.8343
B(  1-C , 11-H ) :   0.3281 B(  1-C , 12-H ) :   0.2183 B(  2-C , 13-H ) :   0.7538
B(  2-C , 14-H ) :   0.7586 B(  2-C , 15-H ) :   0.7473 B(  3-C ,  4-N ) :   1.1466
B(  3-C ,  5-N ) :   0.8428 B(  3-C , 11-H ) :  -0.1211 B(  4-N ,  9-H ) :   1.1117
B(  4-N , 10-H ) :   1.2108 B(  5-N ,  6-H ) :   1.0794 B(  5-N ,  7-H ) :   1.1260
B(  6-H ,  7-H ) :  -0.1242 B(  9-H , 10-H ) :  -0.1734

FINAL SINGLE POINT ENERGY      -267.017209947406

DIPOLE MOMENT
-------------
                                X             Y             Z
Electronic contribution:      1.22196       1.37419       4.48876
Nuclear contribution   :     -1.82485      -1.28952      -3.74132
                        -----------------------------------------
Total Dipole Moment    :     -0.60289       0.08467       0.74744
                        -----------------------------------------
Magnitude (a.u.)       :      0.96401
Magnitude (Debye)      :      2.45032

Rotational constants in cm-1:     0.245790     0.071632     0.062004
Rotational constants in MHz :  7368.599517  2147.482078  1858.844841

                             ****ORCA TERMINATED NORMALLY****
TOTAL RUN TIME: 0 days 0 hours 0 minutes 35 seconds 249 msec
