                         Program Version 5.0.0 -  RELEASE  -
|  1> !LC-BLYP RIJCOSX def2-SVPD def2/J TightSCF
|  2> *xyz 0 1
|  3> C          4.99986       -1.59613       -5.92488
|  4> N          5.28156       -1.97413       -4.53576
|  5> C          3.76678       -2.26611       -6.51175
|  6> C          4.79250       -1.36132       -3.45730
|  7> C          3.93990       -0.37492       -3.55736
|  8> N          5.25986       -1.75422       -2.23913
|  9> H          5.92282       -2.52145       -2.18672
| 10> H          4.65468       -1.64040       -1.44202
| 11> H          5.70914       -2.87560       -4.38702
| 12> H          3.33010       -0.31764       -4.36125
| 13> H          3.69849        0.11447       -2.70833
| 14> H          4.84333       -0.51793       -5.94302
| 15> H          5.90170       -1.82250       -6.49647
| 16> H          3.63046       -1.94025       -7.52177
| 17> H          2.90710       -2.00116       -5.93240
| 18> H          3.89538       -3.32820       -6.49392
| 19> *
| 20>
| 21> %MaxCore 64000
| 22>
| 23> %pal nprocs 4
| 24> end
| 25>
| 26> %scf
| 27>   MaxIter 150
| 28> end
| 29>
| 30>
| 31>                          ****END OF INPUT****

CARTESIAN COORDINATES (ANGSTROEM)
---------------------------------
  C      4.999860   -1.596130   -5.924880
  N      5.281560   -1.974130   -4.535760
  C      3.766780   -2.266110   -6.511750
  C      4.792500   -1.361320   -3.457300
  C      3.939900   -0.374920   -3.557360
  N      5.259860   -1.754220   -2.239130
  H      5.922820   -2.521450   -2.186720
  H      4.654680   -1.640400   -1.442020
  H      5.709140   -2.875600   -4.387020
  H      3.330100   -0.317640   -4.361250
  H      3.698490    0.114470   -2.708330
  H      4.843330   -0.517930   -5.943020
  H      5.901700   -1.822500   -6.496470
  H      3.630460   -1.940250   -7.521770
  H      2.907100   -2.001160   -5.932400
  H      3.895380   -3.328200   -6.493920

 Total Charge           Charge          ....    0
 Multiplicity           Mult            ....    1
 Number of Electrons    NEL             ....   48
 Basis Dimension        Dim             ....  200

ORBITAL ENERGIES
----------------

  NO   OCC          E(Eh)            E(eV)
   0   2.0000     -14.189898      -386.1268
   1   2.0000     -14.186151      -386.0248
   2   2.0000     -10.132694      -275.7246
   3   2.0000     -10.115537      -275.2578
   4   2.0000     -10.070618      -274.0355
   5   2.0000     -10.001180      -272.1460
   6   2.0000      -1.057463       -28.7750
   7   2.0000      -0.974058       -26.5055
   8   2.0000      -0.858683       -23.3660
   9   2.0000      -0.819342       -22.2954
  10   2.0000      -0.741875       -20.1875
  11   2.0000      -0.668166       -18.1817
  12   2.0000      -0.650409       -17.6985
  13   2.0000      -0.615486       -16.7482
  14   2.0000      -0.561046       -15.2668
  15   2.0000      -0.551463       -15.0061
  16   2.0000      -0.532995       -14.5035
  17   2.0000      -0.501159       -13.6372
  18   2.0000      -0.485854       -13.2208
  19   2.0000      -0.471781       -12.8378
  20   2.0000      -0.455557       -12.3963
  21   2.0000      -0.446426       -12.1479
  22   2.0000      -0.349723        -9.5164
  23   2.0000      -0.269734        -7.3398
  24   0.0000       0.069685         1.8962
  25   0.0000       0.092530         2.5179
  26   0.0000       0.102594         2.7917
  27   0.0000       0.109728         2.9859
  28   0.0000       0.134789         3.6678

MULLIKEN ATOMIC CHARGES
-----------------------
   0 C :    0.370884
   1 N :   -0.193054
   2 C :    0.995896
   3 C :    0.519385
   4 C :    0.497971
   5 N :    0.200177
   6 H :   -0.187941
   7 H :   -0.063528
   8 H :   -0.384059
   9 H :   -0.366460
  10 H :   -0.464573
  11 H :   -0.049603
  12 H :   -0.418195
  13 H :   -0.071310
  14 H :   -0.246958
  15 H :   -0.138632
Sum of atomic charges:    0.0000000

LOEWDIN ATOMIC CHARGES
----------------------
   0 C :   -0.002688
   1 N :   -0.006210
   2 C :    0.121967
   3 C :   -0.252393
   4 C :    0.148269
   5 N :    0.197068
   6 H :   -0.016090
   7 H :   -0.006368
   8 H :    0.016408
   9 H :   -0.101687
  10 H :   -0.090474
  11 H :    0.020096
  12 H :    0.022244
  13 H :   -0.012199
  14 H :   -0.020876
  15 H :   -0.017068

  Mayer bond orders larger than 0.100000
B(  0-C ,  1-N ) :   0.9851 B(  0-C ,  2-C ) :   1.1898 B(  0-C ,  4-C ) :   0.1020
B(  0-C ,  8-H ) :  -0.2043 B(  0-C , 11-H ) :   0.8106 B(  0-C , 12-H ) :   0.8897
B(  0-C , 13-H ) :   0.2099 B(  0-C , 14-H ) :   0.2354 B(  0-C , 15-H ) :   0.2536
B(  1-N ,  3-C ) :   1.0413 B(  1-N ,  4-C ) :   0.4079 B(  1-N ,  5-N ) :   0.1230
B(  1-N ,  8-H ) :   1.3190 B(  1-N , 11-H ) :   0.1458 B(  1-N , 12-H ) :   0.1494
B(  2-C , 13-H ) :   0.7252 B(  2-C , 14-H ) :   0.7804 B(  2-C , 15-H ) :   0.7301
B(  3-C ,  4-C ) :   1.6689 B(  3-C ,  5-N ) :   0.9321 B(  3-C ,  8-H ) :  -0.2546
B(  3-C ,  9-H ) :   0.1901 B(  3-C , 10-H ) :   0.3224 B(  4-C ,  5-N ) :   0.2831
B(  4-C ,  9-H ) :   0.5736 B(  4-C , 10-H ) :   0.6459 B(  5-N ,  6-H ) :   1.0801
B(  5-N ,  7-H ) :   1.1085 B(  6-H ,  7-H ) :  -0.1348 B(  9-H , 11-H ) :   0.1177
B( 11-H , 12-H ) :  -0.1278

FINAL SINGLE POINT ENERGY      -267.010145138282

DIPOLE MOMENT
-------------
                                X             Y             Z
Electronic contribution:      2.39639      -0.08391       3.48873
Nuclear contribution   :     -2.10948      -0.95026      -3.53375
                        -----------------------------------------
Total Dipole Moment    :      0.28691      -1.03417      -0.04503
                        -----------------------------------------
Magnitude (a.u.)       :      1.07417
Magnitude (Debye)      :      2.73033

Rotational constants in cm-1:     0.255209     0.072067     0.062929
Rotational constants in MHz :  7650.964615  2160.525743  1886.569524

                             ****ORCA TERMINATED NORMALLY****
TOTAL RUN TIME: 0 days 0 hours 0 minutes 32 seconds 663 msec
