                         Program Version 5.0.0 -  RELEASE  -
|  1> !LC-BLYP RIJCOSX def2-SVPD def2/J TightSCF
|  2> *xyz 0 1
|  3> C          4.99986       -1.59613       -5.92488
|  4> N          5.28156       -1.97413       -4.53576
|  5> C          3.76678       -2.26611       -6.51175
|  6> C          4.79250       -1.36132       -3.45730
|  7> N          3.93990       -0.37492       -3.55736
|  8> C          5.25986       -1.75422       -2.23913
|  9> H          5.92282       -2.52145       -2.18672
| 10> H          4.65468       -1.64040       -1.44202
| 11> H          5.70914       -2.87560       -4.38702
| 12> H          3.33010       -0.31764       -4.36125
| 13> H          3.69849        0.11447       -2.70833
| 14> H          4.84333       -0.51793       -5.94302
| 15> H          5.90170       -1.82250       -6.49647
| 16> H          3.63046       -1.94025       -7.52177
| 17> H          2.90710       -2.00116       -5.93240
| 18> H          3.89538       -3.32820       -6.49392
| 19> *
| 20>
| 21> %MaxCore 64000
| 22>
| 23> %pal nprocs 4
| 24> end
| 25>
| 26> %scf
| 27>   MaxIter 150
| 28> end
| 29>
| 30>
| 31>                          ****END OF INPUT****

CARTESIAN COORDINATES (ANGSTROEM)
---------------------------------
  C      4.999860   -1.596130   -5.924880
  N      5.281560   -1.974130   -4.535760
  C      3.766780   -2.266110   -6.511750
  C      4.792500   -1.361320   -3.457300
  N      3.939900   -0.374920   -3.557360
  C      5.259860   -1.754220   -2.239130
  H      5.922820   -2.521450   -2.186720
  H      4.654680   -1.640400   -1.442020
  H      5.709140   -2.875600   -4.387020
  H      3.330100   -0.317640   -4.361250
  H      3.698490    0.114470   -2.708330
  H      4.843330   -0.517930   -5.943020
  H      5.901700   -1.822500   -6.496470
  H      3.630460   -1.940250   -7.521770
  H      2.907100   -2.001160   -5.932400
  H      3.895380   -3.328200   -6.493920

 Total Charge           Charge          ....    0
 Multiplicity           Mult            ....    1
 Number of Electrons    NEL             ....   48
 Basis Dimension        Dim             ....  200

ORBITAL ENERGIES
----------------

  NO   OCC          E(Eh)            E(eV)
   0   2.0000     -14.194027      -386.2391
   1   2.0000     -14.189707      -386.1216
   2   2.0000     -10.136872      -275.8383
   3   2.0000     -10.124821      -275.5104
   4   2.0000     -10.081892      -274.3422
   5   2.0000      -9.994723      -271.9702
   6   2.0000      -1.067593       -29.0507
   7   2.0000      -0.984113       -26.7791
   8   2.0000      -0.877279       -23.8720
   9   2.0000      -0.799347       -21.7513
  10   2.0000      -0.732682       -19.9373
  11   2.0000      -0.709243       -19.2995
  12   2.0000      -0.651921       -17.7397
  13   2.0000      -0.605612       -16.4795
  14   2.0000      -0.587038       -15.9741
  15   2.0000      -0.549984       -14.9658
  16   2.0000      -0.537472       -14.6254
  17   2.0000      -0.508090       -13.8258
  18   2.0000      -0.490539       -13.3483
  19   2.0000      -0.468504       -12.7486
  20   2.0000      -0.462828       -12.5942
  21   2.0000      -0.448931       -12.2160
  22   2.0000      -0.356787        -9.7087
  23   2.0000      -0.254577        -6.9274
  24   0.0000       0.063885         1.7384
  25   0.0000       0.097737         2.6595
  26   0.0000       0.099081         2.6961
  27   0.0000       0.105063         2.8589
  28   0.0000       0.132124         3.5953

MULLIKEN ATOMIC CHARGES
-----------------------
   0 C :    0.429670
   1 N :   -0.071699
   2 C :    0.958339
   3 C :    0.217623
   4 N :    0.386892
   5 C :    0.635337
   6 H :   -0.351333
   7 H :   -0.526149
   8 H :   -0.335828
   9 H :   -0.194932
  10 H :   -0.128325
  11 H :   -0.161043
  12 H :   -0.429741
  13 H :   -0.069672
  14 H :   -0.214827
  15 H :   -0.144313
Sum of atomic charges:   -0.0000000

LOEWDIN ATOMIC CHARGES
----------------------
   0 C :   -0.008766
   1 N :    0.006386
   2 C :    0.118254
   3 C :   -0.255715
   4 N :    0.211792
   5 C :    0.134276
   6 H :   -0.108253
   7 H :   -0.115177
   8 H :    0.030850
   9 H :   -0.015722
  10 H :    0.013437
  11 H :    0.014753
  12 H :    0.023368
  13 H :   -0.012247
  14 H :   -0.024005
  15 H :   -0.013232

  Mayer bond orders larger than 0.100000
B(  0-C ,  1-N ) :   0.9913 B(  0-C ,  2-C ) :   1.2046 B(  0-C ,  8-H ) :  -0.2367
B(  0-C , 11-H ) :   0.8303 B(  0-C , 12-H ) :   0.8506 B(  0-C , 13-H ) :   0.2055
B(  0-C , 14-H ) :   0.2454 B(  0-C , 15-H ) :   0.2746 B(  1-N ,  3-C ) :   1.1583
B(  1-N ,  4-N ) :   0.1624 B(  1-N ,  5-C ) :   0.2270 B(  1-N ,  8-H ) :   1.2359
B(  1-N , 11-H ) :   0.1569 B(  1-N , 12-H ) :   0.1618 B(  2-C , 13-H ) :   0.7403
B(  2-C , 14-H ) :   0.7434 B(  2-C , 15-H ) :   0.7307 B(  3-C ,  4-N ) :   1.1751
B(  3-C ,  5-C ) :   1.6446 B(  3-C ,  6-H ) :   0.1976 B(  3-C ,  7-H ) :   0.2518
B(  3-C ,  8-H ) :  -0.1961 B(  4-N ,  5-C ) :   0.2164 B(  4-N ,  9-H ) :   1.1094
B(  4-N , 10-H ) :   1.1664 B(  5-C ,  6-H ) :   0.7172 B(  5-C ,  7-H ) :   0.6168
B(  6-H ,  7-H ) :   0.1777 B(  9-H , 10-H ) :  -0.1731 B( 11-H , 12-H ) :  -0.1099

FINAL SINGLE POINT ENERGY      -267.004060845804

DIPOLE MOMENT
-------------
                                X             Y             Z
Electronic contribution:      1.14184       1.24929       2.12202
Nuclear contribution   :     -1.82946      -1.24287      -3.25410
                        -----------------------------------------
Total Dipole Moment    :     -0.68761       0.00642      -1.13207
                        -----------------------------------------
Magnitude (a.u.)       :      1.32456
Magnitude (Debye)      :      3.36675

Rotational constants in cm-1:     0.244672     0.074506     0.064043
Rotational constants in MHz :  7335.067153  2233.624025  1919.970379

                             ****ORCA TERMINATED NORMALLY****
TOTAL RUN TIME: 0 days 0 hours 0 minutes 34 seconds 800 msec
