                         Program Version 5.0.0 -  RELEASE  -
|  1> !LC-BLYP RIJCOSX def2-SVPD def2/J TightSCF xyzfile
|  2>
|  3> *xyzfile 0 1 D3.xyz
|  4>
|  5> %MaxCore 64000
|  6>
|  7> %pal nprocs 4
|  8> end
|  9>
| 10> %scf
| 11>   MaxIter 150
| 12> end
| 13>
| 14>
| 15>                          ****END OF INPUT****

CARTESIAN COORDINATES (ANGSTROEM)
---------------------------------
  C      4.999862   -1.596133   -5.924876
  N      5.281560   -1.974132   -4.535764
  C      3.766779   -2.266110   -6.511752
  C      2.496702   -1.844161   -5.735704
  H      1.626416   -2.217434   -6.308950
  H      2.481824   -2.456069   -4.793414
  F      2.459729   -0.509204   -5.505757
  C      4.792500   -1.361316   -3.457295
  N      3.939898   -0.374925   -3.557359
  C      5.259860   -1.754224   -2.239133
  H      5.922824   -2.521451   -2.186720
  H      4.654678   -1.640404   -1.442016
  H      5.709139   -2.875599   -4.387021
  H      3.330101   -0.317639   -4.361247
  H      3.698494    0.114468   -2.708333
  H      4.843333   -0.517930   -5.943019
  H      5.901695   -1.822503   -6.496467
  H      3.886191   -3.357076   -6.533604
  H      3.685602   -1.922168   -7.547128

 Total Charge           Charge          ....    0
 Multiplicity           Mult            ....    1
 Number of Electrons    NEL             ....   64
 Basis Dimension        Dim             ....  251

ORBITAL ENERGIES
----------------

  NO   OCC          E(Eh)            E(eV)
   0   2.0000     -24.513445      -667.0448
   1   2.0000     -14.188210      -386.0808
   2   2.0000     -14.163338      -385.4040
   3   2.0000     -10.188844      -277.2525
   4   2.0000     -10.127725      -275.5894
   5   2.0000     -10.127061      -275.5713
   6   2.0000     -10.108915      -275.0776
   7   2.0000      -9.985792      -271.7272
   8   2.0000      -1.327358       -36.1193
   9   2.0000      -1.059389       -28.8275
  10   2.0000      -0.976249       -26.5651
  11   2.0000      -0.903425       -24.5834
  12   2.0000      -0.833713       -22.6865
  13   2.0000      -0.774260       -21.0687
  14   2.0000      -0.726461       -19.7680
  15   2.0000      -0.703703       -19.1487
  16   2.0000      -0.683117       -18.5885
  17   2.0000      -0.652476       -17.7548
  18   2.0000      -0.623973       -16.9792
  19   2.0000      -0.611767       -16.6470
  20   2.0000      -0.576588       -15.6897
  21   2.0000      -0.573905       -15.6168
  22   2.0000      -0.543046       -14.7770
  23   2.0000      -0.527620       -14.3573
  24   2.0000      -0.492154       -13.3922
  25   2.0000      -0.481292       -13.0966
  26   2.0000      -0.471986       -12.8434
  27   2.0000      -0.457605       -12.4521
  28   2.0000      -0.444499       -12.0954
  29   2.0000      -0.441795       -12.0218
  30   2.0000      -0.347410        -9.4535
  31   2.0000      -0.246464        -6.7066
  32   0.0000       0.061561         1.6751
  33   0.0000       0.086177         2.3450
  34   0.0000       0.092564         2.5188
  35   0.0000       0.097247         2.6462
  36   0.0000       0.122509         3.3336

MULLIKEN ATOMIC CHARGES
-----------------------
   0 C :    0.819866
   1 N :   -0.034905
   2 C :    0.221491
   3 C :    0.851892
   4 H :   -0.460152
   5 H :    0.176162
   6 F :   -0.282601
   7 C :    0.006340
   8 N :    0.800868
   9 C :    0.552583
  10 H :   -0.403227
  11 H :   -0.396783
  12 H :   -0.315031
  13 H :   -0.633346
  14 H :   -0.147546
  15 H :    0.073119
  16 H :   -0.556045
  17 H :   -0.213370
  18 H :   -0.059313
Sum of atomic charges:    0.0000000

LOEWDIN ATOMIC CHARGES
----------------------
   0 C :    0.037146
   1 N :    0.015065
   2 C :   -0.013750
   3 C :    0.112609
   4 H :    0.040285
   5 H :    0.056330
   6 F :   -0.158975
   7 C :   -0.254687
   8 N :    0.242412
   9 C :    0.129746
  10 H :   -0.113750
  11 H :   -0.116862
  12 H :    0.030188
  13 H :   -0.140326
  14 H :    0.017125
  15 H :    0.024918
  16 H :    0.025760
  17 H :    0.037224
  18 H :    0.029544

  Mayer bond orders larger than 0.100000
B(  0-C ,  1-N ) :   1.0376 B(  0-C ,  2-C ) :   1.1258 B(  0-C , 12-H ) :  -0.2272
B(  0-C , 15-H ) :   0.6943 B(  0-C , 16-H ) :   0.8390 B(  0-C , 17-H ) :   0.1491
B(  0-C , 18-H ) :   0.1209 B(  1-N ,  7-C ) :   1.2037 B(  1-N ,  8-N ) :   0.1109
B(  1-N ,  9-C ) :   0.1972 B(  1-N , 12-H ) :   1.1730 B(  1-N , 15-H ) :   0.1869
B(  1-N , 16-H ) :   0.1398 B(  2-C ,  3-C ) :   1.1898 B(  2-C ,  4-H ) :   0.1654
B(  2-C ,  5-H ) :   0.1270 B(  2-C , 15-H ) :   0.1099 B(  2-C , 17-H ) :   0.8660
B(  2-C , 18-H ) :   0.8292 B(  3-C ,  4-H ) :   0.9235 B(  3-C ,  5-H ) :   0.7893
B(  3-C ,  6-F ) :   0.7214 B(  6-F , 13-H ) :   0.1495 B(  7-C ,  8-N ) :   1.1527
B(  7-C ,  9-C ) :   1.7120 B(  7-C , 10-H ) :   0.1932 B(  7-C , 11-H ) :   0.2182
B(  7-C , 12-H ) :  -0.1583 B(  8-N ,  9-C ) :   0.1188 B(  8-N , 13-H ) :   1.0643
B(  8-N , 14-H ) :   1.1025 B(  9-C , 10-H ) :   0.6813 B(  9-C , 11-H ) :   0.7092
B( 10-H , 11-H ) :   0.2214 B( 13-H , 14-H ) :  -0.1974 B( 15-H , 16-H ) :  -0.2107

FINAL SINGLE POINT ENERGY      -405.201852527988

DIPOLE MOMENT
-------------
                                X             Y             Z
Electronic contribution:     -3.48788       3.83172      -1.52900
Nuclear contribution   :      2.63642      -4.47741       0.00296
                        -----------------------------------------
Total Dipole Moment    :     -0.85146      -0.64569      -1.52605
                        -----------------------------------------
Magnitude (a.u.)       :      1.86298
Magnitude (Debye)      :      4.73533

Rotational constants in cm-1:     0.108041     0.051979     0.040387
Rotational constants in MHz :  3238.993235  1558.297571  1210.782552

                             ****ORCA TERMINATED NORMALLY****
TOTAL RUN TIME: 0 days 0 hours 0 minutes 53 seconds 805 msec
