                         Program Version 5.0.0 -  RELEASE  -
|  1> !BLYP D3BJ RIJCOSX def2-SVP def2/J TightSCF
|  2> *xyz -1 1
|  3> C         -0.87096        0.24804       -2.66280
|  4> C         -0.47749        0.60819       -4.10105
|  5> H          0.20677        1.45830       -4.11875
|  6> H         -1.36844        0.92942       -4.64785
|  7> C          0.18467       -0.50664       -4.91676
|  8> O         -0.15869       -1.70109       -4.65798
|  9> O          1.05594       -0.17441       -5.74037
| 10> H         -1.54056       -0.58646       -2.67455
| 11> H         -1.35339        1.08600       -2.20455
| 12> H          0.00660       -0.00662       -2.10609
| 13> *
| 14>
| 15> %MaxCore 64000
| 16>
| 17> %pal nprocs 4
| 18> end
| 19>
| 20> %scf
| 21>   MaxIter 150
| 22> end
| 23>
| 24>
| 25>                          ****END OF INPUT****

CARTESIAN COORDINATES (ANGSTROEM)
---------------------------------
  C     -0.870960    0.248040   -2.662800
  C     -0.477490    0.608190   -4.101050
  H      0.206770    1.458300   -4.118750
  H     -1.368440    0.929420   -4.647850
  C      0.184670   -0.506640   -4.916760
  O     -0.158690   -1.701090   -4.657980
  O      1.055940   -0.174410   -5.740370
  H     -1.540560   -0.586460   -2.674550
  H     -1.353390    1.086000   -2.204550
  H      0.006600   -0.006620   -2.106090

 Total Charge           Charge          ....   -1
 Multiplicity           Mult            ....    1
 Number of Electrons    NEL             ....   40
 Basis Dimension        Dim             ....   95

ORBITAL ENERGIES
----------------

  NO   OCC          E(Eh)            E(eV)
   0   2.0000     -18.481683      -502.9122
   1   2.0000     -18.480316      -502.8750
   2   2.0000      -9.763081      -265.6669
   3   2.0000      -9.745602      -265.1913
   4   2.0000      -9.726443      -264.6700
   5   2.0000      -0.673712       -18.3326
   6   2.0000      -0.584387       -15.9020
   7   2.0000      -0.499193       -13.5837
   8   2.0000      -0.379870       -10.3368
   9   2.0000      -0.233461        -6.3528
  10   2.0000      -0.220987        -6.0134
  11   2.0000      -0.177333        -4.8255
  12   2.0000      -0.152128        -4.1396
  13   2.0000      -0.142058        -3.8656
  14   2.0000      -0.119326        -3.2470
  15   2.0000      -0.089692        -2.4406
  16   2.0000      -0.080413        -2.1881
  17   2.0000       0.036085         0.9819
  18   2.0000       0.044994         1.2243
  19   2.0000       0.064662         1.7595
  20   0.0000       0.196919         5.3584
  21   0.0000       0.242912         6.6100
  22   0.0000       0.248788         6.7699
  23   0.0000       0.260732         7.0949
  24   0.0000       0.267533         7.2800

MULLIKEN ATOMIC CHARGES
-----------------------
   0 C :    0.129044
   1 C :    0.086468
   2 H :   -0.098983
   3 H :   -0.079803
   4 C :   -0.093192
   5 O :   -0.384808
   6 O :   -0.354337
   7 H :   -0.053911
   8 H :   -0.098175
   9 H :   -0.052302
Sum of atomic charges:   -1.0000000

LOEWDIN ATOMIC CHARGES
----------------------
   0 C :   -0.053450
   1 C :   -0.084393
   2 H :   -0.013588
   3 H :   -0.003203
   4 C :   -0.093306
   5 O :   -0.379614
   6 O :   -0.352041
   7 H :   -0.002957
   8 H :   -0.018673
   9 H :    0.001225

  Mayer bond orders larger than 0.100000
B(  0-C ,  1-C ) :   1.0969 B(  0-C ,  7-H ) :   0.9423 B(  0-C ,  8-H ) :   0.9324
B(  0-C ,  9-H ) :   0.9648 B(  1-C ,  2-H ) :   0.9105 B(  1-C ,  3-H ) :   0.9120
B(  1-C ,  4-C ) :   0.9055 B(  4-C ,  5-O ) :   1.8611 B(  4-C ,  6-O ) :   1.9153
B(  5-O ,  6-O ) :   0.1393

Dispersion correction           -0.013467156
FINAL SINGLE POINT ENERGY      -267.537925371015

DIPOLE MOMENT
-------------
                                X             Y             Z
Electronic contribution:      2.80666      -3.18039      -4.83061
Nuclear contribution   :     -3.54611       4.15440       5.90446
                        -----------------------------------------
Total Dipole Moment    :     -0.73945       0.97401       1.07385
                        -----------------------------------------
Magnitude (a.u.)       :      1.62746
Magnitude (Debye)      :      4.13668

Rotational constants in cm-1:     0.332789     0.132085     0.101080
Rotational constants in MHz :  9976.755824  3959.803182  3030.288811

                             ****ORCA TERMINATED NORMALLY****
TOTAL RUN TIME: 0 days 0 hours 0 minutes 6 seconds 963 msec
