                         Program Version 5.0.0 -  RELEASE  -
|  1> !BLYP D3BJ RIJCOSX def2-SVP def2/J TightSCF
|  2> *xyz 1 1
|  3> C          2.48645       -2.67712       -2.56345
|  4> C          3.03764       -2.36672       -3.92351
|  5> N          2.28036       -2.45441       -4.96769
|  6> N          4.32174       -2.01793       -4.01664
|  7> H          4.87994       -1.91167       -3.17382
|  8> H          4.71015       -1.67088       -4.88356
|  9> H          1.27042       -2.41265       -4.86614
| 10> H          2.58183       -2.05528       -5.84688
| 11> C          2.49799       -1.46946       -1.61030
| 12> H          1.47259       -3.05153       -2.69437
| 13> H          3.08320       -3.49064       -2.14147
| 14> H          1.91240       -0.67831       -2.02991
| 15> H          3.50450       -1.13364       -1.47227
| 16> H          2.08509       -1.75655       -0.66585
| 17> *
| 18>
| 19> %MaxCore 64000
| 20>
| 21> %pal nprocs 4
| 22> end
| 23>
| 24> %scf
| 25>   MaxIter 150
| 26> end
| 27>
| 28>
| 29>                          ****END OF INPUT****

CARTESIAN COORDINATES (ANGSTROEM)
---------------------------------
  C      2.486450   -2.677120   -2.563450
  C      3.037640   -2.366720   -3.923510
  N      2.280360   -2.454410   -4.967690
  N      4.321740   -2.017930   -4.016640
  H      4.879940   -1.911670   -3.173820
  H      4.710150   -1.670880   -4.883560
  H      1.270420   -2.412650   -4.866140
  H      2.581830   -2.055280   -5.846880
  C      2.497990   -1.469460   -1.610300
  H      1.472590   -3.051530   -2.694370
  H      3.083200   -3.490640   -2.141470
  H      1.912400   -0.678310   -2.029910
  H      3.504500   -1.133640   -1.472270
  H      2.085090   -1.756550   -0.665850

 Total Charge           Charge          ....    1
 Multiplicity           Mult            ....    1
 Number of Electrons    NEL             ....   40
 Basis Dimension        Dim             ....  115

ORBITAL ENERGIES
----------------

  NO   OCC          E(Eh)            E(eV)
   0   2.0000     -14.270795      -388.3281
   1   2.0000     -14.265617      -388.1872
   2   2.0000     -10.235392      -278.5192
   3   2.0000     -10.118491      -275.3381
   4   2.0000     -10.080768      -274.3117
   5   2.0000      -1.106232       -30.1021
   6   2.0000      -1.016523       -27.6610
   7   2.0000      -0.882379       -24.0108
   8   2.0000      -0.791328       -21.5331
   9   2.0000      -0.746482       -20.3128
  10   2.0000      -0.716015       -19.4838
  11   2.0000      -0.686756       -18.6876
  12   2.0000      -0.647763       -17.6265
  13   2.0000      -0.596283       -16.2257
  14   2.0000      -0.569561       -15.4985
  15   2.0000      -0.555440       -15.1143
  16   2.0000      -0.500316       -13.6143
  17   2.0000      -0.489621       -13.3233
  18   2.0000      -0.480323       -13.0703
  19   2.0000      -0.449880       -12.2419
  20   0.0000      -0.237195        -6.4544
  21   0.0000      -0.169634        -4.6160
  22   0.0000      -0.129828        -3.5328
  23   0.0000      -0.127191        -3.4610
  24   0.0000      -0.097800        -2.6613

MULLIKEN ATOMIC CHARGES
-----------------------
   0 C :    0.080192
   1 C :   -0.189292
   2 N :    0.142998
   3 N :    0.091846
   4 H :    0.160325
   5 H :    0.151186
   6 H :    0.165910
   7 H :    0.146027
   8 C :    0.084073
   9 H :    0.017972
  10 H :    0.063562
  11 H :    0.021272
  12 H :    0.010981
  13 H :    0.052947
Sum of atomic charges:    1.0000000

LOEWDIN ATOMIC CHARGES
----------------------
   0 C :   -0.019476
   1 C :    0.123710
   2 N :    0.131047
   3 N :    0.110252
   4 H :    0.115392
   5 H :    0.105898
   6 H :    0.120452
   7 H :    0.107201
   8 C :   -0.010350
   9 H :    0.045511
  10 H :    0.063055
  11 H :    0.032958
  12 H :    0.024367
  13 H :    0.049983

  Mayer bond orders larger than 0.100000
B(  0-C ,  1-C ) :   1.0473 B(  0-C ,  8-C ) :   1.1009 B(  0-C ,  9-H ) :   0.9071
B(  0-C , 10-H ) :   0.9044 B(  1-C ,  2-N ) :   1.5395 B(  1-C ,  3-N ) :   1.5094
B(  2-N ,  6-H ) :   0.9180 B(  2-N ,  7-H ) :   0.9301 B(  3-N ,  4-H ) :   0.9228
B(  3-N ,  5-H ) :   0.9297 B(  8-C , 11-H ) :   0.9653 B(  8-C , 12-H ) :   0.9659
B(  8-C , 13-H ) :   0.9534

Dispersion correction           -0.020570697
FINAL SINGLE POINT ENERGY      -228.765461641568

DIPOLE MOMENT
-------------
                                X             Y             Z
Electronic contribution:      1.09162      -1.06523      -3.98036
Nuclear contribution   :     -0.84604       1.34287       2.92710
                        -----------------------------------------
Total Dipole Moment    :      0.24558       0.27764      -1.05327
                        -----------------------------------------
Magnitude (a.u.)       :      1.11658
Magnitude (Debye)      :      2.83813

Rotational constants in cm-1:     0.265816     0.126189     0.097583
Rotational constants in MHz :  7968.948902  3783.040103  2925.457702

                             ****ORCA TERMINATED NORMALLY****
TOTAL RUN TIME: 0 days 0 hours 0 minutes 8 seconds 297 msec
