                         Program Version 5.0.0 -  RELEASE  -
|  1> !BLYP D3BJ RIJCOSX def2-TZVP def2/J TightSCF xyzfile
|  2>
|  3> *xyzfile 0 1 B.xyz
|  4>
|  5> %MaxCore 64000
|  6>
|  7> %pal nprocs 18
|  8> end
|  9>
| 10> %scf
| 11>   MaxIter 150
| 12> end
| 13>
| 14>
| 15>                          ****END OF INPUT****

CARTESIAN COORDINATES (ANGSTROEM)
---------------------------------
  C      2.486452   -2.677121   -2.563447
  C     -0.870963    0.248043   -2.662804
  C     -0.477492    0.608191   -4.101052
  H      0.206773    1.458299   -4.118748
  H     -1.368442    0.929419   -4.647855
  C      0.184673   -0.506640   -4.916760
  C      3.037640   -2.366715   -3.923509
  N      2.280360   -2.454408   -4.967692
  N      4.321736   -2.017932   -4.016641
  H      4.879940   -1.911668   -3.173823
  H      4.710148   -1.670882   -4.883561
  H      1.270423   -2.412650   -4.866143
  H      2.581829   -2.055282   -5.846878
  O     -0.158685   -1.701088   -4.657981
  O      1.055938   -0.174410   -5.740373
  C      2.497991   -1.469464   -1.610303
  C      1.582841   -0.321986   -2.042619
  H      2.193083   -1.833912   -0.625420
  H      3.523356   -1.103982   -1.490392
  C      0.100160   -0.673551   -1.915815
  H      1.822311   -0.040361   -3.072834
  H      1.813180    0.557019   -1.433266
  H     -0.063284   -1.679120   -2.301112
  H     -0.168820   -0.691680   -0.853831
  H     -1.001048    1.181040   -2.104071
  H     -1.844645   -0.246592   -2.663281
  H      1.472592   -3.051527   -2.694366
  H      3.083201   -3.490638   -2.141472

 Total Charge           Charge          ....    0
 Multiplicity           Mult            ....    1
 Number of Electrons    NEL             ....   94
 Basis Dimension        Dim             ....  468

ORBITAL ENERGIES
----------------

  NO   OCC          E(Eh)            E(eV)
   0   2.0000     -18.684091      -508.4200
   1   2.0000     -18.676635      -508.2171
   2   2.0000     -14.083484      -383.2311
   3   2.0000     -14.047076      -382.2404
   4   2.0000     -10.040168      -273.2069
   5   2.0000      -9.946646      -270.6620
   6   2.0000      -9.945570      -270.6327
   7   2.0000      -9.928134      -270.1583
   8   2.0000      -9.899032      -269.3664
   9   2.0000      -9.881345      -268.8851
  10   2.0000      -9.876779      -268.7608
  11   2.0000      -9.865245      -268.4470
  12   2.0000      -0.937973       -25.5235
  13   2.0000      -0.902053       -24.5461
  14   2.0000      -0.847082       -23.0503
  15   2.0000      -0.813019       -22.1234
  16   2.0000      -0.748067       -20.3559
  17   2.0000      -0.697073       -18.9683
  18   2.0000      -0.656778       -17.8718
  19   2.0000      -0.607919       -16.5423
  20   2.0000      -0.590342       -16.0640
  21   2.0000      -0.550169       -14.9709
  22   2.0000      -0.547015       -14.8850
  23   2.0000      -0.517611       -14.0849
  24   2.0000      -0.493707       -13.4345
  25   2.0000      -0.466542       -12.6952
  26   2.0000      -0.442669       -12.0456
  27   2.0000      -0.424672       -11.5559
  28   2.0000      -0.402279       -10.9466
  29   2.0000      -0.396702       -10.7948
  30   2.0000      -0.388335       -10.5671
  31   2.0000      -0.370695       -10.0871
  32   2.0000      -0.360941        -9.8217
  33   2.0000      -0.356788        -9.7087
  34   2.0000      -0.336297        -9.1511
  35   2.0000      -0.329092        -8.9551
  36   2.0000      -0.316011        -8.5991
  37   2.0000      -0.309127        -8.4118
  38   2.0000      -0.303990        -8.2720
  39   2.0000      -0.288095        -7.8395
  40   2.0000      -0.277869        -7.5612
  41   2.0000      -0.269778        -7.3410
  42   2.0000      -0.261413        -7.1134
  43   2.0000      -0.252775        -6.8784
  44   2.0000      -0.182484        -4.9656
  45   2.0000      -0.166427        -4.5287
  46   2.0000      -0.150822        -4.1041
  47   0.0000      -0.068832        -1.8730
  48   0.0000      -0.036334        -0.9887
  49   0.0000       0.004216         0.1147
  50   0.0000       0.025878         0.7042
  51   0.0000       0.032832         0.8934

MULLIKEN ATOMIC CHARGES
-----------------------
   0 C :   -0.209051
   1 C :   -0.109278
   2 C :   -0.176373
   3 H :    0.073458
   4 H :    0.077204
   5 C :    0.211725
   6 C :    0.241423
   7 N :   -0.207324
   8 N :   -0.341255
   9 H :    0.238652
  10 H :    0.235735
  11 H :    0.254030
  12 H :    0.215045
  13 O :   -0.490665
  14 O :   -0.439880
  15 C :   -0.136979
  16 C :   -0.189325
  17 H :    0.086958
  18 H :    0.071231
  19 C :   -0.120779
  20 H :    0.121954
  21 H :    0.062795
  22 H :    0.092868
  23 H :    0.057806
  24 H :    0.060128
  25 H :    0.063117
  26 H :    0.137999
  27 H :    0.118782
Sum of atomic charges:   -0.0000000

LOEWDIN ATOMIC CHARGES
----------------------
   0 C :   -0.203661
   1 C :   -0.258644
   2 C :   -0.248887
   3 H :    0.133946
   4 H :    0.141209
   5 C :   -0.671368
   6 C :   -0.332240
   7 N :    0.156281
   8 N :    0.064243
   9 H :    0.183297
  10 H :    0.178618
  11 H :    0.155058
  12 H :    0.176934
  13 O :   -0.052701
  14 O :   -0.031796
  15 C :   -0.248924
  16 C :   -0.252183
  17 H :    0.141016
  18 H :    0.125080
  19 C :   -0.265509
  20 H :    0.145869
  21 H :    0.132292
  22 H :    0.135326
  23 H :    0.126397
  24 H :    0.126822
  25 H :    0.134804
  26 H :    0.157664
  27 H :    0.151059

  Mayer bond orders larger than 0.100000
B(  0-C ,  6-C ) :   0.9675 B(  0-C , 15-C ) :   0.9493 B(  0-C , 26-H ) :   0.9689
B(  0-C , 27-H ) :   0.9512 B(  1-C ,  2-C ) :   0.9515 B(  1-C , 19-C ) :   0.9814
B(  1-C , 24-H ) :   0.9559 B(  1-C , 25-H ) :   0.9513 B(  2-C ,  3-H ) :   0.9623
B(  2-C ,  4-H ) :   0.9393 B(  2-C ,  5-C ) :   0.9451 B(  5-C , 13-O ) :   1.6374
B(  5-C , 14-O ) :   1.8494 B(  6-C ,  7-N ) :   1.5991 B(  6-C ,  8-N ) :   1.2833
B(  7-N , 11-H ) :   0.7400 B(  7-N , 12-H ) :   0.8974 B(  8-N ,  9-H ) :   0.9089
B(  8-N , 10-H ) :   0.9115 B( 11-H , 13-O ) :   0.2613 B( 15-C , 16-C ) :   0.9446
B( 15-C , 17-H ) :   0.9503 B( 15-C , 18-H ) :   0.9675 B( 16-C , 19-C ) :   0.9408
B( 16-C , 20-H ) :   0.9742 B( 16-C , 21-H ) :   0.9513 B( 19-C , 22-H ) :   0.9626
B( 19-C , 23-H ) :   0.9473

Dispersion correction           -0.062903097
FINAL SINGLE POINT ENERGY      -574.505775265511

DIPOLE MOMENT
-------------
                                X             Y             Z
Electronic contribution:      1.64116      -2.89490      -8.94632
Nuclear contribution   :      1.39386       1.90489      10.36520
                        -----------------------------------------
Total Dipole Moment    :      3.03502      -0.99001       1.41888
                        -----------------------------------------
Magnitude (a.u.)       :      3.49352
Magnitude (Debye)      :      8.87981

Rotational constants in cm-1:     0.041165     0.025922     0.019001
Rotational constants in MHz :  1234.086888   777.109255   569.639629

                             ****ORCA TERMINATED NORMALLY****
TOTAL RUN TIME: 0 days 0 hours 0 minutes 19 seconds 671 msec
