                         Program Version 5.0.0 -  RELEASE  -
|  1> !BLYP D3BJ RIJCOSX def2-SVP def2/J TightSCF
|  2> *xyz 0 1
|  3> C         -0.87096        0.24804       -2.66280
|  4> C         -0.47749        0.60819       -4.10105
|  5> H          0.20677        1.45830       -4.11875
|  6> H         -1.36844        0.92942       -4.64785
|  7> C          0.18467       -0.50664       -4.91676
|  8> F         -0.15869       -1.70109       -4.65798
|  9> O          1.05594       -0.17441       -5.74037
| 10> H         -1.54056       -0.58646       -2.67455
| 11> H         -1.35339        1.08600       -2.20455
| 12> H          0.00660       -0.00662       -2.10609
| 13> *
| 14>
| 15> %MaxCore 64000
| 16>
| 17> %pal nprocs 4
| 18> end
| 19>
| 20> %scf
| 21>   MaxIter 150
| 22> end
| 23>
| 24>
| 25>                          ****END OF INPUT****

CARTESIAN COORDINATES (ANGSTROEM)
---------------------------------
  C     -0.870960    0.248040   -2.662800
  C     -0.477490    0.608190   -4.101050
  H      0.206770    1.458300   -4.118750
  H     -1.368440    0.929420   -4.647850
  C      0.184670   -0.506640   -4.916760
  F     -0.158690   -1.701090   -4.657980
  O      1.055940   -0.174410   -5.740370
  H     -1.540560   -0.586460   -2.674550
  H     -1.353390    1.086000   -2.204550
  H      0.006600   -0.006620   -2.106090

 Total Charge           Charge          ....    0
 Multiplicity           Mult            ....    1
 Number of Electrons    NEL             ....   40
 Basis Dimension        Dim             ....   95

ORBITAL ENERGIES
----------------

  NO   OCC          E(Eh)            E(eV)
   0   2.0000     -24.348937      -662.5683
   1   2.0000     -18.778941      -511.0010
   2   2.0000     -10.078905      -274.2610
   3   2.0000      -9.946504      -270.6581
   4   2.0000      -9.927840      -270.1503
   5   2.0000      -1.170203       -31.8428
   6   2.0000      -0.920702       -25.0536
   7   2.0000      -0.708699       -19.2847
   8   2.0000      -0.598108       -16.2753
   9   2.0000      -0.558262       -15.1911
  10   2.0000      -0.470362       -12.7992
  11   2.0000      -0.462009       -12.5719
  12   2.0000      -0.419384       -11.4120
  13   2.0000      -0.403223       -10.9722
  14   2.0000      -0.371819       -10.1177
  15   2.0000      -0.342954        -9.3323
  16   2.0000      -0.330115        -8.9829
  17   2.0000      -0.321409        -8.7460
  18   2.0000      -0.294167        -8.0047
  19   2.0000      -0.226978        -6.1764
  20   0.0000      -0.047808        -1.3009
  21   0.0000       0.031355         0.8532
  22   0.0000       0.079402         2.1606
  23   0.0000       0.089472         2.4346
  24   0.0000       0.102780         2.7968

MULLIKEN ATOMIC CHARGES
-----------------------
   0 C :    0.073695
   1 C :    0.000077
   2 H :    0.016217
   3 H :    0.020937
   4 C :    0.129198
   5 F :   -0.047333
   6 O :   -0.187038
   7 H :   -0.001424
   8 H :   -0.005485
   9 H :    0.001156
Sum of atomic charges:   -0.0000000

LOEWDIN ATOMIC CHARGES
----------------------
   0 C :   -0.038835
   1 C :   -0.061589
   2 H :    0.039137
   3 H :    0.042119
   4 C :    0.064536
   5 F :    0.047779
   6 O :   -0.157244
   7 H :    0.018621
   8 H :    0.024356
   9 H :    0.021119

  Mayer bond orders larger than 0.100000
B(  0-C ,  1-C ) :   1.0936 B(  0-C ,  7-H ) :   0.9658 B(  0-C ,  8-H ) :   0.9538
B(  0-C ,  9-H ) :   0.9748 B(  1-C ,  2-H ) :   0.9361 B(  1-C ,  3-H ) :   0.9147
B(  1-C ,  4-C ) :   1.0056 B(  4-C ,  5-F ) :   1.2222 B(  4-C ,  6-O ) :   2.1286

Dispersion correction           -0.012676051
FINAL SINGLE POINT ENERGY      -292.103767619721

DIPOLE MOMENT
-------------
                                X             Y             Z
Electronic contribution:      2.70306      -5.44100      -5.42447
Nuclear contribution   :     -3.42837       5.66737       6.17046
                        -----------------------------------------
Total Dipole Moment    :     -0.72531       0.22637       0.74599
                        -----------------------------------------
Magnitude (a.u.)       :      1.06481
Magnitude (Debye)      :      2.70653

Rotational constants in cm-1:     0.304660     0.130969     0.097716
Rotational constants in MHz :  9133.464515  3926.366384  2929.457090

                             ****ORCA TERMINATED NORMALLY****
TOTAL RUN TIME: 0 days 0 hours 0 minutes 6 seconds 460 msec
