                         Program Version 5.0.0 -  RELEASE  -
|  1> !BLYP D3BJ RIJCOSX def2-SVP def2/J TightSCF
|  2> *xyz 0 1
|  3> C          2.48645       -2.67712       -2.56345
|  4> C          3.03764       -2.36672       -3.92351
|  5> C          2.28036       -2.45441       -4.96769
|  6> N          4.32174       -2.01793       -4.01664
|  7> H          4.87994       -1.91167       -3.17382
|  8> H          4.71015       -1.67088       -4.88356
|  9> H          1.27042       -2.41265       -4.86614
| 10> H          2.58183       -2.05528       -5.84688
| 11> C          2.49799       -1.46946       -1.61030
| 12> H          1.47259       -3.05153       -2.69437
| 13> H          3.08320       -3.49064       -2.14147
| 14> H          1.91240       -0.67831       -2.02991
| 15> H          3.50450       -1.13364       -1.47227
| 16> H          2.08509       -1.75655       -0.66585
| 17> *
| 18>
| 19> %MaxCore 64000
| 20>
| 21> %pal nprocs 4
| 22> end
| 23>
| 24> %scf
| 25>   MaxIter 150
| 26> end
| 27>
| 28>
| 29>                          ****END OF INPUT****

CARTESIAN COORDINATES (ANGSTROEM)
---------------------------------
  C      2.486450   -2.677120   -2.563450
  C      3.037640   -2.366720   -3.923510
  C      2.280360   -2.454410   -4.967690
  N      4.321740   -2.017930   -4.016640
  H      4.879940   -1.911670   -3.173820
  H      4.710150   -1.670880   -4.883560
  H      1.270420   -2.412650   -4.866140
  H      2.581830   -2.055280   -5.846880
  C      2.497990   -1.469460   -1.610300
  H      1.472590   -3.051530   -2.694370
  H      3.083200   -3.490640   -2.141470
  H      1.912400   -0.678310   -2.029910
  H      3.504500   -1.133640   -1.472270
  H      2.085090   -1.756550   -0.665850

 Total Charge           Charge          ....    0
 Multiplicity           Mult            ....    1
 Number of Electrons    NEL             ....   40
 Basis Dimension        Dim             ....  115

ORBITAL ENERGIES
----------------

  NO   OCC          E(Eh)            E(eV)
   0   2.0000     -14.016497      -381.4083
   1   2.0000      -9.929633      -270.1990
   2   2.0000      -9.916090      -269.8305
   3   2.0000      -9.910578      -269.6805
   4   2.0000      -9.847563      -267.9658
   5   2.0000      -0.820003       -22.3134
   6   2.0000      -0.687197       -18.6996
   7   2.0000      -0.634584       -17.2679
   8   2.0000      -0.555978       -15.1289
   9   2.0000      -0.496905       -13.5215
  10   2.0000      -0.460691       -12.5360
  11   2.0000      -0.413948       -11.2641
  12   2.0000      -0.379632       -10.3303
  13   2.0000      -0.373050       -10.1512
  14   2.0000      -0.331542        -9.0217
  15   2.0000      -0.327725        -8.9178
  16   2.0000      -0.303663        -8.2631
  17   2.0000      -0.281467        -7.6591
  18   2.0000      -0.270659        -7.3650
  19   2.0000      -0.149048        -4.0558
  20   0.0000       0.023566         0.6413
  21   0.0000       0.034249         0.9320
  22   0.0000       0.072555         1.9743
  23   0.0000       0.077719         2.1148
  24   0.0000       0.095814         2.6072

MULLIKEN ATOMIC CHARGES
-----------------------
   0 C :    0.126653
   1 C :   -0.138515
   2 C :    0.010418
   3 N :    0.011141
   4 H :    0.079678
   5 H :    0.088263
   6 H :   -0.067290
   7 H :   -0.090370
   8 C :    0.095473
   9 H :   -0.033206
  10 H :   -0.025257
  11 H :   -0.012594
  12 H :   -0.029977
  13 H :   -0.014417
Sum of atomic charges:    0.0000000

LOEWDIN ATOMIC CHARGES
----------------------
   0 C :   -0.017119
   1 C :    0.001828
   2 C :   -0.163757
   3 N :    0.008028
   4 H :    0.063139
   5 H :    0.069786
   6 H :   -0.003333
   7 H :   -0.013324
   8 C :   -0.035673
   9 H :    0.026601
  10 H :    0.018500
  11 H :    0.019082
  12 H :    0.008083
  13 H :    0.018160

  Mayer bond orders larger than 0.100000
B(  0-C ,  1-C ) :   1.0606 B(  0-C ,  8-C ) :   1.1127 B(  0-C ,  9-H ) :   0.9110
B(  0-C , 10-H ) :   0.9099 B(  1-C ,  2-C ) :   1.8798 B(  1-C ,  3-N ) :   1.2888
B(  2-C ,  6-H ) :   0.9161 B(  2-C ,  7-H ) :   0.9278 B(  3-N ,  4-H ) :   0.9482
B(  3-N ,  5-H ) :   0.9446 B(  8-C , 11-H ) :   0.9629 B(  8-C , 12-H ) :   0.9630
B(  8-C , 13-H ) :   0.9563

Dispersion correction           -0.021443501
FINAL SINGLE POINT ENERGY      -212.292411352923

DIPOLE MOMENT
-------------
                                X             Y             Z
Electronic contribution:      1.64056      -0.88348      -2.14689
Nuclear contribution   :     -0.99743       1.27863       2.57190
                        -----------------------------------------
Total Dipole Moment    :      0.64312       0.39515       0.42501
                        -----------------------------------------
Magnitude (a.u.)       :      0.86625
Magnitude (Debye)      :      2.20182

Rotational constants in cm-1:     0.274050     0.130114     0.100964
Rotational constants in MHz :  8215.815505  3900.722919  3026.834930

                             ****ORCA TERMINATED NORMALLY****
TOTAL RUN TIME: 0 days 0 hours 0 minutes 7 seconds 753 msec
