                         Program Version 5.0.0 -  RELEASE  -
|  1> !BLYP D3BJ RIJCOSX def2-SVP def2/J TightSCF
|  2> *xyz 0 1
|  3> C         -0.87096        0.24804       -2.66280
|  4> C         -0.47749        0.60819       -4.10105
|  5> H          0.20677        1.45830       -4.11875
|  6> H         -1.36844        0.92942       -4.64785
|  7> C          0.18467       -0.50664       -4.91676
|  8> O         -0.15869       -1.70109       -4.65798
|  9> F          1.05594       -0.17441       -5.74037
| 10> H         -1.54056       -0.58646       -2.67455
| 11> H         -1.35339        1.08600       -2.20455
| 12> H          0.00660       -0.00662       -2.10609
| 13> *
| 14>
| 15> %MaxCore 64000
| 16>
| 17> %pal nprocs 4
| 18> end
| 19>
| 20> %scf
| 21>   MaxIter 150
| 22> end
| 23>
| 24>
| 25>                          ****END OF INPUT****

CARTESIAN COORDINATES (ANGSTROEM)
---------------------------------
  C     -0.870960    0.248040   -2.662800
  C     -0.477490    0.608190   -4.101050
  H      0.206770    1.458300   -4.118750
  H     -1.368440    0.929420   -4.647850
  C      0.184670   -0.506640   -4.916760
  O     -0.158690   -1.701090   -4.657980
  F      1.055940   -0.174410   -5.740370
  H     -1.540560   -0.586460   -2.674550
  H     -1.353390    1.086000   -2.204550
  H      0.006600   -0.006620   -2.106090

 Total Charge           Charge          ....    0
 Multiplicity           Mult            ....    1
 Number of Electrons    NEL             ....   40
 Basis Dimension        Dim             ....   95

ORBITAL ENERGIES
----------------

  NO   OCC          E(Eh)            E(eV)
   0   2.0000     -24.357612      -662.8043
   1   2.0000     -18.776361      -510.9307
   2   2.0000     -10.081212      -274.3237
   3   2.0000      -9.947859      -270.6950
   4   2.0000      -9.922123      -269.9947
   5   2.0000      -1.188421       -32.3386
   6   2.0000      -0.906916       -24.6784
   7   2.0000      -0.704880       -19.1808
   8   2.0000      -0.606461       -16.5026
   9   2.0000      -0.558134       -15.1876
  10   2.0000      -0.477225       -12.9860
  11   2.0000      -0.462381       -12.5820
  12   2.0000      -0.429656       -11.6915
  13   2.0000      -0.404443       -11.0055
  14   2.0000      -0.367466        -9.9993
  15   2.0000      -0.339414        -9.2359
  16   2.0000      -0.321490        -8.7482
  17   2.0000      -0.314888        -8.5685
  18   2.0000      -0.289430        -7.8758
  19   2.0000      -0.224062        -6.0970
  20   0.0000      -0.050603        -1.3770
  21   0.0000       0.036894         1.0039
  22   0.0000       0.080442         2.1889
  23   0.0000       0.088683         2.4132
  24   0.0000       0.102929         2.8008

MULLIKEN ATOMIC CHARGES
-----------------------
   0 C :    0.100008
   1 C :   -0.002412
   2 H :   -0.009826
   3 H :    0.022220
   4 C :    0.126723
   5 O :   -0.218345
   6 F :   -0.013498
   7 H :    0.010953
   8 H :   -0.012910
   9 H :   -0.002912
Sum of atomic charges:   -0.0000000

LOEWDIN ATOMIC CHARGES
----------------------
   0 C :   -0.026478
   1 C :   -0.063928
   2 H :    0.023046
   3 H :    0.043877
   4 C :    0.060311
   5 O :   -0.184806
   6 F :    0.079591
   7 H :    0.025140
   8 H :    0.021342
   9 H :    0.021905

  Mayer bond orders larger than 0.100000
B(  0-C ,  1-C ) :   1.1235 B(  0-C ,  7-H ) :   0.9612 B(  0-C ,  8-H ) :   0.9524
B(  0-C ,  9-H ) :   0.9737 B(  1-C ,  2-H ) :   0.9221 B(  1-C ,  3-H ) :   0.9092
B(  1-C ,  4-C ) :   1.0026 B(  4-C ,  5-O ) :   2.0890 B(  4-C ,  6-F ) :   1.2598

Dispersion correction           -0.012792130
FINAL SINGLE POINT ENERGY      -292.097699213352

DIPOLE MOMENT
-------------
                                X             Y             Z
Electronic contribution:      4.68786      -2.98094      -7.20902
Nuclear contribution   :     -4.75269       4.00281       7.35060
                        -----------------------------------------
Total Dipole Moment    :     -0.06483       1.02187       0.14158
                        -----------------------------------------
Magnitude (a.u.)       :      1.03367
Magnitude (Debye)      :      2.62738

Rotational constants in cm-1:     0.323805     0.124913     0.096140
Rotational constants in MHz :  9707.430323  3744.789513  2882.191141

                             ****ORCA TERMINATED NORMALLY****
TOTAL RUN TIME: 0 days 0 hours 0 minutes 7 seconds 193 msec
