                         Program Version 5.0.0 -  RELEASE  -
|  1> !BLYP D3BJ RIJCOSX def2-SVP def2/J TightSCF
|  2> *xyz 0 1
|  3> C          2.48645       -2.67712       -2.56345
|  4> C          3.03764       -2.36672       -3.92351
|  5> N          2.28036       -2.45441       -4.96769
|  6> C          4.32174       -2.01793       -4.01664
|  7> H          4.87994       -1.91167       -3.17382
|  8> H          4.71015       -1.67088       -4.88356
|  9> H          1.27042       -2.41265       -4.86614
| 10> H          2.58183       -2.05528       -5.84688
| 11> C          2.49799       -1.46946       -1.61030
| 12> H          1.47259       -3.05153       -2.69437
| 13> H          3.08320       -3.49064       -2.14147
| 14> H          1.91240       -0.67831       -2.02991
| 15> H          3.50450       -1.13364       -1.47227
| 16> H          2.08509       -1.75655       -0.66585
| 17> *
| 18>
| 19> %MaxCore 64000
| 20>
| 21> %pal nprocs 4
| 22> end
| 23>
| 24> %scf
| 25>   MaxIter 150
| 26> end
| 27>
| 28>
| 29>                          ****END OF INPUT****

CARTESIAN COORDINATES (ANGSTROEM)
---------------------------------
  C      2.486450   -2.677120   -2.563450
  C      3.037640   -2.366720   -3.923510
  N      2.280360   -2.454410   -4.967690
  C      4.321740   -2.017930   -4.016640
  H      4.879940   -1.911670   -3.173820
  H      4.710150   -1.670880   -4.883560
  H      1.270420   -2.412650   -4.866140
  H      2.581830   -2.055280   -5.846880
  C      2.497990   -1.469460   -1.610300
  H      1.472590   -3.051530   -2.694370
  H      3.083200   -3.490640   -2.141470
  H      1.912400   -0.678310   -2.029910
  H      3.504500   -1.133640   -1.472270
  H      2.085090   -1.756550   -0.665850

 Total Charge           Charge          ....    0
 Multiplicity           Mult            ....    1
 Number of Electrons    NEL             ....   40
 Basis Dimension        Dim             ....  115

ORBITAL ENERGIES
----------------

  NO   OCC          E(Eh)            E(eV)
   0   2.0000     -14.020253      -381.5105
   1   2.0000      -9.929929      -270.2071
   2   2.0000      -9.917055      -269.8568
   3   2.0000      -9.906057      -269.5575
   4   2.0000      -9.847792      -267.9720
   5   2.0000      -0.834736       -22.7143
   6   2.0000      -0.688289       -18.7293
   7   2.0000      -0.619750       -16.8643
   8   2.0000      -0.560892       -15.2627
   9   2.0000      -0.500350       -13.6152
  10   2.0000      -0.457454       -12.4479
  11   2.0000      -0.417411       -11.3583
  12   2.0000      -0.386678       -10.5221
  13   2.0000      -0.351323        -9.5600
  14   2.0000      -0.337429        -9.1819
  15   2.0000      -0.322857        -8.7854
  16   2.0000      -0.301134        -8.1943
  17   2.0000      -0.285709        -7.7745
  18   2.0000      -0.278688        -7.5835
  19   2.0000      -0.140425        -3.8212
  20   0.0000       0.026856         0.7308
  21   0.0000       0.030352         0.8259
  22   0.0000       0.070699         1.9238
  23   0.0000       0.076431         2.0798
  24   0.0000       0.099488         2.7072

MULLIKEN ATOMIC CHARGES
-----------------------
   0 C :    0.122250
   1 C :   -0.198455
   2 N :    0.064941
   3 C :    0.016835
   4 H :   -0.071273
   5 H :   -0.089167
   6 H :    0.079840
   7 H :    0.082844
   8 C :    0.101578
   9 H :   -0.056523
  10 H :   -0.004324
  11 H :   -0.020803
  12 H :   -0.006249
  13 H :   -0.021496
Sum of atomic charges:   -0.0000000

LOEWDIN ATOMIC CHARGES
----------------------
   0 C :   -0.017442
   1 C :   -0.014379
   2 N :    0.031011
   3 C :   -0.167902
   4 H :   -0.007985
   5 H :   -0.015637
   6 H :    0.063222
   7 H :    0.070129
   8 C :   -0.028986
   9 H :    0.008451
  10 H :    0.031815
  11 H :    0.014930
  12 H :    0.018619
  13 H :    0.014153

  Mayer bond orders larger than 0.100000
B(  0-C ,  1-C ) :   1.0290 B(  0-C ,  8-C ) :   1.1247 B(  0-C ,  9-H ) :   0.9085
B(  0-C , 10-H ) :   0.9191 B(  1-C ,  2-N ) :   1.3162 B(  1-C ,  3-C ) :   1.8478
B(  2-N ,  6-H ) :   0.9423 B(  2-N ,  7-H ) :   0.9445 B(  3-C ,  4-H ) :   0.9284
B(  3-C ,  5-H ) :   0.9285 B(  8-C , 11-H ) :   0.9625 B(  8-C , 12-H ) :   0.9671
B(  8-C , 13-H ) :   0.9530

Dispersion correction           -0.021504495
FINAL SINGLE POINT ENERGY      -212.293137131101

DIPOLE MOMENT
-------------
                                X             Y             Z
Electronic contribution:     -0.29497      -1.23195      -3.05110
Nuclear contribution   :     -0.52463       1.37972       2.79217
                        -----------------------------------------
Total Dipole Moment    :     -0.81960       0.14777      -0.25892
                        -----------------------------------------
Magnitude (a.u.)       :      0.87214
Magnitude (Debye)      :      2.21680

Rotational constants in cm-1:     0.281086     0.127387     0.100311
Rotational constants in MHz :  8426.743103  3818.969834  3007.238026

                             ****ORCA TERMINATED NORMALLY****
TOTAL RUN TIME: 0 days 0 hours 0 minutes 7 seconds 719 msec
