                         Program Version 5.0.0 -  RELEASE  -
|  1> !BLYP D3BJ RIJCOSX def2-TZVP def2/J TightSCF xyzfile
|  2>
|  3> *xyzfile 0 1 D2.xyz
|  4>
|  5> %MaxCore 64000
|  6>
|  7> %pal nprocs 18
|  8> end
|  9>
| 10> %scf
| 11>   MaxIter 150
| 12> end
| 13>
| 14>
| 15>                          ****END OF INPUT****

CARTESIAN COORDINATES (ANGSTROEM)
---------------------------------
  C      2.486452   -2.677121   -2.563447
  C     -0.870963    0.248043   -2.662804
  C     -0.477492    0.608191   -4.101052
  H      0.206773    1.458299   -4.118748
  H     -1.368442    0.929419   -4.647855
  C      0.184673   -0.506640   -4.916760
  C      3.037640   -2.366715   -3.923509
  N      2.280360   -2.454408   -4.967692
  C      4.321736   -2.017932   -4.016641
  H      4.879940   -1.911668   -3.173823
  H      4.710148   -1.670882   -4.883561
  H      1.270423   -2.412650   -4.866143
  H      2.581829   -2.055282   -5.846878
  F     -0.158685   -1.701088   -4.657981
  O      1.055938   -0.174410   -5.740373
  C      2.497991   -1.469464   -1.610303
  C      1.582841   -0.321986   -2.042619
  H      2.193083   -1.833912   -0.625420
  H      3.523356   -1.103982   -1.490392
  C      0.100160   -0.673551   -1.915815
  H      1.822311   -0.040361   -3.072834
  H      1.813180    0.557019   -1.433266
  H     -0.063284   -1.679120   -2.301112
  H     -0.168820   -0.691680   -0.853831
  H     -1.001048    1.181040   -2.104071
  H     -1.844645   -0.246592   -2.663281
  H      1.472592   -3.051527   -2.694366
  H      3.083201   -3.490638   -2.141472

 Total Charge           Charge          ....    0
 Multiplicity           Mult            ....    1
 Number of Electrons    NEL             ....   94
 Basis Dimension        Dim             ....  468

ORBITAL ENERGIES
----------------

  NO   OCC          E(Eh)            E(eV)
   0   2.0000     -24.376160      -663.3090
   1   2.0000     -18.792474      -511.3692
   2   2.0000     -13.982084      -380.4719
   3   2.0000     -10.089646      -274.5532
   4   2.0000      -9.942149      -270.5396
   5   2.0000      -9.923349      -270.0281
   6   2.0000      -9.909588      -269.6536
   7   2.0000      -9.906713      -269.5754
   8   2.0000      -9.902692      -269.4659
   9   2.0000      -9.899123      -269.3688
  10   2.0000      -9.896735      -269.3039
  11   2.0000      -9.820904      -267.2404
  12   2.0000      -1.232068       -33.5263
  13   2.0000      -0.962232       -26.1837
  14   2.0000      -0.834641       -22.7117
  15   2.0000      -0.751285       -20.4435
  16   2.0000      -0.713640       -19.4191
  17   2.0000      -0.675642       -18.3852
  18   2.0000      -0.633579       -17.2405
  19   2.0000      -0.617576       -16.8051
  20   2.0000      -0.595255       -16.1977
  21   2.0000      -0.558019       -15.1845
  22   2.0000      -0.525690       -14.3048
  23   2.0000      -0.519722       -14.1424
  24   2.0000      -0.500732       -13.6256
  25   2.0000      -0.478375       -13.0172
  26   2.0000      -0.452316       -12.3081
  27   2.0000      -0.440769       -11.9939
  28   2.0000      -0.426472       -11.6049
  29   2.0000      -0.420423       -11.4403
  30   2.0000      -0.415997       -11.3199
  31   2.0000      -0.391254       -10.6466
  32   2.0000      -0.375804       -10.2261
  33   2.0000      -0.367115        -9.9897
  34   2.0000      -0.359771        -9.7899
  35   2.0000      -0.343373        -9.3437
  36   2.0000      -0.338846        -9.2205
  37   2.0000      -0.326999        -8.8981
  38   2.0000      -0.319513        -8.6944
  39   2.0000      -0.312105        -8.4928
  40   2.0000      -0.300520        -8.1776
  41   2.0000      -0.293056        -7.9745
  42   2.0000      -0.280516        -7.6332
  43   2.0000      -0.276664        -7.5284
  44   2.0000      -0.270805        -7.3690
  45   2.0000      -0.252450        -6.8695
  46   2.0000      -0.136582        -3.7166
  47   0.0000      -0.078339        -2.1317
  48   0.0000      -0.002567        -0.0699
  49   0.0000       0.018757         0.5104
  50   0.0000       0.029766         0.8100
  51   0.0000       0.035295         0.9604

MULLIKEN ATOMIC CHARGES
-----------------------
   0 C :   -0.209704
   1 C :   -0.141268
   2 C :   -0.210424
   3 H :    0.131125
   4 H :    0.119436
   5 C :    0.307128
   6 C :    0.184276
   7 N :   -0.328365
   8 C :   -0.404223
   9 H :    0.062853
  10 H :    0.066004
  11 H :    0.195366
  12 H :    0.206850
  13 F :   -0.113687
  14 O :   -0.273898
  15 C :   -0.085739
  16 C :   -0.195654
  17 H :    0.058063
  18 H :    0.086245
  19 C :   -0.180040
  20 H :    0.132000
  21 H :    0.068146
  22 H :    0.088957
  23 H :    0.082722
  24 H :    0.089631
  25 H :    0.089467
  26 H :    0.075642
  27 H :    0.099090
Sum of atomic charges:   -0.0000000

LOEWDIN ATOMIC CHARGES
----------------------
   0 C :   -0.210378
   1 C :   -0.258554
   2 C :   -0.230832
   3 H :    0.156550
   4 H :    0.154714
   5 C :   -0.524673
   6 C :   -0.385685
   7 N :    0.044220
   8 C :   -0.285082
   9 H :    0.098942
  10 H :    0.092368
  11 H :    0.140035
  12 H :    0.166756
  13 F :    0.333364
  14 O :    0.111708
  15 C :   -0.244966
  16 C :   -0.254719
  17 H :    0.130950
  18 H :    0.136379
  19 C :   -0.265176
  20 H :    0.143658
  21 H :    0.132929
  22 H :    0.129916
  23 H :    0.135803
  24 H :    0.138435
  25 H :    0.136098
  26 H :    0.128407
  27 H :    0.148832

  Mayer bond orders larger than 0.100000
B(  0-C ,  6-C ) :   0.9269 B(  0-C , 15-C ) :   0.9556 B(  0-C , 26-H ) :   0.9921
B(  0-C , 27-H ) :   0.9659 B(  1-C ,  2-C ) :   0.9391 B(  1-C , 19-C ) :   0.9510
B(  1-C , 24-H ) :   0.9548 B(  1-C , 25-H ) :   0.9672 B(  2-C ,  3-H ) :   0.9585
B(  2-C ,  4-H ) :   0.9334 B(  2-C ,  5-C ) :   0.9970 B(  5-C , 13-F ) :   1.0843
B(  5-C , 14-O ) :   2.0702 B(  6-C ,  7-N ) :   1.2486 B(  6-C ,  8-C ) :   1.6917
B(  7-N , 11-H ) :   0.9194 B(  7-N , 12-H ) :   0.9250 B(  8-C ,  9-H ) :   0.9913
B(  8-C , 10-H ) :   0.9860 B( 15-C , 16-C ) :   0.9672 B( 15-C , 17-H ) :   0.9493
B( 15-C , 18-H ) :   0.9550 B( 16-C , 19-C ) :   0.9386 B( 16-C , 20-H ) :   0.9632
B( 16-C , 21-H ) :   0.9539 B( 19-C , 22-H ) :   0.9775 B( 19-C , 23-H ) :   0.9597

Dispersion correction           -0.062388789
FINAL SINGLE POINT ENERGY      -582.406479754948

DIPOLE MOMENT
-------------
                                X             Y             Z
Electronic contribution:     -5.31255      -1.82595     -10.95595
Nuclear contribution   :      3.65024       2.44123      11.52670
                        -----------------------------------------
Total Dipole Moment    :     -1.66231       0.61528       0.57076
                        -----------------------------------------
Magnitude (a.u.)       :      1.86215
Magnitude (Debye)      :      4.73322

Rotational constants in cm-1:     0.040600     0.026409     0.019262
Rotational constants in MHz :  1217.142957   791.712481   577.449390

                             ****ORCA TERMINATED NORMALLY****
TOTAL RUN TIME: 0 days 0 hours 0 minutes 18 seconds 309 msec
