                         Program Version 5.0.0 -  RELEASE  -
|  1> !BLYP D3BJ RIJCOSX def2-TZVP def2/J TightSCF xyzfile
|  2>
|  3> *xyzfile 0 1 D3.xyz
|  4>
|  5> %MaxCore 64000
|  6>
|  7> %pal nprocs 18
|  8> end
|  9>
| 10> %scf
| 11>   MaxIter 150
| 12> end
| 13>
| 14>
| 15>                          ****END OF INPUT****

CARTESIAN COORDINATES (ANGSTROEM)
---------------------------------
  C      2.486452   -2.677121   -2.563447
  C     -0.870963    0.248043   -2.662804
  C     -0.477492    0.608191   -4.101052
  H      0.206773    1.458299   -4.118748
  H     -1.368442    0.929419   -4.647855
  C      0.184673   -0.506640   -4.916760
  C      3.037640   -2.366715   -3.923509
  C      2.280360   -2.454408   -4.967692
  N      4.321736   -2.017932   -4.016641
  H      4.879940   -1.911668   -3.173823
  H      4.710148   -1.670882   -4.883561
  H      1.270423   -2.412650   -4.866143
  H      2.581829   -2.055282   -5.846878
  O     -0.158685   -1.701088   -4.657981
  F      1.055938   -0.174410   -5.740373
  C      2.497991   -1.469464   -1.610303
  C      1.582841   -0.321986   -2.042619
  H      2.193083   -1.833912   -0.625420
  H      3.523356   -1.103982   -1.490392
  C      0.100160   -0.673551   -1.915815
  H      1.822311   -0.040361   -3.072834
  H      1.813180    0.557019   -1.433266
  H     -0.063284   -1.679120   -2.301112
  H     -0.168820   -0.691680   -0.853831
  H     -1.001048    1.181040   -2.104071
  H     -1.844645   -0.246592   -2.663281
  H      1.472592   -3.051527   -2.694366
  H      3.083201   -3.490638   -2.141472

 Total Charge           Charge          ....    0
 Multiplicity           Mult            ....    1
 Number of Electrons    NEL             ....   94
 Basis Dimension        Dim             ....  468

ORBITAL ENERGIES
----------------

  NO   OCC          E(Eh)            E(eV)
   0   2.0000     -24.353911      -662.7036
   1   2.0000     -18.771531      -510.7993
   2   2.0000     -13.991228      -380.7207
   3   2.0000     -10.074723      -274.1471
   4   2.0000      -9.932458      -270.2759
   5   2.0000      -9.912994      -269.7463
   6   2.0000      -9.901352      -269.4295
   7   2.0000      -9.898701      -269.3574
   8   2.0000      -9.898592      -269.3544
   9   2.0000      -9.896010      -269.2841
  10   2.0000      -9.890707      -269.1398
  11   2.0000      -9.803779      -266.7744
  12   2.0000      -1.214964       -33.0609
  13   2.0000      -0.937118       -25.5003
  14   2.0000      -0.823465       -22.4076
  15   2.0000      -0.738254       -20.0889
  16   2.0000      -0.708344       -19.2750
  17   2.0000      -0.663804       -18.0630
  18   2.0000      -0.641428       -17.4542
  19   2.0000      -0.605427       -16.4745
  20   2.0000      -0.582294       -15.8450
  21   2.0000      -0.544916       -14.8279
  22   2.0000      -0.511792       -13.9266
  23   2.0000      -0.498630       -13.5684
  24   2.0000      -0.484654       -13.1881
  25   2.0000      -0.463747       -12.6192
  26   2.0000      -0.457715       -12.4551
  27   2.0000      -0.448231       -12.1970
  28   2.0000      -0.421380       -11.4663
  29   2.0000      -0.413634       -11.2555
  30   2.0000      -0.398831       -10.8528
  31   2.0000      -0.387050       -10.5322
  32   2.0000      -0.378946       -10.3117
  33   2.0000      -0.351710        -9.5705
  34   2.0000      -0.346468        -9.4279
  35   2.0000      -0.339640        -9.2421
  36   2.0000      -0.329552        -8.9676
  37   2.0000      -0.317664        -8.6441
  38   2.0000      -0.311372        -8.4729
  39   2.0000      -0.305301        -8.3077
  40   2.0000      -0.289501        -7.8777
  41   2.0000      -0.282840        -7.6965
  42   2.0000      -0.273152        -7.4328
  43   2.0000      -0.266768        -7.2591
  44   2.0000      -0.263921        -7.1817
  45   2.0000      -0.216909        -5.9024
  46   2.0000      -0.143433        -3.9030
  47   0.0000      -0.064394        -1.7523
  48   0.0000       0.006322         0.1720
  49   0.0000       0.014570         0.3965
  50   0.0000       0.026787         0.7289
  51   0.0000       0.039913         1.0861

MULLIKEN ATOMIC CHARGES
-----------------------
   0 C :   -0.202180
   1 C :   -0.119109
   2 C :   -0.217721
   3 H :    0.105760
   4 H :    0.116115
   5 C :    0.345461
   6 C :    0.188499
   7 C :   -0.387583
   8 N :   -0.408723
   9 H :    0.195570
  10 H :    0.197804
  11 H :    0.147042
  12 H :    0.034642
  13 O :   -0.319673
  14 F :   -0.072296
  15 C :   -0.113125
  16 C :   -0.160264
  17 H :    0.068517
  18 H :    0.065729
  19 C :   -0.162601
  20 H :    0.096615
  21 H :    0.060643
  22 H :    0.110442
  23 H :    0.072819
  24 H :    0.082047
  25 H :    0.083564
  26 H :    0.108991
  27 H :    0.083016
Sum of atomic charges:   -0.0000000

LOEWDIN ATOMIC CHARGES
----------------------
   0 C :   -0.210656
   1 C :   -0.248300
   2 C :   -0.237111
   3 H :    0.141483
   4 H :    0.154257
   5 C :   -0.518349
   6 C :   -0.379360
   7 C :   -0.265915
   8 N :   -0.003141
   9 H :    0.158751
  10 H :    0.161775
  11 H :    0.097410
  12 H :    0.090882
  13 O :    0.091285
  14 F :    0.374392
  15 C :   -0.253826
  16 C :   -0.253183
  17 H :    0.133801
  18 H :    0.125572
  19 C :   -0.260558
  20 H :    0.138226
  21 H :    0.129833
  22 H :    0.139647
  23 H :    0.132868
  24 H :    0.135831
  25 H :    0.139541
  26 H :    0.147076
  27 H :    0.137770

  Mayer bond orders larger than 0.100000
B(  0-C ,  6-C ) :   0.9587 B(  0-C , 15-C ) :   0.9315 B(  0-C , 26-H ) :   0.9916
B(  0-C , 27-H ) :   0.9625 B(  1-C ,  2-C ) :   0.9658 B(  1-C , 19-C ) :   0.9711
B(  1-C , 24-H ) :   0.9584 B(  1-C , 25-H ) :   0.9554 B(  2-C ,  3-H ) :   0.9482
B(  2-C ,  4-H ) :   0.9316 B(  2-C ,  5-C ) :   0.9985 B(  5-C , 13-O ) :   1.9567
B(  5-C , 14-F ) :   1.1820 B(  6-C ,  7-C ) :   1.7158 B(  6-C ,  8-N ) :   1.1086
B(  7-C , 11-H ) :   0.9790 B(  7-C , 12-H ) :   0.9835 B(  8-N ,  9-H ) :   0.9332
B(  8-N , 10-H ) :   0.9248 B( 15-C , 16-C ) :   0.9648 B( 15-C , 17-H ) :   0.9558
B( 15-C , 18-H ) :   0.9610 B( 16-C , 19-C ) :   0.9574 B( 16-C , 20-H ) :   0.9633
B( 16-C , 21-H ) :   0.9531 B( 19-C , 22-H ) :   0.9674 B( 19-C , 23-H ) :   0.9558

Dispersion correction           -0.062979504
FINAL SINGLE POINT ENERGY      -582.389462911063

DIPOLE MOMENT
-------------
                                X             Y             Z
Electronic contribution:     -1.69799       0.85285     -12.14726
Nuclear contribution   :      1.88979       0.56282      12.66056
                        -----------------------------------------
Total Dipole Moment    :      0.19180       1.41567       0.51330
                        -----------------------------------------
Magnitude (a.u.)       :      1.51802
Magnitude (Debye)      :      3.85849

Rotational constants in cm-1:     0.040271     0.025954     0.018866
Rotational constants in MHz :  1207.302496   778.083475   565.600538

                             ****ORCA TERMINATED NORMALLY****
TOTAL RUN TIME: 0 days 0 hours 0 minutes 18 seconds 648 msec
