                         Program Version 5.0.0 -  RELEASE  -
|  1> !LC-BLYP RIJCOSX def2-TZVPD def2/J TightSCF
|  2> *xyz -1 1
|  3> C         -0.10608        1.76991       -4.08984
|  4> C         -0.25875        1.00432       -5.40983
|  5> C          0.39596       -0.37070       -5.33994
|  6> H          0.23915        1.56939       -6.20125
|  7> H         -1.30936        0.88869       -5.68245
|  8> O         -0.32633       -1.39040       -5.49128
|  9> O          1.61941       -0.40073       -5.03683
| 10> H         -0.57627        2.72718       -4.17630
| 11> H          0.93321        1.90140       -3.87192
| 12> H         -0.56868        1.21534       -3.30031
| 13> *
| 14> %MaxCore 64000
| 15>
| 16> %pal nprocs 4
| 17> end
| 18>
| 19> %scf
| 20>   MaxIter 150
| 21> end
| 22>
| 23>
| 24>                          ****END OF INPUT****

CARTESIAN COORDINATES (ANGSTROEM)
---------------------------------
  C     -0.106080    1.769910   -4.089840
  C     -0.258750    1.004320   -5.409830
  C      0.395960   -0.370700   -5.339940
  H      0.239150    1.569390   -6.201250
  H     -1.309360    0.888690   -5.682450
  O     -0.326330   -1.390400   -5.491280
  O      1.619410   -0.400730   -5.036830
  H     -0.576270    2.727180   -4.176300
  H      0.933210    1.901400   -3.871920
  H     -0.568680    1.215340   -3.300310

 Total Charge           Charge          ....   -1
 Multiplicity           Mult            ....    1
 Number of Electrons    NEL             ....   40
 Basis Dimension        Dim             ....  236

ORBITAL ENERGIES
----------------

  NO   OCC          E(Eh)            E(eV)
   0   2.0000     -18.675974      -508.1991
   1   2.0000     -18.674445      -508.1575
   2   2.0000      -9.955499      -270.9029
   3   2.0000      -9.905569      -269.5442
   4   2.0000      -9.896974      -269.3104
   5   2.0000      -0.913831       -24.8666
   6   2.0000      -0.818615       -22.2756
   7   2.0000      -0.717252       -19.5174
   8   2.0000      -0.584794       -15.9131
   9   2.0000      -0.429226       -11.6798
  10   2.0000      -0.400860       -10.9079
  11   2.0000      -0.364770        -9.9259
  12   2.0000      -0.336538        -9.1577
  13   2.0000      -0.317363        -8.6359
  14   2.0000      -0.310658        -8.4534
  15   2.0000      -0.278653        -7.5825
  16   2.0000      -0.266007        -7.2384
  17   2.0000      -0.148379        -4.0376
  18   2.0000      -0.142896        -3.8884
  19   2.0000      -0.127755        -3.4764
  20   0.0000       0.176550         4.8042
  21   0.0000       0.198666         5.4060
  22   0.0000       0.206193         5.6108
  23   0.0000       0.220286         5.9943
  24   0.0000       0.246246         6.7007

MULLIKEN ATOMIC CHARGES
-----------------------
   0 C :   -1.246071
   1 C :   -0.408239
   2 C :    0.315390
   3 H :    0.289383
   4 H :    0.312637
   5 O :   -0.673462
   6 O :   -0.666707
   7 H :    0.374106
   8 H :    0.334802
   9 H :    0.368161
Sum of atomic charges:   -1.0000000

LOEWDIN ATOMIC CHARGES
----------------------
   0 C :   -0.141614
   1 C :   -0.226969
   2 C :   -0.801197
   3 H :    0.099593
   4 H :    0.094062
   5 O :   -0.099707
   6 O :   -0.098562
   7 H :    0.047860
   8 H :    0.059149
   9 H :    0.067385

  Mayer bond orders larger than 0.100000
B(  0-C ,  1-C ) :   0.4481 B(  0-C ,  7-H ) :   0.8834 B(  0-C ,  8-H ) :   0.9909
B(  0-C ,  9-H ) :   0.9192 B(  1-C ,  2-C ) :   0.8960 B(  1-C ,  3-H ) :   0.9616
B(  1-C ,  4-H ) :   0.9741 B(  2-C ,  5-O ) :   1.5062 B(  2-C ,  6-O ) :   1.5022

FINAL SINGLE POINT ENERGY      -267.354222151477

DIPOLE MOMENT
-------------
                                X             Y             Z
Electronic contribution:      1.71850      -5.25063      -1.70386
Nuclear contribution   :     -2.46071       7.20791       1.95694
                        -----------------------------------------
Total Dipole Moment    :     -0.74221       1.95729       0.25308
                        -----------------------------------------
Magnitude (a.u.)       :      2.10853
Magnitude (Debye)      :      5.35946

Rotational constants in cm-1:     0.309435     0.135317     0.107436
Rotational constants in MHz :  9276.637721  4056.700783  3220.846587

                             ****ORCA TERMINATED NORMALLY****
TOTAL RUN TIME: 0 days 0 hours 0 minutes 32 seconds 643 msec
