                         Program Version 5.0.0 -  RELEASE  -
|  1> !LC-BLYP RIJCOSX def2-TZVPD def2/J TightSCF
|  2> *xyz 1 1
|  3> C          0.81607       -2.10149       -2.18655
|  4> H          1.69623       -2.36869       -1.60046
|  5> N          1.10055       -2.46749       -3.59927
|  6> C          0.51624       -0.61363       -2.03937
|  7> H         -0.02007       -2.71285       -1.84084
|  8> H          1.70061       -1.75723       -4.07838
|  9> H          0.29386       -2.35977       -4.25632
| 10> H          1.50132       -3.42848       -3.69491
| 11> H         -0.34841       -0.36504       -2.61858
| 12> H          1.35358       -0.04503       -2.38643
| 13> H          0.33317       -0.38682       -1.00984
| 14> *
| 15> %MaxCore 64000
| 16>
| 17> %pal nprocs 4
| 18> end
| 19>
| 20> %scf
| 21>   MaxIter 150
| 22> end
| 23>
| 24>
| 25>                          ****END OF INPUT****

CARTESIAN COORDINATES (ANGSTROEM)
---------------------------------
  C      0.816070   -2.101490   -2.186550
  H      1.696230   -2.368690   -1.600460
  N      1.100550   -2.467490   -3.599270
  C      0.516240   -0.613630   -2.039370
  H     -0.020070   -2.712850   -1.840840
  H      1.700610   -1.757230   -4.078380
  H      0.293860   -2.359770   -4.256320
  H      1.501320   -3.428480   -3.694910
  H     -0.348410   -0.365040   -2.618580
  H      1.353580   -0.045030   -2.386430
  H      0.333170   -0.386820   -1.009840

 Total Charge           Charge          ....    1
 Multiplicity           Mult            ....    1
 Number of Electrons    NEL             ....   26
 Basis Dimension        Dim             ....  183

ORBITAL ENERGIES
----------------

  NO   OCC          E(Eh)            E(eV)
   0   2.0000     -14.505571      -394.7167
   1   2.0000     -10.322219      -280.8819
   2   2.0000     -10.242430      -278.7107
   3   2.0000      -1.311184       -35.6791
   4   2.0000      -1.074764       -29.2458
   5   2.0000      -0.958801       -26.0903
   6   2.0000      -0.892739       -24.2927
   7   2.0000      -0.877450       -23.8766
   8   2.0000      -0.804998       -21.9051
   9   2.0000      -0.740968       -20.1628
  10   2.0000      -0.683752       -18.6058
  11   2.0000      -0.668942       -18.2028
  12   2.0000      -0.648934       -17.6584
  13   0.0000      -0.143200        -3.8967
  14   0.0000      -0.087926        -2.3926
  15   0.0000      -0.080738        -2.1970
  16   0.0000      -0.078914        -2.1474
  17   0.0000      -0.041351        -1.1252

MULLIKEN ATOMIC CHARGES
-----------------------
   0 C :   -0.420799
   1 H :    0.400685
   2 N :   -0.440966
   3 C :   -1.404312
   4 H :    0.410596
   5 H :    0.368953
   6 H :    0.375237
   7 H :    0.376989
   8 H :    0.447857
   9 H :    0.470570
  10 H :    0.415190
Sum of atomic charges:    1.0000000

LOEWDIN ATOMIC CHARGES
----------------------
   0 C :   -0.219799
   1 H :    0.140291
   2 N :    0.158290
   3 C :   -0.068626
   4 H :    0.141939
   5 H :    0.188166
   6 H :    0.192425
   7 H :    0.195600
   8 H :    0.087334
   9 H :    0.086934
  10 H :    0.097446

  Mayer bond orders larger than 0.100000
B(  0-C ,  1-H ) :   0.8847 B(  0-C ,  2-N ) :   0.7962 B(  0-C ,  3-C ) :   0.4274
B(  0-C ,  4-H ) :   0.8830 B(  2-N ,  5-H ) :   0.8591 B(  2-N ,  6-H ) :   0.8562
B(  2-N ,  7-H ) :   0.8598 B(  3-C ,  8-H ) :   0.8554 B(  3-C ,  9-H ) :   0.8261
B(  3-C , 10-H ) :   0.9183

FINAL SINGLE POINT ENERGY      -135.188306760772

DIPOLE MOMENT
-------------
                                X             Y             Z
Electronic contribution:      0.41787      -1.43102      -1.07046
Nuclear contribution   :     -0.07506       0.54337      -0.16191
                        -----------------------------------------
Total Dipole Moment    :      0.34281      -0.88766      -1.23237
                        -----------------------------------------
Magnitude (a.u.)       :      1.55698
Magnitude (Debye)      :      3.95753

Rotational constants in cm-1:     0.999557     0.280801     0.246932
Rotational constants in MHz : 29965.963633  8418.199581  7402.841054

                             ****ORCA TERMINATED NORMALLY****
TOTAL RUN TIME: 0 days 0 hours 0 minutes 18 seconds 410 msec
