                         Program Version 5.0.0 -  RELEASE  -
|  1> !LC-BLYP RIJCOSX def2-TZVPD def2/J TightSCF xyzfile
|  2>
|  3> *xyzfile 0 1 B.xyz
|  4>
|  5> %MaxCore 64000
|  6>
|  7> %pal nprocs 4
|  8> end
|  9>
| 10> %scf
| 11>   MaxIter 150
| 12> end
| 13>
| 14>
| 15>                          ****END OF INPUT****

CARTESIAN COORDINATES (ANGSTROEM)
---------------------------------
  C      0.816067   -2.101491   -2.186546
  H      1.696232   -2.368691   -1.600457
  N      1.100552   -2.467492   -3.599269
  C      0.516243   -0.613634   -2.039373
  H     -0.020066   -2.712849   -1.840844
  C     -0.868621   -0.193925   -2.546303
  C     -0.984801    1.284739   -2.928686
  H     -0.764939    1.904116   -2.051568
  H     -2.032613    1.478953   -3.178952
  C     -0.106085    1.769914   -4.089836
  H     -0.347744    2.822196   -4.262942
  H      0.949683    1.745875   -3.808781
  C     -0.258747    1.004323   -5.409829
  C      0.395958   -0.370696   -5.339939
  H      0.239150    1.569393   -6.201253
  H     -1.309360    0.888694   -5.682455
  H      1.700606   -1.757225   -4.078378
  H      0.293855   -2.359766   -4.256324
  H      1.501324   -3.428479   -3.694915
  O     -0.326329   -1.390398   -5.491279
  O      1.619412   -0.400726   -5.036827
  H     -1.607271   -0.412651   -1.768955
  H     -1.157234   -0.796164   -3.409254
  H      1.299044   -0.056805   -2.558982
  H      0.612393   -0.365579   -0.979171

 Total Charge           Charge          ....    0
 Multiplicity           Mult            ....    1
 Number of Electrons    NEL             ....   80
 Basis Dimension        Dim             ....  511

ORBITAL ENERGIES
----------------

  NO   OCC          E(Eh)            E(eV)
   0   2.0000     -18.875135      -513.6185
   1   2.0000     -18.873692      -513.5793
   2   2.0000     -14.254612      -387.8877
   3   2.0000     -10.147053      -276.1153
   4   2.0000     -10.141477      -275.9636
   5   2.0000     -10.082601      -274.3615
   6   2.0000     -10.064625      -273.8724
   7   2.0000     -10.060501      -273.7602
   8   2.0000     -10.053825      -273.5785
   9   2.0000     -10.045751      -273.3588
  10   2.0000      -1.126415       -30.6513
  11   2.0000      -1.079196       -29.3664
  12   2.0000      -1.023745       -27.8575
  13   2.0000      -0.926120       -25.2010
  14   2.0000      -0.882605       -24.0169
  15   2.0000      -0.835659       -22.7394
  16   2.0000      -0.770762       -20.9735
  17   2.0000      -0.738115       -20.0851
  18   2.0000      -0.684617       -18.6294
  19   2.0000      -0.673001       -18.3133
  20   2.0000      -0.647668       -17.6239
  21   2.0000      -0.623178       -16.9575
  22   2.0000      -0.587223       -15.9792
  23   2.0000      -0.577225       -15.7071
  24   2.0000      -0.562242       -15.2994
  25   2.0000      -0.549794       -14.9606
  26   2.0000      -0.529490       -14.4081
  27   2.0000      -0.522570       -14.2198
  28   2.0000      -0.502080       -13.6623
  29   2.0000      -0.492965       -13.4142
  30   2.0000      -0.491316       -13.3694
  31   2.0000      -0.472656       -12.8616
  32   2.0000      -0.451545       -12.2872
  33   2.0000      -0.447911       -12.1883
  34   2.0000      -0.423171       -11.5151
  35   2.0000      -0.408194       -11.1075
  36   2.0000      -0.404757       -11.0140
  37   2.0000      -0.350355        -9.5337
  38   2.0000      -0.337394        -9.1809
  39   2.0000      -0.329604        -8.9690
  40   0.0000       0.028661         0.7799
  41   0.0000       0.056562         1.5391
  42   0.0000       0.063764         1.7351
  43   0.0000       0.064527         1.7559
  44   0.0000       0.082502         2.2450

MULLIKEN ATOMIC CHARGES
-----------------------
   0 C :   -0.868601
   1 H :    0.457419
   2 N :   -0.375465
   3 C :   -0.649067
   4 H :    0.414562
   5 C :   -0.890695
   6 C :   -0.811936
   7 H :    0.363766
   8 H :    0.422643
   9 C :   -0.806665
  10 H :    0.405044
  11 H :    0.333998
  12 C :   -0.570471
  13 C :    0.497227
  14 H :    0.412277
  15 H :    0.341450
  16 H :    0.342904
  17 H :    0.336697
  18 H :    0.320119
  19 O :   -0.735720
  20 O :   -0.739596
  21 H :    0.426506
  22 H :    0.505226
  23 H :    0.367728
  24 H :    0.500650
Sum of atomic charges:   -0.0000000

LOEWDIN ATOMIC CHARGES
----------------------
   0 C :   -0.179054
   1 H :    0.125772
   2 N :    0.128068
   3 C :   -0.195667
   4 H :    0.131998
   5 C :   -0.211365
   6 C :   -0.210802
   7 H :    0.116224
   8 H :    0.117336
   9 C :   -0.216069
  10 H :    0.113078
  11 H :    0.107844
  12 C :   -0.123282
  13 C :   -0.688120
  14 H :    0.123617
  15 H :    0.121989
  16 H :    0.092518
  17 H :    0.092355
  18 H :    0.178460
  19 O :   -0.045946
  20 O :   -0.037101
  21 H :    0.119494
  22 H :    0.102481
  23 H :    0.111711
  24 H :    0.124460

  Mayer bond orders larger than 0.100000
B(  0-C ,  1-H ) :   0.8679 B(  0-C ,  2-N ) :   0.8355 B(  0-C ,  3-C ) :   0.6962
B(  0-C ,  4-H ) :   0.8888 B(  2-N , 16-H ) :   0.7504 B(  2-N , 17-H ) :   0.7606
B(  2-N , 18-H ) :   0.8830 B(  3-C ,  5-C ) :   0.2374 B(  3-C , 23-H ) :   0.9794
B(  3-C , 24-H ) :   0.7990 B(  5-C ,  6-C ) :   0.6369 B(  5-C , 21-H ) :   0.9152
B(  5-C , 22-H ) :   0.8771 B(  6-C ,  7-H ) :   0.9672 B(  6-C ,  8-H ) :   0.9320
B(  6-C ,  9-C ) :   0.5608 B(  9-C , 10-H ) :   0.9236 B(  9-C , 11-H ) :   0.9666
B(  9-C , 12-C ) :   0.6176 B( 12-C , 13-C ) :   0.8188 B( 12-C , 14-H ) :   0.8749
B( 12-C , 15-H ) :   1.0423 B( 13-C , 19-O ) :   1.2603 B( 13-C , 20-O ) :   1.2524
B( 16-H , 20-O ) :   0.2063 B( 17-H , 19-O ) :   0.2105 B( 19-O , 20-O ) :   0.1109

FINAL SINGLE POINT ENERGY      -479.994648504502

DIPOLE MOMENT
-------------
                                X             Y             Z
Electronic contribution:      2.28432      -3.07490      -6.25106
Nuclear contribution   :     -2.02598       1.95876       8.24116
                        -----------------------------------------
Total Dipole Moment    :      0.25835      -1.11613       1.99009
                        -----------------------------------------
Magnitude (a.u.)       :      2.29630
Magnitude (Debye)      :      5.83672

Rotational constants in cm-1:     0.052900     0.041948     0.028766
Rotational constants in MHz :  1585.892512  1257.572595   862.390225

                             ****ORCA TERMINATED NORMALLY****
TOTAL RUN TIME: 0 days 0 hours 3 minutes 34 seconds 557 msec
