                         Program Version 5.0.0 -  RELEASE  -
|  1> !LC-BLYP RIJCOSX def2-TZVPD def2/J TightSCF
|  2> *xyz 0 1
|  3> C         -0.10608        1.76991       -4.08984
|  4> C         -0.25875        1.00432       -5.40983
|  5> C          0.39596       -0.37070       -5.33994
|  6> H          0.23915        1.56939       -6.20125
|  7> H         -1.30936        0.88869       -5.68245
|  8> F         -0.32633       -1.39040       -5.49128
|  9> O          1.61941       -0.40073       -5.03683
| 10> H         -0.57627        2.72718       -4.17630
| 11> H          0.93321        1.90140       -3.87192
| 12> H         -0.56868        1.21534       -3.30031
| 13> *
| 14> %MaxCore 64000
| 15>
| 16> %pal nprocs 4
| 17> end
| 18>
| 19> %scf
| 20>   MaxIter 150
| 21> end
| 22>
| 23>
| 24>                          ****END OF INPUT****

CARTESIAN COORDINATES (ANGSTROEM)
---------------------------------
  C     -0.106080    1.769910   -4.089840
  C     -0.258750    1.004320   -5.409830
  C      0.395960   -0.370700   -5.339940
  H      0.239150    1.569390   -6.201250
  H     -1.309360    0.888690   -5.682450
  F     -0.326330   -1.390400   -5.491280
  O      1.619410   -0.400730   -5.036830
  H     -0.576270    2.727180   -4.176300
  H      0.933210    1.901400   -3.871920
  H     -0.568680    1.215340   -3.300310

 Total Charge           Charge          ....    0
 Multiplicity           Mult            ....    1
 Number of Electrons    NEL             ....   40
 Basis Dimension        Dim             ....  236

ORBITAL ENERGIES
----------------

  NO   OCC          E(Eh)            E(eV)
   0   2.0000     -24.526145      -667.3903
   1   2.0000     -18.946470      -515.5597
   2   2.0000     -10.251915      -278.9688
   3   2.0000     -10.103524      -274.9309
   4   2.0000     -10.073583      -274.1161
   5   2.0000      -1.398856       -38.0648
   6   2.0000      -1.125744       -30.6330
   7   2.0000      -0.913038       -24.8450
   8   2.0000      -0.797788       -21.7089
   9   2.0000      -0.745540       -20.2872
  10   2.0000      -0.657821       -17.9002
  11   2.0000      -0.640687       -17.4340
  12   2.0000      -0.614656       -16.7256
  13   2.0000      -0.572550       -15.5799
  14   2.0000      -0.538742       -14.6599
  15   2.0000      -0.503050       -13.6887
  16   2.0000      -0.479762       -13.0550
  17   2.0000      -0.475397       -12.9362
  18   2.0000      -0.448791       -12.2122
  19   2.0000      -0.395534       -10.7630
  20   0.0000       0.041002         1.1157
  21   0.0000       0.050633         1.3778
  22   0.0000       0.071909         1.9567
  23   0.0000       0.078811         2.1446
  24   0.0000       0.088506         2.4084

MULLIKEN ATOMIC CHARGES
-----------------------
   0 C :   -1.269796
   1 C :   -0.460113
   2 C :    0.477987
   3 H :    0.328751
   4 H :    0.363708
   5 F :   -0.171455
   6 O :   -0.439092
   7 H :    0.392239
   8 H :    0.377168
   9 H :    0.400604
Sum of atomic charges:    0.0000000

LOEWDIN ATOMIC CHARGES
----------------------
   0 C :   -0.098753
   1 C :   -0.171398
   2 C :   -0.512172
   3 H :    0.126672
   4 H :    0.115332
   5 F :    0.221353
   6 O :    0.087709
   7 H :    0.074219
   8 H :    0.076894
   9 H :    0.080144

  Mayer bond orders larger than 0.100000
B(  0-C ,  1-C ) :   0.5087 B(  0-C ,  7-H ) :   0.8901 B(  0-C ,  8-H ) :   0.9571
B(  0-C ,  9-H ) :   0.8808 B(  1-C ,  2-C ) :   0.8922 B(  1-C ,  3-H ) :   0.9483
B(  1-C ,  4-H ) :   0.9063 B(  2-C ,  5-F ) :   1.0546 B(  2-C ,  6-O ) :   1.7768

FINAL SINGLE POINT ENERGY      -291.904590849118

DIPOLE MOMENT
-------------
                                X             Y             Z
Electronic contribution:      0.83106      -8.15853      -2.57460
Nuclear contribution   :     -1.80992       8.85192       2.42184
                        -----------------------------------------
Total Dipole Moment    :     -0.97886       0.69339      -0.15276
                        -----------------------------------------
Magnitude (a.u.)       :      1.20926
Magnitude (Debye)      :      3.07369

Rotational constants in cm-1:     0.298360     0.128849     0.102271
Rotational constants in MHz :  8944.606599  3862.796179  3066.020510

                             ****ORCA TERMINATED NORMALLY****
TOTAL RUN TIME: 0 days 0 hours 0 minutes 32 seconds 872 msec
