                         Program Version 5.0.0 -  RELEASE  -
|  1> !LC-BLYP RIJCOSX def2-TZVPD def2/J TightSCF
|  2> *xyz 0 1
|  3> C          0.81607       -2.10149       -2.18655
|  4> H          1.69623       -2.36869       -1.60046
|  5> C          1.10055       -2.46749       -3.59927
|  6> C          0.51624       -0.61363       -2.03937
|  7> H         -0.02007       -2.71285       -1.84084
|  8> H          1.70061       -1.75723       -4.07838
|  9> H          0.29386       -2.35977       -4.25632
| 10> H          1.50132       -3.42848       -3.69491
| 11> H         -0.34841       -0.36504       -2.61858
| 12> H          1.35358       -0.04503       -2.38643
| 13> H          0.33317       -0.38682       -1.00984
| 14> *
| 15> %MaxCore 64000
| 16>
| 17> %pal nprocs 4
| 18> end
| 19>
| 20> %scf
| 21>   MaxIter 150
| 22> end
| 23>
| 24>
| 25>                          ****END OF INPUT****

CARTESIAN COORDINATES (ANGSTROEM)
---------------------------------
  C      0.816070   -2.101490   -2.186550
  H      1.696230   -2.368690   -1.600460
  C      1.100550   -2.467490   -3.599270
  C      0.516240   -0.613630   -2.039370
  H     -0.020070   -2.712850   -1.840840
  H      1.700610   -1.757230   -4.078380
  H      0.293860   -2.359770   -4.256320
  H      1.501320   -3.428480   -3.694910
  H     -0.348410   -0.365040   -2.618580
  H      1.353580   -0.045030   -2.386430
  H      0.333170   -0.386820   -1.009840

 Total Charge           Charge          ....    0
 Multiplicity           Mult            ....    1
 Number of Electrons    NEL             ....   26
 Basis Dimension        Dim             ....  183

ORBITAL ENERGIES
----------------

  NO   OCC          E(Eh)            E(eV)
   0   2.0000     -10.056037      -273.6387
   1   2.0000     -10.045407      -273.3494
   2   2.0000     -10.032964      -273.0108
   3   2.0000      -0.899954       -24.4890
   4   2.0000      -0.796972       -21.6867
   5   2.0000      -0.697560       -18.9816
   6   2.0000      -0.568017       -15.4565
   7   2.0000      -0.552041       -15.0218
   8   2.0000      -0.514905       -14.0113
   9   2.0000      -0.476583       -12.9685
  10   2.0000      -0.440001       -11.9730
  11   2.0000      -0.435337       -11.8461
  12   2.0000      -0.417187       -11.3522
  13   0.0000       0.060136         1.6364
  14   0.0000       0.079704         2.1688
  15   0.0000       0.081343         2.2134
  16   0.0000       0.112408         3.0588
  17   0.0000       0.132379         3.6022

MULLIKEN ATOMIC CHARGES
-----------------------
   0 C :   -0.341712
   1 H :    0.348620
   2 C :   -1.446435
   3 C :   -1.306561
   4 H :    0.332290
   5 H :    0.436772
   6 H :    0.450750
   7 H :    0.377817
   8 H :    0.380473
   9 H :    0.396063
  10 H :    0.371925
Sum of atomic charges:   -0.0000000

LOEWDIN ATOMIC CHARGES
----------------------
   0 C :   -0.334101
   1 H :    0.107949
   2 C :   -0.153232
   3 C :   -0.130134
   4 H :    0.109220
   5 H :    0.062481
   6 H :    0.064717
   7 H :    0.064458
   8 H :    0.071951
   9 H :    0.070846
  10 H :    0.065845

  Mayer bond orders larger than 0.100000
B(  0-C ,  1-H ) :   0.9372 B(  0-C ,  2-C ) :   0.4620 B(  0-C ,  3-C ) :   0.5044
B(  0-C ,  4-H ) :   0.9373 B(  2-C ,  5-H ) :   0.8728 B(  2-C ,  6-H ) :   0.8827
B(  2-C ,  7-H ) :   0.9299 B(  3-C ,  8-H ) :   0.9243 B(  3-C ,  9-H ) :   0.9136
B(  3-C , 10-H ) :   0.9446

FINAL SINGLE POINT ENERGY      -118.786745202802

DIPOLE MOMENT
-------------
                                X             Y             Z
Electronic contribution:     -0.01889      -0.30852       0.46216
Nuclear contribution   :      0.01737       0.30387      -0.47422
                        -----------------------------------------
Total Dipole Moment    :     -0.00151      -0.00465      -0.01205
                        -----------------------------------------
Magnitude (a.u.)       :      0.01301
Magnitude (Debye)      :      0.03306

Rotational constants in cm-1:     1.006891     0.295208     0.258491
Rotational constants in MHz : 30185.831813  8850.104914  7749.351732

                             ****ORCA TERMINATED NORMALLY****
TOTAL RUN TIME: 0 days 0 hours 0 minutes 18 seconds 476 msec
