                         Program Version 5.0.0 -  RELEASE  -
|  1> !LC-BLYP RIJCOSX def2-TZVPD def2/J TightSCF
|  2> *xyz 0 1
|  3> C         -0.10608        1.76991       -4.08984
|  4> C         -0.25875        1.00432       -5.40983
|  5> C          0.39596       -0.37070       -5.33994
|  6> H          0.23915        1.56939       -6.20125
|  7> H         -1.30936        0.88869       -5.68245
|  8> O         -0.32633       -1.39040       -5.49128
|  9> F          1.61941       -0.40073       -5.03683
| 10> H         -0.57627        2.72718       -4.17630
| 11> H          0.93321        1.90140       -3.87192
| 12> H         -0.56868        1.21534       -3.30031
| 13> *
| 14> %MaxCore 64000
| 15>
| 16> %pal nprocs 4
| 17> end
| 18>
| 19> %scf
| 20>   MaxIter 150
| 21> end
| 22>
| 23>
| 24>                          ****END OF INPUT****

CARTESIAN COORDINATES (ANGSTROEM)
---------------------------------
  C     -0.106080    1.769910   -4.089840
  C     -0.258750    1.004320   -5.409830
  C      0.395960   -0.370700   -5.339940
  H      0.239150    1.569390   -6.201250
  H     -1.309360    0.888690   -5.682450
  O     -0.326330   -1.390400   -5.491280
  F      1.619410   -0.400730   -5.036830
  H     -0.576270    2.727180   -4.176300
  H      0.933210    1.901400   -3.871920
  H     -0.568680    1.215340   -3.300310

 Total Charge           Charge          ....    0
 Multiplicity           Mult            ....    1
 Number of Electrons    NEL             ....   40
 Basis Dimension        Dim             ....  236

ORBITAL ENERGIES
----------------

  NO   OCC          E(Eh)            E(eV)
   0   2.0000     -24.524845      -667.3550
   1   2.0000     -18.947268      -515.5814
   2   2.0000     -10.251188      -278.9490
   3   2.0000     -10.103275      -274.9241
   4   2.0000     -10.078741      -274.2565
   5   2.0000      -1.397508       -38.0281
   6   2.0000      -1.125662       -30.6308
   7   2.0000      -0.917746       -24.9731
   8   2.0000      -0.795056       -21.6346
   9   2.0000      -0.749268       -20.3886
  10   2.0000      -0.659152       -17.9364
  11   2.0000      -0.644991       -17.5511
  12   2.0000      -0.607301       -16.5255
  13   2.0000      -0.572573       -15.5805
  14   2.0000      -0.539239       -14.6734
  15   2.0000      -0.506888       -13.7931
  16   2.0000      -0.486086       -13.2271
  17   2.0000      -0.478849       -13.0301
  18   2.0000      -0.454218       -12.3599
  19   2.0000      -0.391891       -10.6639
  20   0.0000       0.041629         1.1328
  21   0.0000       0.052830         1.4376
  22   0.0000       0.070713         1.9242
  23   0.0000       0.078136         2.1262
  24   0.0000       0.088815         2.4168

MULLIKEN ATOMIC CHARGES
-----------------------
   0 C :   -1.287174
   1 C :   -0.443708
   2 C :    0.493034
   3 H :    0.351282
   4 H :    0.328154
   5 O :   -0.448407
   6 F :   -0.173142
   7 H :    0.384106
   8 H :    0.385038
   9 H :    0.410817
Sum of atomic charges:   -0.0000000

LOEWDIN ATOMIC CHARGES
----------------------
   0 C :   -0.100667
   1 C :   -0.167418
   2 C :   -0.518424
   3 H :    0.123390
   4 H :    0.123848
   5 O :    0.090307
   6 F :    0.218503
   7 H :    0.074852
   8 H :    0.073869
   9 H :    0.081739

  Mayer bond orders larger than 0.100000
B(  0-C ,  1-C ) :   0.4544 B(  0-C ,  7-H ) :   0.9084 B(  0-C ,  8-H ) :   0.9195
B(  0-C ,  9-H ) :   0.8990 B(  1-C ,  2-C ) :   0.8823 B(  1-C ,  3-H ) :   0.9283
B(  1-C ,  4-H ) :   0.9519 B(  2-C ,  5-O ) :   1.7756 B(  2-C ,  6-F ) :   1.0364

FINAL SINGLE POINT ENERGY      -291.905901653154

DIPOLE MOMENT
-------------
                                X             Y             Z
Electronic contribution:      4.06766      -6.47852      -1.81051
Nuclear contribution   :     -3.93139       7.77287       1.92635
                        -----------------------------------------
Total Dipole Moment    :      0.13627       1.29435       0.11584
                        -----------------------------------------
Magnitude (a.u.)       :      1.30665
Magnitude (Debye)      :      3.32124

Rotational constants in cm-1:     0.286068     0.133630     0.103472
Rotational constants in MHz :  8576.109806  4006.118234  3102.010802

                             ****ORCA TERMINATED NORMALLY****
TOTAL RUN TIME: 0 days 0 hours 0 minutes 33 seconds 390 msec
