                         Program Version 5.0.0 -  RELEASE  -
|  1> !LC-BLYP RIJCOSX def2-TZVPD def2/J TightSCF xyzfile
|  2>
|  3> *xyzfile 0 1 D1.xyz
|  4>
|  5> %MaxCore 64000
|  6>
|  7> %pal nprocs 4
|  8> end
|  9>
| 10> %scf
| 11>   MaxIter 150
| 12> end
| 13>
| 14>
| 15>                          ****END OF INPUT****

CARTESIAN COORDINATES (ANGSTROEM)
---------------------------------
  C      0.816067   -2.101491   -2.186546
  H      1.696232   -2.368691   -1.600457
  C      1.100552   -2.467492   -3.599269
  C      0.516243   -0.613634   -2.039373
  H     -0.020066   -2.712849   -1.840844
  C     -0.868621   -0.193925   -2.546303
  C     -0.984801    1.284739   -2.928686
  H     -0.764939    1.904116   -2.051568
  H     -2.032613    1.478953   -3.178952
  C     -0.106085    1.769914   -4.089836
  H     -0.347744    2.822196   -4.262942
  H      0.949683    1.745875   -3.808781
  C     -0.258747    1.004323   -5.409829
  C      0.395958   -0.370696   -5.339939
  H      0.239150    1.569393   -6.201253
  H     -1.309360    0.888694   -5.682455
  H      1.700606   -1.757225   -4.078378
  H      0.293855   -2.359766   -4.256324
  H      1.501324   -3.428479   -3.694915
  F     -0.326329   -1.390398   -5.491279
  O      1.619412   -0.400726   -5.036827
  H     -1.607271   -0.412651   -1.768955
  H     -1.157234   -0.796164   -3.409254
  H      1.299044   -0.056805   -2.558982
  H      0.612393   -0.365579   -0.979171

 Total Charge           Charge          ....    0
 Multiplicity           Mult            ....    1
 Number of Electrons    NEL             ....   80
 Basis Dimension        Dim             ....  511

ORBITAL ENERGIES
----------------

  NO   OCC          E(Eh)            E(eV)
   0   2.0000     -24.533213      -667.5827
   1   2.0000     -18.952161      -515.7145
   2   2.0000     -10.259453      -279.1739
   3   2.0000     -10.103988      -274.9435
   4   2.0000     -10.082868      -274.3688
   5   2.0000     -10.071216      -274.0517
   6   2.0000     -10.063636      -273.8455
   7   2.0000     -10.049892      -273.4715
   8   2.0000     -10.040649      -273.2200
   9   2.0000      -9.991708      -271.8882
  10   2.0000      -1.412062       -38.4242
  11   2.0000      -1.140278       -31.0285
  12   2.0000      -0.937583       -25.5129
  13   2.0000      -0.904455       -24.6115
  14   2.0000      -0.855314       -23.2743
  15   2.0000      -0.816359       -22.2143
  16   2.0000      -0.772108       -21.0101
  17   2.0000      -0.747958       -20.3530
  18   2.0000      -0.709738       -19.3129
  19   2.0000      -0.668877       -18.2011
  20   2.0000      -0.664728       -18.0882
  21   2.0000      -0.647051       -17.6071
  22   2.0000      -0.632688       -17.2163
  23   2.0000      -0.585965       -15.9449
  24   2.0000      -0.564957       -15.3733
  25   2.0000      -0.550312       -14.9748
  26   2.0000      -0.543986       -14.8026
  27   2.0000      -0.529256       -14.4018
  28   2.0000      -0.515701       -14.0329
  29   2.0000      -0.502783       -13.6814
  30   2.0000      -0.483802       -13.1649
  31   2.0000      -0.468829       -12.7575
  32   2.0000      -0.465066       -12.6551
  33   2.0000      -0.449524       -12.2322
  34   2.0000      -0.435589       -11.8530
  35   2.0000      -0.424125       -11.5410
  36   2.0000      -0.415069       -11.2946
  37   2.0000      -0.403488       -10.9795
  38   2.0000      -0.393722       -10.7137
  39   2.0000      -0.361664        -9.8414
  40   0.0000       0.034347         0.9346
  41   0.0000       0.047814         1.3011
  42   0.0000       0.063285         1.7221
  43   0.0000       0.065171         1.7734
  44   0.0000       0.069693         1.8964

MULLIKEN ATOMIC CHARGES
-----------------------
   0 C :   -0.474883
   1 H :    0.403069
   2 C :   -2.088391
   3 C :   -0.711065
   4 H :    0.344348
   5 C :   -0.803075
   6 C :   -0.822124
   7 H :    0.374196
   8 H :    0.414731
   9 C :   -0.796346
  10 H :    0.409376
  11 H :    0.373597
  12 C :   -0.564030
  13 C :    0.418230
  14 H :    0.420491
  15 H :    0.372768
  16 H :    0.754742
  17 H :    0.635008
  18 H :    0.465437
  19 F :   -0.235422
  20 O :   -0.495157
  21 H :    0.445283
  22 H :    0.380555
  23 H :    0.321686
  24 H :    0.456975
Sum of atomic charges:   -0.0000000

LOEWDIN ATOMIC CHARGES
----------------------
   0 C :   -0.253129
   1 H :    0.113238
   2 C :   -0.137074
   3 C :   -0.217971
   4 H :    0.115849
   5 C :   -0.210413
   6 C :   -0.212269
   7 H :    0.120676
   8 H :    0.115563
   9 C :   -0.206453
  10 H :    0.118601
  11 H :    0.113900
  12 C :   -0.098671
  13 C :   -0.483204
  14 H :    0.133073
  15 H :    0.127479
  16 H :    0.023729
  17 H :    0.038651
  18 H :    0.078468
  19 F :    0.191439
  20 O :    0.077571
  21 H :    0.122682
  22 H :    0.103890
  23 H :    0.107185
  24 H :    0.117191

  Mayer bond orders larger than 0.100000
B(  0-C ,  1-H ) :   0.9115 B(  0-C ,  2-C ) :   0.1180 B(  0-C ,  3-C ) :   0.7495
B(  0-C ,  4-H ) :   0.9506 B(  2-C , 13-C ) :   0.1067 B(  2-C , 16-H ) :   0.4621
B(  2-C , 17-H ) :   0.5785 B(  2-C , 18-H ) :   0.8811 B(  2-C , 20-O ) :   0.1145
B(  3-C ,  5-C ) :   0.2953 B(  3-C , 23-H ) :   1.0410 B(  3-C , 24-H ) :   0.8115
B(  5-C ,  6-C ) :   0.6175 B(  5-C , 21-H ) :   0.8784 B(  5-C , 22-H ) :   0.9479
B(  6-C ,  7-H ) :   0.9575 B(  6-C ,  8-H ) :   0.9499 B(  6-C ,  9-C ) :   0.6028
B(  9-C , 10-H ) :   0.9276 B(  9-C , 11-H ) :   0.9297 B(  9-C , 12-C ) :   0.5946
B( 12-C , 13-C ) :   0.7819 B( 12-C , 14-H ) :   0.8856 B( 12-C , 15-H ) :   0.9905
B( 13-C , 19-F ) :   0.8835 B( 13-C , 20-O ) :   1.7162 B( 16-H , 20-O ) :  -0.1863
B( 17-H , 19-F ) :  -0.1033

FINAL SINGLE POINT ENERGY      -487.895173286793

DIPOLE MOMENT
-------------
                                X             Y             Z
Electronic contribution:      0.33653      -1.97057     -10.57489
Nuclear contribution   :     -1.21560       2.80077      10.24180
                        -----------------------------------------
Total Dipole Moment    :     -0.87907       0.83020      -0.33308
                        -----------------------------------------
Magnitude (a.u.)       :      1.25417
Magnitude (Debye)      :      3.18785

Rotational constants in cm-1:     0.051255     0.042531     0.028894
Rotational constants in MHz :  1536.587743  1275.050721   866.218876

                             ****ORCA TERMINATED NORMALLY****
TOTAL RUN TIME: 0 days 0 hours 4 minutes 13 seconds 373 msec
