                         Program Version 5.0.0 -  RELEASE  -
|  1> !LC-BLYP RIJCOSX def2-TZVPD def2/J TightSCF xyzfile
|  2>
|  3> *xyzfile 0 1 D2.xyz
|  4>
|  5> %MaxCore 64000
|  6>
|  7> %pal nprocs 4
|  8> end
|  9>
| 10> %scf
| 11>   MaxIter 150
| 12> end
| 13>
| 14>
| 15>                          ****END OF INPUT****

CARTESIAN COORDINATES (ANGSTROEM)
---------------------------------
  C      0.816067   -2.101491   -2.186546
  H      1.696232   -2.368691   -1.600457
  C      1.100552   -2.467492   -3.599269
  C      0.516243   -0.613634   -2.039373
  H     -0.020066   -2.712849   -1.840844
  C     -0.868621   -0.193925   -2.546303
  C     -0.984801    1.284739   -2.928686
  H     -0.764939    1.904116   -2.051568
  H     -2.032613    1.478953   -3.178952
  C     -0.106085    1.769914   -4.089836
  H     -0.347744    2.822196   -4.262942
  H      0.949683    1.745875   -3.808781
  C     -0.258747    1.004323   -5.409829
  C      0.395958   -0.370696   -5.339939
  H      0.239150    1.569393   -6.201253
  H     -1.309360    0.888694   -5.682455
  H      1.700606   -1.757225   -4.078378
  H      0.293855   -2.359766   -4.256324
  H      1.501324   -3.428479   -3.694915
  O     -0.326329   -1.390398   -5.491279
  F      1.619412   -0.400726   -5.036827
  H     -1.607271   -0.412651   -1.768955
  H     -1.157234   -0.796164   -3.409254
  H      1.299044   -0.056805   -2.558982
  H      0.612393   -0.365579   -0.979171

 Total Charge           Charge          ....    0
 Multiplicity           Mult            ....    1
 Number of Electrons    NEL             ....   80
 Basis Dimension        Dim             ....  511

ORBITAL ENERGIES
----------------

  NO   OCC          E(Eh)            E(eV)
   0   2.0000     -24.533309      -667.5853
   1   2.0000     -18.952007      -515.7103
   2   2.0000     -10.258938      -279.1599
   3   2.0000     -10.103821      -274.9389
   4   2.0000     -10.086992      -274.4810
   5   2.0000     -10.071285      -274.0536
   6   2.0000     -10.058348      -273.7016
   7   2.0000     -10.053875      -273.5798
   8   2.0000     -10.041725      -273.2492
   9   2.0000      -9.992933      -271.9215
  10   2.0000      -1.411872       -38.4190
  11   2.0000      -1.139875       -31.0176
  12   2.0000      -0.940155       -25.5829
  13   2.0000      -0.906189       -24.6587
  14   2.0000      -0.856093       -23.2955
  15   2.0000      -0.815639       -22.1947
  16   2.0000      -0.771194       -20.9852
  17   2.0000      -0.748687       -20.3728
  18   2.0000      -0.711154       -19.3515
  19   2.0000      -0.672502       -18.2997
  20   2.0000      -0.668284       -18.1849
  21   2.0000      -0.652924       -17.7670
  22   2.0000      -0.617314       -16.7980
  23   2.0000      -0.587407       -15.9842
  24   2.0000      -0.563347       -15.3294
  25   2.0000      -0.551324       -15.0023
  26   2.0000      -0.546146       -14.8614
  27   2.0000      -0.534471       -14.5437
  28   2.0000      -0.518684       -14.1141
  29   2.0000      -0.494496       -13.4559
  30   2.0000      -0.488132       -13.2827
  31   2.0000      -0.477986       -13.0067
  32   2.0000      -0.469147       -12.7661
  33   2.0000      -0.449116       -12.2211
  34   2.0000      -0.430167       -11.7054
  35   2.0000      -0.428148       -11.6505
  36   2.0000      -0.414274       -11.2730
  37   2.0000      -0.399028       -10.8581
  38   2.0000      -0.398126       -10.8336
  39   2.0000      -0.362138        -9.8543
  40   0.0000       0.035286         0.9602
  41   0.0000       0.048712         1.3255
  42   0.0000       0.062426         1.6987
  43   0.0000       0.063389         1.7249
  44   0.0000       0.069836         1.9003

MULLIKEN ATOMIC CHARGES
-----------------------
   0 C :   -0.470963
   1 H :    0.400760
   2 C :   -2.042196
   3 C :   -0.696380
   4 H :    0.348669
   5 C :   -0.852807
   6 C :   -0.782496
   7 H :    0.378785
   8 H :    0.417861
   9 C :   -0.831481
  10 H :    0.402059
  11 H :    0.378923
  12 C :   -0.544819
  13 C :    0.441966
  14 H :    0.433956
  15 H :    0.340223
  16 H :    0.647353
  17 H :    0.697949
  18 H :    0.465073
  19 O :   -0.509995
  20 F :   -0.245180
  21 H :    0.442896
  22 H :    0.440668
  23 H :    0.283580
  24 H :    0.455596
Sum of atomic charges:   -0.0000000

LOEWDIN ATOMIC CHARGES
----------------------
   0 C :   -0.253472
   1 H :    0.111250
   2 C :   -0.134130
   3 C :   -0.218595
   4 H :    0.118543
   5 C :   -0.210126
   6 C :   -0.211353
   7 H :    0.119519
   8 H :    0.117399
   9 C :   -0.210693
  10 H :    0.117976
  11 H :    0.110964
  12 C :   -0.093489
  13 C :   -0.488664
  14 H :    0.130454
  15 H :    0.135172
  16 H :    0.042415
  17 H :    0.021582
  18 H :    0.079436
  19 O :    0.070610
  20 F :    0.196046
  21 H :    0.122686
  22 H :    0.104724
  23 H :    0.104695
  24 H :    0.117050

  Mayer bond orders larger than 0.100000
B(  0-C ,  1-H ) :   0.9184 B(  0-C ,  2-C ) :   0.1303 B(  0-C ,  3-C ) :   0.7608
B(  0-C ,  4-H ) :   0.9420 B(  2-C , 13-C ) :   0.1038 B(  2-C , 16-H ) :   0.5310
B(  2-C , 17-H ) :   0.5766 B(  2-C , 18-H ) :   0.8704 B(  3-C ,  5-C ) :   0.2860
B(  3-C , 23-H ) :   1.0568 B(  3-C , 24-H ) :   0.8112 B(  5-C ,  6-C ) :   0.6271
B(  5-C , 21-H ) :   0.8851 B(  5-C , 22-H ) :   0.9293 B(  5-C , 23-H ) :  -0.1069
B(  6-C ,  7-H ) :   0.9613 B(  6-C ,  8-H ) :   0.9464 B(  6-C ,  9-C ) :   0.6130
B(  9-C , 10-H ) :   0.9430 B(  9-C , 11-H ) :   0.9202 B(  9-C , 12-C ) :   0.5540
B( 12-C , 13-C ) :   0.7711 B( 12-C , 14-H ) :   0.8917 B( 12-C , 15-H ) :   1.0176
B( 13-C , 19-O ) :   1.6827 B( 13-C , 20-F ) :   0.8715 B( 16-H , 20-F ) :  -0.1059
B( 17-H , 19-O ) :  -0.1419

FINAL SINGLE POINT ENERGY      -487.895203458314

DIPOLE MOMENT
-------------
                                X             Y             Z
Electronic contribution:      3.59051      -0.30589      -9.80572
Nuclear contribution   :     -3.57245       1.60200       9.69133
                        -----------------------------------------
Total Dipole Moment    :      0.01806       1.29610      -0.11438
                        -----------------------------------------
Magnitude (a.u.)       :      1.30127
Magnitude (Debye)      :      3.30756

Rotational constants in cm-1:     0.051520     0.042563     0.028962
Rotational constants in MHz :  1544.537298  1275.996546   868.258224

                             ****ORCA TERMINATED NORMALLY****
TOTAL RUN TIME: 0 days 0 hours 4 minutes 25 seconds 998 msec
