                         Program Version 5.0.0 -  RELEASE  -
|  1> !wB97X-D3 RIJCOSX def2-SVPD def2/J TightSCF
|  2> *xyz -1 1
|  3> C         -2.12050        0.88520        1.78951
|  4> C         -0.77894        0.17197        1.80496
|  5> H          0.01569        0.91077        1.93915
|  6> H         -0.74355       -0.50683        2.66542
|  7> C         -0.60249       -0.63071        0.49224
|  8> H          0.31389       -1.24035        0.60350
|  9> H         -0.36383        0.11332       -0.30117
| 10> O         -1.71206       -1.37684        0.20253
| 11> H         -2.16160        1.54956        0.95175
| 12> H         -2.23761        1.44436        2.69423
| 13> H         -2.90702        0.16393        1.71165
| 14> *
| 15> %MaxCore 64000
| 16>
| 17> %pal nprocs 18
| 18> end
| 19> %scf
| 20>   MaxIter 150
| 21> end
| 22>
| 23>                          ****END OF INPUT****

CARTESIAN COORDINATES (ANGSTROEM)
---------------------------------
  C     -2.120500    0.885200    1.789510
  C     -0.778940    0.171970    1.804960
  H      0.015690    0.910770    1.939150
  H     -0.743550   -0.506830    2.665420
  C     -0.602490   -0.630710    0.492240
  H      0.313890   -1.240350    0.603500
  H     -0.363830    0.113320   -0.301170
  O     -1.712060   -1.376840    0.202530
  H     -2.161600    1.549560    0.951750
  H     -2.237610    1.444360    2.694230
  H     -2.907020    0.163930    1.711650

 Total Charge           Charge          ....   -1
 Multiplicity           Mult            ....    1
 Number of Electrons    NEL             ....   34
 Basis Dimension        Dim             ....  139

ORBITAL ENERGIES
----------------

  NO   OCC          E(Eh)            E(eV)
   0   2.0000     -18.911838      -514.6173
   1   2.0000     -10.105705      -274.9902
   2   2.0000     -10.098432      -274.7923
   3   2.0000     -10.095771      -274.7199
   4   2.0000      -0.790466       -21.5097
   5   2.0000      -0.688442       -18.7335
   6   2.0000      -0.568546       -15.4709
   7   2.0000      -0.467291       -12.7156
   8   2.0000      -0.375515       -10.2183
   9   2.0000      -0.364699        -9.9240
  10   2.0000      -0.310047        -8.4368
  11   2.0000      -0.281005        -7.6465
  12   2.0000      -0.250412        -6.8141
  13   2.0000      -0.245686        -6.6855
  14   2.0000      -0.207403        -5.6437
  15   2.0000      -0.064678        -1.7600
  16   2.0000      -0.062354        -1.6967
  17   0.0000       0.235180         6.3996
  18   0.0000       0.258230         7.0268
  19   0.0000       0.275112         7.4862
  20   0.0000       0.304785         8.2936
  21   0.0000       0.326155         8.8751

MULLIKEN ATOMIC CHARGES
-----------------------
   0 C :    0.562284
   1 C :   -0.448599
   2 H :   -0.108014
   3 H :   -0.075906
   4 C :    0.467513
   5 H :   -0.184155
   6 H :   -0.104154
   7 O :   -0.906886
   8 H :   -0.071820
   9 H :   -0.115657
  10 H :   -0.014605
Sum of atomic charges:   -1.0000000

LOEWDIN ATOMIC CHARGES
----------------------
   0 C :    0.072803
   1 C :   -0.116127
   2 H :   -0.012596
   3 H :    0.001451
   4 C :   -0.209749
   5 H :   -0.032227
   6 H :   -0.025252
   7 O :   -0.565431
   8 H :   -0.027658
   9 H :   -0.048789
  10 H :   -0.036424

  Mayer bond orders larger than 0.100000
B(  0-C ,  1-C ) :   1.2597 B(  0-C ,  8-H ) :   0.8260 B(  0-C ,  9-H ) :   0.8254
B(  0-C , 10-H ) :   0.8386 B(  1-C ,  2-H ) :   0.9893 B(  1-C ,  3-H ) :   0.9719
B(  1-C ,  4-C ) :   1.0251 B(  1-C ,  5-H ) :   0.1244 B(  1-C ,  6-H ) :   0.1241
B(  1-C ,  8-H ) :   0.1824 B(  1-C ,  9-H ) :   0.1781 B(  1-C , 10-H ) :   0.1901
B(  4-C ,  5-H ) :   0.9746 B(  4-C ,  6-H ) :   0.9331 B(  4-C ,  7-O ) :   1.1932

Dispersion correction           -0.001904531
FINAL SINGLE POINT ENERGY      -193.553765012324

DIPOLE MOMENT
-------------
                                X             Y             Z
Electronic contribution:     -0.54622      -2.32858      -1.45664
Nuclear contribution   :      1.03476       3.87369       2.65163
                        -----------------------------------------
Total Dipole Moment    :      0.48854       1.54511       1.19499
                        -----------------------------------------
Magnitude (a.u.)       :      2.01346
Magnitude (Debye)      :      5.11782

Rotational constants in cm-1:     0.475803     0.193433     0.155403
Rotational constants in MHz : 14264.216647  5798.988361  4658.874800

                             ****ORCA TERMINATED NORMALLY****
TOTAL RUN TIME: 0 days 0 hours 0 minutes 6 seconds 752 msec
