                         Program Version 5.0.0 -  RELEASE  -
|  1> !wB97X-D3 RIJCOSX def2-SVPD def2/J TightSCF
|  2> *xyz 1 1
|  3> C         -2.12050        0.88520        1.78951
|  4> C         -0.77894        0.17197        1.80496
|  5> H         -2.32419        1.47265        2.68608
|  6> H         -2.18770        1.54127        0.91948
|  7> N         -3.17690       -0.15948        1.61070
|  8> H          0.01569        0.91077        1.93915
|  9> H         -0.74355       -0.50683        2.66542
| 10> C         -0.60249       -0.63071        0.49224
| 11> H         -4.06474        0.23127        1.28675
| 12> H         -3.34407       -0.67151        2.48493
| 13> H         -2.71686       -0.78189        0.93588
| 14> H         -0.63812        0.03805       -0.34226
| 15> H         -1.38918       -1.35085        0.40604
| 16> H          0.34172       -1.13388        0.50602
| 17> *
| 18> %MaxCore 64000
| 19>
| 20> %pal nprocs 18
| 21> end
| 22>
| 23> %scf
| 24>   MaxIter 150
| 25> end
| 26>
| 27>
| 28>                          ****END OF INPUT****

CARTESIAN COORDINATES (ANGSTROEM)
---------------------------------
  C     -2.120500    0.885200    1.789510
  C     -0.778940    0.171970    1.804960
  H     -2.324190    1.472650    2.686080
  H     -2.187700    1.541270    0.919480
  N     -3.176900   -0.159480    1.610700
  H      0.015690    0.910770    1.939150
  H     -0.743550   -0.506830    2.665420
  C     -0.602490   -0.630710    0.492240
  H     -4.064740    0.231270    1.286750
  H     -3.344070   -0.671510    2.484930
  H     -2.716860   -0.781890    0.935880
  H     -0.638120    0.038050   -0.342260
  H     -1.389180   -1.350850    0.406040
  H      0.341720   -1.133880    0.506020

 Total Charge           Charge          ....    1
 Multiplicity           Mult            ....    1
 Number of Electrons    NEL             ....   34
 Basis Dimension        Dim             ....  160

ORBITAL ENERGIES
----------------

  NO   OCC          E(Eh)            E(eV)
   0   2.0000     -14.759050      -401.6142
   1   2.0000     -10.537451      -286.7386
   2   2.0000     -10.476236      -285.0729
   3   2.0000     -10.454293      -284.4758
   4   2.0000      -1.317077       -35.8395
   5   2.0000      -1.088656       -29.6238
   6   2.0000      -0.997308       -27.1381
   7   2.0000      -0.909201       -24.7406
   8   2.0000      -0.902898       -24.5691
   9   2.0000      -0.873153       -23.7597
  10   2.0000      -0.785612       -21.3776
  11   2.0000      -0.741329       -20.1726
  12   2.0000      -0.711687       -19.3660
  13   2.0000      -0.686441       -18.6790
  14   2.0000      -0.636485       -17.3196
  15   2.0000      -0.626639       -17.0517
  16   2.0000      -0.619680       -16.8623
  17   0.0000      -0.100686        -2.7398
  18   0.0000      -0.048008        -1.3064
  19   0.0000      -0.045774        -1.2456
  20   0.0000      -0.036058        -0.9812
  21   0.0000      -0.009814        -0.2671

MULLIKEN ATOMIC CHARGES
-----------------------
   0 C :    0.534079
   1 C :   -0.279561
   2 H :   -0.101108
   3 H :    0.056312
   4 N :   -0.656475
   5 H :   -0.032247
   6 H :    0.045382
   7 C :    0.578828
   8 H :    0.349177
   9 H :    0.424110
  10 H :    0.173502
  11 H :    0.036794
  12 H :   -0.134741
  13 H :    0.005947
Sum of atomic charges:    1.0000000

LOEWDIN ATOMIC CHARGES
----------------------
   0 C :    0.090570
   1 C :   -0.025573
   2 H :    0.052517
   3 H :    0.055783
   4 N :    0.337833
   5 H :    0.048807
   6 H :    0.039237
   7 C :    0.161368
   8 H :    0.110506
   9 H :    0.114399
  10 H :    0.022083
  11 H :    0.010245
  12 H :   -0.032287
  13 H :    0.014513

  Mayer bond orders larger than 0.100000
B(  0-C ,  1-C ) :   1.1213 B(  0-C ,  2-H ) :   0.9740 B(  0-C ,  3-H ) :   0.9102
B(  0-C ,  4-N ) :   0.7736 B(  1-C ,  5-H ) :   0.9969 B(  1-C ,  6-H ) :   0.9412
B(  1-C ,  7-C ) :   1.2229 B(  1-C , 11-H ) :   0.1460 B(  1-C , 12-H ) :   0.1142
B(  1-C , 13-H ) :   0.1497 B(  2-H ,  4-N ) :   0.1258 B(  4-N ,  8-H ) :   0.7680
B(  4-N ,  9-H ) :   0.7606 B(  4-N , 10-H ) :   0.8744 B(  7-C , 11-H ) :   0.8029
B(  7-C , 12-H ) :   0.8582 B(  7-C , 13-H ) :   0.8587 B( 10-H , 12-H ) :   0.2576

Dispersion correction           -0.002778400
FINAL SINGLE POINT ENERGY      -174.684457761684

DIPOLE MOMENT
-------------
                                X             Y             Z
Electronic contribution:     -1.86113       0.50274       0.93346
Nuclear contribution   :      0.18509      -0.64781      -0.64735
                        -----------------------------------------
Total Dipole Moment    :     -1.67603      -0.14507       0.28610
                        -----------------------------------------
Magnitude (a.u.)       :      1.70646
Magnitude (Debye)      :      4.33746

Rotational constants in cm-1:     0.411855     0.178330     0.145265
Rotational constants in MHz : 12347.103052  5346.196801  4354.936890

                             ****ORCA TERMINATED NORMALLY****
TOTAL RUN TIME: 0 days 0 hours 0 minutes 7 seconds 584 msec
