                         Program Version 5.0.0 -  RELEASE  -
|  1> !wB97X-D3 RIJCOSX def2-SVPD def2/J TightSCF
|  2> *xyz 0 1
|  3> C         -2.12050        0.88520        1.78951
|  4> C         -0.77894        0.17197        1.80496
|  5> H          0.01569        0.91077        1.93915
|  6> H         -0.74355       -0.50683        2.66542
|  7> C         -0.60249       -0.63071        0.49224
|  8> H          0.31389       -1.24035        0.60350
|  9> H         -0.36383        0.11332       -0.30117
| 10> F         -1.71206       -1.37684        0.20253
| 11> H         -2.16160        1.54956        0.95175
| 12> H         -2.23761        1.44436        2.69423
| 13> H         -2.90702        0.16393        1.71165
| 14> *
| 15> %MaxCore 64000
| 16>
| 17> %pal nprocs 18
| 18> end
| 19> %scf
| 20>   MaxIter 150
| 21> end
| 22>
| 23>                          ****END OF INPUT****

CARTESIAN COORDINATES (ANGSTROEM)
---------------------------------
  C     -2.120500    0.885200    1.789510
  C     -0.778940    0.171970    1.804960
  H      0.015690    0.910770    1.939150
  H     -0.743550   -0.506830    2.665420
  C     -0.602490   -0.630710    0.492240
  H      0.313890   -1.240350    0.603500
  H     -0.363830    0.113320   -0.301170
  F     -1.712060   -1.376840    0.202530
  H     -2.161600    1.549560    0.951750
  H     -2.237610    1.444360    2.694230
  H     -2.907020    0.163930    1.711650

 Total Charge           Charge          ....    0
 Multiplicity           Mult            ....    1
 Number of Electrons    NEL             ....   34
 Basis Dimension        Dim             ....  139

ORBITAL ENERGIES
----------------

  NO   OCC          E(Eh)            E(eV)
   0   2.0000     -24.792663      -674.6427
   1   2.0000     -10.369925      -282.1800
   2   2.0000     -10.295175      -280.1459
   3   2.0000     -10.272999      -279.5425
   4   2.0000      -1.302795       -35.4508
   5   2.0000      -0.900436       -24.5021
   6   2.0000      -0.796585       -21.6762
   7   2.0000      -0.701153       -19.0793
   8   2.0000      -0.615154       -16.7392
   9   2.0000      -0.601084       -16.3563
  10   2.0000      -0.579180       -15.7603
  11   2.0000      -0.537666       -14.6306
  12   2.0000      -0.495381       -13.4800
  13   2.0000      -0.472517       -12.8578
  14   2.0000      -0.449172       -12.2226
  15   2.0000      -0.422943       -11.5089
  16   2.0000      -0.419741       -11.4217
  17   0.0000       0.093329         2.5396
  18   0.0000       0.117671         3.2020
  19   0.0000       0.127823         3.4782
  20   0.0000       0.147319         4.0088
  21   0.0000       0.169217         4.6046

MULLIKEN ATOMIC CHARGES
-----------------------
   0 C :    0.514017
   1 C :   -0.486473
   2 H :   -0.055269
   3 H :   -0.043734
   4 C :    0.693702
   5 H :   -0.062903
   6 H :    0.008270
   7 F :   -0.456090
   8 H :   -0.040607
   9 H :   -0.069205
  10 H :   -0.001708
Sum of atomic charges:    0.0000000

LOEWDIN ATOMIC CHARGES
----------------------
   0 C :    0.107788
   1 C :   -0.067160
   2 H :    0.024852
   3 H :    0.023662
   4 C :    0.105440
   5 H :    0.029119
   6 H :    0.036808
   7 F :   -0.214213
   8 H :   -0.012027
   9 H :   -0.017312
  10 H :   -0.016959

  Mayer bond orders larger than 0.100000
B(  0-C ,  1-C ) :   1.2777 B(  0-C ,  8-H ) :   0.8392 B(  0-C ,  9-H ) :   0.8642
B(  0-C , 10-H ) :   0.8486 B(  1-C ,  2-H ) :   0.9816 B(  1-C ,  3-H ) :   0.9765
B(  1-C ,  4-C ) :   1.1397 B(  1-C ,  8-H ) :   0.1597 B(  1-C ,  9-H ) :   0.1608
B(  1-C , 10-H ) :   0.1553 B(  4-C ,  5-H ) :   0.9527 B(  4-C ,  6-H ) :   0.9086
B(  4-C ,  7-F ) :   0.7210

Dispersion correction           -0.001910615
FINAL SINGLE POINT ENERGY      -218.164498889862

DIPOLE MOMENT
-------------
                                X             Y             Z
Electronic contribution:     -0.99964      -4.82638      -3.46078
Nuclear contribution   :      1.51874       5.24801       3.69322
                        -----------------------------------------
Total Dipole Moment    :      0.51910       0.42164       0.23244
                        -----------------------------------------
Magnitude (a.u.)       :      0.70800
Magnitude (Debye)      :      1.79960

Rotational constants in cm-1:     0.461913     0.182549     0.147043
Rotational constants in MHz : 13847.794369  5472.673442  4408.246847

                             ****ORCA TERMINATED NORMALLY****
TOTAL RUN TIME: 0 days 0 hours 0 minutes 7 seconds 441 msec
