                         Program Version 5.0.0 -  RELEASE  -
|  1> !wB97X-D3 RIJCOSX def2-SVPD def2/J TightSCF
|  2> *xyz 0 1
|  3> C         -2.12050        0.88520        1.78951
|  4> C         -0.77894        0.17197        1.80496
|  5> H         -2.32419        1.47265        2.68608
|  6> H         -2.18770        1.54127        0.91948
|  7> C         -3.17690       -0.15948        1.61070
|  8> H          0.01569        0.91077        1.93915
|  9> H         -0.74355       -0.50683        2.66542
| 10> C         -0.60249       -0.63071        0.49224
| 11> H         -4.06474        0.23127        1.28675
| 12> H         -3.34407       -0.67151        2.48493
| 13> H         -2.71686       -0.78189        0.93588
| 14> H         -0.63812        0.03805       -0.34226
| 15> H         -1.38918       -1.35085        0.40604
| 16> H          0.34172       -1.13388        0.50602
| 17> *
| 18> %MaxCore 64000
| 19>
| 20> %pal nprocs 18
| 21> end
| 22>
| 23> %scf
| 24>   MaxIter 150
| 25> end
| 26>
| 27>
| 28>                          ****END OF INPUT****

CARTESIAN COORDINATES (ANGSTROEM)
---------------------------------
  C     -2.120500    0.885200    1.789510
  C     -0.778940    0.171970    1.804960
  H     -2.324190    1.472650    2.686080
  H     -2.187700    1.541270    0.919480
  C     -3.176900   -0.159480    1.610700
  H      0.015690    0.910770    1.939150
  H     -0.743550   -0.506830    2.665420
  C     -0.602490   -0.630710    0.492240
  H     -4.064740    0.231270    1.286750
  H     -3.344070   -0.671510    2.484930
  H     -2.716860   -0.781890    0.935880
  H     -0.638120    0.038050   -0.342260
  H     -1.389180   -1.350850    0.406040
  H      0.341720   -1.133880    0.506020

 Total Charge           Charge          ....    0
 Multiplicity           Mult            ....    1
 Number of Electrons    NEL             ....   34
 Basis Dimension        Dim             ....  160

ORBITAL ENERGIES
----------------

  NO   OCC          E(Eh)            E(eV)
   0   2.0000     -10.281931      -279.7856
   1   2.0000     -10.273778      -279.5637
   2   2.0000     -10.271406      -279.4992
   3   2.0000     -10.243844      -278.7492
   4   2.0000      -0.921311       -25.0702
   5   2.0000      -0.829089       -22.5607
   6   2.0000      -0.754421       -20.5289
   7   2.0000      -0.669994       -18.2315
   8   2.0000      -0.584791       -15.9130
   9   2.0000      -0.563858       -15.3434
  10   2.0000      -0.521783       -14.1984
  11   2.0000      -0.489260       -13.3135
  12   2.0000      -0.472022       -12.8444
  13   2.0000      -0.455361       -12.3910
  14   2.0000      -0.421065       -11.4578
  15   2.0000      -0.416914       -11.3448
  16   2.0000      -0.405192       -11.0258
  17   0.0000       0.099137         2.6976
  18   0.0000       0.119463         3.2507
  19   0.0000       0.122757         3.3404
  20   0.0000       0.131566         3.5801
  21   0.0000       0.172005         4.6805

MULLIKEN ATOMIC CHARGES
-----------------------
   0 C :   -0.290870
   1 C :   -0.208227
   2 H :   -0.208140
   3 H :    0.030141
   4 C :    1.476378
   5 H :   -0.133856
   6 H :    0.001924
   7 C :    0.578990
   8 H :   -0.112389
   9 H :   -0.057497
  10 H :   -0.968111
  11 H :    0.014763
  12 H :   -0.084938
  13 H :   -0.038169
Sum of atomic charges:   -0.0000000

LOEWDIN ATOMIC CHARGES
----------------------
   0 C :   -0.078423
   1 C :   -0.065109
   2 H :    0.019613
   3 H :    0.024801
   4 C :    0.132635
   5 H :    0.015564
   6 H :    0.025920
   7 C :    0.127524
   8 H :   -0.026550
   9 H :   -0.019485
  10 H :   -0.091639
  11 H :   -0.006671
  12 H :   -0.041823
  13 H :   -0.016358

  Mayer bond orders larger than 0.100000
B(  0-C ,  1-C ) :   1.0943 B(  0-C ,  2-H ) :   1.0522 B(  0-C ,  3-H ) :   0.8998
B(  0-C ,  4-C ) :   1.0716 B(  0-C ,  6-H ) :   0.1060 B(  0-C ,  8-H ) :   0.1334
B(  0-C ,  9-H ) :   0.2132 B(  0-C , 10-H ) :   0.3806 B(  1-C ,  5-H ) :   1.0123
B(  1-C ,  6-H ) :   0.9280 B(  1-C ,  7-C ) :   1.2150 B(  1-C , 11-H ) :   0.1770
B(  1-C , 12-H ) :   0.1315 B(  1-C , 13-H ) :   0.1510 B(  4-C ,  8-H ) :   0.5703
B(  4-C ,  9-H ) :   0.5118 B(  4-C , 10-H ) :   0.2766 B(  7-C , 10-H ) :   0.1098
B(  7-C , 11-H ) :   0.7901 B(  7-C , 12-H ) :   0.8184 B(  7-C , 13-H ) :   0.8197
B(  8-H ,  9-H ) :  -0.1010 B(  8-H , 10-H ) :   0.2360 B(  9-H , 10-H ) :   0.2674
B( 10-H , 12-H ) :   0.3697

Dispersion correction           -0.002697600
FINAL SINGLE POINT ENERGY      -158.277748759188

DIPOLE MOMENT
-------------
                                X             Y             Z
Electronic contribution:      0.30744       0.70984       0.58478
Nuclear contribution   :     -0.27446      -0.71220      -0.58629
                        -----------------------------------------
Total Dipole Moment    :      0.03298      -0.00235      -0.00151
                        -----------------------------------------
Magnitude (a.u.)       :      0.03310
Magnitude (Debye)      :      0.08412

Rotational constants in cm-1:     0.419751     0.185753     0.151088
Rotational constants in MHz : 12583.819928  5568.732483  4529.512437

                             ****ORCA TERMINATED NORMALLY****
TOTAL RUN TIME: 0 days 0 hours 0 minutes 8 seconds 121 msec
