                         Program Version 5.0.0 -  RELEASE  -
|  1> !wB97X-D3 RIJCOSX def2-SVPD def2/J TightSCF xyzfile
|  2>
|  3> *xyzfile 0 1 D.xyz
|  4>
|  5> %MaxCore 64000
|  6>
|  7> %pal nprocs 18
|  8> end
|  9>
| 10> %scf
| 11>   MaxIter 150
| 12> end
| 13>
| 14>
| 15>                          ****END OF INPUT****

CARTESIAN COORDINATES (ANGSTROEM)
---------------------------------
  C     -2.120502    0.885196    1.789506
  C     -0.778939    0.171966    1.804965
  H     -2.324193    1.472649    2.686078
  H     -2.187698    1.541272    0.919482
  C     -3.176900   -0.159484    1.610700
  H      0.015695    0.910767    1.939153
  H     -0.743553   -0.506827    2.665420
  C     -0.602493   -0.630712    0.492240
  H      0.313894   -1.240346    0.603498
  H     -0.363829    0.113322   -0.301169
  F     -1.712061   -1.376836    0.202535
  H     -4.064736    0.231272    1.286754
  H     -3.344073   -0.671511    2.484928
  H     -2.716861   -0.781886    0.935880

 Total Charge           Charge          ....    0
 Multiplicity           Mult            ....    1
 Number of Electrons    NEL             ....   42
 Basis Dimension        Dim             ....  175

ORBITAL ENERGIES
----------------

  NO   OCC          E(Eh)            E(eV)
   0   2.0000     -24.808358      -675.0697
   1   2.0000     -10.380065      -282.4559
   2   2.0000     -10.295322      -280.1499
   3   2.0000     -10.274658      -279.5876
   4   2.0000     -10.212183      -277.8876
   5   2.0000      -1.333654       -36.2906
   6   2.0000      -0.918356       -24.9897
   7   2.0000      -0.844359       -22.9762
   8   2.0000      -0.744003       -20.2454
   9   2.0000      -0.698789       -19.0150
  10   2.0000      -0.636528       -17.3208
  11   2.0000      -0.632839       -17.2204
  12   2.0000      -0.593219       -16.1423
  13   2.0000      -0.541108       -14.7243
  14   2.0000      -0.514478       -13.9997
  15   2.0000      -0.504518       -13.7286
  16   2.0000      -0.476442       -12.9647
  17   2.0000      -0.442871       -12.0511
  18   2.0000      -0.422552       -11.4982
  19   2.0000      -0.417180       -11.3520
  20   2.0000      -0.369739       -10.0611
  21   0.0000       0.091922         2.5013
  22   0.0000       0.117908         3.2084
  23   0.0000       0.121178         3.2974
  24   0.0000       0.126973         3.4551
  25   0.0000       0.157921         4.2972

MULLIKEN ATOMIC CHARGES
-----------------------
   0 C :   -0.266130
   1 C :   -0.042247
   2 H :   -0.235049
   3 H :    0.002712
   4 C :    1.741742
   5 H :   -0.120350
   6 H :    0.030919
   7 C :    0.734128
   8 H :   -0.038648
   9 H :    0.022602
  10 F :   -0.634390
  11 H :   -0.127622
  12 H :   -0.079659
  13 H :   -0.988009
Sum of atomic charges:    0.0000000

LOEWDIN ATOMIC CHARGES
----------------------
   0 C :   -0.062218
   1 C :   -0.020864
   2 H :    0.018001
   3 H :    0.026384
   4 C :    0.143501
   5 H :    0.025624
   6 H :    0.031805
   7 C :    0.160402
   8 H :    0.035138
   9 H :    0.044324
  10 F :   -0.193923
  11 H :   -0.028561
  12 H :   -0.021184
  13 H :   -0.158430

  Mayer bond orders larger than 0.100000
B(  0-C ,  1-C ) :   1.0983 B(  0-C ,  2-H ) :   1.0483 B(  0-C ,  3-H ) :   0.8911
B(  0-C ,  4-C ) :   0.9905 B(  0-C , 11-H ) :   0.1609 B(  0-C , 12-H ) :   0.2184
B(  0-C , 13-H ) :   0.4182 B(  1-C ,  5-H ) :   0.9698 B(  1-C ,  6-H ) :   0.9024
B(  1-C ,  7-C ) :   1.1953 B(  1-C ,  8-H ) :   0.1089 B(  1-C ,  9-H ) :   0.1049
B(  1-C , 10-F ) :   0.1218 B(  4-C , 10-F ) :  -0.1540 B(  4-C , 11-H ) :   0.5733
B(  4-C , 12-H ) :   0.3752 B(  4-C , 13-H ) :  -0.2420 B(  5-H ,  7-C ) :   0.1025
B(  7-C ,  8-H ) :   0.8955 B(  7-C ,  9-H ) :   0.8934 B(  7-C , 10-F ) :   0.6661
B( 10-F , 13-H ) :   0.3175 B( 11-H , 12-H ) :  -0.1054 B( 11-H , 13-H ) :   0.2161
B( 12-H , 13-H ) :   0.4397

Dispersion correction           -0.003160716
FINAL SINGLE POINT ENERGY      -257.381873152603

DIPOLE MOMENT
-------------
                                X             Y             Z
Electronic contribution:      0.90940      -4.19139      -3.73586
Nuclear contribution   :     -0.20666       4.43855       3.76066
                        -----------------------------------------
Total Dipole Moment    :      0.70274       0.24716       0.02480
                        -----------------------------------------
Magnitude (a.u.)       :      0.74534
Magnitude (Debye)      :      1.89451

Rotational constants in cm-1:     0.236353     0.155239     0.105045
Rotational constants in MHz :  7085.692869  4653.957069  3149.180346

                             ****ORCA TERMINATED NORMALLY****
TOTAL RUN TIME: 0 days 0 hours 0 minutes 12 seconds 304 msec
