                         Program Version 5.0.0 -  RELEASE  -
|  1> !wB97X-D3 RIJCOSX def2-SVP def2/J TightSCF
|  2> *xyz -1 1
|  3> C          0.61188        1.65763       -4.50029
|  4> C          1.69499        1.54179       -5.57045
|  5> H          2.69733        1.73466       -5.18400
|  6> H          1.50666        2.27224       -6.35808
|  7> S          1.78029       -0.03313       -6.42874
|  8> O          2.56929        0.21366       -7.60736
|  9> O          0.41688       -0.46297       -6.61859
| 10> C          0.68036        0.65542       -3.34804
| 11> H         -0.35687        1.54923       -4.99113
| 12> H          0.65023        2.67544       -4.09600
| 13> O          2.50513       -0.93326       -5.48257
| 14> H          0.64318       -0.34009       -3.73853
| 15> H         -0.14865        0.81153       -2.68980
| 16> H          1.59447        0.79330       -2.80925
| 17> *
| 18> %MaxCore 64000
| 19>
| 20> %pal nprocs 8
| 21> end
| 22>
| 23> %scf
| 24>   MaxIter 150
| 25> end
| 26>
| 27>
| 28>                          ****END OF INPUT****

CARTESIAN COORDINATES (ANGSTROEM)
---------------------------------
  C      0.611880    1.657630   -4.500290
  C      1.694990    1.541790   -5.570450
  H      2.697330    1.734660   -5.184000
  H      1.506660    2.272240   -6.358080
  S      1.780290   -0.033130   -6.428740
  O      2.569290    0.213660   -7.607360
  O      0.416880   -0.462970   -6.618590
  C      0.680360    0.655420   -3.348040
  H     -0.356870    1.549230   -4.991130
  H      0.650230    2.675440   -4.096000
  O      2.505130   -0.933260   -5.482570
  H      0.643180   -0.340090   -3.738530
  H     -0.148650    0.811530   -2.689800
  H      1.594470    0.793300   -2.809250

 Total Charge           Charge          ....   -1
 Multiplicity           Mult            ....    1
 Number of Electrons    NEL             ....   66
 Basis Dimension        Dim             ....  137

ORBITAL ENERGIES
----------------

  NO   OCC          E(Eh)            E(eV)
   0   2.0000     -88.941520     -2420.2218
   1   2.0000     -18.997641      -516.9521
   2   2.0000     -18.995104      -516.8831
   3   2.0000     -18.975047      -516.3373
   4   2.0000     -10.152936      -276.2754
   5   2.0000     -10.137565      -275.8572
   6   2.0000     -10.136254      -275.8215
   7   2.0000      -8.022303      -218.2980
   8   2.0000      -5.981372      -162.7614
   9   2.0000      -5.981076      -162.7533
  10   2.0000      -5.980975      -162.7506
  11   2.0000      -1.025403       -27.9026
  12   2.0000      -0.886073       -24.1113
  13   2.0000      -0.850211       -23.1354
  14   2.0000      -0.760150       -20.6847
  15   2.0000      -0.668105       -18.1801
  16   2.0000      -0.568701       -15.4751
  17   2.0000      -0.470288       -12.7972
  18   2.0000      -0.422746       -11.5035
  19   2.0000      -0.412458       -11.2235
  20   2.0000      -0.382420       -10.4062
  21   2.0000      -0.368969       -10.0402
  22   2.0000      -0.341280        -9.2867
  23   2.0000      -0.333733        -9.0813
  24   2.0000      -0.311811        -8.4848
  25   2.0000      -0.302394        -8.2286
  26   2.0000      -0.288097        -7.8395
  27   2.0000      -0.224896        -6.1197
  28   2.0000      -0.223097        -6.0708
  29   2.0000      -0.190974        -5.1967
  30   2.0000      -0.180616        -4.9148
  31   2.0000      -0.164115        -4.4658
  32   2.0000      -0.132328        -3.6008
  33   0.0000       0.273431         7.4404
  34   0.0000       0.320865         8.7312
  35   0.0000       0.324955         8.8425
  36   0.0000       0.345799         9.4097
  37   0.0000       0.359583         9.7847

MULLIKEN ATOMIC CHARGES
-----------------------
   0 C :   -0.068455
   1 C :   -0.089245
   2 H :    0.019434
   3 H :    0.012821
   4 S :    0.880442
   5 O :   -0.573820
   6 O :   -0.574513
   7 C :   -0.003653
   8 H :    0.018706
   9 H :   -0.019646
  10 O :   -0.631858
  11 H :    0.054212
  12 H :   -0.021775
  13 H :   -0.002650
Sum of atomic charges:   -1.0000000

LOEWDIN ATOMIC CHARGES
----------------------
   0 C :   -0.058085
   1 C :   -0.186616
   2 H :    0.012340
   3 H :    0.009492
   4 S :    1.104768
   5 O :   -0.608058
   6 O :   -0.608017
   7 C :   -0.062157
   8 H :    0.018154
   9 H :    0.003343
  10 O :   -0.666516
  11 H :    0.027310
  12 H :    0.002495
  13 H :    0.011548

  Mayer bond orders larger than 0.100000
B(  0-C ,  1-C ) :   1.0441 B(  0-C ,  7-C ) :   1.0852 B(  0-C ,  8-H ) :   0.9490
B(  0-C ,  9-H ) :   0.9518 B(  1-C ,  2-H ) :   0.9430 B(  1-C ,  3-H ) :   0.9428
B(  1-C ,  4-S ) :   0.9007 B(  4-S ,  5-O ) :   1.6484 B(  4-S ,  6-O ) :   1.6245
B(  4-S , 10-O ) :   1.5527 B(  7-C , 11-H ) :   0.9626 B(  7-C , 12-H ) :   0.9685
B(  7-C , 13-H ) :   0.9731

Dispersion correction           -0.004635695
FINAL SINGLE POINT ENERGY      -741.915452395833

DIPOLE MOMENT
-------------
                                X             Y             Z
Electronic contribution:      3.21989      -5.37030      -8.72552
Nuclear contribution   :     -3.81113       6.97418       9.97106
                        -----------------------------------------
Total Dipole Moment    :     -0.59124       1.60388       1.24554
                        -----------------------------------------
Magnitude (a.u.)       :      2.11503
Magnitude (Debye)      :      5.37599

Rotational constants in cm-1:     0.136135     0.055477     0.052562
Rotational constants in MHz :  4081.221574  1663.170947  1575.772362

                             ****ORCA TERMINATED NORMALLY****
TOTAL RUN TIME: 0 days 0 hours 0 minutes 12 seconds 315 msec
