                         Program Version 5.0.0 -  RELEASE  -
|  1> !wB97X-D3 RIJCOSX def2-SVP def2/J TightSCF
|  2> *xyz 1 1
|  3> C          1.96337       -1.74915       -1.89689
|  4> N          2.73849       -2.01517       -3.09711
|  5> C          4.04974       -2.15472       -3.15204
|  6> N          4.65821       -1.98629       -4.31866
|  7> N          4.76423       -2.45444       -2.05049
|  8> H          4.28736       -2.77626       -1.21750
|  9> H          5.75082       -2.65835       -2.12599
| 10> H          2.34518       -1.69027       -3.97145
| 11> H          4.10900       -1.59268       -5.07176
| 12> H          5.64910       -2.15646       -4.42724
| 13> C          2.08852       -0.30091       -1.41520
| 14> H          2.23127       -2.45162       -1.10264
| 15> H          0.93025       -1.97780       -2.15544
| 16> C          1.96899        0.73358       -2.53565
| 17> H          3.05136       -0.16860       -0.91187
| 18> H          1.31650       -0.13623       -0.65725
| 19> H          2.73046        0.55745       -3.26643
| 20> H          2.08619        1.71595       -2.12808
| 21> H          1.00672        0.65098       -2.99620
| 22> *
| 23> %MaxCore 64000
| 24>
| 25> %pal nprocs 8
| 26> end
| 27>
| 28> %scf
| 29>   MaxIter 150
| 30> end
| 31>
| 32>
| 33>                          ****END OF INPUT****

CARTESIAN COORDINATES (ANGSTROEM)
---------------------------------
  C      1.963370   -1.749150   -1.896890
  N      2.738490   -2.015170   -3.097110
  C      4.049740   -2.154720   -3.152040
  N      4.658210   -1.986290   -4.318660
  N      4.764230   -2.454440   -2.050490
  H      4.287360   -2.776260   -1.217500
  H      5.750820   -2.658350   -2.125990
  H      2.345180   -1.690270   -3.971450
  H      4.109000   -1.592680   -5.071760
  H      5.649100   -2.156460   -4.427240
  C      2.088520   -0.300910   -1.415200
  H      2.231270   -2.451620   -1.102640
  H      0.930250   -1.977800   -2.155440
  C      1.968990    0.733580   -2.535650
  H      3.051360   -0.168600   -0.911870
  H      1.316500   -0.136230   -0.657250
  H      2.730460    0.557450   -3.266430
  H      2.086190    1.715950   -2.128080
  H      1.006720    0.650980   -2.996200

 Total Charge           Charge          ....    1
 Multiplicity           Mult            ....    1
 Number of Electrons    NEL             ....   56
 Basis Dimension        Dim             ....  158

ORBITAL ENERGIES
----------------

  NO   OCC          E(Eh)            E(eV)
   0   2.0000     -14.659967      -398.9180
   1   2.0000     -14.656780      -398.8313
   2   2.0000     -14.655450      -398.7951
   3   2.0000     -10.625246      -289.1276
   4   2.0000     -10.491116      -285.4778
   5   2.0000     -10.429675      -283.8059
   6   2.0000     -10.408242      -283.2227
   7   2.0000      -1.327129       -36.1130
   8   2.0000      -1.212279       -32.9878
   9   2.0000      -1.198443       -32.6113
  10   2.0000      -1.048977       -28.5441
  11   2.0000      -0.972306       -26.4578
  12   2.0000      -0.929960       -25.3055
  13   2.0000      -0.887662       -24.1545
  14   2.0000      -0.872882       -23.7523
  15   2.0000      -0.828984       -22.5578
  16   2.0000      -0.792968       -21.5778
  17   2.0000      -0.784307       -21.3421
  18   2.0000      -0.759770       -20.6744
  19   2.0000      -0.725918       -19.7532
  20   2.0000      -0.699838       -19.0436
  21   2.0000      -0.684173       -18.6173
  22   2.0000      -0.645141       -17.5552
  23   2.0000      -0.601316       -16.3627
  24   2.0000      -0.588258       -16.0073
  25   2.0000      -0.576099       -15.6764
  26   2.0000      -0.565668       -15.3926
  27   2.0000      -0.536221       -14.5913
  28   0.0000      -0.074799        -2.0354
  29   0.0000      -0.052207        -1.4206
  30   0.0000      -0.019070        -0.5189
  31   0.0000      -0.003984        -0.1084
  32   0.0000       0.016650         0.4531

MULLIKEN ATOMIC CHARGES
-----------------------
   0 C :    0.031745
   1 N :   -0.152098
   2 C :    0.091818
   3 N :   -0.059748
   4 N :   -0.083875
   5 H :    0.181853
   6 H :    0.180474
   7 H :    0.169817
   8 H :    0.181591
   9 H :    0.186950
  10 C :   -0.102026
  11 H :    0.072511
  12 H :    0.085373
  13 C :   -0.043966
  14 H :    0.045338
  15 H :    0.082204
  16 H :    0.002661
  17 H :    0.078707
  18 H :    0.050669
Sum of atomic charges:    1.0000000

LOEWDIN ATOMIC CHARGES
----------------------
   0 C :    0.038359
   1 N :    0.027523
   2 C :    0.158964
   3 N :    0.042937
   4 N :    0.032854
   5 H :    0.109976
   6 H :    0.111962
   7 H :    0.102986
   8 H :    0.111676
   9 H :    0.115298
  10 C :   -0.050402
  11 H :    0.036756
  12 H :    0.050048
  13 C :   -0.052529
  14 H :    0.028406
  15 H :    0.049026
  16 H :    0.008657
  17 H :    0.046670
  18 H :    0.030831

  Mayer bond orders larger than 0.100000
B(  0-C ,  1-N ) :   0.9264 B(  0-C , 10-C ) :   1.0515 B(  0-C , 11-H ) :   0.9601
B(  0-C , 12-H ) :   0.9508 B(  1-N ,  2-C ) :   1.3755 B(  1-N ,  7-H ) :   0.9066
B(  2-C ,  3-N ) :   1.4001 B(  2-C ,  4-N ) :   1.3881 B(  3-N ,  8-H ) :   0.9210
B(  3-N ,  9-H ) :   0.9245 B(  4-N ,  5-H ) :   0.9211 B(  4-N ,  6-H ) :   0.9257
B( 10-C , 13-C ) :   1.0757 B( 10-C , 14-H ) :   0.9504 B( 10-C , 15-H ) :   0.9503
B( 13-C , 16-H ) :   0.9713 B( 13-C , 17-H ) :   0.9693 B( 13-C , 18-H ) :   0.9784

Dispersion correction           -0.005597340
FINAL SINGLE POINT ENERGY      -323.395753259832

DIPOLE MOMENT
-------------
                                X             Y             Z
Electronic contribution:      3.96181      -4.94149      -2.36996
Nuclear contribution   :     -2.72963       4.05673       1.67650
                        -----------------------------------------
Total Dipole Moment    :      1.23219      -0.88476      -0.69346
                        -----------------------------------------
Magnitude (a.u.)       :      1.66793
Magnitude (Debye)      :      4.23954

Rotational constants in cm-1:     0.140891     0.054763     0.048590
Rotational constants in MHz :  4223.814968  1641.764475  1456.690885

                             ****ORCA TERMINATED NORMALLY****
TOTAL RUN TIME: 0 days 0 hours 0 minutes 16 seconds 862 msec
