                         Program Version 5.0.0 -  RELEASE  -
|  1> !wB97X-D3 RIJCOSX def2-SVP def2/J TightSCF xyzfile
|  2>
|  3> *xyzfile 0 1 B.xyz
|  4>
|  5> %MaxCore 64000
|  6>
|  7> %pal nprocs 18
|  8> end
|  9>
| 10> %scf
| 11>   MaxIter 150
| 12> end
| 13>
| 14>
| 15>                          ****END OF INPUT****

CARTESIAN COORDINATES (ANGSTROEM)
---------------------------------
  C      1.963365   -1.749150   -1.896887
  N      2.738490   -2.015170   -3.097113
  C      0.611877    1.657634   -4.500288
  C      1.694991    1.541794   -5.570447
  H      2.697326    1.734659   -5.183996
  H      1.506656    2.272239   -6.358076
  S      1.780287   -0.033128   -6.428739
  C      4.049736   -2.154717   -3.152044
  N      4.658206   -1.986293   -4.318655
  N      4.764231   -2.454435   -2.050491
  H      4.287363   -2.776259   -1.217496
  H      5.750825   -2.658351   -2.125988
  H      2.345176   -1.690274   -3.971447
  H      4.109004   -1.592677   -5.071760
  H      5.649095   -2.156462   -4.427237
  O      2.569287    0.213657   -7.607360
  O      0.416880   -0.462969   -6.618595
  C      2.088520   -0.300912   -1.415204
  H      2.231272   -2.451616   -1.102643
  H      0.930249   -1.977801   -2.155438
  C      0.680356    0.655418   -3.348038
  H     -0.356865    1.549231   -4.991128
  H      0.650228    2.675438   -4.096000
  C      1.968993    0.733582   -2.535654
  H      3.051356   -0.168602   -0.911868
  H      1.316501   -0.136231   -0.657252
  O      2.505129   -0.933263   -5.482570
  H      2.824195    0.624726   -3.208464
  H      2.058919    1.730331   -2.093112
  H      0.542252   -0.344731   -3.766662
  H     -0.174219    0.829692   -2.685182

 Total Charge           Charge          ....    0
 Multiplicity           Mult            ....    1
 Number of Electrons    NEL             ....  120
 Basis Dimension        Dim             ....  285

ORBITAL ENERGIES
----------------

  NO   OCC          E(Eh)            E(eV)
   0   2.0000     -89.096814     -2424.4476
   1   2.0000     -19.166427      -521.5450
   2   2.0000     -19.141603      -520.8695
   3   2.0000     -19.139178      -520.8035
   4   2.0000     -14.522516      -395.1778
   5   2.0000     -14.491002      -394.3202
   6   2.0000     -14.485027      -394.1576
   7   2.0000     -10.472595      -284.9738
   8   2.0000     -10.360801      -281.9317
   9   2.0000     -10.310650      -280.5670
  10   2.0000     -10.291112      -280.0354
  11   2.0000     -10.278671      -279.6968
  12   2.0000     -10.274331      -279.5788
  13   2.0000     -10.270003      -279.4610
  14   2.0000      -8.177476      -222.5204
  15   2.0000      -6.137590      -167.0123
  16   2.0000      -6.135865      -166.9654
  17   2.0000      -6.135458      -166.9543
  18   2.0000      -1.181748       -32.1570
  19   2.0000      -1.172882       -31.9157
  20   2.0000      -1.062472       -28.9113
  21   2.0000      -1.047501       -28.5040
  22   2.0000      -1.030085       -28.0300
  23   2.0000      -1.028753       -27.9938
  24   2.0000      -0.931129       -25.3373
  25   2.0000      -0.890702       -24.2372
  26   2.0000      -0.841398       -22.8956
  27   2.0000      -0.800853       -21.7923
  28   2.0000      -0.773719       -21.0540
  29   2.0000      -0.738756       -20.1026
  30   2.0000      -0.731343       -19.9009
  31   2.0000      -0.696729       -18.9590
  32   2.0000      -0.674441       -18.3525
  33   2.0000      -0.654356       -17.8059
  34   2.0000      -0.639813       -17.4102
  35   2.0000      -0.621150       -16.9023
  36   2.0000      -0.600490       -16.3402
  37   2.0000      -0.579873       -15.7792
  38   2.0000      -0.576635       -15.6910
  39   2.0000      -0.569320       -15.4920
  40   2.0000      -0.552236       -15.0271
  41   2.0000      -0.534288       -14.5387
  42   2.0000      -0.523376       -14.2418
  43   2.0000      -0.512161       -13.9366
  44   2.0000      -0.492094       -13.3906
  45   2.0000      -0.484560       -13.1856
  46   2.0000      -0.471696       -12.8355
  47   2.0000      -0.462920       -12.5967
  48   2.0000      -0.456419       -12.4198
  49   2.0000      -0.428531       -11.6609
  50   2.0000      -0.424339       -11.5469
  51   2.0000      -0.419980       -11.4282
  52   2.0000      -0.403733       -10.9861
  53   2.0000      -0.388283       -10.5657
  54   2.0000      -0.383469       -10.4347
  55   2.0000      -0.379155       -10.3173
  56   2.0000      -0.344172        -9.3654
  57   2.0000      -0.332125        -9.0376
  58   2.0000      -0.323587        -8.8053
  59   2.0000      -0.297208        -8.0874
  60   0.0000       0.074899         2.0381
  61   0.0000       0.078651         2.1402
  62   0.0000       0.112862         3.0711
  63   0.0000       0.144721         3.9381
  64   0.0000       0.150003         4.0818

MULLIKEN ATOMIC CHARGES
-----------------------
   0 C :    0.047841
   1 N :   -0.142927
   2 C :   -0.010530
   3 C :   -0.110245
   4 H :    0.038916
   5 H :    0.063003
   6 S :    0.919196
   7 C :    0.060653
   8 N :   -0.047286
   9 N :   -0.107959
  10 H :    0.158027
  11 H :    0.154476
  12 H :    0.174101
  13 H :    0.174510
  14 H :    0.145384
  15 O :   -0.523752
  16 O :   -0.524872
  17 C :   -0.016794
  18 H :    0.027991
  19 H :    0.070546
  20 C :   -0.059186
  21 H :    0.048364
  22 H :    0.015326
  23 C :   -0.054309
  24 H :    0.015752
  25 H :    0.037157
  26 O :   -0.647836
  27 H :    0.019528
  28 H :    0.025214
  29 H :    0.033897
  30 H :    0.015812
Sum of atomic charges:    0.0000000

LOEWDIN ATOMIC CHARGES
----------------------
   0 C :    0.035128
   1 N :    0.026141
   2 C :   -0.046466
   3 C :   -0.175277
   4 H :    0.016277
   5 H :    0.033036
   6 S :    1.133475
   7 C :    0.150272
   8 N :    0.037515
   9 N :    0.000630
  10 H :    0.094849
  11 H :    0.095299
  12 H :    0.056286
  13 H :    0.073164
  14 H :    0.091321
  15 O :   -0.564487
  16 O :   -0.564675
  17 C :   -0.048435
  18 H :    0.017777
  19 H :    0.042051
  20 C :   -0.046749
  21 H :    0.033937
  22 H :    0.021543
  23 C :   -0.045126
  24 H :    0.019754
  25 H :    0.031149
  26 O :   -0.601595
  27 H :    0.016771
  28 H :    0.026778
  29 H :    0.017685
  30 H :    0.021973

  Mayer bond orders larger than 0.100000
B(  0-C ,  1-N ) :   0.9756 B(  0-C , 17-C ) :   1.0530 B(  0-C , 18-H ) :   0.9598
B(  0-C , 19-H ) :   0.9467 B(  1-N ,  7-C ) :   1.4137 B(  1-N , 12-H ) :   0.8194
B(  2-C ,  3-C ) :   1.0397 B(  2-C , 20-C ) :   1.0849 B(  2-C , 21-H ) :   0.9416
B(  2-C , 22-H ) :   0.9462 B(  3-C ,  4-H ) :   0.9380 B(  3-C ,  5-H ) :   0.9418
B(  3-C ,  6-S ) :   0.9130 B(  6-S , 15-O ) :   1.7124 B(  6-S , 16-O ) :   1.6863
B(  6-S , 26-O ) :   1.3000 B(  7-C ,  8-N ) :   1.4448 B(  7-C ,  9-N ) :   1.3104
B(  8-N , 13-H ) :   0.8439 B(  8-N , 14-H ) :   0.9359 B(  9-N , 10-H ) :   0.9311
B(  9-N , 11-H ) :   0.9362 B( 12-H , 26-O ) :   0.1752 B( 13-H , 26-O ) :   0.1491
B( 17-C , 23-C ) :   1.0825 B( 17-C , 24-H ) :   0.9440 B( 17-C , 25-H ) :   0.9462
B( 20-C , 23-C ) :   1.0468 B( 20-C , 29-H ) :   0.9360 B( 20-C , 30-H ) :   0.9466
B( 23-C , 27-H ) :   0.9377 B( 23-C , 28-H ) :   0.9467

Dispersion correction           -0.016453463
FINAL SINGLE POINT ENERGY     -1064.292665519836

DIPOLE MOMENT
-------------
                                X             Y             Z
Electronic contribution:      2.38193      -5.07749     -14.26676
Nuclear contribution   :      0.44641       3.59123      19.13564
                        -----------------------------------------
Total Dipole Moment    :      2.82834      -1.48626       4.86888
                        -----------------------------------------
Magnitude (a.u.)       :      5.82361
Magnitude (Debye)      :     14.80245

Rotational constants in cm-1:     0.029186     0.014646     0.011115
Rotational constants in MHz :   874.975540   439.070287   333.231642

                             ****ORCA TERMINATED NORMALLY****
TOTAL RUN TIME: 0 days 0 hours 0 minutes 29 seconds 499 msec
