                         Program Version 5.0.0 -  RELEASE  -
|  1> !wB97X-D3 RIJCOSX def2-SVP def2/J TightSCF
|  2> *xyz 0 1
|  3> C          0.61188        1.65763       -4.50029
|  4> C          1.69499        1.54179       -5.57045
|  5> H          2.69733        1.73466       -5.18400
|  6> H          1.50666        2.27224       -6.35808
|  7> S          1.78029       -0.03313       -6.42874
|  8> F          2.56929        0.21366       -7.60736
|  9> O          0.41688       -0.46297       -6.61859
| 10> C          0.68036        0.65542       -3.34804
| 11> H         -0.35687        1.54923       -4.99113
| 12> H          0.65023        2.67544       -4.09600
| 13> O          2.50513       -0.93326       -5.48257
| 14> H          0.64318       -0.34009       -3.73853
| 15> H         -0.14865        0.81153       -2.68980
| 16> H          1.59447        0.79330       -2.80925
| 17> *
| 18> %MaxCore 64000
| 19>
| 20> %pal nprocs 8
| 21> end
| 22>
| 23> %scf
| 24>   MaxIter 150
| 25> end
| 26>
| 27>
| 28>                          ****END OF INPUT****

CARTESIAN COORDINATES (ANGSTROEM)
---------------------------------
  C      0.611880    1.657630   -4.500290
  C      1.694990    1.541790   -5.570450
  H      2.697330    1.734660   -5.184000
  H      1.506660    2.272240   -6.358080
  S      1.780290   -0.033130   -6.428740
  F      2.569290    0.213660   -7.607360
  O      0.416880   -0.462970   -6.618590
  C      0.680360    0.655420   -3.348040
  H     -0.356870    1.549230   -4.991130
  H      0.650230    2.675440   -4.096000
  O      2.505130   -0.933260   -5.482570
  H      0.643180   -0.340090   -3.738530
  H     -0.148650    0.811530   -2.689800
  H      1.594470    0.793300   -2.809250

 Total Charge           Charge          ....    0
 Multiplicity           Mult            ....    1
 Number of Electrons    NEL             ....   66
 Basis Dimension        Dim             ....  137

ORBITAL ENERGIES
----------------

  NO   OCC          E(Eh)            E(eV)
   0   2.0000     -89.213076     -2427.6112
   1   2.0000     -24.910069      -677.8375
   2   2.0000     -19.245663      -523.7011
   3   2.0000     -19.224024      -523.1123
   4   2.0000     -10.346421      -281.5404
   5   2.0000     -10.315754      -280.7059
   6   2.0000     -10.278539      -279.6933
   7   2.0000      -8.296223      -225.7517
   8   2.0000      -6.259266      -170.3233
   9   2.0000      -6.252746      -170.1459
  10   2.0000      -6.251563      -170.1137
  11   2.0000      -1.491397       -40.5830
  12   2.0000      -1.215053       -33.0633
  13   2.0000      -1.102165       -29.9914
  14   2.0000      -0.941629       -25.6230
  15   2.0000      -0.864780       -23.5319
  16   2.0000      -0.812586       -22.1116
  17   2.0000      -0.741514       -20.1776
  18   2.0000      -0.691508       -18.8169
  19   2.0000      -0.682557       -18.5733
  20   2.0000      -0.653226       -17.7752
  21   2.0000      -0.592629       -16.1262
  22   2.0000      -0.581763       -15.8306
  23   2.0000      -0.551829       -15.0160
  24   2.0000      -0.539289       -14.6748
  25   2.0000      -0.518550       -14.1105
  26   2.0000      -0.479384       -13.0447
  27   2.0000      -0.467568       -12.7232
  28   2.0000      -0.463449       -12.6111
  29   2.0000      -0.447533       -12.1780
  30   2.0000      -0.421802       -11.4778
  31   2.0000      -0.398873       -10.8539
  32   2.0000      -0.387550       -10.5458
  33   0.0000       0.122728         3.3396
  34   0.0000       0.125255         3.4084
  35   0.0000       0.164203         4.4682
  36   0.0000       0.168707         4.5908
  37   0.0000       0.183498         4.9932

MULLIKEN ATOMIC CHARGES
-----------------------
   0 C :   -0.097136
   1 C :   -0.122596
   2 H :    0.085717
   3 H :    0.073284
   4 S :    0.954737
   5 F :   -0.169558
   6 O :   -0.439041
   7 C :   -0.023262
   8 H :    0.058197
   9 H :    0.051461
  10 O :   -0.496394
  11 H :    0.059748
  12 H :    0.034858
  13 H :    0.029986
Sum of atomic charges:   -0.0000000

LOEWDIN ATOMIC CHARGES
----------------------
   0 C :   -0.045453
   1 C :   -0.152058
   2 H :    0.039584
   3 H :    0.032925
   4 S :    1.163914
   5 F :   -0.114285
   6 O :   -0.481941
   7 C :   -0.053675
   8 H :    0.034141
   9 H :    0.037031
  10 O :   -0.540558
  11 H :    0.028696
  12 H :    0.027517
  13 H :    0.024161

  Mayer bond orders larger than 0.100000
B(  0-C ,  1-C ) :   1.0487 B(  0-C ,  7-C ) :   1.0853 B(  0-C ,  8-H ) :   0.9507
B(  0-C ,  9-H ) :   0.9501 B(  1-C ,  2-H ) :   0.9307 B(  1-C ,  3-H ) :   0.9338
B(  1-C ,  4-S ) :   0.9204 B(  4-S ,  5-F ) :   1.0307 B(  4-S ,  6-O ) :   1.7778
B(  4-S , 10-O ) :   1.7131 B(  7-C , 11-H ) :   0.9689 B(  7-C , 12-H ) :   0.9711
B(  7-C , 13-H ) :   0.9750

Dispersion correction           -0.004622270
FINAL SINGLE POINT ENERGY      -766.410865714150

DIPOLE MOMENT
-------------
                                X             Y             Z
Electronic contribution:      5.14484      -5.44565     -12.07145
Nuclear contribution   :     -4.93724       7.05784      11.92827
                        -----------------------------------------
Total Dipole Moment    :      0.20760       1.61218      -0.14318
                        -----------------------------------------
Magnitude (a.u.)       :      1.63179
Magnitude (Debye)      :      4.14768

Rotational constants in cm-1:     0.134572     0.053398     0.050578
Rotational constants in MHz :  4034.377338  1600.833917  1516.302250

                             ****ORCA TERMINATED NORMALLY****
TOTAL RUN TIME: 0 days 0 hours 0 minutes 12 seconds 860 msec
