                         Program Version 5.0.0 -  RELEASE  -
|  1> !wB97X-D3 RIJCOSX def2-SVP def2/J TightSCF
|  2> *xyz 0 1
|  3> C          1.96337       -1.74915       -1.89689
|  4> C          2.73849       -2.01517       -3.09711
|  5> C          4.04974       -2.15472       -3.15204
|  6> N          4.65821       -1.98629       -4.31866
|  7> N          4.76423       -2.45444       -2.05049
|  8> H          4.28736       -2.77626       -1.21750
|  9> H          5.75082       -2.65835       -2.12599
| 10> H          2.34518       -1.69027       -3.97145
| 11> H          4.10900       -1.59268       -5.07176
| 12> H          5.64910       -2.15646       -4.42724
| 13> C          2.08852       -0.30091       -1.41520
| 14> H          2.23127       -2.45162       -1.10264
| 15> H          0.93025       -1.97780       -2.15544
| 16> C          1.96899        0.73358       -2.53565
| 17> H          3.05136       -0.16860       -0.91187
| 18> H          1.31650       -0.13623       -0.65725
| 19> H          2.73046        0.55745       -3.26643
| 20> H          2.08619        1.71595       -2.12808
| 21> H          1.00672        0.65098       -2.99620
| 22> *
| 23> %MaxCore 64000
| 24>
| 25> %pal nprocs 8
| 26> end
| 27>
| 28> %scf
| 29>   MaxIter 150
| 30> end
| 31>
| 32>
| 33>                          ****END OF INPUT****

CARTESIAN COORDINATES (ANGSTROEM)
---------------------------------
  C      1.963370   -1.749150   -1.896890
  C      2.738490   -2.015170   -3.097110
  C      4.049740   -2.154720   -3.152040
  N      4.658210   -1.986290   -4.318660
  N      4.764230   -2.454440   -2.050490
  H      4.287360   -2.776260   -1.217500
  H      5.750820   -2.658350   -2.125990
  H      2.345180   -1.690270   -3.971450
  H      4.109000   -1.592680   -5.071760
  H      5.649100   -2.156460   -4.427240
  C      2.088520   -0.300910   -1.415200
  H      2.231270   -2.451620   -1.102640
  H      0.930250   -1.977800   -2.155440
  C      1.968990    0.733580   -2.535650
  H      3.051360   -0.168600   -0.911870
  H      1.316500   -0.136230   -0.657250
  H      2.730460    0.557450   -3.266430
  H      2.086190    1.715950   -2.128080
  H      1.006720    0.650980   -2.996200

 Total Charge           Charge          ....    0
 Multiplicity           Mult            ....    1
 Number of Electrons    NEL             ....   56
 Basis Dimension        Dim             ....  158

ORBITAL ENERGIES
----------------

  NO   OCC          E(Eh)            E(eV)
   0   2.0000     -14.430488      -392.6735
   1   2.0000     -14.428591      -392.6219
   2   2.0000     -10.327364      -281.0219
   3   2.0000     -10.259732      -279.1815
   4   2.0000     -10.256138      -279.0837
   5   2.0000     -10.252213      -278.9769
   6   2.0000     -10.196798      -277.4690
   7   2.0000      -1.062622       -28.9154
   8   2.0000      -0.970465       -26.4077
   9   2.0000      -0.890191       -24.2233
  10   2.0000      -0.820816       -22.3355
  11   2.0000      -0.760422       -20.6921
  12   2.0000      -0.695556       -18.9270
  13   2.0000      -0.666640       -18.1402
  14   2.0000      -0.639619       -17.4049
  15   2.0000      -0.600293       -16.3348
  16   2.0000      -0.566628       -15.4187
  17   2.0000      -0.540794       -14.7157
  18   2.0000      -0.530316       -14.4306
  19   2.0000      -0.499800       -13.6002
  20   2.0000      -0.481056       -13.0902
  21   2.0000      -0.464312       -12.6346
  22   2.0000      -0.446298       -12.1444
  23   2.0000      -0.419356       -11.4113
  24   2.0000      -0.399825       -10.8798
  25   2.0000      -0.395265       -10.7557
  26   2.0000      -0.353089        -9.6080
  27   2.0000      -0.236136        -6.4256
  28   0.0000       0.129407         3.5213
  29   0.0000       0.159585         4.3425
  30   0.0000       0.164921         4.4877
  31   0.0000       0.184942         5.0325
  32   0.0000       0.194029         5.2798

MULLIKEN ATOMIC CHARGES
-----------------------
   0 C :    0.042422
   1 C :   -0.197771
   2 C :   -0.025227
   3 N :   -0.098599
   4 N :   -0.122646
   5 H :    0.130703
   6 H :    0.112800
   7 H :   -0.086440
   8 H :    0.134054
   9 H :    0.113540
  10 C :   -0.049730
  11 H :   -0.011364
  12 H :    0.003960
  13 C :   -0.015650
  14 H :    0.007722
  15 H :    0.008374
  16 H :    0.023208
  17 H :    0.016498
  18 H :    0.014147
Sum of atomic charges:   -0.0000000

LOEWDIN ATOMIC CHARGES
----------------------
   0 C :   -0.042768
   1 C :   -0.232680
   2 C :    0.037933
   3 N :   -0.028074
   4 N :   -0.036710
   5 H :    0.080949
   6 H :    0.066830
   7 H :   -0.013044
   8 H :    0.085314
   9 H :    0.067760
  10 C :   -0.044737
  11 H :    0.010326
  12 H :    0.023346
  13 C :   -0.056544
  14 H :    0.014099
  15 H :    0.013629
  16 H :    0.018006
  17 H :    0.018782
  18 H :    0.017582

  Mayer bond orders larger than 0.100000
B(  0-C ,  1-C ) :   1.0853 B(  0-C , 10-C ) :   1.0550 B(  0-C , 11-H ) :   0.9445
B(  0-C , 12-H ) :   0.9273 B(  1-C ,  2-C ) :   1.6924 B(  1-C ,  7-H ) :   0.9370
B(  2-C ,  3-N ) :   1.2429 B(  2-C ,  4-N ) :   1.2428 B(  3-N ,  8-H ) :   0.9357
B(  3-N ,  9-H ) :   0.9510 B(  4-N ,  5-H ) :   0.9412 B(  4-N ,  6-H ) :   0.9512
B( 10-C , 13-C ) :   1.0887 B( 10-C , 14-H ) :   0.9532 B( 10-C , 15-H ) :   0.9553
B( 13-C , 16-H ) :   0.9674 B( 13-C , 17-H ) :   0.9722 B( 13-C , 18-H ) :   0.9761

Dispersion correction           -0.005583508
FINAL SINGLE POINT ENERGY      -306.918403259017

DIPOLE MOMENT
-------------
                                X             Y             Z
Electronic contribution:      4.01436      -4.10462      -1.76717
Nuclear contribution   :     -2.83106       3.92601       1.57906
                        -----------------------------------------
Total Dipole Moment    :      1.18330      -0.17861      -0.18810
                        -----------------------------------------
Magnitude (a.u.)       :      1.21140
Magnitude (Debye)      :      3.07912

Rotational constants in cm-1:     0.142679     0.055043     0.048600
Rotational constants in MHz :  4277.395781  1650.135877  1456.977167

                             ****ORCA TERMINATED NORMALLY****
TOTAL RUN TIME: 0 days 0 hours 0 minutes 17 seconds 13 msec
