                         Program Version 5.0.0 -  RELEASE  -
|  1> !wB97X-D3 RIJCOSX def2-SVP def2/J TightSCF
|  2> *xyz 0 1
|  3> C          0.61188        1.65763       -4.50029
|  4> C          1.69499        1.54179       -5.57045
|  5> H          2.69733        1.73466       -5.18400
|  6> H          1.50666        2.27224       -6.35808
|  7> S          1.78029       -0.03313       -6.42874
|  8> O          2.56929        0.21366       -7.60736
|  9> F          0.41688       -0.46297       -6.61859
| 10> C          0.68036        0.65542       -3.34804
| 11> H         -0.35687        1.54923       -4.99113
| 12> H          0.65023        2.67544       -4.09600
| 13> O          2.50513       -0.93326       -5.48257
| 14> H          0.64318       -0.34009       -3.73853
| 15> H         -0.14865        0.81153       -2.68980
| 16> H          1.59447        0.79330       -2.80925
| 17> *
| 18> %MaxCore 64000
| 19>
| 20> %pal nprocs 8
| 21> end
| 22>
| 23> %scf
| 24>   MaxIter 150
| 25> end
| 26>
| 27>
| 28>                          ****END OF INPUT****

CARTESIAN COORDINATES (ANGSTROEM)
---------------------------------
  C      0.611880    1.657630   -4.500290
  C      1.694990    1.541790   -5.570450
  H      2.697330    1.734660   -5.184000
  H      1.506660    2.272240   -6.358080
  S      1.780290   -0.033130   -6.428740
  O      2.569290    0.213660   -7.607360
  F      0.416880   -0.462970   -6.618590
  C      0.680360    0.655420   -3.348040
  H     -0.356870    1.549230   -4.991130
  H      0.650230    2.675440   -4.096000
  O      2.505130   -0.933260   -5.482570
  H      0.643180   -0.340090   -3.738530
  H     -0.148650    0.811530   -2.689800
  H      1.594470    0.793300   -2.809250

 Total Charge           Charge          ....    0
 Multiplicity           Mult            ....    1
 Number of Electrons    NEL             ....   66
 Basis Dimension        Dim             ....  137

ORBITAL ENERGIES
----------------

  NO   OCC          E(Eh)            E(eV)
   0   2.0000     -89.212515     -2427.5960
   1   2.0000     -24.909940      -677.8339
   2   2.0000     -19.244226      -523.6620
   3   2.0000     -19.224203      -523.1172
   4   2.0000     -10.346151      -281.5331
   5   2.0000     -10.321554      -280.8638
   6   2.0000     -10.288340      -279.9600
   7   2.0000      -8.295694      -225.7373
   8   2.0000      -6.258996      -170.3159
   9   2.0000      -6.252043      -170.1267
  10   2.0000      -6.250941      -170.0967
  11   2.0000      -1.489787       -40.5392
  12   2.0000      -1.215535       -33.0764
  13   2.0000      -1.101835       -29.9825
  14   2.0000      -0.947423       -25.7807
  15   2.0000      -0.863206       -23.4890
  16   2.0000      -0.817356       -22.2414
  17   2.0000      -0.744442       -20.2573
  18   2.0000      -0.699001       -19.0208
  19   2.0000      -0.690091       -18.7783
  20   2.0000      -0.640105       -17.4181
  21   2.0000      -0.594258       -16.1706
  22   2.0000      -0.583498       -15.8778
  23   2.0000      -0.558165       -15.1884
  24   2.0000      -0.537600       -14.6288
  25   2.0000      -0.526982       -14.3399
  26   2.0000      -0.481690       -13.1074
  27   2.0000      -0.477365       -12.9898
  28   2.0000      -0.472583       -12.8596
  29   2.0000      -0.455342       -12.3905
  30   2.0000      -0.417565       -11.3625
  31   2.0000      -0.400493       -10.8980
  32   2.0000      -0.385991       -10.5034
  33   0.0000       0.108178         2.9437
  34   0.0000       0.137396         3.7387
  35   0.0000       0.163910         4.4602
  36   0.0000       0.170980         4.6526
  37   0.0000       0.177446         4.8286

MULLIKEN ATOMIC CHARGES
-----------------------
   0 C :   -0.122932
   1 C :   -0.120024
   2 H :    0.109428
   3 H :    0.084883
   4 S :    0.952143
   5 O :   -0.432735
   6 F :   -0.173428
   7 C :   -0.017515
   8 H :    0.041309
   9 H :    0.054994
  10 O :   -0.493157
  11 H :    0.040128
  12 H :    0.037532
  13 H :    0.039373
Sum of atomic charges:    0.0000000

LOEWDIN ATOMIC CHARGES
----------------------
   0 C :   -0.060261
   1 C :   -0.146693
   2 H :    0.055068
   3 H :    0.038463
   4 S :    1.164308
   5 O :   -0.479175
   6 F :   -0.115879
   7 C :   -0.055434
   8 H :    0.024566
   9 H :    0.037712
  10 O :   -0.538749
  11 H :    0.019689
  12 H :    0.027837
  13 H :    0.028548

  Mayer bond orders larger than 0.100000
B(  0-C ,  1-C ) :   1.0296 B(  0-C ,  7-C ) :   1.0774 B(  0-C ,  8-H ) :   0.9576
B(  0-C ,  9-H ) :   0.9485 B(  1-C ,  2-H ) :   0.9337 B(  1-C ,  3-H ) :   0.9380
B(  1-C ,  4-S ) :   0.9266 B(  4-S ,  5-O ) :   1.7955 B(  4-S ,  6-F ) :   1.0175
B(  4-S , 10-O ) :   1.7101 B(  7-C , 11-H ) :   0.9687 B(  7-C , 12-H ) :   0.9710
B(  7-C , 13-H ) :   0.9754

Dispersion correction           -0.004581112
FINAL SINGLE POINT ENERGY      -766.410387874228

DIPOLE MOMENT
-------------
                                X             Y             Z
Electronic contribution:      1.43809      -6.58849     -10.31203
Nuclear contribution   :     -2.62245       7.78551      10.86491
                        -----------------------------------------
Total Dipole Moment    :     -1.18436       1.19703       0.55287
                        -----------------------------------------
Magnitude (a.u.)       :      1.77236
Magnitude (Debye)      :      4.50497

Rotational constants in cm-1:     0.129509     0.054228     0.052367
Rotational constants in MHz :  3882.596420  1625.701900  1569.934536

                             ****ORCA TERMINATED NORMALLY****
TOTAL RUN TIME: 0 days 0 hours 0 minutes 12 seconds 945 msec
