                         Program Version 5.0.0 -  RELEASE  -
|  1> !wB97X-D3 RIJCOSX def2-SVP def2/J TightSCF
|  2> *xyz 0 1
|  3> C          1.96337       -1.74915       -1.89689
|  4> N          2.73849       -2.01517       -3.09711
|  5> C          4.04974       -2.15472       -3.15204
|  6> C          4.65821       -1.98629       -4.31866
|  7> N          4.76423       -2.45444       -2.05049
|  8> H          4.28736       -2.77626       -1.21750
|  9> H          5.75082       -2.65835       -2.12599
| 10> H          2.34518       -1.69027       -3.97145
| 11> H          4.10900       -1.59268       -5.07176
| 12> H          5.64910       -2.15646       -4.42724
| 13> C          2.08852       -0.30091       -1.41520
| 14> H          2.23127       -2.45162       -1.10264
| 15> H          0.93025       -1.97780       -2.15544
| 16> C          1.96899        0.73358       -2.53565
| 17> H          3.05136       -0.16860       -0.91187
| 18> H          1.31650       -0.13623       -0.65725
| 19> H          2.73046        0.55745       -3.26643
| 20> H          2.08619        1.71595       -2.12808
| 21> H          1.00672        0.65098       -2.99620
| 22> *
| 23> %MaxCore 64000
| 24>
| 25> %pal nprocs 8
| 26> end
| 27>
| 28> %scf
| 29>   MaxIter 150
| 30> end
| 31>
| 32>
| 33>                          ****END OF INPUT****

CARTESIAN COORDINATES (ANGSTROEM)
---------------------------------
  C      1.963370   -1.749150   -1.896890
  N      2.738490   -2.015170   -3.097110
  C      4.049740   -2.154720   -3.152040
  C      4.658210   -1.986290   -4.318660
  N      4.764230   -2.454440   -2.050490
  H      4.287360   -2.776260   -1.217500
  H      5.750820   -2.658350   -2.125990
  H      2.345180   -1.690270   -3.971450
  H      4.109000   -1.592680   -5.071760
  H      5.649100   -2.156460   -4.427240
  C      2.088520   -0.300910   -1.415200
  H      2.231270   -2.451620   -1.102640
  H      0.930250   -1.977800   -2.155440
  C      1.968990    0.733580   -2.535650
  H      3.051360   -0.168600   -0.911870
  H      1.316500   -0.136230   -0.657250
  H      2.730460    0.557450   -3.266430
  H      2.086190    1.715950   -2.128080
  H      1.006720    0.650980   -2.996200

 Total Charge           Charge          ....    0
 Multiplicity           Mult            ....    1
 Number of Electrons    NEL             ....   56
 Basis Dimension        Dim             ....  158

ORBITAL ENERGIES
----------------

  NO   OCC          E(Eh)            E(eV)
   0   2.0000     -14.429357      -392.6428
   1   2.0000     -14.427587      -392.5946
   2   2.0000     -10.329246      -281.0731
   3   2.0000     -10.324870      -280.9540
   4   2.0000     -10.285286      -279.8769
   5   2.0000     -10.273513      -279.5565
   6   2.0000     -10.194766      -277.4137
   7   2.0000      -1.073302       -29.2060
   8   2.0000      -0.985394       -26.8139
   9   2.0000      -0.894128       -24.3305
  10   2.0000      -0.829733       -22.5782
  11   2.0000      -0.773240       -21.0409
  12   2.0000      -0.710649       -19.3377
  13   2.0000      -0.686855       -18.6903
  14   2.0000      -0.631506       -17.1842
  15   2.0000      -0.593803       -16.1582
  16   2.0000      -0.575684       -15.6652
  17   2.0000      -0.557224       -15.1628
  18   2.0000      -0.540628       -14.7112
  19   2.0000      -0.499517       -13.5925
  20   2.0000      -0.488140       -13.2830
  21   2.0000      -0.482428       -13.1275
  22   2.0000      -0.463493       -12.6123
  23   2.0000      -0.443919       -12.0797
  24   2.0000      -0.441366       -12.0102
  25   2.0000      -0.428576       -11.6621
  26   2.0000      -0.340809        -9.2739
  27   2.0000      -0.243178        -6.6172
  28   0.0000       0.127206         3.4615
  29   0.0000       0.152346         4.1455
  30   0.0000       0.168407         4.5826
  31   0.0000       0.176099         4.7919
  32   0.0000       0.192449         5.2368

MULLIKEN ATOMIC CHARGES
-----------------------
   0 C :    0.066318
   1 N :   -0.171965
   2 C :   -0.016894
   3 C :   -0.107415
   4 N :   -0.129828
   5 H :    0.113183
   6 H :    0.132861
   7 H :    0.130550
   8 H :   -0.050102
   9 H :   -0.048238
  10 C :   -0.074427
  11 H :    0.025809
  12 H :    0.027800
  13 C :   -0.038361
  14 H :    0.026534
  15 H :    0.023823
  16 H :    0.038536
  17 H :    0.033699
  18 H :    0.018117
Sum of atomic charges:    0.0000000

LOEWDIN ATOMIC CHARGES
----------------------
   0 C :    0.027649
   1 N :   -0.031477
   2 C :    0.043729
   3 C :   -0.260684
   4 N :   -0.035241
   5 H :    0.065003
   6 H :    0.084631
   7 H :    0.082929
   8 H :   -0.009401
   9 H :   -0.008192
  10 C :   -0.058652
  11 H :    0.018540
  12 H :    0.024747
  13 C :   -0.057877
  14 H :    0.022106
  15 H :    0.022304
  16 H :    0.024570
  17 H :    0.026963
  18 H :    0.018353

  Mayer bond orders larger than 0.100000
B(  0-C ,  1-N ) :   1.0187 B(  0-C , 10-C ) :   1.0427 B(  0-C , 11-H ) :   0.9606
B(  0-C , 12-H ) :   0.9584 B(  1-N ,  2-C ) :   1.1978 B(  1-N ,  7-H ) :   0.9230
B(  2-C ,  3-C ) :   1.7487 B(  2-C ,  4-N ) :   1.2139 B(  3-C ,  8-H ) :   0.9368
B(  3-C ,  9-H ) :   0.9526 B(  4-N ,  5-H ) :   0.9506 B(  4-N ,  6-H ) :   0.9445
B( 10-C , 13-C ) :   1.0812 B( 10-C , 14-H ) :   0.9477 B( 10-C , 15-H ) :   0.9522
B( 13-C , 16-H ) :   0.9718 B( 13-C , 17-H ) :   0.9725 B( 13-C , 18-H ) :   0.9780

Dispersion correction           -0.005637449
FINAL SINGLE POINT ENERGY      -306.916117934011

DIPOLE MOMENT
-------------
                                X             Y             Z
Electronic contribution:      1.96131      -3.96940      -0.38544
Nuclear contribution   :     -2.41054       3.93233       1.31148
                        -----------------------------------------
Total Dipole Moment    :     -0.44923      -0.03706       0.92604
                        -----------------------------------------
Magnitude (a.u.)       :      1.02992
Magnitude (Debye)      :      2.61784

Rotational constants in cm-1:     0.144008     0.056232     0.050126
Rotational constants in MHz :  4317.255215  1685.791221  1502.728769

                             ****ORCA TERMINATED NORMALLY****
TOTAL RUN TIME: 0 days 0 hours 0 minutes 17 seconds 118 msec
