                         Program Version 5.0.0 -  RELEASE  -
|  1> !wB97X-D3 RIJCOSX def2-SVP def2/J TightSCF
|  2> *xyz 0 1
|  3> C          0.61188        1.65763       -4.50029
|  4> C          1.69499        1.54179       -5.57045
|  5> H          2.69733        1.73466       -5.18400
|  6> H          1.50666        2.27224       -6.35808
|  7> S          1.78029       -0.03313       -6.42874
|  8> O          2.56929        0.21366       -7.60736
|  9> O          0.41688       -0.46297       -6.61859
| 10> C          0.68036        0.65542       -3.34804
| 11> H         -0.35687        1.54923       -4.99113
| 12> H          0.65023        2.67544       -4.09600
| 13> F          2.50513       -0.93326       -5.48257
| 14> H          0.64318       -0.34009       -3.73853
| 15> H         -0.14865        0.81153       -2.68980
| 16> H          1.59447        0.79330       -2.80925
| 17> *
| 18> %MaxCore 64000
| 19>
| 20> %pal nprocs 8
| 21> end
| 22>
| 23> %scf
| 24>   MaxIter 150
| 25> end
| 26>
| 27>
| 28>                          ****END OF INPUT****

CARTESIAN COORDINATES (ANGSTROEM)
---------------------------------
  C      0.611880    1.657630   -4.500290
  C      1.694990    1.541790   -5.570450
  H      2.697330    1.734660   -5.184000
  H      1.506660    2.272240   -6.358080
  S      1.780290   -0.033130   -6.428740
  O      2.569290    0.213660   -7.607360
  O      0.416880   -0.462970   -6.618590
  C      0.680360    0.655420   -3.348040
  H     -0.356870    1.549230   -4.991130
  H      0.650230    2.675440   -4.096000
  F      2.505130   -0.933260   -5.482570
  H      0.643180   -0.340090   -3.738530
  H     -0.148650    0.811530   -2.689800
  H      1.594470    0.793300   -2.809250

 Total Charge           Charge          ....    0
 Multiplicity           Mult            ....    1
 Number of Electrons    NEL             ....   66
 Basis Dimension        Dim             ....  137

ORBITAL ENERGIES
----------------

  NO   OCC          E(Eh)            E(eV)
   0   2.0000     -89.211040     -2427.5558
   1   2.0000     -24.881138      -677.0502
   2   2.0000     -19.245917      -523.7080
   3   2.0000     -19.243921      -523.6537
   4   2.0000     -10.345211      -281.5075
   5   2.0000     -10.316907      -280.7373
   6   2.0000     -10.292757      -280.0801
   7   2.0000      -8.293859      -225.6874
   8   2.0000      -6.256817      -170.2567
   9   2.0000      -6.250602      -170.0875
  10   2.0000      -6.249407      -170.0550
  11   2.0000      -1.444270       -39.3006
  12   2.0000      -1.227384       -33.3988
  13   2.0000      -1.131392       -30.7867
  14   2.0000      -0.945050       -25.7161
  15   2.0000      -0.860067       -23.4036
  16   2.0000      -0.799174       -21.7466
  17   2.0000      -0.740274       -20.1439
  18   2.0000      -0.670414       -18.2429
  19   2.0000      -0.658164       -17.9095
  20   2.0000      -0.646340       -17.5878
  21   2.0000      -0.595684       -16.2094
  22   2.0000      -0.579469       -15.7682
  23   2.0000      -0.556815       -15.1517
  24   2.0000      -0.545242       -14.8368
  25   2.0000      -0.533162       -14.5081
  26   2.0000      -0.488713       -13.2986
  27   2.0000      -0.480733       -13.0814
  28   2.0000      -0.467162       -12.7121
  29   2.0000      -0.455123       -12.3845
  30   2.0000      -0.429169       -11.6783
  31   2.0000      -0.416583       -11.3358
  32   2.0000      -0.409278       -11.1370
  33   0.0000       0.117596         3.2000
  34   0.0000       0.135028         3.6743
  35   0.0000       0.167674         4.5626
  36   0.0000       0.169692         4.6176
  37   0.0000       0.180602         4.9144

MULLIKEN ATOMIC CHARGES
-----------------------
   0 C :   -0.097386
   1 C :   -0.132458
   2 H :    0.080089
   3 H :    0.106564
   4 S :    0.962720
   5 O :   -0.441098
   6 O :   -0.444631
   7 C :   -0.038134
   8 H :    0.062988
   9 H :    0.049550
  10 F :   -0.223261
  11 H :    0.039481
  12 H :    0.045480
  13 H :    0.030096
Sum of atomic charges:    0.0000000

LOEWDIN ATOMIC CHARGES
----------------------
   0 C :   -0.054709
   1 C :   -0.152506
   2 H :    0.036065
   3 H :    0.054022
   4 S :    1.170560
   5 O :   -0.485852
   6 O :   -0.485880
   7 C :   -0.058318
   8 H :    0.035180
   9 H :    0.035905
  10 F :   -0.168690
  11 H :    0.019122
  12 H :    0.032564
  13 H :    0.022538

  Mayer bond orders larger than 0.100000
B(  0-C ,  1-C ) :   1.0336 B(  0-C ,  7-C ) :   1.0805 B(  0-C ,  8-H ) :   0.9504
B(  0-C ,  9-H ) :   0.9480 B(  1-C ,  2-H ) :   0.9344 B(  1-C ,  3-H ) :   0.9374
B(  1-C ,  4-S ) :   0.9183 B(  4-S ,  5-O ) :   1.8006 B(  4-S ,  6-O ) :   1.7793
B(  4-S , 10-F ) :   0.9572 B(  7-C , 11-H ) :   0.9726 B(  7-C , 12-H ) :   0.9718
B(  7-C , 13-H ) :   0.9761

Dispersion correction           -0.004577549
FINAL SINGLE POINT ENERGY      -766.436486501750

DIPOLE MOMENT
-------------
                                X             Y             Z
Electronic contribution:      5.02223      -7.40880      -8.33331
Nuclear contribution   :     -4.86824       8.29128       9.64318
                        -----------------------------------------
Total Dipole Moment    :      0.15399       0.88249       1.30988
                        -----------------------------------------
Magnitude (a.u.)       :      1.58691
Magnitude (Debye)      :      4.03359

Rotational constants in cm-1:     0.129339     0.055092     0.051542
Rotational constants in MHz :  3877.477482  1651.602611  1545.182728

                             ****ORCA TERMINATED NORMALLY****
TOTAL RUN TIME: 0 days 0 hours 0 minutes 12 seconds 64 msec
