                         Program Version 5.0.0 -  RELEASE  -
|  1> !wB97X-D3 RIJCOSX def2-SVP def2/J TightSCF
|  2> *xyz 0 1
|  3> C          1.96337       -1.74915       -1.89689
|  4> N          2.73849       -2.01517       -3.09711
|  5> C          4.04974       -2.15472       -3.15204
|  6> N          4.65821       -1.98629       -4.31866
|  7> C          4.76423       -2.45444       -2.05049
|  8> H          4.28736       -2.77626       -1.21750
|  9> H          5.75082       -2.65835       -2.12599
| 10> H          2.34518       -1.69027       -3.97145
| 11> H          4.10900       -1.59268       -5.07176
| 12> H          5.64910       -2.15646       -4.42724
| 13> C          2.08852       -0.30091       -1.41520
| 14> H          2.23127       -2.45162       -1.10264
| 15> H          0.93025       -1.97780       -2.15544
| 16> C          1.96899        0.73358       -2.53565
| 17> H          3.05136       -0.16860       -0.91187
| 18> H          1.31650       -0.13623       -0.65725
| 19> H          2.73046        0.55745       -3.26643
| 20> H          2.08619        1.71595       -2.12808
| 21> H          1.00672        0.65098       -2.99620
| 22> *
| 23> %MaxCore 64000
| 24>
| 25> %pal nprocs 8
| 26> end
| 27>
| 28> %scf
| 29>   MaxIter 150
| 30> end
| 31>
| 32>
| 33>                          ****END OF INPUT****

CARTESIAN COORDINATES (ANGSTROEM)
---------------------------------
  C      1.963370   -1.749150   -1.896890
  N      2.738490   -2.015170   -3.097110
  C      4.049740   -2.154720   -3.152040
  N      4.658210   -1.986290   -4.318660
  C      4.764230   -2.454440   -2.050490
  H      4.287360   -2.776260   -1.217500
  H      5.750820   -2.658350   -2.125990
  H      2.345180   -1.690270   -3.971450
  H      4.109000   -1.592680   -5.071760
  H      5.649100   -2.156460   -4.427240
  C      2.088520   -0.300910   -1.415200
  H      2.231270   -2.451620   -1.102640
  H      0.930250   -1.977800   -2.155440
  C      1.968990    0.733580   -2.535650
  H      3.051360   -0.168600   -0.911870
  H      1.316500   -0.136230   -0.657250
  H      2.730460    0.557450   -3.266430
  H      2.086190    1.715950   -2.128080
  H      1.006720    0.650980   -2.996200

 Total Charge           Charge          ....    0
 Multiplicity           Mult            ....    1
 Number of Electrons    NEL             ....   56
 Basis Dimension        Dim             ....  158

ORBITAL ENERGIES
----------------

  NO   OCC          E(Eh)            E(eV)
   0   2.0000     -14.432008      -392.7149
   1   2.0000     -14.431529      -392.7019
   2   2.0000     -10.330513      -281.1075
   3   2.0000     -10.317711      -280.7592
   4   2.0000     -10.278768      -279.6995
   5   2.0000     -10.273405      -279.5536
   6   2.0000     -10.192838      -277.3612
   7   2.0000      -1.078797       -29.3556
   8   2.0000      -0.989929       -26.9373
   9   2.0000      -0.884293       -24.0628
  10   2.0000      -0.812292       -22.1036
  11   2.0000      -0.796078       -21.6624
  12   2.0000      -0.710257       -19.3271
  13   2.0000      -0.651684       -17.7332
  14   2.0000      -0.644986       -17.5510
  15   2.0000      -0.620877       -16.8949
  16   2.0000      -0.572451       -15.5772
  17   2.0000      -0.549363       -14.9489
  18   2.0000      -0.534139       -14.5347
  19   2.0000      -0.497302       -13.5323
  20   2.0000      -0.489087       -13.3087
  21   2.0000      -0.474502       -12.9119
  22   2.0000      -0.459463       -12.5026
  23   2.0000      -0.443295       -12.0627
  24   2.0000      -0.437985       -11.9182
  25   2.0000      -0.421138       -11.4598
  26   2.0000      -0.338724        -9.2171
  27   2.0000      -0.242691        -6.6040
  28   0.0000       0.123731         3.3669
  29   0.0000       0.155913         4.2426
  30   0.0000       0.171321         4.6619
  31   0.0000       0.180050         4.8994
  32   0.0000       0.193198         5.2572

MULLIKEN ATOMIC CHARGES
-----------------------
   0 C :    0.093243
   1 N :   -0.190328
   2 C :   -0.007337
   3 N :   -0.114960
   4 C :   -0.129874
   5 H :   -0.040781
   6 H :   -0.053037
   7 H :    0.105983
   8 H :    0.110037
   9 H :    0.139287
  10 C :   -0.074150
  11 H :    0.048436
  12 H :    0.020941
  13 C :   -0.037108
  14 H :    0.039506
  15 H :    0.024363
  16 H :    0.016640
  17 H :    0.034061
  18 H :    0.015078
Sum of atomic charges:    0.0000000

LOEWDIN ATOMIC CHARGES
----------------------
   0 C :    0.041860
   1 N :   -0.029806
   2 C :    0.040483
   3 N :   -0.025433
   4 C :   -0.272870
   5 H :   -0.008417
   6 H :   -0.010348
   7 H :    0.062121
   8 H :    0.064904
   9 H :    0.087744
  10 C :   -0.054358
  11 H :    0.031570
  12 H :    0.021199
  13 C :   -0.059583
  14 H :    0.028742
  15 H :    0.023077
  16 H :    0.015561
  17 H :    0.026928
  18 H :    0.016626

  Mayer bond orders larger than 0.100000
B(  0-C ,  1-N ) :   1.0044 B(  0-C , 10-C ) :   1.0600 B(  0-C , 11-H ) :   0.9530
B(  0-C , 12-H ) :   0.9608 B(  1-N ,  2-C ) :   1.1750 B(  1-N ,  7-H ) :   0.9351
B(  2-C ,  3-N ) :   1.2273 B(  2-C ,  4-C ) :   1.7559 B(  3-N ,  8-H ) :   0.9511
B(  3-N ,  9-H ) :   0.9430 B(  4-C ,  5-H ) :   0.9434 B(  4-C ,  6-H ) :   0.9478
B( 10-C , 13-C ) :   1.0814 B( 10-C , 14-H ) :   0.9461 B( 10-C , 15-H ) :   0.9546
B( 13-C , 16-H ) :   0.9717 B( 13-C , 17-H ) :   0.9728 B( 13-C , 18-H ) :   0.9776

Dispersion correction           -0.005601115
FINAL SINGLE POINT ENERGY      -306.914483234130

DIPOLE MOMENT
-------------
                                X             Y             Z
Electronic contribution:      1.86838      -3.40553      -2.74700
Nuclear contribution   :     -2.38731       3.82978       1.80833
                        -----------------------------------------
Total Dipole Moment    :     -0.51893       0.42426      -0.93867
                        -----------------------------------------
Magnitude (a.u.)       :      1.15342
Magnitude (Debye)      :      2.93177

Rotational constants in cm-1:     0.144922     0.055791     0.049560
Rotational constants in MHz :  4344.653038  1672.561873  1485.775629

                             ****ORCA TERMINATED NORMALLY****
TOTAL RUN TIME: 0 days 0 hours 0 minutes 17 seconds 495 msec
