                         Program Version 5.0.0 -  RELEASE  -
|  1> !wB97X-D3 RIJCOSX def2-SVP def2/J TightSCF xyzfile
|  2>
|  3> *xyzfile 0 1 D5.xyz
|  4>
|  5> %MaxCore 64000
|  6>
|  7> %pal nprocs 18
|  8> end
|  9>
| 10> %scf
| 11>   MaxIter 150
| 12> end
| 13>
| 14>
| 15>                          ****END OF INPUT****

CARTESIAN COORDINATES (ANGSTROEM)
---------------------------------
  C      1.963365   -1.749150   -1.896887
  N      2.738490   -2.015170   -3.097113
  C      0.611877    1.657634   -4.500288
  C      1.694991    1.541794   -5.570447
  H      2.697326    1.734659   -5.183996
  H      1.506656    2.272239   -6.358076
  S      1.780287   -0.033128   -6.428739
  C      4.049736   -2.154717   -3.152044
  C      4.658206   -1.986293   -4.318655
  N      4.764231   -2.454435   -2.050491
  H      4.287363   -2.776259   -1.217496
  H      5.750825   -2.658351   -2.125988
  H      2.345176   -1.690274   -3.971447
  H      4.109004   -1.592677   -5.071760
  H      5.649095   -2.156462   -4.427237
  O      2.569287    0.213657   -7.607360
  F      0.416880   -0.462969   -6.618595
  C      2.088520   -0.300912   -1.415204
  H      2.231272   -2.451616   -1.102643
  H      0.930249   -1.977801   -2.155438
  C      0.680356    0.655418   -3.348038
  H     -0.356865    1.549231   -4.991128
  H      0.650228    2.675438   -4.096000
  C      1.968993    0.733582   -2.535654
  H      3.051356   -0.168602   -0.911868
  H      1.316501   -0.136231   -0.657252
  O      2.505129   -0.933263   -5.482570
  H      2.824195    0.624726   -3.208464
  H      2.058919    1.730331   -2.093112
  H      0.542252   -0.344731   -3.766662
  H     -0.174219    0.829692   -2.685182

 Total Charge           Charge          ....    0
 Multiplicity           Mult            ....    1
 Number of Electrons    NEL             ....  120
 Basis Dimension        Dim             ....  285

ORBITAL ENERGIES
----------------

  NO   OCC          E(Eh)            E(eV)
   0   2.0000     -89.228559     -2428.0325
   1   2.0000     -24.922482      -678.1752
   2   2.0000     -19.257684      -524.0282
   3   2.0000     -19.245349      -523.6926
   4   2.0000     -14.408068      -392.0635
   5   2.0000     -14.392125      -391.6296
   6   2.0000     -10.354780      -281.7679
   7   2.0000     -10.327149      -281.0160
   8   2.0000     -10.311880      -280.6005
   9   2.0000     -10.304592      -280.4022
  10   2.0000     -10.301430      -280.3162
  11   2.0000     -10.289640      -279.9953
  12   2.0000     -10.282402      -279.7984
  13   2.0000     -10.159700      -276.4595
  14   2.0000      -8.311465      -226.1665
  15   2.0000      -6.274742      -170.7444
  16   2.0000      -6.268018      -170.5615
  17   2.0000      -6.266618      -170.5233
  18   2.0000      -1.502410       -40.8826
  19   2.0000      -1.231754       -33.5177
  20   2.0000      -1.124750       -30.6060
  21   2.0000      -1.047419       -28.5017
  22   2.0000      -0.966009       -26.2865
  23   2.0000      -0.959729       -26.1156
  24   2.0000      -0.904923       -24.6242
  25   2.0000      -0.866563       -23.5804
  26   2.0000      -0.831188       -22.6178
  27   2.0000      -0.805536       -21.9198
  28   2.0000      -0.764471       -20.8023
  29   2.0000      -0.735038       -20.0014
  30   2.0000      -0.709534       -19.3074
  31   2.0000      -0.707628       -19.2555
  32   2.0000      -0.690267       -18.7831
  33   2.0000      -0.671747       -18.2792
  34   2.0000      -0.647289       -17.6136
  35   2.0000      -0.613759       -16.7012
  36   2.0000      -0.605872       -16.4866
  37   2.0000      -0.596448       -16.2302
  38   2.0000      -0.579483       -15.7685
  39   2.0000      -0.572212       -15.5707
  40   2.0000      -0.563252       -15.3269
  41   2.0000      -0.554533       -15.0896
  42   2.0000      -0.542209       -14.7543
  43   2.0000      -0.529188       -14.3999
  44   2.0000      -0.518716       -14.1150
  45   2.0000      -0.493409       -13.4263
  46   2.0000      -0.490919       -13.3586
  47   2.0000      -0.482393       -13.1266
  48   2.0000      -0.471361       -12.8264
  49   2.0000      -0.456551       -12.4234
  50   2.0000      -0.451261       -12.2794
  51   2.0000      -0.441222       -12.0063
  52   2.0000      -0.429838       -11.6965
  53   2.0000      -0.424337       -11.5468
  54   2.0000      -0.420755       -11.4493
  55   2.0000      -0.416353       -11.3295
  56   2.0000      -0.406971       -11.0742
  57   2.0000      -0.396306       -10.7840
  58   2.0000      -0.317260        -8.6331
  59   2.0000      -0.215286        -5.8582
  60   0.0000       0.100330         2.7301
  61   0.0000       0.124901         3.3987
  62   0.0000       0.140051         3.8110
  63   0.0000       0.149330         4.0635
  64   0.0000       0.150252         4.0886

MULLIKEN ATOMIC CHARGES
-----------------------
   0 C :    0.061318
   1 N :   -0.171715
   2 C :   -0.049973
   3 C :   -0.130518
   4 H :    0.123647
   5 H :    0.090983
   6 S :    0.987979
   7 C :   -0.029769
   8 C :   -0.124351
   9 N :   -0.133775
  10 H :    0.103972
  11 H :    0.126068
  12 H :    0.126643
  13 H :   -0.017674
  14 H :   -0.069744
  15 O :   -0.418011
  16 F :   -0.168667
  17 C :    0.004714
  18 H :    0.017707
  19 H :    0.022002
  20 C :   -0.055323
  21 H :    0.041418
  22 H :    0.052452
  23 C :   -0.059872
  24 H :    0.024687
  25 H :    0.011085
  26 O :   -0.474550
  27 H :    0.041704
  28 H :    0.018898
  29 H :    0.016639
  30 H :    0.032027
Sum of atomic charges:    0.0000000

LOEWDIN ATOMIC CHARGES
----------------------
   0 C :    0.025616
   1 N :   -0.041977
   2 C :   -0.052325
   3 C :   -0.142785
   4 H :    0.057907
   5 H :    0.042031
   6 S :    1.183285
   7 C :    0.037107
   8 C :   -0.268014
   9 N :   -0.044170
  10 H :    0.059462
  11 H :    0.080204
  12 H :    0.041539
  13 H :   -0.016479
  14 H :   -0.017341
  15 O :   -0.464270
  16 F :   -0.111003
  17 C :   -0.051610
  18 H :    0.015474
  19 H :    0.019244
  20 C :   -0.046143
  21 H :    0.026884
  22 H :    0.039503
  23 C :   -0.044567
  24 H :    0.026016
  25 H :    0.018488
  26 O :   -0.462409
  27 H :    0.025880
  28 H :    0.023548
  29 H :    0.011693
  30 H :    0.029214

  Mayer bond orders larger than 0.100000
B(  0-C ,  1-N ) :   1.0464 B(  0-C , 17-C ) :   1.0384 B(  0-C , 18-H ) :   0.9583
B(  0-C , 19-H ) :   0.9543 B(  1-N ,  7-C ) :   1.1995 B(  1-N , 12-H ) :   0.8882
B(  2-C ,  3-C ) :   1.0268 B(  2-C , 20-C ) :   1.0765 B(  2-C , 21-H ) :   0.9536
B(  2-C , 22-H ) :   0.9404 B(  3-C ,  4-H ) :   0.9269 B(  3-C ,  5-H ) :   0.9368
B(  3-C ,  6-S ) :   0.9297 B(  6-S , 15-O ) :   1.8151 B(  6-S , 16-F ) :   1.0245
B(  6-S , 26-O ) :   1.6041 B(  7-C ,  8-C ) :   1.7647 B(  7-C ,  9-N ) :   1.1972
B(  8-C , 13-H ) :   0.9137 B(  8-C , 14-H ) :   0.9480 B(  9-N , 10-H ) :   0.9522
B(  9-N , 11-H ) :   0.9462 B( 12-H , 26-O ) :   0.1032 B( 17-C , 23-C ) :   1.0852
B( 17-C , 24-H ) :   0.9384 B( 17-C , 25-H ) :   0.9454 B( 20-C , 23-C ) :   1.0459
B( 20-C , 29-H ) :   0.9415 B( 20-C , 30-H ) :   0.9442 B( 23-C , 27-H ) :   0.9384
B( 23-C , 28-H ) :   0.9486

Dispersion correction           -0.016430318
FINAL SINGLE POINT ENERGY     -1072.129047616877

DIPOLE MOMENT
-------------
                                X             Y             Z
Electronic contribution:     -4.63393      -1.99656     -20.76588
Nuclear contribution   :      2.89225       3.36404      21.70199
                        -----------------------------------------
Total Dipole Moment    :     -1.74168       1.36748       0.93611
                        -----------------------------------------
Magnitude (a.u.)       :      2.40411
Magnitude (Debye)      :      6.11076

Rotational constants in cm-1:     0.029431     0.014408     0.011084
Rotational constants in MHz :   882.306106   431.946714   332.288152

                             ****ORCA TERMINATED NORMALLY****
TOTAL RUN TIME: 0 days 0 hours 0 minutes 35 seconds 222 msec
