                         Program Version 5.0.0 -  RELEASE  -
|  1> !wB97X-D3 RIJCOSX def2-SVP def2/J TightSCF xyzfile
|  2>
|  3> *xyzfile 0 1 D7.xyz
|  4>
|  5> %MaxCore 64000
|  6>
|  7> %pal nprocs 18
|  8> end
|  9>
| 10> %scf
| 11>   MaxIter 150
| 12> end
| 13>
| 14>
| 15>                          ****END OF INPUT****

CARTESIAN COORDINATES (ANGSTROEM)
---------------------------------
  C      1.963365   -1.749150   -1.896887
  C      2.738490   -2.015170   -3.097113
  C      0.611877    1.657634   -4.500288
  C      1.694991    1.541794   -5.570447
  H      2.697326    1.734659   -5.183996
  H      1.506656    2.272239   -6.358076
  S      1.780287   -0.033128   -6.428739
  C      4.049736   -2.154717   -3.152044
  N      4.658206   -1.986293   -4.318655
  N      4.764231   -2.454435   -2.050491
  H      4.287363   -2.776259   -1.217496
  H      5.750825   -2.658351   -2.125988
  H      2.345176   -1.690274   -3.971447
  H      4.109004   -1.592677   -5.071760
  H      5.649095   -2.156462   -4.427237
  O      2.569287    0.213657   -7.607360
  O      0.416880   -0.462969   -6.618595
  C      2.088520   -0.300912   -1.415204
  H      2.231272   -2.451616   -1.102643
  H      0.930249   -1.977801   -2.155438
  C      0.680356    0.655418   -3.348038
  H     -0.356865    1.549231   -4.991128
  H      0.650228    2.675438   -4.096000
  C      1.968993    0.733582   -2.535654
  H      3.051356   -0.168602   -0.911868
  H      1.316501   -0.136231   -0.657252
  F      2.505129   -0.933263   -5.482570
  H      2.824195    0.624726   -3.208464
  H      2.058919    1.730331   -2.093112
  H      0.542252   -0.344731   -3.766662
  H     -0.174219    0.829692   -2.685182

 Total Charge           Charge          ....    0
 Multiplicity           Mult            ....    1
 Number of Electrons    NEL             ....  120
 Basis Dimension        Dim             ....  285

ORBITAL ENERGIES
----------------

  NO   OCC          E(Eh)            E(eV)
   0   2.0000     -89.215909     -2427.6883
   1   2.0000     -24.896350      -677.4641
   2   2.0000     -19.249745      -523.8122
   3   2.0000     -19.249481      -523.8050
   4   2.0000     -14.431086      -392.6898
   5   2.0000     -14.424954      -392.5230
   6   2.0000     -10.344971      -281.5010
   7   2.0000     -10.327769      -281.0329
   8   2.0000     -10.310743      -280.5696
   9   2.0000     -10.290235      -280.0115
  10   2.0000     -10.280969      -279.7594
  11   2.0000     -10.270141      -279.4648
  12   2.0000     -10.260910      -279.2136
  13   2.0000     -10.192422      -277.3499
  14   2.0000      -8.298708      -225.8193
  15   2.0000      -6.261897      -170.3949
  16   2.0000      -6.255310      -170.2156
  17   2.0000      -6.254073      -170.1820
  18   2.0000      -1.461833       -39.7785
  19   2.0000      -1.233653       -33.5694
  20   2.0000      -1.135861       -30.9084
  21   2.0000      -1.062774       -28.9196
  22   2.0000      -0.971340       -26.4315
  23   2.0000      -0.949104       -25.8264
  24   2.0000      -0.908115       -24.7111
  25   2.0000      -0.861834       -23.4517
  26   2.0000      -0.838188       -22.8083
  27   2.0000      -0.800671       -21.7874
  28   2.0000      -0.769900       -20.9501
  29   2.0000      -0.730079       -19.8665
  30   2.0000      -0.692195       -18.8356
  31   2.0000      -0.682599       -18.5745
  32   2.0000      -0.676168       -18.3995
  33   2.0000      -0.665813       -18.1177
  34   2.0000      -0.644140       -17.5279
  35   2.0000      -0.638241       -17.3674
  36   2.0000      -0.602697       -16.4002
  37   2.0000      -0.593035       -16.1373
  38   2.0000      -0.589491       -16.0409
  39   2.0000      -0.568705       -15.4753
  40   2.0000      -0.563771       -15.3410
  41   2.0000      -0.549988       -14.9659
  42   2.0000      -0.542309       -14.7570
  43   2.0000      -0.527239       -14.3469
  44   2.0000      -0.517488       -14.0816
  45   2.0000      -0.492246       -13.3947
  46   2.0000      -0.489584       -13.3223
  47   2.0000      -0.485901       -13.2220
  48   2.0000      -0.477775       -13.0009
  49   2.0000      -0.459653       -12.5078
  50   2.0000      -0.446555       -12.1514
  51   2.0000      -0.434837       -11.8325
  52   2.0000      -0.429582       -11.6895
  53   2.0000      -0.421575       -11.4716
  54   2.0000      -0.414019       -11.2660
  55   2.0000      -0.411264       -11.1911
  56   2.0000      -0.400719       -10.9041
  57   2.0000      -0.395638       -10.7658
  58   2.0000      -0.353099        -9.6083
  59   2.0000      -0.236793        -6.4435
  60   0.0000       0.111014         3.0208
  61   0.0000       0.129978         3.5369
  62   0.0000       0.136239         3.7072
  63   0.0000       0.150612         4.0984
  64   0.0000       0.162292         4.4162

MULLIKEN ATOMIC CHARGES
-----------------------
   0 C :    0.029801
   1 C :   -0.204733
   2 C :   -0.018643
   3 C :   -0.138004
   4 H :    0.085265
   5 H :    0.106477
   6 S :    0.972284
   7 C :   -0.033723
   8 N :   -0.103057
   9 N :   -0.122390
  10 H :    0.129439
  11 H :    0.112319
  12 H :   -0.083243
  13 H :    0.123316
  14 H :    0.112862
  15 O :   -0.439064
  16 O :   -0.433804
  17 C :    0.032231
  18 H :   -0.010585
  19 H :    0.009310
  20 C :   -0.074293
  21 H :    0.057789
  22 H :    0.041258
  23 C :   -0.041952
  24 H :    0.009292
  25 H :    0.005383
  26 F :   -0.212594
  27 H :    0.006323
  28 H :    0.011829
  29 H :    0.038777
  30 H :    0.032131
Sum of atomic charges:    0.0000000

LOEWDIN ATOMIC CHARGES
----------------------
   0 C :   -0.042862
   1 C :   -0.248385
   2 C :   -0.047308
   3 C :   -0.148769
   4 H :    0.035621
   5 H :    0.054435
   6 S :    1.176597
   7 C :    0.038239
   8 N :   -0.035220
   9 N :   -0.038162
  10 H :    0.080287
  11 H :    0.066626
  12 H :   -0.032148
  13 H :    0.057740
  14 H :    0.067081
  15 O :   -0.485456
  16 O :   -0.477239
  17 C :   -0.037754
  18 H :    0.011250
  19 H :    0.022734
  20 C :   -0.045679
  21 H :    0.035706
  22 H :    0.034988
  23 C :   -0.043855
  24 H :    0.019067
  25 H :    0.014768
  26 F :   -0.114831
  27 H :    0.011658
  28 H :    0.020207
  29 H :    0.019765
  30 H :    0.030901

  Mayer bond orders larger than 0.100000
B(  0-C ,  1-C ) :   1.0865 B(  0-C , 17-C ) :   1.0566 B(  0-C , 18-H ) :   0.9402
B(  0-C , 19-H ) :   0.9248 B(  1-C ,  7-C ) :   1.6973 B(  1-C , 12-H ) :   0.9290
B(  2-C ,  3-C ) :   1.0290 B(  2-C , 20-C ) :   1.0817 B(  2-C , 21-H ) :   0.9453
B(  2-C , 22-H ) :   0.9401 B(  3-C ,  4-H ) :   0.9291 B(  3-C ,  5-H ) :   0.9356
B(  3-C ,  6-S ) :   0.9202 B(  6-S , 15-O ) :   1.7975 B(  6-S , 16-O ) :   1.7877
B(  6-S , 26-F ) :   0.8981 B(  7-C ,  8-N ) :   1.2502 B(  7-C ,  9-N ) :   1.2483
B(  8-N , 13-H ) :   0.9221 B(  8-N , 14-H ) :   0.9503 B(  9-N , 10-H ) :   0.9413
B(  9-N , 11-H ) :   0.9504 B( 17-C , 23-C ) :   1.0876 B( 17-C , 24-H ) :   0.9446
B( 17-C , 25-H ) :   0.9475 B( 20-C , 23-C ) :   1.0489 B( 20-C , 29-H ) :   0.9422
B( 20-C , 30-H ) :   0.9440 B( 23-C , 27-H ) :   0.9326 B( 23-C , 28-H ) :   0.9471

Dispersion correction           -0.016306792
FINAL SINGLE POINT ENERGY     -1072.150491514079

DIPOLE MOMENT
-------------
                                X             Y             Z
Electronic contribution:      0.96938      -3.16812     -19.51633
Nuclear contribution   :      0.26049       3.89757      20.56096
                        -----------------------------------------
Total Dipole Moment    :      1.22987       0.72945       1.04464
                        -----------------------------------------
Magnitude (a.u.)       :      1.77086
Magnitude (Debye)      :      4.50117

Rotational constants in cm-1:     0.029090     0.014735     0.011139
Rotational constants in MHz :   872.086433   441.731892   333.928051

                             ****ORCA TERMINATED NORMALLY****
TOTAL RUN TIME: 0 days 0 hours 0 minutes 31 seconds 585 msec
