                         Program Version 5.0.0 -  RELEASE  -
|  1> !PBE D3BJ RIJCOSX def2-TZVPD def2/J TightSCF
|  2> *xyz -1 1
|  3> C         -7.33044       -2.67899       -3.20681
|  4> S         -6.01966       -2.92697       -4.41913
|  5> O         -5.64583       -1.58838       -4.91931
|  6> O         -4.88196       -3.50370       -3.66724
|  7> O         -6.54927       -3.80515       -5.42507
|  8> C         -7.46900       -1.24615       -2.71383
|  9> H         -7.11825       -3.37982       -2.39805
| 10> H         -8.24184       -3.00474       -3.70651
| 11> H         -7.67580       -0.60214       -3.54292
| 12> H         -6.55749       -0.94096       -2.24382
| 13> H         -8.27114       -1.18777       -2.00810
| 14> *
| 15> %MaxCore 64000
| 16>
| 17> %pal nprocs 4
| 18> end
| 19>
| 20> %scf
| 21>   MaxIter 150
| 22> end
| 23>
| 24>
| 25>                          ****END OF INPUT****

CARTESIAN COORDINATES (ANGSTROEM)
---------------------------------
  C     -7.330440   -2.678990   -3.206810
  S     -6.019660   -2.926970   -4.419130
  O     -5.645830   -1.588380   -4.919310
  O     -4.881960   -3.503700   -3.667240
  O     -6.549270   -3.805150   -5.425070
  C     -7.469000   -1.246150   -2.713830
  H     -7.118250   -3.379820   -2.398050
  H     -8.241840   -3.004740   -3.706510
  H     -7.675800   -0.602140   -3.542920
  H     -6.557490   -0.940960   -2.243820
  H     -8.271140   -1.187770   -2.008100

 Total Charge           Charge          ....   -1
 Multiplicity           Mult            ....    1
 Number of Electrons    NEL             ....   58
 Basis Dimension        Dim             ....  285

ORBITAL ENERGIES
----------------

  NO   OCC          E(Eh)            E(eV)
   0   2.0000     -88.010753     -2394.8943
   1   2.0000     -18.532745      -504.3016
   2   2.0000     -18.522974      -504.0357
   3   2.0000     -18.519588      -503.9436
   4   2.0000      -9.742421      -265.1048
   5   2.0000      -9.734813      -264.8977
   6   2.0000      -7.605948      -206.9684
   7   2.0000      -5.626812      -153.1133
   8   2.0000      -5.625856      -153.0873
   9   2.0000      -5.625607      -153.0806
  10   2.0000      -0.828866       -22.5546
  11   2.0000      -0.702909       -19.1271
  12   2.0000      -0.681728       -18.5508
  13   2.0000      -0.561345       -15.2750
  14   2.0000      -0.442464       -12.0401
  15   2.0000      -0.323899        -8.8137
  16   2.0000      -0.270061        -7.3487
  17   2.0000      -0.259587        -7.0637
  18   2.0000      -0.224908        -6.1201
  19   2.0000      -0.205092        -5.5808
  20   2.0000      -0.203290        -5.5318
  21   2.0000      -0.182250        -4.9593
  22   2.0000      -0.173686        -4.7262
  23   2.0000      -0.101363        -2.7582
  24   2.0000      -0.098810        -2.6888
  25   2.0000      -0.070721        -1.9244
  26   2.0000      -0.063125        -1.7177
  27   2.0000      -0.052815        -1.4372
  28   2.0000      -0.016760        -0.4561
  29   0.0000       0.108690         2.9576
  30   0.0000       0.133384         3.6296
  31   0.0000       0.140416         3.8209
  32   0.0000       0.149277         4.0620
  33   0.0000       0.166184         4.5221

MULLIKEN ATOMIC CHARGES
-----------------------
   0 C :   -0.296041
   1 S :    1.030322
   2 O :   -0.680551
   3 O :   -0.684803
   4 O :   -0.641225
   5 C :   -0.756851
   6 H :    0.195790
   7 H :    0.185086
   8 H :    0.226719
   9 H :    0.210841
  10 H :    0.210715
Sum of atomic charges:   -1.0000000

LOEWDIN ATOMIC CHARGES
----------------------
   0 C :   -0.328716
   1 S :    0.313168
   2 O :   -0.384870
   3 O :   -0.398891
   4 O :   -0.365683
   5 C :   -0.156457
   6 H :    0.078807
   7 H :    0.074468
   8 H :    0.056949
   9 H :    0.063537
  10 H :    0.047687

  Mayer bond orders larger than 0.100000
B(  0-C ,  1-S ) :   0.8657 B(  0-C ,  3-O ) :   0.1433 B(  0-C ,  4-O ) :   0.1486
B(  0-C ,  5-C ) :   0.7825 B(  0-C ,  6-H ) :   0.9783 B(  0-C ,  7-H ) :   0.9870
B(  1-S ,  2-O ) :   1.5126 B(  1-S ,  3-O ) :   1.5214 B(  1-S ,  4-O ) :   1.5603
B(  5-C ,  8-H ) :   0.9812 B(  5-C ,  9-H ) :   0.9857 B(  5-C , 10-H ) :   0.9694

Dispersion correction           -0.009632645
FINAL SINGLE POINT ENERGY      -702.812050818328

DIPOLE MOMENT
-------------
                                X             Y             Z
Electronic contribution:      4.77004      -3.53471      -5.17410
Nuclear contribution   :     -6.18165       4.01759       6.33106
                        -----------------------------------------
Total Dipole Moment    :     -1.41161       0.48288       1.15696
                        -----------------------------------------
Magnitude (a.u.)       :      1.88795
Magnitude (Debye)      :      4.79879

Rotational constants in cm-1:     0.161711     0.082788     0.081165
Rotational constants in MHz :  4847.971521  2481.906910  2433.276832

                             ****ORCA TERMINATED NORMALLY****
TOTAL RUN TIME: 0 days 0 hours 0 minutes 20 seconds 996 msec
