                         Program Version 5.0.0 -  RELEASE  -
|  1> !PBE D3BJ RIJCOSX def2-TZVPD def2/J TightSCF
|  2> *xyz 1 1
|  3> C         -2.16038       -1.36949       -3.46710
|  4> N         -3.03011       -1.91086       -4.54107
|  5> C         -2.04772        0.14658       -3.51177
|  6> H         -3.47744       -2.79151       -4.25710
|  7> H         -2.53801       -2.01786       -5.43808
|  8> H         -3.89159       -1.37604       -4.71437
|  9> H         -1.18444       -1.84400       -3.56639
| 10> H         -2.59819       -1.70838       -2.52848
| 11> H         -1.61525        0.44478       -4.44395
| 12> H         -1.42718        0.48198       -2.70720
| 13> H         -3.02145        0.57958       -3.41560
| 14> *
| 15> %MaxCore 64000
| 16>
| 17> %pal nprocs 4
| 18> end
| 19>
| 20> %scf
| 21>   MaxIter 150
| 22> end
| 23>
| 24>
| 25>                          ****END OF INPUT****

CARTESIAN COORDINATES (ANGSTROEM)
---------------------------------
  C     -2.160380   -1.369490   -3.467100
  N     -3.030110   -1.910860   -4.541070
  C     -2.047720    0.146580   -3.511770
  H     -3.477440   -2.791510   -4.257100
  H     -2.538010   -2.017860   -5.438080
  H     -3.891590   -1.376040   -4.714370
  H     -1.184440   -1.844000   -3.566390
  H     -2.598190   -1.708380   -2.528480
  H     -1.615250    0.444780   -4.443950
  H     -1.427180    0.481980   -2.707200
  H     -3.021450    0.579580   -3.415600

 Total Charge           Charge          ....    1
 Multiplicity           Mult            ....    1
 Number of Electrons    NEL             ....   26
 Basis Dimension        Dim             ....  183

ORBITAL ENERGIES
----------------

  NO   OCC          E(Eh)            E(eV)
   0   2.0000     -14.317950      -389.6112
   1   2.0000     -10.134814      -275.7823
   2   2.0000     -10.054682      -273.6018
   3   2.0000      -1.138174       -30.9713
   4   2.0000      -0.899528       -24.4774
   5   2.0000      -0.787291       -21.4233
   6   2.0000      -0.757776       -20.6201
   7   2.0000      -0.718929       -19.5631
   8   2.0000      -0.653601       -17.7854
   9   2.0000      -0.595974       -16.2173
  10   2.0000      -0.539764       -14.6877
  11   2.0000      -0.525560       -14.3012
  12   2.0000      -0.507514       -13.8102
  13   0.0000      -0.224085        -6.0977
  14   0.0000      -0.166647        -4.5347
  15   0.0000      -0.165367        -4.4999
  16   0.0000      -0.151812        -4.1310
  17   0.0000      -0.121616        -3.3093

MULLIKEN ATOMIC CHARGES
-----------------------
   0 C :   -0.196806
   1 N :   -0.183749
   2 C :   -0.803051
   3 H :    0.316872
   4 H :    0.320277
   5 H :    0.308165
   6 H :    0.218120
   7 H :    0.222878
   8 H :    0.276400
   9 H :    0.230693
  10 H :    0.290201
Sum of atomic charges:    1.0000000

LOEWDIN ATOMIC CHARGES
----------------------
   0 C :   -0.203473
   1 N :    0.181926
   2 C :   -0.050857
   3 H :    0.178406
   4 H :    0.183663
   5 H :    0.177656
   6 H :    0.137814
   7 H :    0.135173
   8 H :    0.083601
   9 H :    0.093325
  10 H :    0.082765

  Mayer bond orders larger than 0.100000
B(  0-C ,  1-N ) :   1.0167 B(  0-C ,  2-C ) :   0.8414 B(  0-C ,  6-H ) :   0.9523
B(  0-C ,  7-H ) :   0.9171 B(  1-N ,  3-H ) :   0.8790 B(  1-N ,  4-H ) :   0.8744
B(  1-N ,  5-H ) :   0.8801 B(  2-C ,  8-H ) :   0.9650 B(  2-C ,  9-H ) :   0.9900
B(  2-C , 10-H ) :   0.9300

Dispersion correction           -0.006126575
FINAL SINGLE POINT ENERGY      -135.397465505344

DIPOLE MOMENT
-------------
                                X             Y             Z
Electronic contribution:     -0.62904      -1.46214      -0.75647
Nuclear contribution   :     -0.15215       0.37393      -0.04773
                        -----------------------------------------
Total Dipole Moment    :     -0.78119      -1.08820      -0.80420
                        -----------------------------------------
Magnitude (a.u.)       :      1.56243
Magnitude (Debye)      :      3.97137

Rotational constants in cm-1:     1.020762     0.277172     0.247319
Rotational constants in MHz : 30601.664035  8309.399682  7414.438136

                             ****ORCA TERMINATED NORMALLY****
TOTAL RUN TIME: 0 days 0 hours 0 minutes 10 seconds 322 msec
