                         Program Version 5.0.0 -  RELEASE  -
|  1> !PBE D3BJ RIJCOSX def2-TZVPD def2/J TightSCF xyzfile
|  2>
|  3> *xyzfile 0 1 B.xyz
|  4>
|  5> %MaxCore 64000
|  6>
|  7> %pal nprocs 4
|  8> end
|  9>
| 10> %scf
| 11>   MaxIter 150
| 12> end
| 13>
| 14>
| 15>                          ****END OF INPUT****

CARTESIAN COORDINATES (ANGSTROEM)
---------------------------------
  C     -2.160376   -1.369486   -3.467104
  N     -3.030108   -1.910857   -4.541074
  C     -2.047717    0.146583   -3.511774
  C     -7.330440   -2.678991   -3.206811
  S     -6.019659   -2.926965   -4.419128
  H     -3.477443   -2.791513   -4.257096
  H     -2.538013   -2.017860   -5.438075
  H     -3.891589   -1.376039   -4.714365
  O     -5.645830   -1.588384   -4.919307
  O     -4.881961   -3.503697   -3.667235
  H     -1.184438   -1.843997   -3.566393
  H     -2.598195   -1.708376   -2.528477
  O     -6.549267   -3.805150   -5.425071
  C     -3.328755    0.875037   -3.103669
  H     -1.740034    0.452343   -4.517126
  H     -1.232611    0.434938   -2.842208
  C     -3.628487    0.771601   -1.609363
  H     -4.175106    0.490791   -3.682203
  H     -3.237812    1.928663   -3.381480
  C     -4.975718    1.361432   -1.190644
  H     -2.830700    1.276234   -1.054766
  H     -3.594312   -0.275838   -1.294603
  C     -6.184720    0.784347   -1.926464
  H     -4.956292    2.445725   -1.342200
  H     -5.097256    1.205252   -0.114136
  C     -6.286921   -0.735882   -1.893531
  H     -6.163994    1.100199   -2.974250
  H     -7.094530    1.223459   -1.504509
  C     -7.468999   -1.246153   -2.713833
  H     -6.360641   -1.090347   -0.859176
  H     -5.369848   -1.171853   -2.295982
  H     -7.601914   -0.601349   -3.585329
  H     -8.389791   -1.173436   -2.126922
  H     -7.118254   -3.379818   -2.398055
  H     -8.241838   -3.004745   -3.706513

 Total Charge           Charge          ....    0
 Multiplicity           Mult            ....    1
 Number of Electrons    NEL             ....  122
 Basis Dimension        Dim             ....  725

ORBITAL ENERGIES
----------------

  NO   OCC          E(Eh)            E(eV)
   0   2.0000     -88.179447     -2399.4848
   1   2.0000     -18.703969      -508.9609
   2   2.0000     -18.703846      -508.9575
   3   2.0000     -18.689402      -508.5645
   4   2.0000     -14.085168      -383.2769
   5   2.0000      -9.962832      -271.1024
   6   2.0000      -9.917992      -269.8823
   7   2.0000      -9.898439      -269.3502
   8   2.0000      -9.890323      -269.1294
   9   2.0000      -9.882566      -268.9183
  10   2.0000      -9.881424      -268.8872
  11   2.0000      -9.874925      -268.7104
  12   2.0000      -9.873450      -268.6702
  13   2.0000      -9.870773      -268.5974
  14   2.0000      -7.775536      -211.5831
  15   2.0000      -5.796560      -157.7324
  16   2.0000      -5.795513      -157.7039
  17   2.0000      -5.794715      -157.6822
  18   2.0000      -1.004276       -27.3277
  19   2.0000      -0.924731       -25.1632
  20   2.0000      -0.871285       -23.7089
  21   2.0000      -0.868867       -23.6431
  22   2.0000      -0.763707       -20.7815
  23   2.0000      -0.735334       -20.0095
  24   2.0000      -0.710855       -19.3433
  25   2.0000      -0.670827       -18.2541
  26   2.0000      -0.640258       -17.4223
  27   2.0000      -0.599418       -16.3110
  28   2.0000      -0.564804       -15.3691
  29   2.0000      -0.552475       -15.0336
  30   2.0000      -0.537300       -14.6207
  31   2.0000      -0.516625       -14.0581
  32   2.0000      -0.505126       -13.7452
  33   2.0000      -0.480597       -13.0777
  34   2.0000      -0.466219       -12.6865
  35   2.0000      -0.440190       -11.9782
  36   2.0000      -0.438228       -11.9248
  37   2.0000      -0.422714       -11.5026
  38   2.0000      -0.409562       -11.1447
  39   2.0000      -0.397060       -10.8046
  40   2.0000      -0.393354       -10.7037
  41   2.0000      -0.385603       -10.4928
  42   2.0000      -0.383559       -10.4372
  43   2.0000      -0.368694       -10.0327
  44   2.0000      -0.361499        -9.8369
  45   2.0000      -0.355428        -9.6717
  46   2.0000      -0.344209        -9.3664
  47   2.0000      -0.333755        -9.0819
  48   2.0000      -0.327003        -8.8982
  49   2.0000      -0.313665        -8.5353
  50   2.0000      -0.305502        -8.3131
  51   2.0000      -0.295218        -8.0333
  52   2.0000      -0.283729        -7.7207
  53   2.0000      -0.281812        -7.6685
  54   2.0000      -0.277035        -7.5385
  55   2.0000      -0.271140        -7.3781
  56   2.0000      -0.270271        -7.3544
  57   2.0000      -0.237978        -6.4757
  58   2.0000      -0.234131        -6.3710
  59   2.0000      -0.224358        -6.1051
  60   2.0000      -0.197008        -5.3609
  61   0.0000      -0.044429        -1.2090
  62   0.0000      -0.016504        -0.4491
  63   0.0000      -0.010678        -0.2906
  64   0.0000      -0.004299        -0.1170
  65   0.0000       0.006805         0.1852

MULLIKEN ATOMIC CHARGES
-----------------------
   0 C :   -0.418546
   1 N :    0.041434
   2 C :   -0.202584
   3 C :   -0.643169
   4 S :    1.145467
   5 H :    0.308971
   6 H :    0.298655
   7 H :    0.200679
   8 O :   -0.806642
   9 O :   -0.804209
  10 H :    0.183529
  11 H :    0.231453
  12 O :   -0.593951
  13 C :   -0.096794
  14 H :    0.145084
  15 H :    0.174884
  16 C :   -0.311993
  17 H :    0.075290
  18 H :    0.114492
  19 C :   -0.438103
  20 H :    0.154559
  21 H :    0.179340
  22 C :   -0.486970
  23 H :    0.136935
  24 H :    0.173890
  25 C :    0.151845
  26 H :    0.252568
  27 H :    0.139849
  28 C :   -0.316625
  29 H :    0.193597
  30 H :   -0.015032
  31 H :    0.205744
  32 H :    0.215337
  33 H :    0.240066
  34 H :    0.170948
Sum of atomic charges:   -0.0000000

LOEWDIN ATOMIC CHARGES
----------------------
   0 C :   -0.164693
   1 N :    0.150434
   2 C :   -0.187706
   3 C :   -0.238515
   4 S :    0.416028
   5 H :    0.071196
   6 H :    0.172170
   7 H :    0.078339
   8 O :   -0.349820
   9 O :   -0.355497
  10 H :    0.126277
  11 H :    0.122893
  12 O :   -0.292952
  13 C :   -0.203246
  14 H :    0.115895
  15 H :    0.118556
  16 C :   -0.217437
  17 H :    0.098166
  18 H :    0.122681
  19 C :   -0.208760
  20 H :    0.115985
  21 H :    0.101007
  22 C :   -0.217089
  23 H :    0.110646
  24 H :    0.111430
  25 C :   -0.219114
  26 H :    0.110791
  27 H :    0.117047
  28 C :   -0.238960
  29 H :    0.126408
  30 H :    0.085070
  31 H :    0.108877
  32 H :    0.116375
  33 H :    0.101484
  34 H :    0.096034

  Mayer bond orders larger than 0.100000
B(  0-C ,  1-N ) :   0.9616 B(  0-C ,  2-C ) :   1.0278 B(  0-C , 10-H ) :   0.8853
B(  0-C , 11-H ) :   0.8850 B(  0-C , 16-C ) :   0.1535 B(  1-N ,  5-H ) :   0.8028
B(  1-N ,  6-H ) :   0.8160 B(  1-N ,  7-H ) :   0.9569 B(  2-C , 13-C ) :   1.0036
B(  2-C , 14-H ) :   0.9132 B(  2-C , 15-H ) :   0.9026 B(  2-C , 16-C ) :   0.1974
B(  3-C ,  4-S ) :   0.9148 B(  3-C ,  9-O ) :   0.1417 B(  3-C , 12-O ) :   0.1973
B(  3-C , 25-C ) :   0.2214 B(  3-C , 28-C ) :   0.8880 B(  3-C , 33-H ) :   0.9102
B(  3-C , 34-H ) :   1.0438 B(  4-S ,  8-O ) :   1.4219 B(  4-S ,  9-O ) :   1.3633
B(  4-S , 12-O ) :   1.4302 B(  8-O ,  9-O ) :   0.1340 B( 13-C , 16-C ) :   0.5135
B( 13-C , 17-H ) :   1.1399 B( 13-C , 18-H ) :   0.8873 B( 13-C , 19-C ) :   0.1992
B( 13-C , 21-H ) :  -0.1107 B( 13-C , 22-C ) :   0.1725 B( 16-C , 19-C ) :   1.1137
B( 16-C , 20-H ) :   0.9456 B( 16-C , 21-H ) :   0.9822 B( 16-C , 25-C ) :   0.1337
B( 19-C , 21-H ) :   0.1027 B( 19-C , 22-C ) :   1.0025 B( 19-C , 23-H ) :   0.9523
B( 19-C , 24-H ) :   0.9167 B( 19-C , 25-C ) :   0.2098 B( 22-C , 25-C ) :   0.5770
B( 22-C , 26-H ) :   0.9094 B( 22-C , 27-H ) :   0.9279 B( 22-C , 28-C ) :   0.5513
B( 25-C , 28-C ) :   0.6498 B( 25-C , 29-H ) :   0.7052 B( 25-C , 30-H ) :   1.4606
B( 28-C , 29-H ) :  -0.1236 B( 28-C , 31-H ) :   0.8434 B( 28-C , 32-H ) :   0.9453
B( 29-H , 30-H ) :   0.1774

Dispersion correction           -0.041842557
FINAL SINGLE POINT ENERGY     -1033.579596042703

DIPOLE MOMENT
-------------
                                X             Y             Z
Electronic contribution:     -6.00916     -15.25916     -11.47540
Nuclear contribution   :      8.59301      16.99497      12.41069
                        -----------------------------------------
Total Dipole Moment    :      2.58385       1.73582       0.93529
                        -----------------------------------------
Magnitude (a.u.)       :      3.25025
Magnitude (Debye)      :      8.26148

Rotational constants in cm-1:     0.025617     0.015295     0.010641
Rotational constants in MHz :   767.991150   458.522408   319.013093

                             ****ORCA TERMINATED NORMALLY****
TOTAL RUN TIME: 0 days 0 hours 1 minutes 39 seconds 758 msec
