                         Program Version 5.0.0 -  RELEASE  -
|  1> !PBE D3BJ RIJCOSX def2-TZVPD def2/J TightSCF
|  2> *xyz 0 1
|  3> C         -7.33044       -2.67899       -3.20681
|  4> S         -6.01966       -2.92697       -4.41913
|  5> F         -5.64583       -1.58838       -4.91931
|  6> O         -4.88196       -3.50370       -3.66724
|  7> O         -6.54927       -3.80515       -5.42507
|  8> C         -7.46900       -1.24615       -2.71383
|  9> H         -7.11825       -3.37982       -2.39805
| 10> H         -8.24184       -3.00474       -3.70651
| 11> H         -7.67580       -0.60214       -3.54292
| 12> H         -6.55749       -0.94096       -2.24382
| 13> H         -8.27114       -1.18777       -2.00810
| 14> *
| 15> %MaxCore 64000
| 16>
| 17> %pal nprocs 4
| 18> end
| 19>
| 20> %scf
| 21>   MaxIter 150
| 22> end
| 23>
| 24>
| 25>                          ****END OF INPUT****

CARTESIAN COORDINATES (ANGSTROEM)
---------------------------------
  C     -7.330440   -2.678990   -3.206810
  S     -6.019660   -2.926970   -4.419130
  F     -5.645830   -1.588380   -4.919310
  O     -4.881960   -3.503700   -3.667240
  O     -6.549270   -3.805150   -5.425070
  C     -7.469000   -1.246150   -2.713830
  H     -7.118250   -3.379820   -2.398050
  H     -8.241840   -3.004740   -3.706510
  H     -7.675800   -0.602140   -3.542920
  H     -6.557490   -0.940960   -2.243820
  H     -8.271140   -1.187770   -2.008100

 Total Charge           Charge          ....    0
 Multiplicity           Mult            ....    1
 Number of Electrons    NEL             ....   58
 Basis Dimension        Dim             ....  285

ORBITAL ENERGIES
----------------

  NO   OCC          E(Eh)            E(eV)
   0   2.0000     -88.267097     -2401.8698
   1   2.0000     -24.357953      -662.8136
   2   2.0000     -18.765284      -510.6293
   3   2.0000     -18.751751      -510.2611
   4   2.0000      -9.942491      -270.5489
   5   2.0000      -9.905895      -269.5531
   6   2.0000      -7.862935      -213.9613
   7   2.0000      -5.887422      -160.2049
   8   2.0000      -5.880669      -160.0211
   9   2.0000      -5.880548      -160.0179
  10   2.0000      -1.249798       -34.0087
  11   2.0000      -1.017491       -27.6873
  12   2.0000      -0.922853       -25.1121
  13   2.0000      -0.755504       -20.5583
  14   2.0000      -0.656942       -17.8763
  15   2.0000      -0.612435       -16.6652
  16   2.0000      -0.523856       -14.2548
  17   2.0000      -0.501693       -13.6518
  18   2.0000      -0.485306       -13.2059
  19   2.0000      -0.448752       -12.2111
  20   2.0000      -0.421173       -11.4607
  21   2.0000      -0.402051       -10.9404
  22   2.0000      -0.393977       -10.7207
  23   2.0000      -0.370428       -10.0799
  24   2.0000      -0.354123        -9.6362
  25   2.0000      -0.338770        -9.2184
  26   2.0000      -0.292846        -7.9687
  27   2.0000      -0.278467        -7.5775
  28   2.0000      -0.264828        -7.2063
  29   0.0000      -0.039389        -1.0718
  30   0.0000      -0.000643        -0.0175
  31   0.0000       0.007212         0.1962
  32   0.0000       0.009926         0.2701
  33   0.0000       0.016741         0.4556

MULLIKEN ATOMIC CHARGES
-----------------------
   0 C :   -0.179419
   1 S :    0.993857
   2 F :   -0.129465
   3 O :   -0.534719
   4 O :   -0.498345
   5 C :   -0.831057
   6 H :    0.225925
   7 H :    0.221084
   8 H :    0.271364
   9 H :    0.259783
  10 H :    0.200993
Sum of atomic charges:    0.0000000

LOEWDIN ATOMIC CHARGES
----------------------
   0 C :   -0.276435
   1 S :    0.558256
   2 F :   -0.064003
   3 O :   -0.278289
   4 O :   -0.247257
   5 C :   -0.117408
   6 H :    0.106626
   7 H :    0.098187
   8 H :    0.069634
   9 H :    0.075823
  10 H :    0.074865

  Mayer bond orders larger than 0.100000
B(  0-C ,  1-S ) :   0.8418 B(  0-C ,  3-O ) :   0.1088 B(  0-C ,  4-O ) :   0.1197
B(  0-C ,  5-C ) :   0.8056 B(  0-C ,  6-H ) :   0.9496 B(  0-C ,  7-H ) :   0.9599
B(  1-S ,  2-F ) :   1.0531 B(  1-S ,  3-O ) :   1.7126 B(  1-S ,  4-O ) :   1.7609
B(  3-O ,  4-O ) :   0.1234 B(  5-C ,  8-H ) :   0.9356 B(  5-C ,  9-H ) :   0.9635
B(  5-C , 10-H ) :   0.9839

Dispersion correction           -0.009161702
FINAL SINGLE POINT ENERGY      -727.329737860225

DIPOLE MOMENT
-------------
                                X             Y             Z
Electronic contribution:      5.70631      -1.77404      -6.41673
Nuclear contribution   :     -6.81251       2.87933       7.15058
                        -----------------------------------------
Total Dipole Moment    :     -1.10620       1.10529       0.73385
                        -----------------------------------------
Magnitude (a.u.)       :      1.72739
Magnitude (Debye)      :      4.39067

Rotational constants in cm-1:     0.152543     0.082494     0.078987
Rotational constants in MHz :  4573.135887  2473.116216  2367.980829

                             ****ORCA TERMINATED NORMALLY****
TOTAL RUN TIME: 0 days 0 hours 0 minutes 24 seconds 267 msec
