                         Program Version 5.0.0 -  RELEASE  -
|  1> !PBE D3BJ RIJCOSX def2-TZVPD def2/J TightSCF
|  2> *xyz 0 1
|  3> C         -2.16038       -1.36949       -3.46710
|  4> C         -3.03011       -1.91086       -4.54107
|  5> C         -2.04772        0.14658       -3.51177
|  6> H         -3.47744       -2.79151       -4.25710
|  7> H         -2.53801       -2.01786       -5.43808
|  8> H         -3.89159       -1.37604       -4.71437
|  9> H         -1.18444       -1.84400       -3.56639
| 10> H         -2.59819       -1.70838       -2.52848
| 11> H         -1.61525        0.44478       -4.44395
| 12> H         -1.42718        0.48198       -2.70720
| 13> H         -3.02145        0.57958       -3.41560
| 14> *
| 15> %MaxCore 64000
| 16>
| 17> %pal nprocs 4
| 18> end
| 19>
| 20> %scf
| 21>   MaxIter 150
| 22> end
| 23>
| 24>
| 25>                          ****END OF INPUT****

CARTESIAN COORDINATES (ANGSTROEM)
---------------------------------
  C     -2.160380   -1.369490   -3.467100
  C     -3.030110   -1.910860   -4.541070
  C     -2.047720    0.146580   -3.511770
  H     -3.477440   -2.791510   -4.257100
  H     -2.538010   -2.017860   -5.438080
  H     -3.891590   -1.376040   -4.714370
  H     -1.184440   -1.844000   -3.566390
  H     -2.598190   -1.708380   -2.528480
  H     -1.615250    0.444780   -4.443950
  H     -1.427180    0.481980   -2.707200
  H     -3.021450    0.579580   -3.415600

 Total Charge           Charge          ....    0
 Multiplicity           Mult            ....    1
 Number of Electrons    NEL             ....   26
 Basis Dimension        Dim             ....  183

ORBITAL ENERGIES
----------------

  NO   OCC          E(Eh)            E(eV)
   0   2.0000      -9.868362      -268.5318
   1   2.0000      -9.857540      -268.2373
   2   2.0000      -9.839421      -267.7443
   3   2.0000      -0.717979       -19.5372
   4   2.0000      -0.624749       -17.0003
   5   2.0000      -0.528504       -14.3813
   6   2.0000      -0.420157       -11.4331
   7   2.0000      -0.391953       -10.6656
   8   2.0000      -0.356674        -9.7056
   9   2.0000      -0.348278        -9.4771
  10   2.0000      -0.298173        -8.1137
  11   2.0000      -0.286490        -7.7958
  12   2.0000      -0.285140        -7.7590
  13   0.0000      -0.002308        -0.0628
  14   0.0000       0.024294         0.6611
  15   0.0000       0.027263         0.7419
  16   0.0000       0.042937         1.1684
  17   0.0000       0.066626         1.8130

MULLIKEN ATOMIC CHARGES
-----------------------
   0 C :    0.201966
   1 C :   -1.096205
   2 C :   -0.849473
   3 H :    0.268447
   4 H :    0.261299
   5 H :    0.284595
   6 H :    0.129838
   7 H :    0.133341
   8 H :    0.227919
   9 H :    0.204273
  10 H :    0.233999
Sum of atomic charges:   -0.0000000

LOEWDIN ATOMIC CHARGES
----------------------
   0 C :   -0.315924
   1 C :   -0.132020
   2 C :   -0.114135
   3 H :    0.051042
   4 H :    0.057090
   5 H :    0.053427
   6 H :    0.104590
   7 H :    0.102908
   8 H :    0.066927
   9 H :    0.060170
  10 H :    0.065924

  Mayer bond orders larger than 0.100000
B(  0-C ,  1-C ) :   0.7702 B(  0-C ,  2-C ) :   0.7428 B(  0-C ,  6-H ) :   0.9736
B(  0-C ,  7-H ) :   0.9765 B(  1-C ,  2-C ) :   0.1931 B(  1-C ,  3-H ) :   0.9719
B(  1-C ,  4-H ) :   0.9652 B(  1-C ,  5-H ) :   0.9769 B(  2-C ,  8-H ) :   0.9936
B(  2-C ,  9-H ) :   1.0074 B(  2-C , 10-H ) :   0.9868

Dispersion correction           -0.006124422
FINAL SINGLE POINT ENERGY      -118.988203971477

DIPOLE MOMENT
-------------
                                X             Y             Z
Electronic contribution:      0.31828      -0.13311       0.27673
Nuclear contribution   :     -0.34625       0.09603      -0.26933
                        -----------------------------------------
Total Dipole Moment    :     -0.02797      -0.03708       0.00740
                        -----------------------------------------
Magnitude (a.u.)       :      0.04703
Magnitude (Debye)      :      0.11953

Rotational constants in cm-1:     1.028617     0.291238     0.258956
Rotational constants in MHz : 30837.159054  8731.095379  7763.318586

                             ****ORCA TERMINATED NORMALLY****
TOTAL RUN TIME: 0 days 0 hours 0 minutes 12 seconds 344 msec
