                         Program Version 5.0.0 -  RELEASE  -
|  1> !PBE D3BJ RIJCOSX def2-TZVPD def2/J TightSCF
|  2> *xyz 0 1
|  3> C         -7.33044       -2.67899       -3.20681
|  4> S         -6.01966       -2.92697       -4.41913
|  5> O         -5.64583       -1.58838       -4.91931
|  6> F         -4.88196       -3.50370       -3.66724
|  7> O         -6.54927       -3.80515       -5.42507
|  8> C         -7.46900       -1.24615       -2.71383
|  9> H         -7.11825       -3.37982       -2.39805
| 10> H         -8.24184       -3.00474       -3.70651
| 11> H         -7.67580       -0.60214       -3.54292
| 12> H         -6.55749       -0.94096       -2.24382
| 13> H         -8.27114       -1.18777       -2.00810
| 14> *
| 15> %MaxCore 64000
| 16>
| 17> %pal nprocs 4
| 18> end
| 19>
| 20> %scf
| 21>   MaxIter 150
| 22> end
| 23>
| 24>
| 25>                          ****END OF INPUT****

CARTESIAN COORDINATES (ANGSTROEM)
---------------------------------
  C     -7.330440   -2.678990   -3.206810
  S     -6.019660   -2.926970   -4.419130
  O     -5.645830   -1.588380   -4.919310
  F     -4.881960   -3.503700   -3.667240
  O     -6.549270   -3.805150   -5.425070
  C     -7.469000   -1.246150   -2.713830
  H     -7.118250   -3.379820   -2.398050
  H     -8.241840   -3.004740   -3.706510
  H     -7.675800   -0.602140   -3.542920
  H     -6.557490   -0.940960   -2.243820
  H     -8.271140   -1.187770   -2.008100

 Total Charge           Charge          ....    0
 Multiplicity           Mult            ....    1
 Number of Electrons    NEL             ....   58
 Basis Dimension        Dim             ....  285

ORBITAL ENERGIES
----------------

  NO   OCC          E(Eh)            E(eV)
   0   2.0000     -88.267008     -2401.8674
   1   2.0000     -24.355145      -662.7372
   2   2.0000     -18.765261      -510.6287
   3   2.0000     -18.754839      -510.3451
   4   2.0000      -9.942765      -270.5564
   5   2.0000      -9.897603      -269.3275
   6   2.0000      -7.862865      -213.9594
   7   2.0000      -5.887284      -160.2011
   8   2.0000      -5.880792      -160.0245
   9   2.0000      -5.880352      -160.0125
  10   2.0000      -1.246236       -33.9118
  11   2.0000      -1.018403       -27.7122
  12   2.0000      -0.926054       -25.1992
  13   2.0000      -0.751361       -20.4456
  14   2.0000      -0.657815       -17.9001
  15   2.0000      -0.605908       -16.4876
  16   2.0000      -0.515514       -14.0278
  17   2.0000      -0.497792       -13.5456
  18   2.0000      -0.492290       -13.3959
  19   2.0000      -0.443935       -12.0801
  20   2.0000      -0.428381       -11.6568
  21   2.0000      -0.403409       -10.9773
  22   2.0000      -0.382477       -10.4077
  23   2.0000      -0.360082        -9.7983
  24   2.0000      -0.352594        -9.5946
  25   2.0000      -0.337520        -9.1844
  26   2.0000      -0.292366        -7.9557
  27   2.0000      -0.284313        -7.7366
  28   2.0000      -0.267576        -7.2811
  29   0.0000      -0.030722        -0.8360
  30   0.0000      -0.013747        -0.3741
  31   0.0000       0.002855         0.0777
  32   0.0000       0.011873         0.3231
  33   0.0000       0.020283         0.5519

MULLIKEN ATOMIC CHARGES
-----------------------
   0 C :   -0.272007
   1 S :    0.992254
   2 O :   -0.533384
   3 F :   -0.120994
   4 O :   -0.501169
   5 C :   -0.750128
   6 H :    0.263518
   7 H :    0.214138
   8 H :    0.256124
   9 H :    0.244834
  10 H :    0.206812
Sum of atomic charges:    0.0000000

LOEWDIN ATOMIC CHARGES
----------------------
   0 C :   -0.280168
   1 S :    0.560972
   2 O :   -0.269438
   3 F :   -0.069614
   4 O :   -0.247799
   5 C :   -0.115355
   6 H :    0.096987
   7 H :    0.101581
   8 H :    0.073642
   9 H :    0.075034
  10 H :    0.074160

  Mayer bond orders larger than 0.100000
B(  0-C ,  1-S ) :   0.8625 B(  0-C ,  4-O ) :   0.1262 B(  0-C ,  5-C ) :   0.8510
B(  0-C ,  6-H ) :   0.8996 B(  0-C ,  7-H ) :   0.9667 B(  1-S ,  2-O ) :   1.7063
B(  1-S ,  3-F ) :   1.0477 B(  1-S ,  4-O ) :   1.7576 B(  2-O ,  4-O ) :   0.1282
B(  5-C ,  8-H ) :   0.9670 B(  5-C ,  9-H ) :   0.9480 B(  5-C , 10-H ) :   0.9742

Dispersion correction           -0.009206325
FINAL SINGLE POINT ENERGY      -727.332813858943

DIPOLE MOMENT
-------------
                                X             Y             Z
Electronic contribution:      7.01563      -4.95950      -4.35584
Nuclear contribution   :     -7.60849       4.87515       5.84588
                        -----------------------------------------
Total Dipole Moment    :     -0.59286      -0.08434       1.49004
                        -----------------------------------------
Magnitude (a.u.)       :      1.60587
Magnitude (Debye)      :      4.08181

Rotational constants in cm-1:     0.153704     0.080342     0.079431
Rotational constants in MHz :  4607.928650  2408.599360  2381.267225

                             ****ORCA TERMINATED NORMALLY****
TOTAL RUN TIME: 0 days 0 hours 0 minutes 21 seconds 871 msec
