                         Program Version 5.0.0 -  RELEASE  -
|  1> !PBE D3BJ RIJCOSX def2-TZVPD def2/J TightSCF
|  2> *xyz 0 1
|  3> C         -7.33044       -2.67899       -3.20681
|  4> S         -6.01966       -2.92697       -4.41913
|  5> O         -5.64583       -1.58838       -4.91931
|  6> O         -4.88196       -3.50370       -3.66724
|  7> F         -6.54927       -3.80515       -5.42507
|  8> C         -7.46900       -1.24615       -2.71383
|  9> H         -7.11825       -3.37982       -2.39805
| 10> H         -8.24184       -3.00474       -3.70651
| 11> H         -7.67580       -0.60214       -3.54292
| 12> H         -6.55749       -0.94096       -2.24382
| 13> H         -8.27114       -1.18777       -2.00810
| 14> *
| 15> %MaxCore 64000
| 16>
| 17> %pal nprocs 4
| 18> end
| 19>
| 20> %scf
| 21>   MaxIter 150
| 22> end
| 23>
| 24>
| 25>                          ****END OF INPUT****

CARTESIAN COORDINATES (ANGSTROEM)
---------------------------------
  C     -7.330440   -2.678990   -3.206810
  S     -6.019660   -2.926970   -4.419130
  O     -5.645830   -1.588380   -4.919310
  O     -4.881960   -3.503700   -3.667240
  F     -6.549270   -3.805150   -5.425070
  C     -7.469000   -1.246150   -2.713830
  H     -7.118250   -3.379820   -2.398050
  H     -8.241840   -3.004740   -3.706510
  H     -7.675800   -0.602140   -3.542920
  H     -6.557490   -0.940960   -2.243820
  H     -8.271140   -1.187770   -2.008100

 Total Charge           Charge          ....    0
 Multiplicity           Mult            ....    1
 Number of Electrons    NEL             ....   58
 Basis Dimension        Dim             ....  285

ORBITAL ENERGIES
----------------

  NO   OCC          E(Eh)            E(eV)
   0   2.0000     -88.269710     -2401.9409
   1   2.0000     -24.376794      -663.3263
   2   2.0000     -18.755146      -510.3535
   3   2.0000     -18.752274      -510.2753
   4   2.0000      -9.943502      -270.5764
   5   2.0000      -9.897969      -269.3374
   6   2.0000      -7.865401      -214.0284
   7   2.0000      -5.889755      -160.2684
   8   2.0000      -5.883235      -160.0910
   9   2.0000      -5.882950      -160.0832
  10   2.0000      -1.281933       -34.8832
  11   2.0000      -1.003354       -27.3026
  12   2.0000      -0.909992       -24.7622
  13   2.0000      -0.751697       -20.4547
  14   2.0000      -0.671171       -18.2635
  15   2.0000      -0.612896       -16.6777
  16   2.0000      -0.527626       -14.3574
  17   2.0000      -0.523255       -14.2385
  18   2.0000      -0.498780       -13.5725
  19   2.0000      -0.445410       -12.1202
  20   2.0000      -0.428473       -11.6594
  21   2.0000      -0.395800       -10.7703
  22   2.0000      -0.380106       -10.3432
  23   2.0000      -0.362062        -9.8522
  24   2.0000      -0.346468        -9.4279
  25   2.0000      -0.331803        -9.0288
  26   2.0000      -0.284814        -7.7502
  27   2.0000      -0.276022        -7.5109
  28   2.0000      -0.254361        -6.9215
  29   0.0000      -0.030516        -0.8304
  30   0.0000      -0.016202        -0.4409
  31   0.0000       0.002079         0.0566
  32   0.0000       0.012037         0.3275
  33   0.0000       0.019439         0.5290

MULLIKEN ATOMIC CHARGES
-----------------------
   0 C :   -0.270150
   1 S :    0.985337
   2 O :   -0.530133
   3 O :   -0.526869
   4 F :   -0.078991
   5 C :   -0.770015
   6 H :    0.233150
   7 H :    0.243556
   8 H :    0.256212
   9 H :    0.250165
  10 H :    0.207738
Sum of atomic charges:    0.0000000

LOEWDIN ATOMIC CHARGES
----------------------
   0 C :   -0.285410
   1 S :    0.559178
   2 O :   -0.270556
   3 O :   -0.277216
   4 F :   -0.036476
   5 C :   -0.110010
   6 H :    0.100776
   7 H :    0.092307
   8 H :    0.072063
   9 H :    0.079884
  10 H :    0.075461

  Mayer bond orders larger than 0.100000
B(  0-C ,  1-S ) :   0.8625 B(  0-C ,  3-O ) :   0.1153 B(  0-C ,  5-C ) :   0.8695
B(  0-C ,  6-H ) :   0.9616 B(  0-C ,  7-H ) :   0.9046 B(  1-S ,  2-O ) :   1.7135
B(  1-S ,  3-O ) :   1.7194 B(  1-S ,  4-F ) :   1.0976 B(  2-O ,  3-O ) :   0.1231
B(  5-C ,  8-H ) :   0.9513 B(  5-C ,  9-H ) :   0.9627 B(  5-C , 10-H ) :   0.9634

Dispersion correction           -0.009220362
FINAL SINGLE POINT ENERGY      -727.315222321758

DIPOLE MOMENT
-------------
                                X             Y             Z
Electronic contribution:      4.23828      -5.44308      -7.28471
Nuclear contribution   :     -5.87110       5.18927       7.67759
                        -----------------------------------------
Total Dipole Moment    :     -1.63282      -0.25380       0.39288
                        -----------------------------------------
Magnitude (a.u.)       :      1.69849
Magnitude (Debye)      :      4.31721

Rotational constants in cm-1:     0.155988     0.080452     0.078187
Rotational constants in MHz :  4676.405251  2411.902056  2343.983816

                             ****ORCA TERMINATED NORMALLY****
TOTAL RUN TIME: 0 days 0 hours 0 minutes 25 seconds 62 msec
