                         Program Version 5.0.0 -  RELEASE  -
|  1> !PBE D3BJ RIJCOSX def2-TZVPD def2/J TightSCF xyzfile
|  2>
|  3> *xyzfile 0 1 D1.xyz
|  4>
|  5> %MaxCore 64000
|  6>
|  7> %pal nprocs 4
|  8> end
|  9>
| 10> %scf
| 11>   MaxIter 150
| 12> end
| 13>
| 14>
| 15>                          ****END OF INPUT****

CARTESIAN COORDINATES (ANGSTROEM)
---------------------------------
  C     -2.160376   -1.369486   -3.467104
  C     -3.030108   -1.910857   -4.541074
  C     -2.047717    0.146583   -3.511774
  C     -7.330440   -2.678991   -3.206811
  S     -6.019659   -2.926965   -4.419128
  H     -3.477443   -2.791513   -4.257096
  H     -2.538013   -2.017860   -5.438075
  H     -3.891589   -1.376039   -4.714365
  F     -5.645830   -1.588384   -4.919307
  O     -4.881961   -3.503697   -3.667235
  H     -1.184438   -1.843997   -3.566393
  H     -2.598195   -1.708376   -2.528477
  O     -6.549267   -3.805150   -5.425071
  C     -3.328755    0.875037   -3.103669
  H     -1.740034    0.452343   -4.517126
  H     -1.232611    0.434938   -2.842208
  C     -3.628487    0.771601   -1.609363
  H     -4.175106    0.490791   -3.682203
  H     -3.237812    1.928663   -3.381480
  C     -4.975718    1.361432   -1.190644
  H     -2.830700    1.276234   -1.054766
  H     -3.594312   -0.275838   -1.294603
  C     -6.184720    0.784347   -1.926464
  H     -4.956292    2.445725   -1.342200
  H     -5.097256    1.205252   -0.114136
  C     -6.286921   -0.735882   -1.893531
  H     -6.163994    1.100199   -2.974250
  H     -7.094530    1.223459   -1.504509
  C     -7.468999   -1.246153   -2.713833
  H     -6.360641   -1.090347   -0.859176
  H     -5.369848   -1.171853   -2.295982
  H     -7.601914   -0.601349   -3.585329
  H     -8.389791   -1.173436   -2.126922
  H     -7.118254   -3.379818   -2.398055
  H     -8.241838   -3.004745   -3.706513

 Total Charge           Charge          ....    0
 Multiplicity           Mult            ....    1
 Number of Electrons    NEL             ....  122
 Basis Dimension        Dim             ....  725

ORBITAL ENERGIES
----------------

  NO   OCC          E(Eh)            E(eV)
   0   2.0000     -88.271468     -2401.9888
   1   2.0000     -24.362265      -662.9309
   2   2.0000     -18.769491      -510.7438
   3   2.0000     -18.756059      -510.3783
   4   2.0000      -9.941762      -270.5291
   5   2.0000      -9.913645      -269.7640
   6   2.0000      -9.893491      -269.2156
   7   2.0000      -9.886586      -269.0277
   8   2.0000      -9.880120      -268.8517
   9   2.0000      -9.873517      -268.6721
  10   2.0000      -9.871256      -268.6105
  11   2.0000      -9.864073      -268.4151
  12   2.0000      -9.854456      -268.1534
  13   2.0000      -9.807030      -266.8628
  14   2.0000      -7.867655      -214.0898
  15   2.0000      -5.892080      -160.3316
  16   2.0000      -5.885375      -160.1492
  17   2.0000      -5.885236      -160.1454
  18   2.0000      -1.257718       -34.2243
  19   2.0000      -1.023595       -27.8534
  20   2.0000      -0.932037       -25.3620
  21   2.0000      -0.771935       -21.0054
  22   2.0000      -0.742511       -20.2048
  23   2.0000      -0.715950       -19.4820
  24   2.0000      -0.690421       -18.7873
  25   2.0000      -0.654253       -17.8031
  26   2.0000      -0.640260       -17.4224
  27   2.0000      -0.606684       -16.5087
  28   2.0000      -0.574871       -15.6430
  29   2.0000      -0.559303       -15.2194
  30   2.0000      -0.529151       -14.3989
  31   2.0000      -0.519510       -14.1366
  32   2.0000      -0.506723       -13.7886
  33   2.0000      -0.494342       -13.4517
  34   2.0000      -0.489358       -13.3161
  35   2.0000      -0.446352       -12.1459
  36   2.0000      -0.440154       -11.9772
  37   2.0000      -0.426354       -11.6017
  38   2.0000      -0.419576       -11.4172
  39   2.0000      -0.412712       -11.2305
  40   2.0000      -0.402545       -10.9538
  41   2.0000      -0.391431       -10.6514
  42   2.0000      -0.385735       -10.4964
  43   2.0000      -0.381207       -10.3732
  44   2.0000      -0.365032        -9.9330
  45   2.0000      -0.351871        -9.5749
  46   2.0000      -0.347421        -9.4538
  47   2.0000      -0.341989        -9.3060
  48   2.0000      -0.332932        -9.0595
  49   2.0000      -0.324567        -8.8319
  50   2.0000      -0.314209        -8.5501
  51   2.0000      -0.309822        -8.4307
  52   2.0000      -0.298364        -8.1189
  53   2.0000      -0.294335        -8.0093
  54   2.0000      -0.289621        -7.8810
  55   2.0000      -0.283603        -7.7172
  56   2.0000      -0.275598        -7.4994
  57   2.0000      -0.270983        -7.3738
  58   2.0000      -0.265391        -7.2216
  59   2.0000      -0.262984        -7.1561
  60   2.0000      -0.237664        -6.4672
  61   0.0000      -0.039863        -1.0847
  62   0.0000      -0.010685        -0.2907
  63   0.0000      -0.007572        -0.2061
  64   0.0000      -0.002616        -0.0712
  65   0.0000       0.005000         0.1361

MULLIKEN ATOMIC CHARGES
-----------------------
   0 C :    0.150696
   1 C :   -1.779988
   2 C :   -0.267120
   3 C :   -0.481258
   4 S :    1.061920
   5 H :    0.624219
   6 H :    0.327642
   7 H :    0.511560
   8 F :   -0.170478
   9 O :   -0.572653
  10 H :    0.084761
  11 H :    0.158007
  12 O :   -0.516364
  13 C :   -0.112354
  14 H :    0.152210
  15 H :    0.112260
  16 C :   -0.275338
  17 H :    0.013797
  18 H :    0.130535
  19 C :   -0.446450
  20 H :    0.165363
  21 H :    0.122420
  22 C :   -0.465220
  23 H :    0.137970
  24 H :    0.168129
  25 C :    0.075279
  26 H :    0.273751
  27 H :    0.133525
  28 C :   -0.397755
  29 H :    0.207271
  30 H :    0.047242
  31 H :    0.186956
  32 H :    0.221021
  33 H :    0.237468
  34 H :    0.180974
Sum of atomic charges:    0.0000000

LOEWDIN ATOMIC CHARGES
----------------------
   0 C :   -0.238749
   1 C :   -0.132632
   2 C :   -0.210940
   3 C :   -0.214346
   4 S :    0.597824
   5 H :    0.001867
   6 H :    0.072886
   7 H :    0.018796
   8 F :   -0.078002
   9 O :   -0.273126
  10 H :    0.112133
  11 H :    0.102886
  12 O :   -0.227194
  13 C :   -0.209527
  14 H :    0.113732
  15 H :    0.107383
  16 C :   -0.217221
  17 H :    0.092184
  18 H :    0.116983
  19 C :   -0.209891
  20 H :    0.116471
  21 H :    0.100833
  22 C :   -0.218506
  23 H :    0.111001
  24 H :    0.110292
  25 C :   -0.213929
  26 H :    0.108680
  27 H :    0.116602
  28 C :   -0.233481
  29 H :    0.131032
  30 H :    0.092417
  31 H :    0.111159
  32 H :    0.123514
  33 H :    0.115457
  34 H :    0.103411

  Mayer bond orders larger than 0.100000
B(  0-C ,  1-C ) :   0.4663 B(  0-C ,  2-C ) :   0.8657 B(  0-C , 10-H ) :   0.9438
B(  0-C , 11-H ) :   0.9665 B(  0-C , 16-C ) :   0.1415 B(  1-C ,  2-C ) :   0.3138
B(  1-C ,  5-H ) :   0.7179 B(  1-C ,  6-H ) :   0.7114 B(  1-C ,  7-H ) :   1.0706
B(  1-C ,  8-F ) :   0.2002 B(  1-C ,  9-O ) :   0.1559 B(  2-C , 13-C ) :   1.1035
B(  2-C , 14-H ) :   0.9138 B(  2-C , 15-H ) :   0.9234 B(  2-C , 16-C ) :   0.2437
B(  3-C ,  4-S ) :   0.8821 B(  3-C ,  9-O ) :   0.1174 B(  3-C , 12-O ) :   0.1825
B(  3-C , 25-C ) :   0.1450 B(  3-C , 28-C ) :   0.9402 B(  3-C , 33-H ) :   0.9113
B(  3-C , 34-H ) :   1.0540 B(  4-S ,  8-F ) :   1.0988 B(  4-S ,  9-O ) :   1.6429
B(  4-S , 12-O ) :   1.5205 B(  5-H ,  6-H ) :   0.1120 B(  5-H ,  9-O ) :  -0.1683
B(  7-H ,  8-F ) :  -0.2140 B(  9-O , 12-O ) :   0.1025 B( 13-C , 16-C ) :   0.5296
B( 13-C , 17-H ) :   1.1486 B( 13-C , 18-H ) :   0.8673 B( 13-C , 19-C ) :   0.1982
B( 13-C , 21-H ) :  -0.1162 B( 13-C , 22-C ) :   0.1939 B( 16-C , 19-C ) :   1.0750
B( 16-C , 20-H ) :   0.9137 B( 16-C , 21-H ) :   1.0290 B( 16-C , 25-C ) :   0.1200
B( 19-C , 22-C ) :   1.0428 B( 19-C , 23-H ) :   0.9582 B( 19-C , 24-H ) :   0.9266
B( 19-C , 25-C ) :   0.2121 B( 22-C , 25-C ) :   0.5808 B( 22-C , 26-H ) :   0.8955
B( 22-C , 27-H ) :   0.9338 B( 22-C , 28-C ) :   0.5147 B( 25-C , 26-H ) :  -0.1021
B( 25-C , 28-C ) :   0.5197 B( 25-C , 29-H ) :   0.7178 B( 25-C , 30-H ) :   1.4089
B( 28-C , 29-H ) :  -0.1196 B( 28-C , 31-H ) :   0.9140 B( 28-C , 32-H ) :   0.9313
B( 29-H , 30-H ) :   0.1964

Dispersion correction           -0.041016868
FINAL SINGLE POINT ENERGY     -1041.463216166868

DIPOLE MOMENT
-------------
                                X             Y             Z
Electronic contribution:    -10.78480     -16.25245     -13.21674
Nuclear contribution   :      9.63012      17.20461      14.03552
                        -----------------------------------------
Total Dipole Moment    :     -1.15468       0.95216       0.81878
                        -----------------------------------------
Magnitude (a.u.)       :      1.70595
Magnitude (Debye)      :      4.33619

Rotational constants in cm-1:     0.025899     0.015189     0.010690
Rotational constants in MHz :   776.424978   455.369614   320.488876

                             ****ORCA TERMINATED NORMALLY****
TOTAL RUN TIME: 0 days 0 hours 1 minutes 40 seconds 688 msec
