                         Program Version 5.0.0 -  RELEASE  -
|  1> !PBE D3BJ RIJCOSX def2-TZVPD def2/J TightSCF xyzfile
|  2>
|  3> *xyzfile 0 1 D2.xyz
|  4>
|  5> %MaxCore 64000
|  6>
|  7> %pal nprocs 4
|  8> end
|  9>
| 10> %scf
| 11>   MaxIter 150
| 12> end
| 13>
| 14>
| 15>                          ****END OF INPUT****

CARTESIAN COORDINATES (ANGSTROEM)
---------------------------------
  C     -2.160376   -1.369486   -3.467104
  C     -3.030108   -1.910857   -4.541074
  C     -2.047717    0.146583   -3.511774
  C     -7.330440   -2.678991   -3.206811
  S     -6.019659   -2.926965   -4.419128
  H     -3.477443   -2.791513   -4.257096
  H     -2.538013   -2.017860   -5.438075
  H     -3.891589   -1.376039   -4.714365
  O     -5.645830   -1.588384   -4.919307
  F     -4.881961   -3.503697   -3.667235
  H     -1.184438   -1.843997   -3.566393
  H     -2.598195   -1.708376   -2.528477
  O     -6.549267   -3.805150   -5.425071
  C     -3.328755    0.875037   -3.103669
  H     -1.740034    0.452343   -4.517126
  H     -1.232611    0.434938   -2.842208
  C     -3.628487    0.771601   -1.609363
  H     -4.175106    0.490791   -3.682203
  H     -3.237812    1.928663   -3.381480
  C     -4.975718    1.361432   -1.190644
  H     -2.830700    1.276234   -1.054766
  H     -3.594312   -0.275838   -1.294603
  C     -6.184720    0.784347   -1.926464
  H     -4.956292    2.445725   -1.342200
  H     -5.097256    1.205252   -0.114136
  C     -6.286921   -0.735882   -1.893531
  H     -6.163994    1.100199   -2.974250
  H     -7.094530    1.223459   -1.504509
  C     -7.468999   -1.246153   -2.713833
  H     -6.360641   -1.090347   -0.859176
  H     -5.369848   -1.171853   -2.295982
  H     -7.601914   -0.601349   -3.585329
  H     -8.389791   -1.173436   -2.126922
  H     -7.118254   -3.379818   -2.398055
  H     -8.241838   -3.004745   -3.706513

 Total Charge           Charge          ....    0
 Multiplicity           Mult            ....    1
 Number of Electrons    NEL             ....  122
 Basis Dimension        Dim             ....  725

ORBITAL ENERGIES
----------------

  NO   OCC          E(Eh)            E(eV)
   0   2.0000     -88.271527     -2401.9904
   1   2.0000     -24.359994      -662.8691
   2   2.0000     -18.769621      -510.7474
   3   2.0000     -18.759136      -510.4620
   4   2.0000      -9.942420      -270.5470
   5   2.0000      -9.907250      -269.5900
   6   2.0000      -9.890509      -269.1344
   7   2.0000      -9.881412      -268.8869
   8   2.0000      -9.876717      -268.7591
   9   2.0000      -9.871005      -268.6037
  10   2.0000      -9.865859      -268.4637
  11   2.0000      -9.863056      -268.3874
  12   2.0000      -9.856885      -268.2195
  13   2.0000      -9.809879      -266.9404
  14   2.0000      -7.867715      -214.0914
  15   2.0000      -5.892091      -160.3319
  16   2.0000      -5.885541      -160.1537
  17   2.0000      -5.885235      -160.1454
  18   2.0000      -1.255762       -34.1710
  19   2.0000      -1.024427       -27.8761
  20   2.0000      -0.934213       -25.4212
  21   2.0000      -0.767354       -20.8808
  22   2.0000      -0.739909       -20.1340
  23   2.0000      -0.714898       -19.4534
  24   2.0000      -0.690779       -18.7970
  25   2.0000      -0.653774       -17.7901
  26   2.0000      -0.639658       -17.4060
  27   2.0000      -0.603289       -16.4163
  28   2.0000      -0.571851       -15.5608
  29   2.0000      -0.557832       -15.1794
  30   2.0000      -0.519782       -14.1440
  31   2.0000      -0.514265       -13.9939
  32   2.0000      -0.510805       -13.8997
  33   2.0000      -0.498961       -13.5774
  34   2.0000      -0.487132       -13.2555
  35   2.0000      -0.449908       -12.2426
  36   2.0000      -0.435853       -11.8602
  37   2.0000      -0.425392       -11.5755
  38   2.0000      -0.420496       -11.4423
  39   2.0000      -0.412968       -11.2374
  40   2.0000      -0.396943       -10.8014
  41   2.0000      -0.386534       -10.5181
  42   2.0000      -0.384125       -10.4526
  43   2.0000      -0.380499       -10.3539
  44   2.0000      -0.360837        -9.8189
  45   2.0000      -0.351765        -9.5720
  46   2.0000      -0.344053        -9.3622
  47   2.0000      -0.338379        -9.2078
  48   2.0000      -0.329531        -8.9670
  49   2.0000      -0.321036        -8.7358
  50   2.0000      -0.315199        -8.5770
  51   2.0000      -0.303250        -8.2519
  52   2.0000      -0.296838        -8.0774
  53   2.0000      -0.291063        -7.9202
  54   2.0000      -0.288412        -7.8481
  55   2.0000      -0.280960        -7.6453
  56   2.0000      -0.278931        -7.5901
  57   2.0000      -0.273179        -7.4336
  58   2.0000      -0.262488        -7.1427
  59   2.0000      -0.260701        -7.0940
  60   2.0000      -0.246081        -6.6962
  61   0.0000      -0.030006        -0.8165
  62   0.0000      -0.017539        -0.4773
  63   0.0000      -0.007335        -0.1996
  64   0.0000      -0.003406        -0.0927
  65   0.0000       0.007040         0.1916

MULLIKEN ATOMIC CHARGES
-----------------------
   0 C :    0.169277
   1 C :   -1.798268
   2 C :   -0.275807
   3 C :   -0.645140
   4 S :    1.076358
   5 H :    0.508059
   6 H :    0.309218
   7 H :    0.640976
   8 O :   -0.591483
   9 F :   -0.140123
  10 H :    0.076963
  11 H :    0.164946
  12 O :   -0.513294
  13 C :   -0.132213
  14 H :    0.151938
  15 H :    0.116889
  16 C :   -0.300757
  17 H :    0.077616
  18 H :    0.107634
  19 C :   -0.427286
  20 H :    0.163346
  21 H :    0.122901
  22 C :   -0.546118
  23 H :    0.136053
  24 H :    0.168214
  25 C :    0.153841
  26 H :    0.284707
  27 H :    0.144883
  28 C :   -0.240736
  29 H :    0.219006
  30 H :   -0.088140
  31 H :    0.212694
  32 H :    0.231221
  33 H :    0.293820
  34 H :    0.168806
Sum of atomic charges:    0.0000000

LOEWDIN ATOMIC CHARGES
----------------------
   0 C :   -0.243309
   1 C :   -0.127640
   2 C :   -0.208565
   3 C :   -0.218266
   4 S :    0.598239
   5 H :    0.019564
   6 H :    0.074572
   7 H :    0.006274
   8 O :   -0.266090
   9 F :   -0.088694
  10 H :    0.109687
  11 H :    0.099347
  12 O :   -0.227987
  13 C :   -0.206022
  14 H :    0.114983
  15 H :    0.106982
  16 C :   -0.218918
  17 H :    0.096932
  18 H :    0.117317
  19 C :   -0.210346
  20 H :    0.115519
  21 H :    0.098356
  22 C :   -0.214697
  23 H :    0.110966
  24 H :    0.109212
  25 C :   -0.216100
  26 H :    0.112457
  27 H :    0.116703
  28 C :   -0.230069
  29 H :    0.127636
  30 H :    0.090400
  31 H :    0.114541
  32 H :    0.123928
  33 H :    0.106496
  34 H :    0.106592

  Mayer bond orders larger than 0.100000
B(  0-C ,  1-C ) :   0.3730 B(  0-C ,  2-C ) :   0.9111 B(  0-C , 10-H ) :   0.9671
B(  0-C , 11-H ) :   0.9492 B(  0-C , 16-C ) :   0.1447 B(  1-C ,  2-C ) :   0.3236
B(  1-C ,  5-H ) :   0.8349 B(  1-C ,  6-H ) :   0.7296 B(  1-C ,  7-H ) :   0.8727
B(  1-C ,  8-O ) :   0.2354 B(  1-C ,  9-F ) :   0.1356 B(  1-C , 17-H ) :   0.1151
B(  2-C , 13-C ) :   1.0878 B(  2-C , 14-H ) :   0.9043 B(  2-C , 15-H ) :   0.9344
B(  2-C , 16-C ) :   0.2525 B(  3-C ,  4-S ) :   0.9018 B(  3-C , 12-O ) :   0.1857
B(  3-C , 25-C ) :   0.2647 B(  3-C , 28-C ) :   0.8425 B(  3-C , 33-H ) :   0.8694
B(  3-C , 34-H ) :   1.0471 B(  4-S ,  8-O ) :   1.7227 B(  4-S ,  9-F ) :   0.9750
B(  4-S , 12-O ) :   1.5470 B(  5-H ,  9-F ) :  -0.1101 B(  6-H ,  7-H ) :   0.1043
B(  7-H ,  8-O ) :  -0.2024 B( 13-C , 16-C ) :   0.5105 B( 13-C , 17-H ) :   1.1418
B( 13-C , 18-H ) :   0.8705 B( 13-C , 19-C ) :   0.1862 B( 13-C , 21-H ) :  -0.1194
B( 13-C , 22-C ) :   0.2048 B( 16-C , 19-C ) :   1.0686 B( 16-C , 20-H ) :   0.9209
B( 16-C , 21-H ) :   1.0257 B( 16-C , 25-C ) :   0.1320 B( 19-C , 22-C ) :   1.0312
B( 19-C , 23-H ) :   0.9548 B( 19-C , 24-H ) :   0.9252 B( 19-C , 25-C ) :   0.2143
B( 22-C , 25-C ) :   0.6193 B( 22-C , 26-H ) :   0.8852 B( 22-C , 27-H ) :   0.9237
B( 22-C , 28-C ) :   0.5479 B( 25-C , 28-C ) :   0.5984 B( 25-C , 29-H ) :   0.7305
B( 25-C , 30-H ) :   1.3864 B( 28-C , 29-H ) :  -0.1238 B( 28-C , 31-H ) :   0.8555
B( 28-C , 32-H ) :   0.9265 B( 29-H , 30-H ) :   0.1437

Dispersion correction           -0.041131564
FINAL SINGLE POINT ENERGY     -1041.466380240669

DIPOLE MOMENT
-------------
                                X             Y             Z
Electronic contribution:     -9.48338     -19.49483     -11.17680
Nuclear contribution   :      8.71934      19.48829      12.54264
                        -----------------------------------------
Total Dipole Moment    :     -0.76404      -0.00654       1.36584
                        -----------------------------------------
Magnitude (a.u.)       :      1.56503
Magnitude (Debye)      :      3.97798

Rotational constants in cm-1:     0.025810     0.015137     0.010647
Rotational constants in MHz :   773.773140   453.802427   319.195213

                             ****ORCA TERMINATED NORMALLY****
TOTAL RUN TIME: 0 days 0 hours 1 minutes 44 seconds 537 msec
