                         Program Version 5.0.0 -  RELEASE  -
|  1> !PBE D3BJ RIJCOSX def2-TZVPD def2/J TightSCF xyzfile
|  2>
|  3> *xyzfile 0 1 D3.xyz
|  4>
|  5> %MaxCore 64000
|  6>
|  7> %pal nprocs 4
|  8> end
|  9>
| 10> %scf
| 11>   MaxIter 150
| 12> end
| 13>
| 14>
| 15>                          ****END OF INPUT****

CARTESIAN COORDINATES (ANGSTROEM)
---------------------------------
  C     -2.160376   -1.369486   -3.467104
  C     -3.030108   -1.910857   -4.541074
  C     -2.047717    0.146583   -3.511774
  C     -7.330440   -2.678991   -3.206811
  S     -6.019659   -2.926965   -4.419128
  H     -3.477443   -2.791513   -4.257096
  H     -2.538013   -2.017860   -5.438075
  H     -3.891589   -1.376039   -4.714365
  O     -5.645830   -1.588384   -4.919307
  O     -4.881961   -3.503697   -3.667235
  H     -1.184438   -1.843997   -3.566393
  H     -2.598195   -1.708376   -2.528477
  F     -6.549267   -3.805150   -5.425071
  C     -3.328755    0.875037   -3.103669
  H     -1.740034    0.452343   -4.517126
  H     -1.232611    0.434938   -2.842208
  C     -3.628487    0.771601   -1.609363
  H     -4.175106    0.490791   -3.682203
  H     -3.237812    1.928663   -3.381480
  C     -4.975718    1.361432   -1.190644
  H     -2.830700    1.276234   -1.054766
  H     -3.594312   -0.275838   -1.294603
  C     -6.184720    0.784347   -1.926464
  H     -4.956292    2.445725   -1.342200
  H     -5.097256    1.205252   -0.114136
  C     -6.286921   -0.735882   -1.893531
  H     -6.163994    1.100199   -2.974250
  H     -7.094530    1.223459   -1.504509
  C     -7.468999   -1.246153   -2.713833
  H     -6.360641   -1.090347   -0.859176
  H     -5.369848   -1.171853   -2.295982
  H     -7.601914   -0.601349   -3.585329
  H     -8.389791   -1.173436   -2.126922
  H     -7.118254   -3.379818   -2.398055
  H     -8.241838   -3.004745   -3.706513

 Total Charge           Charge          ....    0
 Multiplicity           Mult            ....    1
 Number of Electrons    NEL             ....  122
 Basis Dimension        Dim             ....  725

ORBITAL ENERGIES
----------------

  NO   OCC          E(Eh)            E(eV)
   0   2.0000     -88.277576     -2402.1550
   1   2.0000     -24.383174      -663.4999
   2   2.0000     -18.763592      -510.5833
   3   2.0000     -18.760878      -510.5094
   4   2.0000      -9.944014      -270.5904
   5   2.0000      -9.907815      -269.6053
   6   2.0000      -9.883301      -268.9383
   7   2.0000      -9.876377      -268.7499
   8   2.0000      -9.870972      -268.6028
   9   2.0000      -9.863304      -268.3941
  10   2.0000      -9.857841      -268.2455
  11   2.0000      -9.852365      -268.0965
  12   2.0000      -9.841654      -267.8050
  13   2.0000      -9.787296      -266.3259
  14   2.0000      -7.873564      -214.2506
  15   2.0000      -5.898003      -160.4928
  16   2.0000      -5.891351      -160.3118
  17   2.0000      -5.891030      -160.3031
  18   2.0000      -1.288394       -35.0590
  19   2.0000      -1.016880       -27.6707
  20   2.0000      -0.923581       -25.1319
  21   2.0000      -0.766232       -20.8502
  22   2.0000      -0.733993       -19.9730
  23   2.0000      -0.706930       -19.2365
  24   2.0000      -0.688231       -18.7277
  25   2.0000      -0.656999       -17.8778
  26   2.0000      -0.632767       -17.2185
  27   2.0000      -0.599354       -16.3092
  28   2.0000      -0.566433       -15.4134
  29   2.0000      -0.548338       -14.9210
  30   2.0000      -0.532577       -14.4921
  31   2.0000      -0.526757       -14.3338
  32   2.0000      -0.508064       -13.8251
  33   2.0000      -0.502706       -13.6793
  34   2.0000      -0.477444       -12.9919
  35   2.0000      -0.447477       -12.1765
  36   2.0000      -0.437741       -11.9115
  37   2.0000      -0.421514       -11.4700
  38   2.0000      -0.417858       -11.3705
  39   2.0000      -0.410963       -11.1829
  40   2.0000      -0.397392       -10.8136
  41   2.0000      -0.386221       -10.5096
  42   2.0000      -0.375170       -10.2089
  43   2.0000      -0.371302       -10.1036
  44   2.0000      -0.357778        -9.7356
  45   2.0000      -0.343634        -9.3507
  46   2.0000      -0.337271        -9.1776
  47   2.0000      -0.334301        -9.0968
  48   2.0000      -0.322418        -8.7734
  49   2.0000      -0.310942        -8.4612
  50   2.0000      -0.305391        -8.3101
  51   2.0000      -0.296763        -8.0753
  52   2.0000      -0.291602        -7.9349
  53   2.0000      -0.288092        -7.8394
  54   2.0000      -0.280866        -7.6427
  55   2.0000      -0.272809        -7.4235
  56   2.0000      -0.268732        -7.3126
  57   2.0000      -0.264481        -7.1969
  58   2.0000      -0.251134        -6.8337
  59   2.0000      -0.241242        -6.5645
  60   2.0000      -0.227220        -6.1830
  61   0.0000      -0.033951        -0.9239
  62   0.0000      -0.021629        -0.5886
  63   0.0000      -0.002143        -0.0583
  64   0.0000      -0.000969        -0.0264
  65   0.0000       0.001924         0.0524

MULLIKEN ATOMIC CHARGES
-----------------------
   0 C :    0.150228
   1 C :   -1.775679
   2 C :   -0.262266
   3 C :   -0.642091
   4 S :    1.041624
   5 H :    0.529131
   6 H :    0.314663
   7 H :    0.612428
   8 O :   -0.589514
   9 O :   -0.558435
  10 H :    0.078607
  11 H :    0.155971
  12 F :   -0.066441
  13 C :   -0.126316
  14 H :    0.147952
  15 H :    0.116110
  16 C :   -0.294374
  17 H :    0.059583
  18 H :    0.113212
  19 C :   -0.438044
  20 H :    0.164544
  21 H :    0.123612
  22 C :   -0.513868
  23 H :    0.135502
  24 H :    0.167317
  25 C :    0.099921
  26 H :    0.282128
  27 H :    0.143286
  28 C :   -0.284945
  29 H :    0.206874
  30 H :    0.006047
  31 H :    0.194343
  32 H :    0.223027
  33 H :    0.234662
  34 H :    0.251200
Sum of atomic charges:   -0.0000000

LOEWDIN ATOMIC CHARGES
----------------------
   0 C :   -0.242269
   1 C :   -0.136484
   2 C :   -0.211494
   3 C :   -0.223013
   4 S :    0.616541
   5 H :    0.000803
   6 H :    0.070310
   7 H :    0.006919
   8 O :   -0.266277
   9 O :   -0.271403
  10 H :    0.108729
  11 H :    0.101269
  12 F :   -0.020193
  13 C :   -0.207260
  14 H :    0.113147
  15 H :    0.105348
  16 C :   -0.218330
  17 H :    0.096280
  18 H :    0.115867
  19 C :   -0.211090
  20 H :    0.114978
  21 H :    0.100109
  22 C :   -0.216448
  23 H :    0.110153
  24 H :    0.108772
  25 C :   -0.211700
  26 H :    0.111465
  27 H :    0.115096
  28 C :   -0.227603
  29 H :    0.128568
  30 H :    0.095049
  31 H :    0.112560
  32 H :    0.124088
  33 H :    0.109788
  34 H :    0.097728

  Mayer bond orders larger than 0.100000
B(  0-C ,  1-C ) :   0.4160 B(  0-C ,  2-C ) :   0.8889 B(  0-C , 10-H ) :   0.9516
B(  0-C , 11-H ) :   0.9583 B(  0-C , 16-C ) :   0.1433 B(  1-C ,  2-C ) :   0.3076
B(  1-C ,  5-H ) :   0.8481 B(  1-C ,  6-H ) :   0.7412 B(  1-C ,  7-H ) :   0.9382
B(  1-C ,  8-O ) :   0.1823 B(  1-C ,  9-O ) :   0.1028 B(  1-C , 17-H ) :   0.1058
B(  2-C , 13-C ) :   1.0856 B(  2-C , 14-H ) :   0.9106 B(  2-C , 15-H ) :   0.9286
B(  2-C , 16-C ) :   0.2496 B(  3-C ,  4-S ) :   0.8743 B(  3-C ,  9-O ) :   0.1330
B(  3-C , 12-F ) :   0.1140 B(  3-C , 25-C ) :   0.2226 B(  3-C , 28-C ) :   0.9221
B(  3-C , 33-H ) :   0.9309 B(  3-C , 34-H ) :   0.9376 B(  4-S ,  8-O ) :   1.7371
B(  4-S ,  9-O ) :   1.6881 B(  4-S , 12-F ) :   0.9669 B(  5-H ,  6-H ) :   0.1072
B(  5-H ,  9-O ) :  -0.1549 B(  6-H ,  7-H ) :   0.1048 B(  7-H ,  8-O ) :  -0.2315
B(  8-O ,  9-O ) :   0.1876 B( 13-C , 16-C ) :   0.5203 B( 13-C , 17-H ) :   1.1487
B( 13-C , 18-H ) :   0.8655 B( 13-C , 19-C ) :   0.1835 B( 13-C , 21-H ) :  -0.1147
B( 13-C , 22-C ) :   0.2091 B( 16-C , 19-C ) :   1.0619 B( 16-C , 20-H ) :   0.9189
B( 16-C , 21-H ) :   1.0294 B( 16-C , 25-C ) :   0.1310 B( 19-C , 22-C ) :   1.0358
B( 19-C , 23-H ) :   0.9597 B( 19-C , 24-H ) :   0.9248 B( 19-C , 25-C ) :   0.2109
B( 22-C , 25-C ) :   0.5814 B( 22-C , 26-H ) :   0.8917 B( 22-C , 27-H ) :   0.9244
B( 22-C , 28-C ) :   0.5381 B( 25-C , 26-H ) :  -0.1023 B( 25-C , 28-C ) :   0.6227
B( 25-C , 29-H ) :   0.7204 B( 25-C , 30-H ) :   1.3963 B( 28-C , 29-H ) :  -0.1299
B( 28-C , 31-H ) :   0.8525 B( 28-C , 32-H ) :   0.9284 B( 29-H , 30-H ) :   0.1751

Dispersion correction           -0.041394233
FINAL SINGLE POINT ENERGY     -1041.449674877917

DIPOLE MOMENT
-------------
                                X             Y             Z
Electronic contribution:    -12.53407     -20.25075     -14.32944
Nuclear contribution   :     10.70731      19.84772      14.63855
                        -----------------------------------------
Total Dipole Moment    :     -1.82676      -0.40304       0.30912
                        -----------------------------------------
Magnitude (a.u.)       :      1.89606
Magnitude (Debye)      :      4.81940

Rotational constants in cm-1:     0.026014     0.014812     0.010477
Rotational constants in MHz :   779.874765   444.063394   314.081855

                             ****ORCA TERMINATED NORMALLY****
TOTAL RUN TIME: 0 days 0 hours 1 minutes 37 seconds 919 msec
