                         Program Version 5.0.0 -  RELEASE  -
|  1> !LC-BLYP RIJCOSX def2-TZVPD def2/J TightSCF
|  2> *xyz -1 1
|  3> C         -0.91495        0.61511        2.50554
|  4> C         -0.05915        1.50352        3.41058
|  5> H          0.36536        2.34431        2.86116
|  6> H         -0.69226        1.92021        4.19898
|  7> C          1.08303        0.74964        4.08571
|  8> O          2.22817        1.26348        4.01983
|  9> O          0.81003       -0.34541        4.63627
| 10> H         -0.30401        0.20228        1.73015
| 11> H         -1.69811        1.19946        2.06954
| 12> H         -1.34124       -0.17772        3.08397
| 13> *
| 14>
| 15> %MaxCore 64000
| 16>
| 17> %pal nprocs 4
| 18> end
| 19>
| 20> %scf
| 21>   MaxIter 150
| 22> end
| 23>
| 24>
| 25>                          ****END OF INPUT****

CARTESIAN COORDINATES (ANGSTROEM)
---------------------------------
  C     -0.914950    0.615110    2.505540
  C     -0.059150    1.503520    3.410580
  H      0.365360    2.344310    2.861160
  H     -0.692260    1.920210    4.198980
  C      1.083030    0.749640    4.085710
  O      2.228170    1.263480    4.019830
  O      0.810030   -0.345410    4.636270
  H     -0.304010    0.202280    1.730150
  H     -1.698110    1.199460    2.069540
  H     -1.341240   -0.177720    3.083970

 Total Charge           Charge          ....   -1
 Multiplicity           Mult            ....    1
 Number of Electrons    NEL             ....   40
 Basis Dimension        Dim             ....  236

ORBITAL ENERGIES
----------------

  NO   OCC          E(Eh)            E(eV)
   0   2.0000     -18.675631      -508.1898
   1   2.0000     -18.675003      -508.1727
   2   2.0000      -9.954966      -270.8884
   3   2.0000      -9.904241      -269.5081
   4   2.0000      -9.895522      -269.2708
   5   2.0000      -0.915325       -24.9073
   6   2.0000      -0.820984       -22.3401
   7   2.0000      -0.716633       -19.5006
   8   2.0000      -0.584210       -15.8972
   9   2.0000      -0.427921       -11.6443
  10   2.0000      -0.401101       -10.9145
  11   2.0000      -0.364569        -9.9204
  12   2.0000      -0.336639        -9.1604
  13   2.0000      -0.318526        -8.6675
  14   2.0000      -0.309742        -8.4285
  15   2.0000      -0.279935        -7.6174
  16   2.0000      -0.265030        -7.2118
  17   2.0000      -0.149420        -4.0659
  18   2.0000      -0.142362        -3.8739
  19   2.0000      -0.128855        -3.5063
  20   0.0000       0.176280         4.7968
  21   0.0000       0.198291         5.3958
  22   0.0000       0.206007         5.6057
  23   0.0000       0.221715         6.0332
  24   0.0000       0.243649         6.6300

MULLIKEN ATOMIC CHARGES
-----------------------
   0 C :   -1.221383
   1 C :   -0.407543
   2 H :    0.310608
   3 H :    0.279005
   4 C :    0.303599
   5 O :   -0.675695
   6 O :   -0.659219
   7 H :    0.359975
   8 H :    0.384360
   9 H :    0.326293
Sum of atomic charges:   -1.0000000

LOEWDIN ATOMIC CHARGES
----------------------
   0 C :   -0.145156
   1 C :   -0.227510
   2 H :    0.093234
   3 H :    0.101790
   4 C :   -0.805431
   5 O :   -0.099027
   6 O :   -0.090077
   7 H :    0.066293
   8 H :    0.047785
   9 H :    0.058100

  Mayer bond orders larger than 0.100000
B(  0-C ,  1-C ) :   0.4428 B(  0-C ,  7-H ) :   0.9240 B(  0-C ,  8-H ) :   0.8832
B(  0-C ,  9-H ) :   0.9969 B(  1-C ,  2-H ) :   0.9821 B(  1-C ,  3-H ) :   0.9513
B(  1-C ,  4-C ) :   0.9110 B(  4-C ,  5-O ) :   1.5046 B(  4-C ,  6-O ) :   1.5151

FINAL SINGLE POINT ENERGY      -267.355111565774

DIPOLE MOMENT
-------------
                                X             Y             Z
Electronic contribution:      4.68745      -0.98456       3.33849
Nuclear contribution   :     -6.38408       1.63097      -4.40540
                        -----------------------------------------
Total Dipole Moment    :     -1.69662       0.64641      -1.06691
                        -----------------------------------------
Magnitude (a.u.)       :      2.10587
Magnitude (Debye)      :      5.35269

Rotational constants in cm-1:     0.319732     0.134414     0.104753
Rotational constants in MHz :  9585.336550  4029.633034  3140.404334

                             ****ORCA TERMINATED NORMALLY****
TOTAL RUN TIME: 0 days 0 hours 0 minutes 32 seconds 436 msec
