                         Program Version 5.0.0 -  RELEASE  -
|  1> !LC-BLYP RIJCOSX def2-TZVPD def2/J TightSCF
|  2> *xyz 1 1
|  3> C          4.60295       -2.44010        2.63478
|  4> C          3.86085       -1.59157        3.62289
|  5> N          2.75650       -2.04616        4.16633
|  6> N          4.25433       -0.36291        3.86046
|  7> H          3.56526        0.31099        4.16898
|  8> H          5.05429       -0.01606        3.33784
|  9> H          2.43970       -2.97389        3.89740
| 10> H          2.06687       -1.41253        4.54981
| 11> C          3.74469       -2.58056        1.36188
| 12> H          5.56156       -1.97135        2.40708
| 13> H          4.81050       -3.42255        3.06310
| 14> H          4.26314       -3.18477        0.64702
| 15> H          3.56325       -1.61180        0.94535
| 16> H          2.81197       -3.04259        1.60980
| 17> *
| 18>
| 19> %MaxCore 64000
| 20>
| 21> %pal nprocs 4
| 22> end
| 23>
| 24> %scf
| 25>   MaxIter 150
| 26> end
| 27>
| 28>
| 29>                          ****END OF INPUT****

CARTESIAN COORDINATES (ANGSTROEM)
---------------------------------
  C      4.602950   -2.440100    2.634780
  C      3.860850   -1.591570    3.622890
  N      2.756500   -2.046160    4.166330
  N      4.254330   -0.362910    3.860460
  H      3.565260    0.310990    4.168980
  H      5.054290   -0.016060    3.337840
  H      2.439700   -2.973890    3.897400
  H      2.066870   -1.412530    4.549810
  C      3.744690   -2.580560    1.361880
  H      5.561560   -1.971350    2.407080
  H      4.810500   -3.422550    3.063100
  H      4.263140   -3.184770    0.647020
  H      3.563250   -1.611800    0.945350
  H      2.811970   -3.042590    1.609800

 Total Charge           Charge          ....    1
 Multiplicity           Mult            ....    1
 Number of Electrons    NEL             ....   40
 Basis Dimension        Dim             ....  266

ORBITAL ENERGIES
----------------

  NO   OCC          E(Eh)            E(eV)
   0   2.0000     -14.415692      -392.2709
   1   2.0000     -14.414804      -392.2468
   2   2.0000     -10.394686      -282.8538
   3   2.0000     -10.270861      -279.4843
   4   2.0000     -10.228319      -278.3267
   5   2.0000      -1.310918       -35.6719
   6   2.0000      -1.212207       -32.9858
   7   2.0000      -1.082351       -29.4523
   8   2.0000      -0.968921       -26.3657
   9   2.0000      -0.924680       -25.1618
  10   2.0000      -0.877851       -23.8875
  11   2.0000      -0.858893       -23.3717
  12   2.0000      -0.798346       -21.7241
  13   2.0000      -0.774554       -21.0767
  14   2.0000      -0.730911       -19.8891
  15   2.0000      -0.707022       -19.2390
  16   2.0000      -0.650292       -17.6953
  17   2.0000      -0.643848       -17.5200
  18   2.0000      -0.630273       -17.1506
  19   2.0000      -0.595254       -16.1977
  20   0.0000      -0.138385        -3.7657
  21   0.0000      -0.112328        -3.0566
  22   0.0000      -0.074063        -2.0154
  23   0.0000      -0.068960        -1.8765
  24   0.0000      -0.051658        -1.4057

MULLIKEN ATOMIC CHARGES
-----------------------
   0 C :   -0.819244
   1 C :    0.653782
   2 N :   -0.321787
   3 N :   -0.325181
   4 H :    0.250804
   5 H :    0.250685
   6 H :    0.262062
   7 H :    0.228318
   8 C :   -1.177108
   9 H :    0.419797
  10 H :    0.376216
  11 H :    0.409419
  12 H :    0.390361
  13 H :    0.401876
Sum of atomic charges:    1.0000000

LOEWDIN ATOMIC CHARGES
----------------------
   0 C :   -0.152615
   1 C :   -0.384237
   2 N :    0.233749
   3 N :    0.235930
   4 H :    0.149366
   5 H :    0.150619
   6 H :    0.150101
   7 H :    0.151521
   8 C :   -0.064122
   9 H :    0.130672
  10 H :    0.140615
  11 H :    0.092539
  12 H :    0.089796
  13 H :    0.076067

  Mayer bond orders larger than 0.100000
B(  0-C ,  1-C ) :   0.7112 B(  0-C ,  8-C ) :   0.4929 B(  0-C ,  9-H ) :   0.8643
B(  0-C , 10-H ) :   0.9810 B(  1-C ,  2-N ) :   1.1465 B(  1-C ,  3-N ) :   1.1929
B(  2-N ,  6-H ) :   0.9227 B(  2-N ,  7-H ) :   0.9860 B(  3-N ,  4-H ) :   0.9535
B(  3-N ,  5-H ) :   0.9318 B(  8-C , 11-H ) :   0.9213 B(  8-C , 12-H ) :   0.9446
B(  8-C , 13-H ) :   0.8640

FINAL SINGLE POINT ENERGY      -228.504721992081

DIPOLE MOMENT
-------------
                                X             Y             Z
Electronic contribution:     -0.23487       1.78839       3.72967
Nuclear contribution   :     -0.22400      -1.16268      -3.30447
                        -----------------------------------------
Total Dipole Moment    :     -0.45887       0.62571       0.42519
                        -----------------------------------------
Magnitude (a.u.)       :      0.88480
Magnitude (Debye)      :      2.24897

Rotational constants in cm-1:     0.258103     0.130571     0.102508
Rotational constants in MHz :  7737.732062  3914.431392  3073.119154

                             ****ORCA TERMINATED NORMALLY****
TOTAL RUN TIME: 0 days 0 hours 0 minutes 44 seconds 512 msec
