                         Program Version 5.0.0 -  RELEASE  -
|  1> !LC-BLYP RIJCOSX def2-TZVPD def2/J TightSCF xyzfile
|  2>
|  3> *xyzfile 0 1 B.xyz
|  4>
|  5> %MaxCore 64000
|  6>
|  7> %pal nprocs 4
|  8> end
|  9>
| 10> %scf
| 11>   MaxIter 150
| 12> end
| 13>
| 14>
| 15>                          ****END OF INPUT****

CARTESIAN COORDINATES (ANGSTROEM)
---------------------------------
  C      4.602954   -2.440100    2.634780
  C     -0.914947    0.615112    2.505538
  C     -0.059146    1.503524    3.410578
  H      0.365364    2.344315    2.861161
  H     -0.692261    1.920207    4.198985
  C      1.083027    0.749640    4.085705
  C      3.860851   -1.591565    3.622893
  N      2.756502   -2.046159    4.166333
  N      4.254325   -0.362905    3.860455
  H      3.565256    0.310994    4.168983
  H      5.054292   -0.016059    3.337838
  H      2.439696   -2.973894    3.897395
  H      2.066869   -1.412532    4.549813
  O      2.228167    1.263475    4.019826
  O      0.810034   -0.345411    4.636269
  C      3.744685   -2.580557    1.361882
  C      0.772139    0.636882    0.562129
  C     -0.130740   -0.193985    1.470763
  H     -0.840563   -0.760165    0.856377
  H      0.466691   -0.938942    2.006959
  H     -1.647961    1.245963    1.991076
  H     -1.478180   -0.081046    3.130424
  C      3.203721   -1.256004    0.826211
  H      2.898939   -3.239289    1.583074
  H      4.334962   -3.095523    0.600188
  C      2.107815   -1.442385   -0.216865
  H      2.786775   -0.672760    1.650711
  H      4.021008   -0.652993    0.414046
  C      1.390662   -0.145912   -0.602422
  H      1.372179   -2.152184    0.176151
  H      2.523302   -1.906787   -1.117115
  H      1.561361    1.100094    1.161831
  H      0.195516    1.468325    0.142758
  H      0.602893   -0.398214   -1.319716
  H      2.087247    0.508272   -1.137335
  H      5.561557   -1.971347    2.407084
  H      4.810498   -3.422552    3.063099

 Total Charge           Charge          ....    0
 Multiplicity           Mult            ....    1
 Number of Electrons    NEL             ....  118
 Basis Dimension        Dim             ....  759

ORBITAL ENERGIES
----------------

  NO   OCC          E(Eh)            E(eV)
   0   2.0000     -18.863413      -513.2996
   1   2.0000     -18.861466      -513.2466
   2   2.0000     -14.211553      -386.7160
   3   2.0000     -14.211311      -386.7094
   4   2.0000     -10.209127      -277.8045
   5   2.0000     -10.135940      -275.8130
   6   2.0000     -10.120511      -275.3931
   7   2.0000     -10.101258      -274.8692
   8   2.0000     -10.077376      -274.2193
   9   2.0000     -10.068467      -273.9769
  10   2.0000     -10.060524      -273.7608
  11   2.0000     -10.049832      -273.4698
  12   2.0000     -10.046752      -273.3860
  13   2.0000     -10.042876      -273.2805
  14   2.0000     -10.034965      -273.0653
  15   2.0000      -1.122590       -30.5472
  16   2.0000      -1.103907       -30.0388
  17   2.0000      -1.024446       -27.8766
  18   2.0000      -1.007136       -27.4056
  19   2.0000      -0.949214       -25.8294
  20   2.0000      -0.915213       -24.9042
  21   2.0000      -0.884767       -24.0757
  22   2.0000      -0.844113       -22.9695
  23   2.0000      -0.805583       -21.9210
  24   2.0000      -0.767041       -20.8722
  25   2.0000      -0.751017       -20.4362
  26   2.0000      -0.728950       -19.8357
  27   2.0000      -0.695403       -18.9229
  28   2.0000      -0.686627       -18.6841
  29   2.0000      -0.677402       -18.4330
  30   2.0000      -0.654513       -17.8102
  31   2.0000      -0.622789       -16.9469
  32   2.0000      -0.609848       -16.5948
  33   2.0000      -0.592665       -16.1272
  34   2.0000      -0.582250       -15.8438
  35   2.0000      -0.570386       -15.5210
  36   2.0000      -0.562066       -15.2946
  37   2.0000      -0.549499       -14.9526
  38   2.0000      -0.538756       -14.6603
  39   2.0000      -0.523281       -14.2392
  40   2.0000      -0.517626       -14.0853
  41   2.0000      -0.510941       -13.9034
  42   2.0000      -0.504426       -13.7261
  43   2.0000      -0.498607       -13.5678
  44   2.0000      -0.478391       -13.0177
  45   2.0000      -0.473235       -12.8774
  46   2.0000      -0.467722       -12.7274
  47   2.0000      -0.462576       -12.5873
  48   2.0000      -0.450458       -12.2576
  49   2.0000      -0.433397       -11.7933
  50   2.0000      -0.429132       -11.6773
  51   2.0000      -0.421538       -11.4706
  52   2.0000      -0.406751       -11.0682
  53   2.0000      -0.400972       -10.9110
  54   2.0000      -0.399360       -10.8671
  55   2.0000      -0.391018       -10.6401
  56   2.0000      -0.337230        -9.1765
  57   2.0000      -0.325144        -8.8476
  58   2.0000      -0.321141        -8.7387
  59   0.0000       0.027396         0.7455
  60   0.0000       0.043843         1.1930
  61   0.0000       0.048141         1.3100
  62   0.0000       0.055533         1.5111
  63   0.0000       0.062536         1.7017

MULLIKEN ATOMIC CHARGES
-----------------------
   0 C :   -0.948466
   1 C :   -0.955330
   2 C :   -0.668117
   3 H :    0.368139
   4 H :    0.424256
   5 C :    0.538430
   6 C :    0.097796
   7 N :   -0.243461
   8 N :   -0.287323
   9 H :    0.374598
  10 H :    0.198570
  11 H :    0.215068
  12 H :    0.347828
  13 O :   -0.783365
  14 O :   -0.782505
  15 C :   -0.863120
  16 C :   -0.672079
  17 C :   -0.655495
  18 H :    0.435215
  19 H :    0.333951
  20 H :    0.434869
  21 H :    0.374425
  22 C :    0.008641
  23 H :    0.389072
  24 H :    0.472007
  25 C :   -0.966699
  26 H :    0.161218
  27 H :    0.287584
  28 C :   -0.969344
  29 H :    0.413405
  30 H :    0.447809
  31 H :    0.387956
  32 H :    0.408812
  33 H :    0.434076
  34 H :    0.404441
  35 H :    0.426173
  36 H :    0.410964
Sum of atomic charges:   -0.0000000

LOEWDIN ATOMIC CHARGES
----------------------
   0 C :   -0.123011
   1 C :   -0.216725
   2 C :   -0.139017
   3 H :    0.112149
   4 H :    0.124324
   5 C :   -0.678708
   6 C :   -0.408418
   7 N :    0.238397
   8 N :    0.224193
   9 H :    0.049268
  10 H :    0.137152
  11 H :    0.139275
  12 H :    0.048631
  13 O :   -0.035045
  14 O :   -0.031268
  15 C :   -0.199488
  16 C :   -0.224535
  17 C :   -0.224832
  18 H :    0.123122
  19 H :    0.104321
  20 H :    0.115018
  21 H :    0.114093
  22 C :   -0.221986
  23 H :    0.115470
  24 H :    0.124898
  25 C :   -0.228588
  26 H :    0.094993
  27 H :    0.135465
  28 C :   -0.220693
  29 H :    0.113518
  30 H :    0.120203
  31 H :    0.109570
  32 H :    0.123454
  33 H :    0.115229
  34 H :    0.115539
  35 H :    0.124387
  36 H :    0.129645

  Mayer bond orders larger than 0.100000
B(  0-C ,  6-C ) :   0.5564 B(  0-C , 15-C ) :   0.5631 B(  0-C , 22-C ) :  -0.1046
B(  0-C , 35-H ) :   0.9211 B(  0-C , 36-H ) :   1.0455 B(  1-C ,  2-C ) :   0.6219
B(  1-C , 17-C ) :   0.6589 B(  1-C , 20-H ) :   0.8975 B(  1-C , 21-H ) :   0.9528
B(  2-C ,  3-H ) :   1.0015 B(  2-C ,  4-H ) :   0.8536 B(  2-C ,  5-C ) :   0.8221
B(  2-C , 17-C ) :  -0.1276 B(  5-C , 13-O ) :   1.2619 B(  5-C , 14-O ) :   1.2477
B(  6-C ,  7-N ) :   1.2432 B(  6-C ,  8-N ) :   1.3709 B(  7-N , 11-H ) :   0.9593
B(  7-N , 12-H ) :   0.6864 B(  7-N , 14-O ) :  -0.1069 B(  8-N ,  9-H ) :   0.7279
B(  8-N , 10-H ) :   0.9540 B( 12-H , 14-O ) :   0.1231 B( 13-O , 14-O ) :   0.1331
B( 15-C , 22-C ) :   0.3369 B( 15-C , 23-H ) :   0.9386 B( 15-C , 24-H ) :   0.8693
B( 15-C , 25-C ) :   0.2002 B( 16-C , 17-C ) :   0.1307 B( 16-C , 19-H ) :  -0.1755
B( 16-C , 25-C ) :  -0.1197 B( 16-C , 28-C ) :   0.5999 B( 16-C , 31-H ) :   1.0376
B( 16-C , 32-H ) :   0.8740 B( 17-C , 18-H ) :   0.8697 B( 17-C , 19-H ) :   1.1293
B( 17-C , 31-H ) :  -0.1317 B( 22-C , 25-C ) :   0.3092 B( 22-C , 26-H ) :   1.0960
B( 22-C , 27-H ) :   0.9833 B( 25-C , 28-C ) :   0.6234 B( 25-C , 29-H ) :   0.9515
B( 25-C , 30-H ) :   0.8860 B( 26-H , 27-H ) :   0.1682 B( 28-C , 33-H ) :   0.9355
B( 28-C , 34-H ) :   0.9435

FINAL SINGLE POINT ENERGY      -690.927279269352

DIPOLE MOMENT
-------------
                                X             Y             Z
Electronic contribution:      3.42726       1.61183      12.97526
Nuclear contribution   :     -1.50655      -3.48027     -14.35034
                        -----------------------------------------
Total Dipole Moment    :      1.92070      -1.86844      -1.37508
                        -----------------------------------------
Magnitude (a.u.)       :      3.01182
Magnitude (Debye)      :      7.65543

Rotational constants in cm-1:     0.021781     0.017296     0.011403
Rotational constants in MHz :   652.971749   518.510612   341.853154

                             ****ORCA TERMINATED NORMALLY****
TOTAL RUN TIME: 0 days 0 hours 10 minutes 17 seconds 653 msec
