                         Program Version 5.0.0 -  RELEASE  -
|  1> !LC-BLYP RIJCOSX def2-TZVPD def2/J TightSCF
|  2> *xyz 0 1
|  3> C         -0.91495        0.61511        2.50554
|  4> C         -0.05915        1.50352        3.41058
|  5> H          0.36536        2.34431        2.86116
|  6> H         -0.69226        1.92021        4.19898
|  7> C          1.08303        0.74964        4.08571
|  8> F          2.22817        1.26348        4.01983
|  9> O          0.81003       -0.34541        4.63627
| 10> H         -0.30401        0.20228        1.73015
| 11> H         -1.69811        1.19946        2.06954
| 12> H         -1.34124       -0.17772        3.08397
| 13> *
| 14>
| 15> %MaxCore 64000
| 16>
| 17> %pal nprocs 4
| 18> end
| 19>
| 20> %scf
| 21>   MaxIter 150
| 22> end
| 23>
| 24>
| 25>                          ****END OF INPUT****

CARTESIAN COORDINATES (ANGSTROEM)
---------------------------------
  C     -0.914950    0.615110    2.505540
  C     -0.059150    1.503520    3.410580
  H      0.365360    2.344310    2.861160
  H     -0.692260    1.920210    4.198980
  C      1.083030    0.749640    4.085710
  F      2.228170    1.263480    4.019830
  O      0.810030   -0.345410    4.636270
  H     -0.304010    0.202280    1.730150
  H     -1.698110    1.199460    2.069540
  H     -1.341240   -0.177720    3.083970

 Total Charge           Charge          ....    0
 Multiplicity           Mult            ....    1
 Number of Electrons    NEL             ....   40
 Basis Dimension        Dim             ....  236

ORBITAL ENERGIES
----------------

  NO   OCC          E(Eh)            E(eV)
   0   2.0000     -24.526084      -667.3887
   1   2.0000     -18.947387      -515.5846
   2   2.0000     -10.251568      -278.9594
   3   2.0000     -10.102533      -274.9039
   4   2.0000     -10.071522      -274.0600
   5   2.0000      -1.399924       -38.0939
   6   2.0000      -1.128615       -30.7112
   7   2.0000      -0.912243       -24.8234
   8   2.0000      -0.799009       -21.7421
   9   2.0000      -0.744369       -20.2553
  10   2.0000      -0.658414       -17.9164
  11   2.0000      -0.641381       -17.4529
  12   2.0000      -0.614510       -16.7217
  13   2.0000      -0.572550       -15.5799
  14   2.0000      -0.538775       -14.6608
  15   2.0000      -0.500928       -13.6309
  16   2.0000      -0.479004       -13.0344
  17   2.0000      -0.475354       -12.9350
  18   2.0000      -0.450598       -12.2614
  19   2.0000      -0.396576       -10.7914
  20   0.0000       0.040722         1.1081
  21   0.0000       0.053612         1.4589
  22   0.0000       0.071372         1.9421
  23   0.0000       0.077869         2.1189
  24   0.0000       0.089603         2.4382

MULLIKEN ATOMIC CHARGES
-----------------------
   0 C :   -1.260661
   1 C :   -0.468720
   2 H :    0.363435
   3 H :    0.336017
   4 C :    0.476474
   5 F :   -0.174243
   6 O :   -0.436162
   7 H :    0.394723
   8 H :    0.399894
   9 H :    0.369243
Sum of atomic charges:    0.0000000

LOEWDIN ATOMIC CHARGES
----------------------
   0 C :   -0.100800
   1 C :   -0.172592
   2 H :    0.114725
   3 H :    0.128503
   4 C :   -0.516852
   5 F :    0.222343
   6 O :    0.094427
   7 H :    0.080069
   8 H :    0.074087
   9 H :    0.076091

  Mayer bond orders larger than 0.100000
B(  0-C ,  1-C ) :   0.5160 B(  0-C ,  7-H ) :   0.8881 B(  0-C ,  8-H ) :   0.8860
B(  0-C ,  9-H ) :   0.9594 B(  1-C ,  2-H ) :   0.9120 B(  1-C ,  3-H ) :   0.9237
B(  1-C ,  4-C ) :   0.9072 B(  4-C ,  5-F ) :   1.0505 B(  4-C ,  6-O ) :   1.7827

FINAL SINGLE POINT ENERGY      -291.905967224269

DIPOLE MOMENT
-------------
                                X             Y             Z
Electronic contribution:      7.71415      -0.14964       4.08088
Nuclear contribution   :     -8.12386       1.06915      -4.71960
                        -----------------------------------------
Total Dipole Moment    :     -0.40971       0.91951      -0.63871
                        -----------------------------------------
Magnitude (a.u.)       :      1.19219
Magnitude (Debye)      :      3.03030

Rotational constants in cm-1:     0.309513     0.127560     0.099675
Rotational constants in MHz :  9278.979128  3824.146597  2988.174827

                             ****ORCA TERMINATED NORMALLY****
TOTAL RUN TIME: 0 days 0 hours 0 minutes 34 seconds 75 msec
