                         Program Version 5.0.0 -  RELEASE  -
|  1> !LC-BLYP RIJCOSX def2-TZVPD def2/J TightSCF
|  2> *xyz 0 1
|  3> C          4.60295       -2.44010        2.63478
|  4> C          3.86085       -1.59157        3.62289
|  5> C          2.75650       -2.04616        4.16633
|  6> N          4.25433       -0.36291        3.86046
|  7> H          3.56526        0.31099        4.16898
|  8> H          5.05429       -0.01606        3.33784
|  9> H          2.43970       -2.97389        3.89740
| 10> H          2.06687       -1.41253        4.54981
| 11> C          3.74469       -2.58056        1.36188
| 12> H          5.56156       -1.97135        2.40708
| 13> H          4.81050       -3.42255        3.06310
| 14> H          4.26314       -3.18477        0.64702
| 15> H          3.56325       -1.61180        0.94535
| 16> H          2.81197       -3.04259        1.60980
| 17> *
| 18>
| 19> %MaxCore 64000
| 20>
| 21> %pal nprocs 4
| 22> end
| 23>
| 24> %scf
| 25>   MaxIter 150
| 26> end
| 27>
| 28>
| 29>                          ****END OF INPUT****

CARTESIAN COORDINATES (ANGSTROEM)
---------------------------------
  C      4.602950   -2.440100    2.634780
  C      3.860850   -1.591570    3.622890
  C      2.756500   -2.046160    4.166330
  N      4.254330   -0.362910    3.860460
  H      3.565260    0.310990    4.168980
  H      5.054290   -0.016060    3.337840
  H      2.439700   -2.973890    3.897400
  H      2.066870   -1.412530    4.549810
  C      3.744690   -2.580560    1.361880
  H      5.561560   -1.971350    2.407080
  H      4.810500   -3.422550    3.063100
  H      4.263140   -3.184770    0.647020
  H      3.563250   -1.611800    0.945350
  H      2.811970   -3.042590    1.609800

 Total Charge           Charge          ....    0
 Multiplicity           Mult            ....    1
 Number of Electrons    NEL             ....   40
 Basis Dimension        Dim             ....  266

ORBITAL ENERGIES
----------------

  NO   OCC          E(Eh)            E(eV)
   0   2.0000     -14.171079      -385.6147
   1   2.0000     -10.089208      -274.5413
   2   2.0000     -10.071120      -274.0491
   3   2.0000     -10.052981      -273.5555
   4   2.0000      -9.997316      -272.0408
   5   2.0000      -1.036399       -28.2018
   6   2.0000      -0.892058       -24.2741
   7   2.0000      -0.820225       -22.3195
   8   2.0000      -0.749608       -20.3979
   9   2.0000      -0.668514       -18.1912
  10   2.0000      -0.629402       -17.1269
  11   2.0000      -0.589119       -16.0307
  12   2.0000      -0.555089       -15.1047
  13   2.0000      -0.516731       -14.0610
  14   2.0000      -0.491157       -13.3651
  15   2.0000      -0.479179       -13.0391
  16   2.0000      -0.452404       -12.3105
  17   2.0000      -0.441813       -12.0224
  18   2.0000      -0.430595       -11.7171
  19   2.0000      -0.286496        -7.7960
  20   0.0000       0.051394         1.3985
  21   0.0000       0.075352         2.0504
  22   0.0000       0.077326         2.1042
  23   0.0000       0.086664         2.3582
  24   0.0000       0.109789         2.9875

MULLIKEN ATOMIC CHARGES
-----------------------
   0 C :   -0.859646
   1 C :    0.502647
   2 C :   -1.005005
   3 N :   -0.388161
   4 H :    0.189951
   5 H :    0.202584
   6 H :    0.361355
   7 H :    0.303423
   8 C :   -1.145601
   9 H :    0.396239
  10 H :    0.332185
  11 H :    0.381519
  12 H :    0.344249
  13 H :    0.384259
Sum of atomic charges:    0.0000000

LOEWDIN ATOMIC CHARGES
----------------------
   0 C :   -0.204202
   1 C :   -0.519653
   2 C :    0.002438
   3 N :    0.108469
   4 H :    0.112464
   5 H :    0.104970
   6 H :    0.030450
   7 H :    0.029171
   8 C :   -0.102162
   9 H :    0.107838
  10 H :    0.119949
  11 H :    0.066843
  12 H :    0.076635
  13 H :    0.066791

  Mayer bond orders larger than 0.100000
B(  0-C ,  1-C ) :   0.6041 B(  0-C ,  2-C ) :   0.1069 B(  0-C ,  8-C ) :   0.5022
B(  0-C ,  9-H ) :   0.9625 B(  0-C , 10-H ) :   1.0034 B(  1-C ,  2-C ) :   1.3451
B(  1-C ,  3-N ) :   0.8949 B(  1-C ,  7-H ) :  -0.1265 B(  1-C ,  9-H ) :  -0.1157
B(  2-C ,  3-N ) :   0.1129 B(  2-C ,  6-H ) :   0.8958 B(  2-C ,  7-H ) :   1.0724
B(  3-N ,  4-H ) :   0.9864 B(  3-N ,  5-H ) :   0.9901 B(  8-C , 11-H ) :   0.9150
B(  8-C , 12-H ) :   0.9532 B(  8-C , 13-H ) :   0.9278

FINAL SINGLE POINT ENERGY      -212.036696304408

DIPOLE MOMENT
-------------
                                X             Y             Z
Electronic contribution:      0.80135       1.76034       2.53557
Nuclear contribution   :     -0.47010      -1.22282      -3.06417
                        -----------------------------------------
Total Dipole Moment    :      0.33125       0.53752      -0.52860
                        -----------------------------------------
Magnitude (a.u.)       :      0.82345
Magnitude (Debye)      :      2.09304

Rotational constants in cm-1:     0.271862     0.131962     0.105499
Rotational constants in MHz :  8150.219120  3956.123671  3162.785522

                             ****ORCA TERMINATED NORMALLY****
TOTAL RUN TIME: 0 days 0 hours 0 minutes 46 seconds 974 msec
