                         Program Version 5.0.0 -  RELEASE  -
|  1> !LC-BLYP RIJCOSX def2-TZVPD def2/J TightSCF
|  2> *xyz 0 1
|  3> C         -0.91495        0.61511        2.50554
|  4> C         -0.05915        1.50352        3.41058
|  5> H          0.36536        2.34431        2.86116
|  6> H         -0.69226        1.92021        4.19898
|  7> C          1.08303        0.74964        4.08571
|  8> O          2.22817        1.26348        4.01983
|  9> F          0.81003       -0.34541        4.63627
| 10> H         -0.30401        0.20228        1.73015
| 11> H         -1.69811        1.19946        2.06954
| 12> H         -1.34124       -0.17772        3.08397
| 13> *
| 14>
| 15> %MaxCore 64000
| 16>
| 17> %pal nprocs 4
| 18> end
| 19>
| 20> %scf
| 21>   MaxIter 150
| 22> end
| 23>
| 24>
| 25>                          ****END OF INPUT****

CARTESIAN COORDINATES (ANGSTROEM)
---------------------------------
  C     -0.914950    0.615110    2.505540
  C     -0.059150    1.503520    3.410580
  H      0.365360    2.344310    2.861160
  H     -0.692260    1.920210    4.198980
  C      1.083030    0.749640    4.085710
  O      2.228170    1.263480    4.019830
  F      0.810030   -0.345410    4.636270
  H     -0.304010    0.202280    1.730150
  H     -1.698110    1.199460    2.069540
  H     -1.341240   -0.177720    3.083970

 Total Charge           Charge          ....    0
 Multiplicity           Mult            ....    1
 Number of Electrons    NEL             ....   40
 Basis Dimension        Dim             ....  236

ORBITAL ENERGIES
----------------

  NO   OCC          E(Eh)            E(eV)
   0   2.0000     -24.527289      -667.4215
   1   2.0000     -18.946331      -515.5559
   2   2.0000     -10.251016      -278.9443
   3   2.0000     -10.101901      -274.8867
   4   2.0000     -10.077095      -274.2117
   5   2.0000      -1.401449       -38.1354
   6   2.0000      -1.126667       -30.6582
   7   2.0000      -0.916570       -24.9411
   8   2.0000      -0.794735       -21.6258
   9   2.0000      -0.751549       -20.4507
  10   2.0000      -0.660910       -17.9843
  11   2.0000      -0.648911       -17.6578
  12   2.0000      -0.604951       -16.4616
  13   2.0000      -0.573136       -15.5958
  14   2.0000      -0.538885       -14.6638
  15   2.0000      -0.506611       -13.7856
  16   2.0000      -0.486610       -13.2413
  17   2.0000      -0.478790       -13.0285
  18   2.0000      -0.452625       -12.3166
  19   2.0000      -0.390822       -10.6348
  20   0.0000       0.040716         1.1079
  21   0.0000       0.055503         1.5103
  22   0.0000       0.070378         1.9151
  23   0.0000       0.076804         2.0899
  24   0.0000       0.089475         2.4347

MULLIKEN ATOMIC CHARGES
-----------------------
   0 C :   -1.285558
   1 C :   -0.429967
   2 H :    0.326609
   3 H :    0.350895
   4 C :    0.480277
   5 O :   -0.450573
   6 F :   -0.171352
   7 H :    0.409326
   8 H :    0.389930
   9 H :    0.380412
Sum of atomic charges:    0.0000000

LOEWDIN ATOMIC CHARGES
----------------------
   0 C :   -0.104327
   1 C :   -0.168631
   2 H :    0.123027
   3 H :    0.126495
   4 C :   -0.521491
   5 O :    0.090107
   6 F :    0.226581
   7 H :    0.080561
   8 H :    0.074626
   9 H :    0.073052

  Mayer bond orders larger than 0.100000
B(  0-C ,  1-C ) :   0.4491 B(  0-C ,  7-H ) :   0.8972 B(  0-C ,  8-H ) :   0.9100
B(  0-C ,  9-H ) :   0.9255 B(  1-C ,  2-H ) :   0.9559 B(  1-C ,  3-H ) :   0.9113
B(  1-C ,  4-C ) :   0.8955 B(  4-C ,  5-O ) :   1.7755 B(  4-C ,  6-F ) :   1.0495

FINAL SINGLE POINT ENERGY      -291.904898911363

DIPOLE MOMENT
-------------
                                X             Y             Z
Electronic contribution:      5.31917      -2.82788       5.09305
Nuclear contribution   :     -6.57765       2.82334      -5.39171
                        -----------------------------------------
Total Dipole Moment    :     -1.25848      -0.00454      -0.29866
                        -----------------------------------------
Magnitude (a.u.)       :      1.29344
Magnitude (Debye)      :      3.28767

Rotational constants in cm-1:     0.294245     0.132994     0.101060
Rotational constants in MHz :  8821.228602  3987.049251  3029.696815

                             ****ORCA TERMINATED NORMALLY****
TOTAL RUN TIME: 0 days 0 hours 0 minutes 34 seconds 787 msec
