                         Program Version 5.0.0 -  RELEASE  -
|  1> !LC-BLYP RIJCOSX def2-TZVPD def2/J TightSCF
|  2> *xyz 0 1
|  3> C          4.60295       -2.44010        2.63478
|  4> C          3.86085       -1.59157        3.62289
|  5> N          2.75650       -2.04616        4.16633
|  6> C          4.25433       -0.36291        3.86046
|  7> H          3.56526        0.31099        4.16898
|  8> H          5.05429       -0.01606        3.33784
|  9> H          2.43970       -2.97389        3.89740
| 10> H          2.06687       -1.41253        4.54981
| 11> C          3.74469       -2.58056        1.36188
| 12> H          5.56156       -1.97135        2.40708
| 13> H          4.81050       -3.42255        3.06310
| 14> H          4.26314       -3.18477        0.64702
| 15> H          3.56325       -1.61180        0.94535
| 16> H          2.81197       -3.04259        1.60980
| 17> *
| 18>
| 19> %MaxCore 64000
| 20>
| 21> %pal nprocs 4
| 22> end
| 23>
| 24> %scf
| 25>   MaxIter 150
| 26> end
| 27>
| 28>
| 29>                          ****END OF INPUT****

CARTESIAN COORDINATES (ANGSTROEM)
---------------------------------
  C      4.602950   -2.440100    2.634780
  C      3.860850   -1.591570    3.622890
  N      2.756500   -2.046160    4.166330
  C      4.254330   -0.362910    3.860460
  H      3.565260    0.310990    4.168980
  H      5.054290   -0.016060    3.337840
  H      2.439700   -2.973890    3.897400
  H      2.066870   -1.412530    4.549810
  C      3.744690   -2.580560    1.361880
  H      5.561560   -1.971350    2.407080
  H      4.810500   -3.422550    3.063100
  H      4.263140   -3.184770    0.647020
  H      3.563250   -1.611800    0.945350
  H      2.811970   -3.042590    1.609800

 Total Charge           Charge          ....    0
 Multiplicity           Mult            ....    1
 Number of Electrons    NEL             ....   40
 Basis Dimension        Dim             ....  266

ORBITAL ENERGIES
----------------

  NO   OCC          E(Eh)            E(eV)
   0   2.0000     -14.170876      -385.6091
   1   2.0000     -10.090264      -274.5700
   2   2.0000     -10.070650      -274.0363
   3   2.0000     -10.056772      -273.6587
   4   2.0000      -9.998646      -272.0770
   5   2.0000      -1.036190       -28.1962
   6   2.0000      -0.889950       -24.2168
   7   2.0000      -0.828624       -22.5480
   8   2.0000      -0.744600       -20.2616
   9   2.0000      -0.675599       -18.3840
  10   2.0000      -0.631074       -17.1724
  11   2.0000      -0.584437       -15.9033
  12   2.0000      -0.544136       -14.8067
  13   2.0000      -0.535165       -14.5626
  14   2.0000      -0.489847       -13.3294
  15   2.0000      -0.482545       -13.1307
  16   2.0000      -0.455861       -12.4046
  17   2.0000      -0.440762       -11.9937
  18   2.0000      -0.425469       -11.5776
  19   2.0000      -0.288953        -7.8628
  20   0.0000       0.050209         1.3662
  21   0.0000       0.075556         2.0560
  22   0.0000       0.080441         2.1889
  23   0.0000       0.084260         2.2928
  24   0.0000       0.108633         2.9561

MULLIKEN ATOMIC CHARGES
-----------------------
   0 C :   -0.836885
   1 C :    0.480046
   2 N :   -0.377683
   3 C :   -0.950511
   4 H :    0.320808
   5 H :    0.287222
   6 H :    0.200479
   7 H :    0.170394
   8 C :   -1.146983
   9 H :    0.370087
  10 H :    0.372056
  11 H :    0.387888
  12 H :    0.354731
  13 H :    0.368351
Sum of atomic charges:   -0.0000000

LOEWDIN ATOMIC CHARGES
----------------------
   0 C :   -0.206031
   1 C :   -0.523145
   2 N :    0.108683
   3 C :    0.008948
   4 H :    0.027588
   5 H :    0.026261
   6 H :    0.107149
   7 H :    0.114784
   8 C :   -0.102132
   9 H :    0.114470
  10 H :    0.115200
  11 H :    0.068270
  12 H :    0.078787
  13 H :    0.061168

  Mayer bond orders larger than 0.100000
B(  0-C ,  1-C ) :   0.7039 B(  0-C ,  3-C ) :   0.1192 B(  0-C ,  8-C ) :   0.5161
B(  0-C ,  9-H ) :   0.9022 B(  0-C , 10-H ) :   0.9807 B(  1-C ,  2-N ) :   0.8411
B(  1-C ,  3-C ) :   1.3550 B(  1-C ,  4-H ) :  -0.1176 B(  1-C ,  8-C ) :  -0.1050
B(  2-N ,  3-C ) :   0.1127 B(  2-N ,  6-H ) :   0.9755 B(  2-N ,  7-H ) :   1.0142
B(  3-C ,  4-H ) :   1.0262 B(  3-C ,  5-H ) :   1.0131 B(  8-C , 11-H ) :   0.9209
B(  8-C , 12-H ) :   0.9903 B(  8-C , 13-H ) :   0.8992

FINAL SINGLE POINT ENERGY      -212.037172087077

DIPOLE MOMENT
-------------
                                X             Y             Z
Electronic contribution:     -0.47908       0.31217       2.80847
Nuclear contribution   :     -0.12319      -0.83296      -3.13501
                        -----------------------------------------
Total Dipole Moment    :     -0.60227      -0.52079      -0.32654
                        -----------------------------------------
Magnitude (a.u.)       :      0.86057
Magnitude (Debye)      :      2.18741

Rotational constants in cm-1:     0.266453     0.134423     0.106086
Rotational constants in MHz :  7988.053142  4029.892766  3180.375228

                             ****ORCA TERMINATED NORMALLY****
TOTAL RUN TIME: 0 days 0 hours 0 minutes 47 seconds 227 msec
