                         Program Version 5.0.0 -  RELEASE  -
|  1> !LC-BLYP RIJCOSX def2-TZVPD def2/J TightSCF xyzfile
|  2>
|  3> *xyzfile 0 1 D1.xyz
|  4>
|  5> %MaxCore 64000
|  6>
|  7> %pal nprocs 4
|  8> end
|  9>
| 10> %scf
| 11>   MaxIter 150
| 12> end
| 13>
| 14>
| 15>                          ****END OF INPUT****

CARTESIAN COORDINATES (ANGSTROEM)
---------------------------------
  C      4.602954   -2.440100    2.634780
  C     -0.914947    0.615112    2.505538
  C     -0.059146    1.503524    3.410578
  H      0.365364    2.344315    2.861161
  H     -0.692261    1.920207    4.198985
  C      1.083027    0.749640    4.085705
  C      3.860851   -1.591565    3.622893
  C      2.756502   -2.046159    4.166333
  N      4.254325   -0.362905    3.860455
  H      3.565256    0.310994    4.168983
  H      5.054292   -0.016059    3.337838
  H      2.439696   -2.973894    3.897395
  H      2.066869   -1.412532    4.549813
  F      2.228167    1.263475    4.019826
  O      0.810034   -0.345411    4.636269
  C      3.744685   -2.580557    1.361882
  C      0.772139    0.636882    0.562129
  C     -0.130740   -0.193985    1.470763
  H     -0.840563   -0.760165    0.856377
  H      0.466691   -0.938942    2.006959
  H     -1.647961    1.245963    1.991076
  H     -1.478180   -0.081046    3.130424
  C      3.203721   -1.256004    0.826211
  H      2.898939   -3.239289    1.583074
  H      4.334962   -3.095523    0.600188
  C      2.107815   -1.442385   -0.216865
  H      2.786775   -0.672760    1.650711
  H      4.021008   -0.652993    0.414046
  C      1.390662   -0.145912   -0.602422
  H      1.372179   -2.152184    0.176151
  H      2.523302   -1.906787   -1.117115
  H      1.561361    1.100094    1.161831
  H      0.195516    1.468325    0.142758
  H      0.602893   -0.398214   -1.319716
  H      2.087247    0.508272   -1.137335
  H      5.561557   -1.971347    2.407084
  H      4.810498   -3.422552    3.063099

 Total Charge           Charge          ....    0
 Multiplicity           Mult            ....    1
 Number of Electrons    NEL             ....  118
 Basis Dimension        Dim             ....  759

ORBITAL ENERGIES
----------------

  NO   OCC          E(Eh)            E(eV)
   0   2.0000     -24.550947      -668.0652
   1   2.0000     -18.959115      -515.9038
   2   2.0000     -14.147163      -384.9639
   3   2.0000     -10.266192      -279.3573
   4   2.0000     -10.107087      -275.0278
   5   2.0000     -10.084600      -274.4159
   6   2.0000     -10.069097      -273.9941
   7   2.0000     -10.068893      -273.9885
   8   2.0000     -10.067775      -273.9581
   9   2.0000     -10.064132      -273.8590
  10   2.0000     -10.057753      -273.6854
  11   2.0000     -10.056112      -273.6407
  12   2.0000     -10.056022      -273.6383
  13   2.0000     -10.053862      -273.5795
  14   2.0000      -9.965174      -271.1662
  15   2.0000      -1.428167       -38.8624
  16   2.0000      -1.147459       -31.2239
  17   2.0000      -1.018808       -27.7232
  18   2.0000      -0.943130       -25.6639
  19   2.0000      -0.917323       -24.9616
  20   2.0000      -0.891899       -24.2698
  21   2.0000      -0.854015       -23.2389
  22   2.0000      -0.829153       -22.5624
  23   2.0000      -0.798572       -21.7302
  24   2.0000      -0.785606       -21.3774
  25   2.0000      -0.757424       -20.6106
  26   2.0000      -0.722270       -19.6540
  27   2.0000      -0.700675       -19.0663
  28   2.0000      -0.684796       -18.6343
  29   2.0000      -0.674397       -18.3513
  30   2.0000      -0.661188       -17.9918
  31   2.0000      -0.645304       -17.5596
  32   2.0000      -0.632400       -17.2085
  33   2.0000      -0.604446       -16.4478
  34   2.0000      -0.591755       -16.1025
  35   2.0000      -0.587107       -15.9760
  36   2.0000      -0.577208       -15.7066
  37   2.0000      -0.558061       -15.1856
  38   2.0000      -0.549444       -14.9511
  39   2.0000      -0.533212       -14.5094
  40   2.0000      -0.529613       -14.4115
  41   2.0000      -0.512021       -13.9328
  42   2.0000      -0.506542       -13.7837
  43   2.0000      -0.494127       -13.4459
  44   2.0000      -0.488751       -13.2996
  45   2.0000      -0.473608       -12.8875
  46   2.0000      -0.470337       -12.7985
  47   2.0000      -0.461653       -12.5622
  48   2.0000      -0.453134       -12.3304
  49   2.0000      -0.443337       -12.0638
  50   2.0000      -0.442039       -12.0285
  51   2.0000      -0.433502       -11.7962
  52   2.0000      -0.422826       -11.5057
  53   2.0000      -0.417705       -11.3663
  54   2.0000      -0.408738       -11.1223
  55   2.0000      -0.406087       -11.0502
  56   2.0000      -0.400745       -10.9048
  57   2.0000      -0.373417       -10.1612
  58   2.0000      -0.265651        -7.2287
  59   0.0000       0.030488         0.8296
  60   0.0000       0.043573         1.1857
  61   0.0000       0.056518         1.5379
  62   0.0000       0.059191         1.6107
  63   0.0000       0.062201         1.6926

MULLIKEN ATOMIC CHARGES
-----------------------
   0 C :   -1.126181
   1 C :   -0.928703
   2 C :   -0.736796
   3 H :    0.408872
   4 H :    0.450559
   5 C :    0.593312
   6 C :   -0.138254
   7 C :   -1.180515
   8 N :   -0.323372
   9 H :    0.364725
  10 H :    0.189779
  11 H :    0.345702
  12 H :    0.765926
  13 F :   -0.304907
  14 O :   -0.500371
  15 C :   -0.835093
  16 C :   -0.668975
  17 C :   -0.698960
  18 H :    0.437512
  19 H :    0.385644
  20 H :    0.446464
  21 H :    0.401439
  22 C :   -0.048299
  23 H :    0.399186
  24 H :    0.460269
  25 C :   -0.962474
  26 H :    0.200137
  27 H :    0.286235
  28 C :   -0.973291
  29 H :    0.382082
  30 H :    0.457968
  31 H :    0.389785
  32 H :    0.390666
  33 H :    0.429992
  34 H :    0.413071
  35 H :    0.445150
  36 H :    0.381714
Sum of atomic charges:   -0.0000000

LOEWDIN ATOMIC CHARGES
----------------------
   0 C :   -0.152576
   1 C :   -0.203584
   2 C :   -0.111276
   3 H :    0.119442
   4 H :    0.135245
   5 C :   -0.463902
   6 C :   -0.509193
   7 C :    0.022182
   8 N :    0.122800
   9 H :    0.065011
  10 H :    0.110145
  11 H :    0.044316
  12 H :   -0.022970
  13 F :    0.209568
  14 O :    0.096256
  15 C :   -0.206501
  16 C :   -0.228006
  17 C :   -0.218161
  18 H :    0.129349
  19 H :    0.112119
  20 H :    0.122840
  21 H :    0.121286
  22 C :   -0.226369
  23 H :    0.114635
  24 H :    0.116824
  25 C :   -0.229101
  26 H :    0.089028
  27 H :    0.131067
  28 C :   -0.220365
  29 H :    0.114066
  30 H :    0.120494
  31 H :    0.106041
  32 H :    0.122267
  33 H :    0.115298
  34 H :    0.116102
  35 H :    0.112964
  36 H :    0.122659

  Mayer bond orders larger than 0.100000
B(  0-C ,  6-C ) :   0.4681 B(  0-C , 15-C ) :   0.6096 B(  0-C , 35-H ) :   0.9575
B(  0-C , 36-H ) :   1.0432 B(  1-C ,  2-C ) :   0.6337 B(  1-C , 17-C ) :   0.6381
B(  1-C , 20-H ) :   0.8900 B(  1-C , 21-H ) :   0.9367 B(  2-C ,  3-H ) :   0.9781
B(  2-C ,  4-H ) :   0.8370 B(  2-C ,  5-C ) :   0.7533 B(  2-C , 17-C ) :  -0.1130
B(  5-C , 13-F ) :   0.8272 B(  5-C , 14-O ) :   1.6978 B(  6-C ,  7-C ) :   1.6851
B(  6-C ,  8-N ) :   0.9381 B(  6-C , 12-H ) :  -0.1533 B(  6-C , 26-H ) :  -0.1472
B(  6-C , 35-H ) :  -0.1321 B(  7-C , 11-H ) :   1.1474 B(  7-C , 12-H ) :   0.5714
B(  7-C , 22-C ) :   0.1053 B(  7-C , 26-H ) :  -0.1368 B(  8-N ,  9-H ) :   0.7561
B(  8-N , 10-H ) :   0.9513 B( 12-H , 14-O ) :  -0.2483 B( 13-F , 14-O ) :   0.1074
B( 15-C , 22-C ) :   0.4031 B( 15-C , 23-H ) :   0.9262 B( 15-C , 24-H ) :   0.8718
B( 15-C , 25-C ) :   0.2085 B( 16-C , 17-C ) :   0.1142 B( 16-C , 19-H ) :  -0.1800
B( 16-C , 22-C ) :   0.1108 B( 16-C , 25-C ) :  -0.1291 B( 16-C , 28-C ) :   0.6734
B( 16-C , 31-H ) :   1.0425 B( 16-C , 32-H ) :   0.9067 B( 17-C , 18-H ) :   0.8498
B( 17-C , 19-H ) :   1.1277 B( 17-C , 31-H ) :  -0.1483 B( 22-C , 25-C ) :   0.2762
B( 22-C , 26-H ) :   1.1719 B( 22-C , 27-H ) :   0.9696 B( 25-C , 28-C ) :   0.5996
B( 25-C , 29-H ) :   0.9919 B( 25-C , 30-H ) :   0.8720 B( 26-H , 27-H ) :   0.1675
B( 28-C , 33-H ) :   0.9413 B( 28-C , 34-H ) :   0.9349

FINAL SINGLE POINT ENERGY      -698.784136132195

DIPOLE MOMENT
-------------
                                X             Y             Z
Electronic contribution:      1.16581       7.37509      14.93533
Nuclear contribution   :     -1.66567      -5.90236     -15.95042
                        -----------------------------------------
Total Dipole Moment    :     -0.49986       1.47273      -1.01510
                        -----------------------------------------
Magnitude (a.u.)       :      1.85720
Magnitude (Debye)      :      4.72064

Rotational constants in cm-1:     0.021600     0.017292     0.011381
Rotational constants in MHz :   647.565282   518.410024   341.193038

                             ****ORCA TERMINATED NORMALLY****
TOTAL RUN TIME: 0 days 0 hours 10 minutes 32 seconds 934 msec
