                         Program Version 5.0.0 -  RELEASE  -
|  1> !LC-BLYP RIJCOSX def2-TZVPD def2/J TightSCF xyzfile
|  2>
|  3> *xyzfile 0 1 D2.xyz
|  4>
|  5> %MaxCore 64000
|  6>
|  7> %pal nprocs 4
|  8> end
|  9>
| 10> %scf
| 11>   MaxIter 150
| 12> end
| 13>
| 14>
| 15>                          ****END OF INPUT****

CARTESIAN COORDINATES (ANGSTROEM)
---------------------------------
  C      4.602954   -2.440100    2.634780
  C     -0.914947    0.615112    2.505538
  C     -0.059146    1.503524    3.410578
  H      0.365364    2.344315    2.861161
  H     -0.692261    1.920207    4.198985
  C      1.083027    0.749640    4.085705
  C      3.860851   -1.591565    3.622893
  N      2.756502   -2.046159    4.166333
  C      4.254325   -0.362905    3.860455
  H      3.565256    0.310994    4.168983
  H      5.054292   -0.016059    3.337838
  H      2.439696   -2.973894    3.897395
  H      2.066869   -1.412532    4.549813
  F      2.228167    1.263475    4.019826
  O      0.810034   -0.345411    4.636269
  C      3.744685   -2.580557    1.361882
  C      0.772139    0.636882    0.562129
  C     -0.130740   -0.193985    1.470763
  H     -0.840563   -0.760165    0.856377
  H      0.466691   -0.938942    2.006959
  H     -1.647961    1.245963    1.991076
  H     -1.478180   -0.081046    3.130424
  C      3.203721   -1.256004    0.826211
  H      2.898939   -3.239289    1.583074
  H      4.334962   -3.095523    0.600188
  C      2.107815   -1.442385   -0.216865
  H      2.786775   -0.672760    1.650711
  H      4.021008   -0.652993    0.414046
  C      1.390662   -0.145912   -0.602422
  H      1.372179   -2.152184    0.176151
  H      2.523302   -1.906787   -1.117115
  H      1.561361    1.100094    1.161831
  H      0.195516    1.468325    0.142758
  H      0.602893   -0.398214   -1.319716
  H      2.087247    0.508272   -1.137335
  H      5.561557   -1.971347    2.407084
  H      4.810498   -3.422552    3.063099

 Total Charge           Charge          ....    0
 Multiplicity           Mult            ....    1
 Number of Electrons    NEL             ....  118
 Basis Dimension        Dim             ....  759

ORBITAL ENERGIES
----------------

  NO   OCC          E(Eh)            E(eV)
   0   2.0000     -24.541332      -667.8036
   1   2.0000     -18.970311      -516.2084
   2   2.0000     -14.135538      -384.6476
   3   2.0000     -10.273549      -279.5575
   4   2.0000     -10.109937      -275.1054
   5   2.0000     -10.088098      -274.5111
   6   2.0000     -10.072639      -274.0904
   7   2.0000     -10.070558      -274.0338
   8   2.0000     -10.069961      -274.0176
   9   2.0000     -10.064622      -273.8723
  10   2.0000     -10.059551      -273.7343
  11   2.0000     -10.058264      -273.6993
  12   2.0000     -10.055354      -273.6201
  13   2.0000     -10.052246      -273.5355
  14   2.0000      -9.973779      -271.4003
  15   2.0000      -1.420344       -38.6495
  16   2.0000      -1.157698       -31.5026
  17   2.0000      -1.011629       -27.5278
  18   2.0000      -0.945844       -25.7377
  19   2.0000      -0.917969       -24.9792
  20   2.0000      -0.891063       -24.2471
  21   2.0000      -0.855586       -23.2817
  22   2.0000      -0.824743       -22.4424
  23   2.0000      -0.811331       -22.0774
  24   2.0000      -0.777764       -21.1640
  25   2.0000      -0.758800       -20.6480
  26   2.0000      -0.721614       -19.6361
  27   2.0000      -0.695794       -18.9335
  28   2.0000      -0.679691       -18.4953
  29   2.0000      -0.671482       -18.2719
  30   2.0000      -0.663094       -18.0437
  31   2.0000      -0.654887       -17.8204
  32   2.0000      -0.632591       -17.2137
  33   2.0000      -0.605799       -16.4846
  34   2.0000      -0.595681       -16.2093
  35   2.0000      -0.586731       -15.9658
  36   2.0000      -0.569188       -15.4884
  37   2.0000      -0.560206       -15.2440
  38   2.0000      -0.548550       -14.9268
  39   2.0000      -0.539454       -14.6793
  40   2.0000      -0.531089       -14.4517
  41   2.0000      -0.513994       -13.9865
  42   2.0000      -0.509108       -13.8535
  43   2.0000      -0.498866       -13.5748
  44   2.0000      -0.483029       -13.1439
  45   2.0000      -0.475667       -12.9436
  46   2.0000      -0.471364       -12.8265
  47   2.0000      -0.467430       -12.7194
  48   2.0000      -0.452725       -12.3193
  49   2.0000      -0.447683       -12.1821
  50   2.0000      -0.442307       -12.0358
  51   2.0000      -0.429351       -11.6832
  52   2.0000      -0.422574       -11.4988
  53   2.0000      -0.417970       -11.3735
  54   2.0000      -0.412125       -11.2145
  55   2.0000      -0.409115       -11.1326
  56   2.0000      -0.401155       -10.9160
  57   2.0000      -0.390979       -10.6391
  58   2.0000      -0.266905        -7.2628
  59   0.0000       0.026007         0.7077
  60   0.0000       0.045436         1.2364
  61   0.0000       0.052900         1.4395
  62   0.0000       0.058215         1.5841
  63   0.0000       0.063001         1.7144

MULLIKEN ATOMIC CHARGES
-----------------------
   0 C :   -1.033033
   1 C :   -0.932252
   2 C :   -0.703256
   3 H :    0.410438
   4 H :    0.441214
   5 C :    0.596030
   6 C :   -0.098078
   7 N :   -0.277688
   8 C :   -1.032565
   9 H :    0.565361
  10 H :    0.306577
  11 H :    0.185771
  12 H :    0.337460
  13 F :   -0.273857
  14 O :   -0.586162
  15 C :   -0.902581
  16 C :   -0.681311
  17 C :   -0.691816
  18 H :    0.442264
  19 H :    0.370340
  20 H :    0.454768
  21 H :    0.394675
  22 C :    0.010403
  23 H :    0.405634
  24 H :    0.457727
  25 C :   -0.954047
  26 H :    0.173628
  27 H :    0.308898
  28 C :   -0.974486
  29 H :    0.388428
  30 H :    0.437971
  31 H :    0.406482
  32 H :    0.396328
  33 H :    0.430580
  34 H :    0.408397
  35 H :    0.392773
  36 H :    0.418986
Sum of atomic charges:   -0.0000000

LOEWDIN ATOMIC CHARGES
----------------------
   0 C :   -0.153439
   1 C :   -0.204373
   2 C :   -0.108337
   3 H :    0.121693
   4 H :    0.136267
   5 C :   -0.458039
   6 C :   -0.511732
   7 N :    0.137207
   8 C :    0.011917
   9 H :   -0.002505
  10 H :    0.036623
  11 H :    0.113256
  12 H :    0.037413
  13 F :    0.206180
  14 O :    0.097319
  15 C :   -0.206470
  16 C :   -0.226649
  17 C :   -0.220101
  18 H :    0.129149
  19 H :    0.109472
  20 H :    0.123454
  21 H :    0.120478
  22 C :   -0.222957
  23 H :    0.109059
  24 H :    0.118318
  25 C :   -0.231477
  26 H :    0.089589
  27 H :    0.135764
  28 C :   -0.219673
  29 H :    0.111928
  30 H :    0.120034
  31 H :    0.108167
  32 H :    0.122662
  33 H :    0.115094
  34 H :    0.116987
  35 H :    0.119061
  36 H :    0.118660

  Mayer bond orders larger than 0.100000
B(  0-C ,  6-C ) :   0.5257 B(  0-C ,  8-C ) :   0.1062 B(  0-C , 15-C ) :   0.5880
B(  0-C , 35-H ) :   0.9016 B(  0-C , 36-H ) :   1.0819 B(  1-C ,  2-C ) :   0.6266
B(  1-C , 17-C ) :   0.6379 B(  1-C , 20-H ) :   0.8778 B(  1-C , 21-H ) :   0.9458
B(  2-C ,  3-H ) :   0.9678 B(  2-C ,  4-H ) :   0.8443 B(  2-C ,  5-C ) :   0.7620
B(  2-C , 17-C ) :  -0.1193 B(  5-C , 13-F ) :   0.8913 B(  5-C , 14-O ) :   1.5682
B(  6-C ,  7-N ) :   0.7915 B(  6-C ,  8-C ) :   1.8490 B(  6-C ,  9-H ) :  -0.1334
B(  6-C , 10-H ) :  -0.1147 B(  6-C , 26-H ) :  -0.1043 B(  7-N , 11-H ) :   0.9661
B(  7-N , 12-H ) :   0.7515 B(  8-C ,  9-H ) :   0.7377 B(  8-C , 10-H ) :   1.1781
B(  8-C , 26-H ) :  -0.2373 B(  9-H , 13-F ) :  -0.1082 B( 13-F , 14-O ) :   0.1116
B( 15-C , 22-C ) :   0.3593 B( 15-C , 23-H ) :   0.9213 B( 15-C , 24-H ) :   0.8759
B( 15-C , 25-C ) :   0.1894 B( 16-C , 17-C ) :   0.1091 B( 16-C , 19-H ) :  -0.1726
B( 16-C , 22-C ) :   0.1133 B( 16-C , 25-C ) :  -0.1240 B( 16-C , 28-C ) :   0.6803
B( 16-C , 31-H ) :   1.0277 B( 16-C , 32-H ) :   0.9012 B( 17-C , 18-H ) :   0.8502
B( 17-C , 19-H ) :   1.1278 B( 17-C , 31-H ) :  -0.1486 B( 22-C , 25-C ) :   0.3049
B( 22-C , 26-H ) :   1.2025 B( 22-C , 27-H ) :   0.8917 B( 25-C , 28-C ) :   0.6039
B( 25-C , 29-H ) :   0.9869 B( 25-C , 30-H ) :   0.8993 B( 26-H , 27-H ) :   0.2187
B( 28-C , 33-H ) :   0.9420 B( 28-C , 34-H ) :   0.9387

FINAL SINGLE POINT ENERGY      -698.794309934307

DIPOLE MOMENT
-------------
                                X             Y             Z
Electronic contribution:      0.06603       6.25678      15.10317
Nuclear contribution   :     -1.39991      -5.60370     -16.00470
                        -----------------------------------------
Total Dipole Moment    :     -1.33388       0.65307      -0.90152
                        -----------------------------------------
Magnitude (a.u.)       :      1.73738
Magnitude (Debye)      :      4.41606

Rotational constants in cm-1:     0.021622     0.017313     0.011402
Rotational constants in MHz :   648.226014   519.043632   341.814105

                             ****ORCA TERMINATED NORMALLY****
TOTAL RUN TIME: 0 days 0 hours 10 minutes 26 seconds 790 msec
