                         Program Version 5.0.0 -  RELEASE  -
|  1> !LC-BLYP RIJCOSX def2-TZVPD def2/J TightSCF xyzfile
|  2>
|  3> *xyzfile 0 1 D3.xyz
|  4>
|  5> %MaxCore 64000
|  6>
|  7> %pal nprocs 4
|  8> end
|  9>
| 10> %scf
| 11>   MaxIter 150
| 12> end
| 13>
| 14>
| 15>                          ****END OF INPUT****

CARTESIAN COORDINATES (ANGSTROEM)
---------------------------------
  C      4.602954   -2.440100    2.634780
  C     -0.914947    0.615112    2.505538
  C     -0.059146    1.503524    3.410578
  H      0.365364    2.344315    2.861161
  H     -0.692261    1.920207    4.198985
  C      1.083027    0.749640    4.085705
  C      3.860851   -1.591565    3.622893
  C      2.756502   -2.046159    4.166333
  N      4.254325   -0.362905    3.860455
  H      3.565256    0.310994    4.168983
  H      5.054292   -0.016059    3.337838
  H      2.439696   -2.973894    3.897395
  H      2.066869   -1.412532    4.549813
  O      2.228167    1.263475    4.019826
  F      0.810034   -0.345411    4.636269
  C      3.744685   -2.580557    1.361882
  C      0.772139    0.636882    0.562129
  C     -0.130740   -0.193985    1.470763
  H     -0.840563   -0.760165    0.856377
  H      0.466691   -0.938942    2.006959
  H     -1.647961    1.245963    1.991076
  H     -1.478180   -0.081046    3.130424
  C      3.203721   -1.256004    0.826211
  H      2.898939   -3.239289    1.583074
  H      4.334962   -3.095523    0.600188
  C      2.107815   -1.442385   -0.216865
  H      2.786775   -0.672760    1.650711
  H      4.021008   -0.652993    0.414046
  C      1.390662   -0.145912   -0.602422
  H      1.372179   -2.152184    0.176151
  H      2.523302   -1.906787   -1.117115
  H      1.561361    1.100094    1.161831
  H      0.195516    1.468325    0.142758
  H      0.602893   -0.398214   -1.319716
  H      2.087247    0.508272   -1.137335
  H      5.561557   -1.971347    2.407084
  H      4.810498   -3.422552    3.063099

 Total Charge           Charge          ....    0
 Multiplicity           Mult            ....    1
 Number of Electrons    NEL             ....  118
 Basis Dimension        Dim             ....  759

ORBITAL ENERGIES
----------------

  NO   OCC          E(Eh)            E(eV)
   0   2.0000     -24.540763      -667.7881
   1   2.0000     -18.968965      -516.1718
   2   2.0000     -14.133199      -384.5839
   3   2.0000     -10.272236      -279.5217
   4   2.0000     -10.108206      -275.0583
   5   2.0000     -10.089664      -274.5537
   6   2.0000     -10.073616      -274.1170
   7   2.0000     -10.070413      -274.0299
   8   2.0000     -10.067194      -273.9423
   9   2.0000     -10.063012      -273.8285
  10   2.0000     -10.056982      -273.6644
  11   2.0000     -10.055794      -273.6321
  12   2.0000     -10.055505      -273.6242
  13   2.0000     -10.051428      -273.5133
  14   2.0000      -9.973225      -271.3852
  15   2.0000      -1.420210       -38.6459
  16   2.0000      -1.154933       -31.4273
  17   2.0000      -1.010141       -27.4873
  18   2.0000      -0.946970       -25.7684
  19   2.0000      -0.917542       -24.9676
  20   2.0000      -0.890557       -24.2333
  21   2.0000      -0.854623       -23.2555
  22   2.0000      -0.821819       -22.3628
  23   2.0000      -0.803641       -21.8682
  24   2.0000      -0.777591       -21.1593
  25   2.0000      -0.759057       -20.6550
  26   2.0000      -0.724174       -19.7058
  27   2.0000      -0.699730       -19.0406
  28   2.0000      -0.679994       -18.5036
  29   2.0000      -0.674825       -18.3629
  30   2.0000      -0.662214       -18.0198
  31   2.0000      -0.649731       -17.6801
  32   2.0000      -0.626365       -17.0443
  33   2.0000      -0.600134       -16.3305
  34   2.0000      -0.593630       -16.1535
  35   2.0000      -0.586805       -15.9678
  36   2.0000      -0.573233       -15.5985
  37   2.0000      -0.554752       -15.0956
  38   2.0000      -0.549595       -14.9553
  39   2.0000      -0.535566       -14.5735
  40   2.0000      -0.529654       -14.4126
  41   2.0000      -0.512941       -13.9578
  42   2.0000      -0.511549       -13.9200
  43   2.0000      -0.494668       -13.4606
  44   2.0000      -0.488482       -13.2923
  45   2.0000      -0.477803       -13.0017
  46   2.0000      -0.472649       -12.8614
  47   2.0000      -0.465388       -12.6639
  48   2.0000      -0.452285       -12.3073
  49   2.0000      -0.442828       -12.0500
  50   2.0000      -0.438946       -11.9443
  51   2.0000      -0.433842       -11.8055
  52   2.0000      -0.422459       -11.4957
  53   2.0000      -0.416342       -11.3292
  54   2.0000      -0.408565       -11.1176
  55   2.0000      -0.406280       -11.0554
  56   2.0000      -0.399203       -10.8629
  57   2.0000      -0.390710       -10.6318
  58   2.0000      -0.265438        -7.2229
  59   0.0000       0.029453         0.8015
  60   0.0000       0.045851         1.2477
  61   0.0000       0.055474         1.5095
  62   0.0000       0.058933         1.6037
  63   0.0000       0.063233         1.7207

MULLIKEN ATOMIC CHARGES
-----------------------
   0 C :   -1.113111
   1 C :   -0.990556
   2 C :   -0.658750
   3 H :    0.381216
   4 H :    0.459088
   5 C :    0.582755
   6 C :   -0.109346
   7 C :   -1.127735
   8 N :   -0.314798
   9 H :    0.357830
  10 H :    0.183888
  11 H :    0.354952
  12 H :    0.667831
  13 O :   -0.575254
  14 F :   -0.272898
  15 C :   -0.835848
  16 C :   -0.678980
  17 C :   -0.611207
  18 H :    0.433493
  19 H :    0.338532
  20 H :    0.444525
  21 H :    0.402899
  22 C :   -0.025833
  23 H :    0.394824
  24 H :    0.454795
  25 C :   -0.956938
  26 H :    0.200748
  27 H :    0.281515
  28 C :   -0.966149
  29 H :    0.376496
  30 H :    0.457106
  31 H :    0.396867
  32 H :    0.398417
  33 H :    0.427323
  34 H :    0.412633
  35 H :    0.445538
  36 H :    0.384130
Sum of atomic charges:    0.0000000

LOEWDIN ATOMIC CHARGES
----------------------
   0 C :   -0.150985
   1 C :   -0.208311
   2 C :   -0.105420
   3 H :    0.127672
   4 H :    0.134468
   5 C :   -0.461223
   6 C :   -0.507110
   7 C :    0.016094
   8 N :    0.125756
   9 H :    0.037780
  10 H :    0.110849
  11 H :    0.039837
  12 H :   -0.003901
  13 O :    0.094328
  14 F :    0.208909
  15 C :   -0.207084
  16 C :   -0.225042
  17 C :   -0.219407
  18 H :    0.128944
  19 H :    0.110976
  20 H :    0.123133
  21 H :    0.118623
  22 C :   -0.224970
  23 H :    0.113457
  24 H :    0.116807
  25 C :   -0.229837
  26 H :    0.090317
  27 H :    0.132184
  28 C :   -0.220055
  29 H :    0.112934
  30 H :    0.120265
  31 H :    0.109169
  32 H :    0.122775
  33 H :    0.114639
  34 H :    0.116780
  35 H :    0.114104
  36 H :    0.122548

  Mayer bond orders larger than 0.100000
B(  0-C ,  6-C ) :   0.4912 B(  0-C , 15-C ) :   0.6085 B(  0-C , 35-H ) :   0.9472
B(  0-C , 36-H ) :   1.0462 B(  1-C ,  2-C ) :   0.5808 B(  1-C , 17-C ) :   0.5603
B(  1-C , 20-H ) :   0.8885 B(  1-C , 21-H ) :   0.9685 B(  2-C ,  3-H ) :   0.9935
B(  2-C ,  4-H ) :   0.8493 B(  2-C ,  5-C ) :   0.7613 B(  2-C , 17-C ) :  -0.1713
B(  5-C , 13-O ) :   1.6159 B(  5-C , 14-F ) :   0.8725 B(  6-C ,  7-C ) :   1.6918
B(  6-C ,  8-N ) :   0.9318 B(  6-C , 12-H ) :  -0.1116 B(  6-C , 13-O ) :   0.1010
B(  6-C , 26-H ) :  -0.1305 B(  6-C , 35-H ) :  -0.1250 B(  7-C , 11-H ) :   1.1210
B(  7-C , 12-H ) :   0.6047 B(  7-C , 22-C ) :   0.1019 B(  7-C , 26-H ) :  -0.1319
B(  8-N ,  9-H ) :   0.7754 B(  8-N , 10-H ) :   0.9476 B( 15-C , 22-C ) :   0.4034
B( 15-C , 23-H ) :   0.9296 B( 15-C , 24-H ) :   0.8764 B( 15-C , 25-C ) :   0.2072
B( 16-C , 17-C ) :   0.1635 B( 16-C , 19-H ) :  -0.1611 B( 16-C , 22-C ) :   0.1024
B( 16-C , 25-C ) :  -0.1269 B( 16-C , 28-C ) :   0.6541 B( 16-C , 31-H ) :   1.0386
B( 16-C , 32-H ) :   0.8924 B( 17-C , 18-H ) :   0.8749 B( 17-C , 19-H ) :   1.1143
B( 17-C , 31-H ) :  -0.1352 B( 22-C , 25-C ) :   0.2636 B( 22-C , 26-H ) :   1.1575
B( 22-C , 27-H ) :   0.9661 B( 25-C , 28-C ) :   0.5982 B( 25-C , 29-H ) :   0.9991
B( 25-C , 30-H ) :   0.8724 B( 26-H , 27-H ) :   0.1813 B( 28-C , 33-H ) :   0.9471
B( 28-C , 34-H ) :   0.9326

FINAL SINGLE POINT ENERGY      -698.795354779447

DIPOLE MOMENT
-------------
                                X             Y             Z
Electronic contribution:     -1.24416       4.75095      15.93533
Nuclear contribution   :      0.05905      -3.94566     -16.70013
                        -----------------------------------------
Total Dipole Moment    :     -1.18511       0.80529      -0.76481
                        -----------------------------------------
Magnitude (a.u.)       :      1.62416
Magnitude (Debye)      :      4.12830

Rotational constants in cm-1:     0.021602     0.017295     0.011353
Rotational constants in MHz :   647.614981   518.478934   340.359556

                             ****ORCA TERMINATED NORMALLY****
TOTAL RUN TIME: 0 days 0 hours 10 minutes 22 seconds 137 msec
