                         Program Version 5.0.0 -  RELEASE  -
|  1> !LC-BLYP RIJCOSX def2-TZVPD def2/J TightSCF xyzfile
|  2>
|  3> *xyzfile 0 1 D4.xyz
|  4>
|  5> %MaxCore 64000
|  6>
|  7> %pal nprocs 4
|  8> end
|  9>
| 10> %scf
| 11>   MaxIter 150
| 12> end
| 13>
| 14>
| 15>                          ****END OF INPUT****

CARTESIAN COORDINATES (ANGSTROEM)
---------------------------------
  C      4.602954   -2.440100    2.634780
  C     -0.914947    0.615112    2.505538
  C     -0.059146    1.503524    3.410578
  H      0.365364    2.344315    2.861161
  H     -0.692261    1.920207    4.198985
  C      1.083027    0.749640    4.085705
  C      3.860851   -1.591565    3.622893
  N      2.756502   -2.046159    4.166333
  C      4.254325   -0.362905    3.860455
  H      3.565256    0.310994    4.168983
  H      5.054292   -0.016059    3.337838
  H      2.439696   -2.973894    3.897395
  H      2.066869   -1.412532    4.549813
  O      2.228167    1.263475    4.019826
  F      0.810034   -0.345411    4.636269
  C      3.744685   -2.580557    1.361882
  C      0.772139    0.636882    0.562129
  C     -0.130740   -0.193985    1.470763
  H     -0.840563   -0.760165    0.856377
  H      0.466691   -0.938942    2.006959
  H     -1.647961    1.245963    1.991076
  H     -1.478180   -0.081046    3.130424
  C      3.203721   -1.256004    0.826211
  H      2.898939   -3.239289    1.583074
  H      4.334962   -3.095523    0.600188
  C      2.107815   -1.442385   -0.216865
  H      2.786775   -0.672760    1.650711
  H      4.021008   -0.652993    0.414046
  C      1.390662   -0.145912   -0.602422
  H      1.372179   -2.152184    0.176151
  H      2.523302   -1.906787   -1.117115
  H      1.561361    1.100094    1.161831
  H      0.195516    1.468325    0.142758
  H      0.602893   -0.398214   -1.319716
  H      2.087247    0.508272   -1.137335
  H      5.561557   -1.971347    2.407084
  H      4.810498   -3.422552    3.063099

 Total Charge           Charge          ....    0
 Multiplicity           Mult            ....    1
 Number of Electrons    NEL             ....  118
 Basis Dimension        Dim             ....  759

ORBITAL ENERGIES
----------------

  NO   OCC          E(Eh)            E(eV)
   0   2.0000     -24.552884      -668.1179
   1   2.0000     -18.960254      -515.9347
   2   2.0000     -14.148361      -384.9965
   3   2.0000     -10.267787      -279.4007
   4   2.0000     -10.107691      -275.0443
   5   2.0000     -10.090767      -274.5837
   6   2.0000     -10.076325      -274.1907
   7   2.0000     -10.067242      -273.9436
   8   2.0000     -10.065731      -273.9025
   9   2.0000     -10.062934      -273.8264
  10   2.0000     -10.058072      -273.6941
  11   2.0000     -10.057099      -273.6676
  12   2.0000     -10.053665      -273.5741
  13   2.0000     -10.049611      -273.4638
  14   2.0000      -9.963441      -271.1190
  15   2.0000      -1.430842       -38.9352
  16   2.0000      -1.147569       -31.2269
  17   2.0000      -1.018161       -27.7056
  18   2.0000      -0.947754       -25.7897
  19   2.0000      -0.917420       -24.9643
  20   2.0000      -0.891054       -24.2468
  21   2.0000      -0.853306       -23.2196
  22   2.0000      -0.826895       -22.5009
  23   2.0000      -0.801550       -21.8113
  24   2.0000      -0.788342       -21.4519
  25   2.0000      -0.757283       -20.6067
  26   2.0000      -0.724574       -19.7167
  27   2.0000      -0.697253       -18.9732
  28   2.0000      -0.690210       -18.7816
  29   2.0000      -0.680880       -18.5277
  30   2.0000      -0.662344       -18.0233
  31   2.0000      -0.648903       -17.6576
  32   2.0000      -0.626230       -17.0406
  33   2.0000      -0.607124       -16.5207
  34   2.0000      -0.595822       -16.2132
  35   2.0000      -0.591101       -16.0847
  36   2.0000      -0.567069       -15.4307
  37   2.0000      -0.553017       -15.0483
  38   2.0000      -0.546308       -14.8658
  39   2.0000      -0.541251       -14.7282
  40   2.0000      -0.526382       -14.3236
  41   2.0000      -0.517810       -14.0903
  42   2.0000      -0.511789       -13.9265
  43   2.0000      -0.493511       -13.4291
  44   2.0000      -0.484724       -13.1900
  45   2.0000      -0.477159       -12.9842
  46   2.0000      -0.474121       -12.9015
  47   2.0000      -0.461894       -12.5688
  48   2.0000      -0.456366       -12.4183
  49   2.0000      -0.447673       -12.1818
  50   2.0000      -0.444353       -12.0915
  51   2.0000      -0.429224       -11.6798
  52   2.0000      -0.422582       -11.4990
  53   2.0000      -0.419576       -11.4172
  54   2.0000      -0.408743       -11.1224
  55   2.0000      -0.405392       -11.0313
  56   2.0000      -0.399623       -10.8743
  57   2.0000      -0.368028       -10.0146
  58   2.0000      -0.265410        -7.2222
  59   0.0000       0.030529         0.8307
  60   0.0000       0.043432         1.1818
  61   0.0000       0.052680         1.4335
  62   0.0000       0.057995         1.5781
  63   0.0000       0.062614         1.7038

MULLIKEN ATOMIC CHARGES
-----------------------
   0 C :   -1.038326
   1 C :   -0.997604
   2 C :   -0.638279
   3 H :    0.375881
   4 H :    0.454184
   5 C :    0.536275
   6 C :   -0.134088
   7 N :   -0.294113
   8 C :   -1.055723
   9 H :    0.646190
  10 H :    0.282605
  11 H :    0.192164
  12 H :    0.366277
  13 O :   -0.509988
  14 F :   -0.330868
  15 C :   -0.896055
  16 C :   -0.702890
  17 C :   -0.601054
  18 H :    0.438059
  19 H :    0.321450
  20 H :    0.448718
  21 H :    0.404703
  22 C :    0.015521
  23 H :    0.399755
  24 H :    0.455719
  25 C :   -0.953947
  26 H :    0.185990
  27 H :    0.309144
  28 C :   -0.964586
  29 H :    0.382524
  30 H :    0.436305
  31 H :    0.416538
  32 H :    0.404553
  33 H :    0.428636
  34 H :    0.409491
  35 H :    0.390206
  36 H :    0.416631
Sum of atomic charges:   -0.0000000

LOEWDIN ATOMIC CHARGES
----------------------
   0 C :   -0.155171
   1 C :   -0.210675
   2 C :   -0.106402
   3 H :    0.128600
   4 H :    0.133728
   5 C :   -0.465417
   6 C :   -0.513636
   7 N :    0.135021
   8 C :    0.015972
   9 H :   -0.023493
  10 H :    0.040358
  11 H :    0.112317
  12 H :    0.063620
  13 O :    0.094883
  14 F :    0.213269
  15 C :   -0.208097
  16 C :   -0.223768
  17 C :   -0.221661
  18 H :    0.128494
  19 H :    0.107998
  20 H :    0.123188
  21 H :    0.117223
  22 C :   -0.221430
  23 H :    0.107515
  24 H :    0.117935
  25 C :   -0.232372
  26 H :    0.091264
  27 H :    0.136727
  28 C :   -0.219555
  29 H :    0.110685
  30 H :    0.119774
  31 H :    0.111136
  32 H :    0.123205
  33 H :    0.114384
  34 H :    0.117555
  35 H :    0.119545
  36 H :    0.117282

  Mayer bond orders larger than 0.100000
B(  0-C ,  6-C ) :   0.5196 B(  0-C ,  8-C ) :   0.1152 B(  0-C , 15-C ) :   0.5834
B(  0-C , 35-H ) :   0.8999 B(  0-C , 36-H ) :   1.0946 B(  1-C ,  2-C ) :   0.5731
B(  1-C , 17-C ) :   0.5614 B(  1-C , 20-H ) :   0.8862 B(  1-C , 21-H ) :   0.9635
B(  2-C ,  3-H ) :   0.9922 B(  2-C ,  4-H ) :   0.8568 B(  2-C ,  5-C ) :   0.7656
B(  2-C , 16-C ) :   0.1019 B(  2-C , 17-C ) :  -0.1798 B(  5-C , 13-O ) :   1.7018
B(  5-C , 14-F ) :   0.7812 B(  6-C ,  7-N ) :   0.8169 B(  6-C ,  8-C ) :   1.8164
B(  6-C ,  9-H ) :  -0.1536 B(  6-C , 10-H ) :  -0.1216 B(  6-C , 26-H ) :  -0.1035
B(  7-N , 11-H ) :   0.9688 B(  7-N , 12-H ) :   0.7301 B(  8-C ,  9-H ) :   0.7230
B(  8-C , 10-H ) :   1.2417 B(  8-C , 26-H ) :  -0.2212 B(  9-H , 13-O ) :  -0.2559
B( 13-O , 14-F ) :   0.1096 B( 15-C , 22-C ) :   0.3487 B( 15-C , 23-H ) :   0.9274
B( 15-C , 24-H ) :   0.8753 B( 15-C , 25-C ) :   0.1881 B( 16-C , 17-C ) :   0.1652
B( 16-C , 19-H ) :  -0.1504 B( 16-C , 22-C ) :   0.1037 B( 16-C , 25-C ) :  -0.1204
B( 16-C , 28-C ) :   0.6578 B( 16-C , 31-H ) :   1.0191 B( 16-C , 32-H ) :   0.8861
B( 17-C , 18-H ) :   0.8692 B( 17-C , 19-H ) :   1.1107 B( 17-C , 31-H ) :  -0.1322
B( 22-C , 25-C ) :   0.2977 B( 22-C , 26-H ) :   1.1832 B( 22-C , 27-H ) :   0.8961
B( 25-C , 28-C ) :   0.6025 B( 25-C , 29-H ) :   0.9928 B( 25-C , 30-H ) :   0.9001
B( 26-H , 27-H ) :   0.2196 B( 28-C , 33-H ) :   0.9462 B( 28-C , 34-H ) :   0.9349

FINAL SINGLE POINT ENERGY      -698.782584487189

DIPOLE MOMENT
-------------
                                X             Y             Z
Electronic contribution:     -2.27662       3.59951      16.17775
Nuclear contribution   :      0.32481      -3.64700     -16.75441
                        -----------------------------------------
Total Dipole Moment    :     -1.95182      -0.04749      -0.57665
                        -----------------------------------------
Magnitude (a.u.)       :      2.03577
Magnitude (Debye)      :      5.17453

Rotational constants in cm-1:     0.021629     0.017327     0.011372
Rotational constants in MHz :   648.414821   519.443407   340.925013

                             ****ORCA TERMINATED NORMALLY****
TOTAL RUN TIME: 0 days 0 hours 11 minutes 9 seconds 646 msec
