                         Program Version 5.0.0 -  RELEASE  -
|  1> !CAM-B3LYP RIJCOSX def2-SVPD def2/J TightSCF
|  2> *xyz -1 1
|  3> C          0.84888        2.66797       -4.30235
|  4> C          2.09343        1.86104       -4.65684
|  5> H          2.44481        2.04157       -5.67499
|  6> H          2.90175        2.13786       -3.98034
|  7> S          1.87964        0.07859       -4.46297
|  8> O          3.20757       -0.46611       -4.42026
|  9> O          1.07506       -0.05616       -3.26876
| 10> O          1.13166       -0.31996       -5.67903
| 11> H          0.05064        2.40112       -4.96303
| 12> H          1.06043        3.71210       -4.40203
| 13> H          0.56237        2.45684       -3.29327
| 14> *
| 15>
| 16> %MaxCore 64000
| 17>
| 18> %pal nprocs 4
| 19> end
| 20>
| 21> %scf
| 22>   MaxIter 150
| 23> end
| 24>
| 25>
| 26>                          ****END OF INPUT****

CARTESIAN COORDINATES (ANGSTROEM)
---------------------------------
  C      0.848880    2.667970   -4.302350
  C      2.093430    1.861040   -4.656840
  H      2.444810    2.041570   -5.674990
  H      2.901750    2.137860   -3.980340
  S      1.879640    0.078590   -4.462970
  O      3.207570   -0.466110   -4.420260
  O      1.075060   -0.056160   -3.268760
  O      1.131660   -0.319960   -5.679030
  H      0.050640    2.401120   -4.963030
  H      1.060430    3.712100   -4.402030
  H      0.562370    2.456840   -3.293270

 Total Charge           Charge          ....   -1
 Multiplicity           Mult            ....    1
 Number of Electrons    NEL             ....   58
 Basis Dimension        Dim             ....  176

ORBITAL ENERGIES
----------------

  NO   OCC          E(Eh)            E(eV)
   0   2.0000     -88.962598     -2420.7954
   1   2.0000     -18.999367      -516.9991
   2   2.0000     -18.995979      -516.9069
   3   2.0000     -18.983409      -516.5648
   4   2.0000     -10.120469      -275.3920
   5   2.0000     -10.114457      -275.2284
   6   2.0000      -8.015863      -218.1227
   7   2.0000      -5.985827      -162.8826
   8   2.0000      -5.985651      -162.8778
   9   2.0000      -5.985220      -162.8661
  10   2.0000      -1.020124       -27.7590
  11   2.0000      -0.878915       -23.9165
  12   2.0000      -0.852207       -23.1897
  13   2.0000      -0.710649       -19.3377
  14   2.0000      -0.581028       -15.8106
  15   2.0000      -0.456292       -12.4163
  16   2.0000      -0.393918       -10.7191
  17   2.0000      -0.389871       -10.6089
  18   2.0000      -0.350263        -9.5311
  19   2.0000      -0.337851        -9.1934
  20   2.0000      -0.327941        -8.9237
  21   2.0000      -0.298986        -8.1358
  22   2.0000      -0.281740        -7.6665
  23   2.0000      -0.224449        -6.1076
  24   2.0000      -0.223987        -6.0950
  25   2.0000      -0.187855        -5.1118
  26   2.0000      -0.176722        -4.8088
  27   2.0000      -0.166462        -4.5297
  28   2.0000      -0.134515        -3.6603
  29   0.0000       0.170147         4.6299
  30   0.0000       0.194706         5.2982
  31   0.0000       0.201314         5.4780
  32   0.0000       0.207012         5.6331
  33   0.0000       0.228165         6.2087

MULLIKEN ATOMIC CHARGES
-----------------------
   0 C :    0.953582
   1 C :   -0.193829
   2 H :   -0.150495
   3 H :   -0.101963
   4 S :    1.337186
   5 O :   -0.782046
   6 O :   -0.802503
   7 O :   -0.835779
   8 H :   -0.124450
   9 H :   -0.194750
  10 H :   -0.104954
Sum of atomic charges:   -1.0000000

LOEWDIN ATOMIC CHARGES
----------------------
   0 C :    0.099074
   1 C :   -0.131520
   2 H :    0.005337
   3 H :   -0.001917
   4 S :    0.857707
   5 O :   -0.575273
   6 O :   -0.575082
   7 O :   -0.601956
   8 H :   -0.015222
   9 H :   -0.034848
  10 H :   -0.026301

  Mayer bond orders larger than 0.100000
B(  0-C ,  1-C ) :   1.2613 B(  0-C ,  3-H ) :   0.1070 B(  0-C ,  8-H ) :   0.7777
B(  0-C ,  9-H ) :   0.7054 B(  0-C , 10-H ) :   0.7845 B(  1-C ,  2-H ) :   0.9689
B(  1-C ,  3-H ) :   0.9693 B(  1-C ,  4-S ) :   0.9142 B(  1-C ,  8-H ) :   0.1987
B(  1-C ,  9-H ) :   0.2384 B(  1-C , 10-H ) :   0.2178 B(  4-S ,  5-O ) :   1.3517
B(  4-S ,  6-O ) :   1.3037 B(  4-S ,  7-O ) :   1.2695

FINAL SINGLE POINT ENERGY      -702.670503210544

DIPOLE MOMENT
-------------
                                X             Y             Z
Electronic contribution:      1.61992      -7.58006       0.05689
Nuclear contribution   :     -1.55288       9.51857       0.00420
                        -----------------------------------------
Total Dipole Moment    :      0.06704       1.93851       0.06110
                        -----------------------------------------
Magnitude (a.u.)       :      1.94063
Magnitude (Debye)      :      4.93269

Rotational constants in cm-1:     0.163401     0.083833     0.082462
Rotational constants in MHz :  4898.624208  2513.264548  2472.149188

                             ****ORCA TERMINATED NORMALLY****
TOTAL RUN TIME: 0 days 0 hours 0 minutes 32 seconds 46 msec
