                         Program Version 5.0.0 -  RELEASE  -
|  1> !CAM-B3LYP RIJCOSX def2-SVPD def2/J TightSCF
|  2> *xyz 1 1
|  3> C         -0.46129        2.23469       -4.98962
|  4> C          0.84888        2.66797       -4.30235
|  5> C         -0.42384        2.39877       -6.47432
|  6> N         -0.95947        3.49265       -7.00740
|  7> N          0.14558        1.48689       -7.20399
|  8> H          0.56537        0.69681       -6.72386
|  9> H          0.22068        1.58177       -8.20752
| 10> H         -1.40624        4.18151       -6.40326
| 11> H         -0.93421        3.68160       -7.99947
| 12> H         -1.28888        2.82674       -4.59500
| 13> H         -0.65170        1.18634       -4.75655
| 14> H          1.66208        2.08894       -4.68750
| 15> H          0.76716        2.51042       -3.24717
| 16> H          1.02677        3.70527       -4.49537
| 17> *
| 18>
| 19> %MaxCore 64000
| 20>
| 21> %pal nprocs 4
| 22> end
| 23>
| 24> %scf
| 25>   MaxIter 150
| 26> end
| 27>
| 28>
| 29>                          ****END OF INPUT****

CARTESIAN COORDINATES (ANGSTROEM)
---------------------------------
  C     -0.461290    2.234690   -4.989620
  C      0.848880    2.667970   -4.302350
  C     -0.423840    2.398770   -6.474320
  N     -0.959470    3.492650   -7.007400
  N      0.145580    1.486890   -7.203990
  H      0.565370    0.696810   -6.723860
  H      0.220680    1.581770   -8.207520
  H     -1.406240    4.181510   -6.403260
  H     -0.934210    3.681600   -7.999470
  H     -1.288880    2.826740   -4.595000
  H     -0.651700    1.186340   -4.756550
  H      1.662080    2.088940   -4.687500
  H      0.767160    2.510420   -3.247170
  H      1.026770    3.705270   -4.495370

 Total Charge           Charge          ....    1
 Multiplicity           Mult            ....    1
 Number of Electrons    NEL             ....   40
 Basis Dimension        Dim             ....  172

ORBITAL ENERGIES
----------------

  NO   OCC          E(Eh)            E(eV)
   0   2.0000     -14.655235      -398.7892
   1   2.0000     -14.651019      -398.6745
   2   2.0000     -10.586148      -288.0637
   3   2.0000     -10.458236      -284.5831
   4   2.0000     -10.415629      -283.4237
   5   2.0000      -1.282576       -34.9007
   6   2.0000      -1.184438       -32.2302
   7   2.0000      -1.046857       -28.4864
   8   2.0000      -0.935560       -25.4579
   9   2.0000      -0.891401       -24.2563
  10   2.0000      -0.853332       -23.2204
  11   2.0000      -0.823742       -22.4152
  12   2.0000      -0.773018       -21.0349
  13   2.0000      -0.723046       -19.6751
  14   2.0000      -0.694616       -18.9015
  15   2.0000      -0.685969       -18.6662
  16   2.0000      -0.612705       -16.6725
  17   2.0000      -0.602610       -16.3979
  18   2.0000      -0.595801       -16.2126
  19   2.0000      -0.558809       -15.2060
  20   0.0000      -0.163930        -4.4608
  21   0.0000      -0.126028        -3.4294
  22   0.0000      -0.082859        -2.2547
  23   0.0000      -0.080350        -2.1864
  24   0.0000      -0.053338        -1.4514

MULLIKEN ATOMIC CHARGES
-----------------------
   0 C :   -0.179438
   1 C :    0.818024
   2 C :    0.584036
   3 N :    0.112312
   4 N :    0.253943
   5 H :    0.048410
   6 H :   -0.186088
   7 H :    0.029478
   8 H :   -0.164007
   9 H :   -0.056932
  10 H :   -0.037461
  11 H :   -0.087649
  12 H :   -0.040694
  13 H :   -0.093934
Sum of atomic charges:    1.0000000

LOEWDIN ATOMIC CHARGES
----------------------
   0 C :    0.009448
   1 C :    0.174353
   2 C :   -0.049043
   3 N :    0.284113
   4 N :    0.288830
   5 H :    0.059289
   6 H :    0.053754
   7 H :    0.054544
   8 H :    0.044126
   9 H :    0.039319
  10 H :    0.044757
  11 H :   -0.008364
  12 H :    0.007781
  13 H :   -0.002907

  Mayer bond orders larger than 0.100000
B(  0-C ,  1-C ) :   1.2554 B(  0-C ,  2-C ) :   1.1544 B(  0-C ,  9-H ) :   0.8703
B(  0-C , 10-H ) :   0.8761 B(  0-C , 11-H ) :   0.1994 B(  0-C , 12-H ) :   0.1674
B(  0-C , 13-H ) :   0.1767 B(  1-C , 11-H ) :   0.7682 B(  1-C , 12-H ) :   0.8133
B(  1-C , 13-H ) :   0.8102 B(  2-C ,  3-N ) :   1.0812 B(  2-C ,  4-N ) :   1.2526
B(  2-C ,  6-H ) :  -0.1581 B(  2-C ,  8-H ) :  -0.2000 B(  2-C ,  9-H ) :   0.1410
B(  2-C , 10-H ) :   0.1021 B(  3-N ,  4-N ) :   0.1442 B(  3-N ,  7-H ) :   1.0949
B(  3-N ,  8-H ) :   1.3181 B(  4-N ,  5-H ) :   1.0678 B(  4-N ,  6-H ) :   1.2928
B(  5-H ,  6-H ) :  -0.1687 B(  7-H ,  8-H ) :  -0.1815 B( 11-H , 13-H ) :   0.1006

FINAL SINGLE POINT ENERGY      -228.757220322765

DIPOLE MOMENT
-------------
                                X             Y             Z
Electronic contribution:     -1.55978      -0.27151      -3.88128
Nuclear contribution   :      1.33202       0.27544       2.83701
                        -----------------------------------------
Total Dipole Moment    :     -0.22776       0.00393      -1.04428
                        -----------------------------------------
Magnitude (a.u.)       :      1.06883
Magnitude (Debye)      :      2.71676

Rotational constants in cm-1:     0.258570     0.126296     0.098869
Rotational constants in MHz :  7751.748523  3786.267300  2964.011691

                             ****ORCA TERMINATED NORMALLY****
TOTAL RUN TIME: 0 days 0 hours 0 minutes 33 seconds 826 msec
