                         Program Version 5.0.0 -  RELEASE  -
|  1> !CAM-B3LYP RIJCOSX def2-SVPD def2/J TightSCF
|  2> *xyz 0 1
|  3> C          0.84888        2.66797       -4.30235
|  4> C          2.09343        1.86104       -4.65684
|  5> H          2.44481        2.04157       -5.67499
|  6> H          2.90175        2.13786       -3.98034
|  7> S          1.87964        0.07859       -4.46297
|  8> F          3.20757       -0.46611       -4.42026
|  9> O          1.07506       -0.05616       -3.26876
| 10> O          1.13166       -0.31996       -5.67903
| 11> H          0.05064        2.40112       -4.96303
| 12> H          1.06043        3.71210       -4.40203
| 13> H          0.56237        2.45684       -3.29327
| 14> *
| 15>
| 16> %MaxCore 64000
| 17>
| 18> %pal nprocs 4
| 19> end
| 20>
| 21> %scf
| 22>   MaxIter 150
| 23> end
| 24>
| 25>
| 26>                          ****END OF INPUT****

CARTESIAN COORDINATES (ANGSTROEM)
---------------------------------
  C      0.848880    2.667970   -4.302350
  C      2.093430    1.861040   -4.656840
  H      2.444810    2.041570   -5.674990
  H      2.901750    2.137860   -3.980340
  S      1.879640    0.078590   -4.462970
  F      3.207570   -0.466110   -4.420260
  O      1.075060   -0.056160   -3.268760
  O      1.131660   -0.319960   -5.679030
  H      0.050640    2.401120   -4.963030
  H      1.060430    3.712100   -4.402030
  H      0.562370    2.456840   -3.293270

 Total Charge           Charge          ....    0
 Multiplicity           Mult            ....    1
 Number of Electrons    NEL             ....   58
 Basis Dimension        Dim             ....  176

ORBITAL ENERGIES
----------------

  NO   OCC          E(Eh)            E(eV)
   0   2.0000     -89.222979     -2427.8807
   1   2.0000     -24.900912      -677.5883
   2   2.0000     -19.230614      -523.2916
   3   2.0000     -19.217919      -522.9462
   4   2.0000     -10.323563      -280.9184
   5   2.0000     -10.278080      -279.6808
   6   2.0000      -8.277168      -225.2332
   7   2.0000      -6.251273      -170.1058
   8   2.0000      -6.244723      -169.9275
   9   2.0000      -6.243344      -169.8900
  10   2.0000      -1.471060       -40.0296
  11   2.0000      -1.194700       -32.5094
  12   2.0000      -1.087049       -29.5801
  13   2.0000      -0.902885       -24.5687
  14   2.0000      -0.821484       -22.3537
  15   2.0000      -0.756186       -20.5769
  16   2.0000      -0.674430       -18.3522
  17   2.0000      -0.671869       -18.2825
  18   2.0000      -0.633918       -17.2498
  19   2.0000      -0.568641       -15.4735
  20   2.0000      -0.561246       -15.2723
  21   2.0000      -0.518062       -14.0972
  22   2.0000      -0.502636       -13.6774
  23   2.0000      -0.478147       -13.0110
  24   2.0000      -0.459006       -12.4902
  25   2.0000      -0.455127       -12.3846
  26   2.0000      -0.405409       -11.0317
  27   2.0000      -0.389610       -10.6018
  28   2.0000      -0.376668       -10.2497
  29   0.0000       0.023989         0.6528
  30   0.0000       0.050741         1.3807
  31   0.0000       0.061351         1.6695
  32   0.0000       0.063664         1.7324
  33   0.0000       0.087545         2.3822

MULLIKEN ATOMIC CHARGES
-----------------------
   0 C :    0.948482
   1 C :   -0.230806
   2 H :   -0.095107
   3 H :   -0.047463
   4 S :    1.504525
   5 F :   -0.400571
   6 O :   -0.654555
   7 O :   -0.685141
   8 H :   -0.103504
   9 H :   -0.155378
  10 H :   -0.080480
Sum of atomic charges:    0.0000000

LOEWDIN ATOMIC CHARGES
----------------------
   0 C :    0.142700
   1 C :   -0.094405
   2 H :    0.025285
   3 H :    0.015759
   4 S :    1.123699
   5 F :   -0.251557
   6 O :   -0.465472
   7 O :   -0.485990
   8 H :    0.002216
   9 H :   -0.003592
  10 H :   -0.008643

  Mayer bond orders larger than 0.100000
B(  0-C ,  1-C ) :   1.3226 B(  0-C ,  3-H ) :   0.1097 B(  0-C ,  8-H ) :   0.7805
B(  0-C ,  9-H ) :   0.7188 B(  0-C , 10-H ) :   0.7818 B(  1-C ,  2-H ) :   0.9668
B(  1-C ,  3-H ) :   0.9441 B(  1-C ,  4-S ) :   0.9535 B(  1-C ,  8-H ) :   0.1924
B(  1-C ,  9-H ) :   0.2286 B(  1-C , 10-H ) :   0.2113 B(  4-S ,  5-F ) :   0.7086
B(  4-S ,  6-O ) :   1.5197 B(  4-S ,  7-O ) :   1.4794

FINAL SINGLE POINT ENERGY      -727.151569412285

DIPOLE MOMENT
-------------
                                X             Y             Z
Electronic contribution:      4.19004      -9.24647       0.10410
Nuclear contribution   :     -3.08754      10.54185      -0.04092
                        -----------------------------------------
Total Dipole Moment    :      1.10250       1.29538       0.06319
                        -----------------------------------------
Magnitude (a.u.)       :      1.70221
Magnitude (Debye)      :      4.32667

Rotational constants in cm-1:     0.158925     0.081210     0.079022
Rotational constants in MHz :  4764.450166  2434.603461  2369.014434

                             ****ORCA TERMINATED NORMALLY****
TOTAL RUN TIME: 0 days 0 hours 0 minutes 35 seconds 23 msec
