                         Program Version 5.0.0 -  RELEASE  -
|  1> !CAM-B3LYP RIJCOSX def2-SVPD def2/J TightSCF
|  2> *xyz 0 1
|  3> C         -0.46129        2.23469       -4.98962
|  4> C          0.84888        2.66797       -4.30235
|  5> C         -0.42384        2.39877       -6.47432
|  6> C         -0.95947        3.49265       -7.00740
|  7> N          0.14558        1.48689       -7.20399
|  8> H          0.56537        0.69681       -6.72386
|  9> H          0.22068        1.58177       -8.20752
| 10> H         -1.40624        4.18151       -6.40326
| 11> H         -0.93421        3.68160       -7.99947
| 12> H         -1.28888        2.82674       -4.59500
| 13> H         -0.65170        1.18634       -4.75655
| 14> H          1.66208        2.08894       -4.68750
| 15> H          0.76716        2.51042       -3.24717
| 16> H          1.02677        3.70527       -4.49537
| 17> *
| 18>
| 19> %MaxCore 64000
| 20>
| 21> %pal nprocs 4
| 22> end
| 23>
| 24> %scf
| 25>   MaxIter 150
| 26> end
| 27>
| 28>
| 29>                          ****END OF INPUT****

CARTESIAN COORDINATES (ANGSTROEM)
---------------------------------
  C     -0.461290    2.234690   -4.989620
  C      0.848880    2.667970   -4.302350
  C     -0.423840    2.398770   -6.474320
  C     -0.959470    3.492650   -7.007400
  N      0.145580    1.486890   -7.203990
  H      0.565370    0.696810   -6.723860
  H      0.220680    1.581770   -8.207520
  H     -1.406240    4.181510   -6.403260
  H     -0.934210    3.681600   -7.999470
  H     -1.288880    2.826740   -4.595000
  H     -0.651700    1.186340   -4.756550
  H      1.662080    2.088940   -4.687500
  H      0.767160    2.510420   -3.247170
  H      1.026770    3.705270   -4.495370

 Total Charge           Charge          ....    0
 Multiplicity           Mult            ....    1
 Number of Electrons    NEL             ....   40
 Basis Dimension        Dim             ....  172

ORBITAL ENERGIES
----------------

  NO   OCC          E(Eh)            E(eV)
   0   2.0000     -14.408425      -392.0732
   1   2.0000     -10.279475      -279.7187
   2   2.0000     -10.258103      -279.1372
   3   2.0000     -10.245278      -278.7882
   4   2.0000     -10.190190      -277.2892
   5   2.0000      -1.011790       -27.5322
   6   2.0000      -0.855166       -23.2703
   7   2.0000      -0.788712       -21.4619
   8   2.0000      -0.709945       -19.3186
   9   2.0000      -0.642854       -17.4929
  10   2.0000      -0.601916       -16.3790
  11   2.0000      -0.552311       -15.0291
  12   2.0000      -0.508290       -13.8313
  13   2.0000      -0.490239       -13.3401
  14   2.0000      -0.461457       -12.5569
  15   2.0000      -0.450253       -12.2520
  16   2.0000      -0.418990       -11.4013
  17   2.0000      -0.401884       -10.9358
  18   2.0000      -0.398929       -10.8554
  19   2.0000      -0.246600        -6.7103
  20   0.0000       0.046182         1.2567
  21   0.0000       0.076255         2.0750
  22   0.0000       0.085585         2.3289
  23   0.0000       0.088124         2.3980
  24   0.0000       0.101667         2.7665

MULLIKEN ATOMIC CHARGES
-----------------------
   0 C :   -0.004874
   1 C :    0.823972
   2 C :   -0.130633
   3 C :    0.583335
   4 N :    0.372249
   5 H :   -0.124054
   6 H :   -0.240517
   7 H :   -0.219483
   8 H :   -0.587245
   9 H :   -0.001260
  10 H :   -0.139715
  11 H :   -0.120755
  12 H :   -0.077550
  13 H :   -0.133471
Sum of atomic charges:    0.0000000

LOEWDIN ATOMIC CHARGES
----------------------
   0 C :   -0.032089
   1 C :    0.135881
   2 C :   -0.272578
   3 C :    0.176627
   4 N :    0.172297
   5 H :    0.005619
   6 H :    0.013024
   7 H :   -0.083520
   8 H :   -0.092444
   9 H :    0.021899
  10 H :    0.016721
  11 H :   -0.024704
  12 H :   -0.020811
  13 H :   -0.015920

  Mayer bond orders larger than 0.100000
B(  0-C ,  1-C ) :   1.2327 B(  0-C ,  2-C ) :   1.1734 B(  0-C ,  3-C ) :   0.1865
B(  0-C ,  9-H ) :   0.8211 B(  0-C , 10-H ) :   0.8134 B(  0-C , 11-H ) :   0.2232
B(  0-C , 12-H ) :   0.1829 B(  0-C , 13-H ) :   0.1903 B(  1-C , 11-H ) :   0.7717
B(  1-C , 12-H ) :   0.7851 B(  1-C , 13-H ) :   0.8242 B(  2-C ,  3-C ) :   1.6423
B(  2-C ,  4-N ) :   1.3046 B(  2-C ,  8-H ) :   0.1604 B(  2-C ,  9-H ) :   0.1802
B(  2-C , 10-H ) :   0.1808 B(  3-C ,  4-N ) :   0.2500 B(  3-C ,  7-H ) :   0.9098
B(  3-C ,  8-H ) :   0.6398 B(  4-N ,  5-H ) :   1.0849 B(  4-N ,  6-H ) :   1.2452
B(  5-H ,  6-H ) :  -0.1400

FINAL SINGLE POINT ENERGY      -212.298173162810

DIPOLE MOMENT
-------------
                                X             Y             Z
Electronic contribution:     -0.72482      -1.16683      -2.58339
Nuclear contribution   :      1.14741       0.51394       2.60761
                        -----------------------------------------
Total Dipole Moment    :      0.42259      -0.65289       0.02421
                        -----------------------------------------
Magnitude (a.u.)       :      0.77810
Magnitude (Debye)      :      1.97777

Rotational constants in cm-1:     0.269157     0.129188     0.102123
Rotational constants in MHz :  8069.118715  3872.945231  3061.580645

                             ****ORCA TERMINATED NORMALLY****
TOTAL RUN TIME: 0 days 0 hours 0 minutes 31 seconds 778 msec
