                         Program Version 5.0.0 -  RELEASE  -
|  1> !CAM-B3LYP RIJCOSX def2-SVPD def2/J TightSCF
|  2> *xyz 0 1
|  3> C          0.84888        2.66797       -4.30235
|  4> C          2.09343        1.86104       -4.65684
|  5> H          2.44481        2.04157       -5.67499
|  6> H          2.90175        2.13786       -3.98034
|  7> S          1.87964        0.07859       -4.46297
|  8> O          3.20757       -0.46611       -4.42026
|  9> F          1.07506       -0.05616       -3.26876
| 10> O          1.13166       -0.31996       -5.67903
| 11> H          0.05064        2.40112       -4.96303
| 12> H          1.06043        3.71210       -4.40203
| 13> H          0.56237        2.45684       -3.29327
| 14> *
| 15>
| 16> %MaxCore 64000
| 17>
| 18> %pal nprocs 4
| 19> end
| 20>
| 21> %scf
| 22>   MaxIter 150
| 23> end
| 24>
| 25>
| 26>                          ****END OF INPUT****

CARTESIAN COORDINATES (ANGSTROEM)
---------------------------------
  C      0.848880    2.667970   -4.302350
  C      2.093430    1.861040   -4.656840
  H      2.444810    2.041570   -5.674990
  H      2.901750    2.137860   -3.980340
  S      1.879640    0.078590   -4.462970
  O      3.207570   -0.466110   -4.420260
  F      1.075060   -0.056160   -3.268760
  O      1.131660   -0.319960   -5.679030
  H      0.050640    2.401120   -4.963030
  H      1.060430    3.712100   -4.402030
  H      0.562370    2.456840   -3.293270

 Total Charge           Charge          ....    0
 Multiplicity           Mult            ....    1
 Number of Electrons    NEL             ....   58
 Basis Dimension        Dim             ....  176

ORBITAL ENERGIES
----------------

  NO   OCC          E(Eh)            E(eV)
   0   2.0000     -89.222444     -2427.8661
   1   2.0000     -24.895467      -677.4401
   2   2.0000     -19.234256      -523.3907
   3   2.0000     -19.217899      -522.9456
   4   2.0000     -10.323405      -280.9141
   5   2.0000     -10.285238      -279.8756
   6   2.0000      -8.276586      -225.2173
   7   2.0000      -6.250790      -170.0926
   8   2.0000      -6.244133      -169.9115
   9   2.0000      -6.242749      -169.8738
  10   2.0000      -1.462275       -39.7905
  11   2.0000      -1.198716       -32.6187
  12   2.0000      -1.090303       -29.6687
  13   2.0000      -0.908189       -24.7131
  14   2.0000      -0.814589       -22.1661
  15   2.0000      -0.758953       -20.6522
  16   2.0000      -0.680953       -18.5297
  17   2.0000      -0.667460       -18.1625
  18   2.0000      -0.624182       -16.9849
  19   2.0000      -0.570851       -15.5337
  20   2.0000      -0.553954       -15.0739
  21   2.0000      -0.527136       -14.3441
  22   2.0000      -0.513016       -13.9599
  23   2.0000      -0.484376       -13.1805
  24   2.0000      -0.468156       -12.7392
  25   2.0000      -0.456017       -12.4089
  26   2.0000      -0.406282       -11.0555
  27   2.0000      -0.390393       -10.6231
  28   2.0000      -0.379738       -10.3332
  29   0.0000       0.021605         0.5879
  30   0.0000       0.054698         1.4884
  31   0.0000       0.059961         1.6316
  32   0.0000       0.064330         1.7505
  33   0.0000       0.086718         2.3597

MULLIKEN ATOMIC CHARGES
-----------------------
   0 C :    0.955579
   1 C :   -0.191454
   2 H :   -0.099713
   3 H :   -0.057497
   4 S :    1.470534
   5 O :   -0.630929
   6 F :   -0.402350
   7 O :   -0.687827
   8 H :   -0.101870
   9 H :   -0.155484
  10 H :   -0.098991
Sum of atomic charges:   -0.0000000

LOEWDIN ATOMIC CHARGES
----------------------
   0 C :    0.128549
   1 C :   -0.082343
   2 H :    0.037560
   3 H :    0.019916
   4 S :    1.118317
   5 O :   -0.460212
   6 F :   -0.255914
   7 O :   -0.485385
   8 H :   -0.001878
   9 H :   -0.004803
  10 H :   -0.013808

  Mayer bond orders larger than 0.100000
B(  0-C ,  1-C ) :   1.2758 B(  0-C ,  8-H ) :   0.7901 B(  0-C ,  9-H ) :   0.7168
B(  0-C , 10-H ) :   0.7811 B(  1-C ,  2-H ) :   0.9684 B(  1-C ,  3-H ) :   0.9746
B(  1-C ,  4-S ) :   0.9800 B(  1-C ,  8-H ) :   0.1904 B(  1-C ,  9-H ) :   0.2294
B(  1-C , 10-H ) :   0.1979 B(  4-S ,  5-O ) :   1.5690 B(  4-S ,  6-F ) :   0.6891
B(  4-S ,  7-O ) :   1.4939

FINAL SINGLE POINT ENERGY      -727.156234428244

DIPOLE MOMENT
-------------
                                X             Y             Z
Electronic contribution:      0.56510      -8.52199       2.04528
Nuclear contribution   :     -0.86540      10.11467      -1.24082
                        -----------------------------------------
Total Dipole Moment    :     -0.30030       1.59268       0.80446
                        -----------------------------------------
Magnitude (a.u.)       :      1.80941
Magnitude (Debye)      :      4.59916

Rotational constants in cm-1:     0.154065     0.083345     0.080357
Rotational constants in MHz :  4618.752213  2498.631937  2409.037217

                             ****ORCA TERMINATED NORMALLY****
TOTAL RUN TIME: 0 days 0 hours 0 minutes 35 seconds 505 msec
