                         Program Version 5.0.0 -  RELEASE  -
|  1> !CAM-B3LYP RIJCOSX def2-SVPD def2/J TightSCF
|  2> *xyz 0 1
|  3> C         -0.46129        2.23469       -4.98962
|  4> C          0.84888        2.66797       -4.30235
|  5> C         -0.42384        2.39877       -6.47432
|  6> N         -0.95947        3.49265       -7.00740
|  7> C          0.14558        1.48689       -7.20399
|  8> H          0.56537        0.69681       -6.72386
|  9> H          0.22068        1.58177       -8.20752
| 10> H         -1.40624        4.18151       -6.40326
| 11> H         -0.93421        3.68160       -7.99947
| 12> H         -1.28888        2.82674       -4.59500
| 13> H         -0.65170        1.18634       -4.75655
| 14> H          1.66208        2.08894       -4.68750
| 15> H          0.76716        2.51042       -3.24717
| 16> H          1.02677        3.70527       -4.49537
| 17> *
| 18>
| 19> %MaxCore 64000
| 20>
| 21> %pal nprocs 4
| 22> end
| 23>
| 24> %scf
| 25>   MaxIter 150
| 26> end
| 27>
| 28>
| 29>                          ****END OF INPUT****

CARTESIAN COORDINATES (ANGSTROEM)
---------------------------------
  C     -0.461290    2.234690   -4.989620
  C      0.848880    2.667970   -4.302350
  C     -0.423840    2.398770   -6.474320
  N     -0.959470    3.492650   -7.007400
  C      0.145580    1.486890   -7.203990
  H      0.565370    0.696810   -6.723860
  H      0.220680    1.581770   -8.207520
  H     -1.406240    4.181510   -6.403260
  H     -0.934210    3.681600   -7.999470
  H     -1.288880    2.826740   -4.595000
  H     -0.651700    1.186340   -4.756550
  H      1.662080    2.088940   -4.687500
  H      0.767160    2.510420   -3.247170
  H      1.026770    3.705270   -4.495370

 Total Charge           Charge          ....    0
 Multiplicity           Mult            ....    1
 Number of Electrons    NEL             ....   40
 Basis Dimension        Dim             ....  172

ORBITAL ENERGIES
----------------

  NO   OCC          E(Eh)            E(eV)
   0   2.0000     -14.405069      -391.9819
   1   2.0000     -10.277197      -279.6567
   2   2.0000     -10.257779      -279.1284
   3   2.0000     -10.243847      -278.7492
   4   2.0000     -10.189367      -277.2668
   5   2.0000      -0.999281       -27.1918
   6   2.0000      -0.856667       -23.3111
   7   2.0000      -0.792521       -21.5656
   8   2.0000      -0.710871       -19.3438
   9   2.0000      -0.637122       -17.3370
  10   2.0000      -0.591972       -16.1084
  11   2.0000      -0.554572       -15.0907
  12   2.0000      -0.509931       -13.8759
  13   2.0000      -0.485264       -13.2047
  14   2.0000      -0.462189       -12.5768
  15   2.0000      -0.451030       -12.2731
  16   2.0000      -0.416310       -11.3284
  17   2.0000      -0.404290       -11.0013
  18   2.0000      -0.395603       -10.7649
  19   2.0000      -0.251271        -6.8374
  20   0.0000       0.047719         1.2985
  21   0.0000       0.075949         2.0667
  22   0.0000       0.085043         2.3141
  23   0.0000       0.089673         2.4401
  24   0.0000       0.102330         2.7845

MULLIKEN ATOMIC CHARGES
-----------------------
   0 C :    0.002170
   1 C :    0.792749
   2 C :    0.018894
   3 N :    0.214864
   4 C :    0.554570
   5 H :   -0.204824
   6 H :   -0.537507
   7 H :   -0.118992
   8 H :   -0.221505
   9 H :   -0.167394
  10 H :   -0.000824
  11 H :   -0.127182
  12 H :   -0.073559
  13 H :   -0.131463
Sum of atomic charges:   -0.0000000

LOEWDIN ATOMIC CHARGES
----------------------
   0 C :   -0.032109
   1 C :    0.136680
   2 C :   -0.265740
   3 N :    0.170743
   4 C :    0.169608
   5 H :   -0.074561
   6 H :   -0.082027
   7 H :   -0.001312
   8 H :    0.002277
   9 H :    0.012168
  10 H :    0.024269
  11 H :   -0.019752
  12 H :   -0.021280
  13 H :   -0.018963

  Mayer bond orders larger than 0.100000
B(  0-C ,  1-C ) :   1.2501 B(  0-C ,  2-C ) :   1.1113 B(  0-C ,  3-N ) :   0.1160
B(  0-C ,  4-C ) :   0.1886 B(  0-C ,  9-H ) :   0.8131 B(  0-C , 10-H ) :   0.8229
B(  0-C , 11-H ) :   0.2031 B(  0-C , 12-H ) :   0.1700 B(  0-C , 13-H ) :   0.2020
B(  1-C ,  9-H ) :   0.1093 B(  1-C , 11-H ) :   0.8110 B(  1-C , 12-H ) :   0.7871
B(  1-C , 13-H ) :   0.8047 B(  2-C ,  3-N ) :   1.1541 B(  2-C ,  4-C ) :   1.7504
B(  2-C ,  5-H ) :   0.1421 B(  2-C ,  6-H ) :   0.2140 B(  2-C ,  8-H ) :  -0.1313
B(  2-C ,  9-H ) :   0.1690 B(  2-C , 10-H ) :   0.1384 B(  3-N ,  4-C ) :   0.2633
B(  3-N ,  7-H ) :   1.1051 B(  3-N ,  8-H ) :   1.2870 B(  4-C ,  5-H ) :   0.7769
B(  4-C ,  6-H ) :   0.6369 B(  7-H ,  8-H ) :  -0.1671

FINAL SINGLE POINT ENERGY      -212.298381915939

DIPOLE MOMENT
-------------
                                X             Y             Z
Electronic contribution:     -1.69705       0.57028      -2.41252
Nuclear contribution   :      1.40335       0.04939       2.56207
                        -----------------------------------------
Total Dipole Moment    :     -0.29370       0.61967       0.14955
                        -----------------------------------------
Magnitude (a.u.)       :      0.70186
Magnitude (Debye)      :      1.78400

Rotational constants in cm-1:     0.271383     0.128194     0.101873
Rotational constants in MHz :  8135.853259  3843.152748  3054.074278

                             ****ORCA TERMINATED NORMALLY****
TOTAL RUN TIME: 0 days 0 hours 0 minutes 33 seconds 753 msec
