                         Program Version 5.0.0 -  RELEASE  -
|  1> !CAM-B3LYP RIJCOSX def2-SVPD def2/J TightSCF
|  2> *xyz 0 1
|  3> C          0.84888        2.66797       -4.30235
|  4> C          2.09343        1.86104       -4.65684
|  5> H          2.44481        2.04157       -5.67499
|  6> H          2.90175        2.13786       -3.98034
|  7> S          1.87964        0.07859       -4.46297
|  8> O          3.20757       -0.46611       -4.42026
|  9> O          1.07506       -0.05616       -3.26876
| 10> F          1.13166       -0.31996       -5.67903
| 11> H          0.05064        2.40112       -4.96303
| 12> H          1.06043        3.71210       -4.40203
| 13> H          0.56237        2.45684       -3.29327
| 14> *
| 15>
| 16> %MaxCore 64000
| 17>
| 18> %pal nprocs 4
| 19> end
| 20>
| 21> %scf
| 22>   MaxIter 150
| 23> end
| 24>
| 25>
| 26>                          ****END OF INPUT****

CARTESIAN COORDINATES (ANGSTROEM)
---------------------------------
  C      0.848880    2.667970   -4.302350
  C      2.093430    1.861040   -4.656840
  H      2.444810    2.041570   -5.674990
  H      2.901750    2.137860   -3.980340
  S      1.879640    0.078590   -4.462970
  O      3.207570   -0.466110   -4.420260
  O      1.075060   -0.056160   -3.268760
  F      1.131660   -0.319960   -5.679030
  H      0.050640    2.401120   -4.963030
  H      1.060430    3.712100   -4.402030
  H      0.562370    2.456840   -3.293270

 Total Charge           Charge          ....    0
 Multiplicity           Mult            ....    1
 Number of Electrons    NEL             ....   58
 Basis Dimension        Dim             ....  176

ORBITAL ENERGIES
----------------

  NO   OCC          E(Eh)            E(eV)
   0   2.0000     -89.220896     -2427.8240
   1   2.0000     -24.877125      -676.9410
   2   2.0000     -19.233887      -523.3807
   3   2.0000     -19.230386      -523.2854
   4   2.0000     -10.322475      -280.8888
   5   2.0000     -10.279468      -279.7186
   6   2.0000      -8.274934      -225.1724
   7   2.0000      -6.248883      -170.0408
   8   2.0000      -6.242725      -169.8732
   9   2.0000      -6.241308      -169.8346
  10   2.0000      -1.431479       -38.9525
  11   2.0000      -1.206927       -32.8422
  12   2.0000      -1.109876       -30.2013
  13   2.0000      -0.903995       -24.5990
  14   2.0000      -0.803249       -21.8575
  15   2.0000      -0.750650       -20.4262
  16   2.0000      -0.660801       -17.9813
  17   2.0000      -0.645844       -17.5743
  18   2.0000      -0.626342       -17.0436
  19   2.0000      -0.571091       -15.5402
  20   2.0000      -0.555536       -15.1169
  21   2.0000      -0.533432       -14.5154
  22   2.0000      -0.506165       -13.7735
  23   2.0000      -0.477228       -12.9860
  24   2.0000      -0.473841       -12.8939
  25   2.0000      -0.453158       -12.3310
  26   2.0000      -0.413443       -11.2504
  27   2.0000      -0.400593       -10.9007
  28   2.0000      -0.393284       -10.7018
  29   0.0000       0.024064         0.6548
  30   0.0000       0.055199         1.5020
  31   0.0000       0.061296         1.6680
  32   0.0000       0.063754         1.7348
  33   0.0000       0.085747         2.3333

MULLIKEN ATOMIC CHARGES
-----------------------
   0 C :    0.982239
   1 C :   -0.222067
   2 H :   -0.105942
   3 H :   -0.048421
   4 S :    1.485477
   5 O :   -0.642043
   6 O :   -0.668534
   7 F :   -0.419401
   8 H :   -0.126373
   9 H :   -0.156312
  10 H :   -0.078624
Sum of atomic charges:    0.0000000

LOEWDIN ATOMIC CHARGES
----------------------
   0 C :    0.130059
   1 C :   -0.085082
   2 H :    0.023559
   3 H :    0.030282
   4 S :    1.119004
   5 O :   -0.461183
   6 O :   -0.463516
   7 F :   -0.272257
   8 H :   -0.005513
   9 H :   -0.005762
  10 H :   -0.009591

  Mayer bond orders larger than 0.100000
B(  0-C ,  1-C ) :   1.2906 B(  0-C ,  8-H ) :   0.7680 B(  0-C ,  9-H ) :   0.7122
B(  0-C , 10-H ) :   0.7882 B(  1-C ,  2-H ) :   0.9640 B(  1-C ,  3-H ) :   0.9681
B(  1-C ,  4-S ) :   0.9764 B(  1-C ,  8-H ) :   0.1943 B(  1-C ,  9-H ) :   0.2274
B(  1-C , 10-H ) :   0.2130 B(  4-S ,  5-O ) :   1.5635 B(  4-S ,  6-O ) :   1.5273
B(  4-S ,  7-F ) :   0.6382

FINAL SINGLE POINT ENERGY      -727.172204797983

DIPOLE MOMENT
-------------
                                X             Y             Z
Electronic contribution:      0.64478      -9.00167      -2.06357
Nuclear contribution   :     -0.92438      10.38956       1.27076
                        -----------------------------------------
Total Dipole Moment    :     -0.27960       1.38789      -0.79281
                        -----------------------------------------
Magnitude (a.u.)       :      1.62264
Magnitude (Debye)      :      4.12443

Rotational constants in cm-1:     0.154243     0.082247     0.080562
Rotational constants in MHz :  4624.087322  2465.703680  2415.175852

                             ****ORCA TERMINATED NORMALLY****
TOTAL RUN TIME: 0 days 0 hours 0 minutes 36 seconds 569 msec
