                         Program Version 5.0.0 -  RELEASE  -
|  1> !CAM-B3LYP RIJCOSX def2-SVPD def2/J TightSCF xyzfile
|  2>
|  3> *xyzfile 0 1 D5.xyz
|  4>
|  5> %MaxCore 64000
|  6>
|  7> %pal nprocs 4
|  8> end
|  9>
| 10> %scf
| 11>   MaxIter 150
| 12> end
| 13>
| 14>
| 15>                          ****END OF INPUT****

CARTESIAN COORDINATES (ANGSTROEM)
---------------------------------
  C     -0.461293    2.234686   -4.989619
  C      0.848883    2.667967   -4.302351
  C      2.093434    1.861037   -4.656845
  H      2.444814    2.041567   -5.674990
  H      2.901748    2.137864   -3.980338
  S      1.879644    0.078594   -4.462965
  C     -0.423841    2.398772   -6.474317
  C     -0.959467    3.492647   -7.007401
  N      0.145585    1.486891   -7.203987
  H      0.565371    0.696807   -6.723858
  H      0.220682    1.581768   -8.207520
  H     -1.406243    4.181507   -6.403261
  H     -0.934215    3.681601   -7.999468
  O      3.207574   -0.466111   -4.420259
  O      1.075064   -0.056160   -3.268758
  F      1.131661   -0.319960   -5.679031
  H      0.668432    2.559427   -3.232850
  H      1.034074    3.729426   -4.497081
  H     -1.288884    2.826737   -4.594997
  H     -0.651696    1.186343   -4.756552

 Total Charge           Charge          ....    0
 Multiplicity           Mult            ....    1
 Number of Electrons    NEL             ....   88
 Basis Dimension        Dim             ....  296

ORBITAL ENERGIES
----------------

  NO   OCC          E(Eh)            E(eV)
   0   2.0000     -89.233512     -2428.1673
   1   2.0000     -24.902062      -677.6196
   2   2.0000     -19.245278      -523.6906
   3   2.0000     -19.241216      -523.5801
   4   2.0000     -14.410689      -392.1348
   5   2.0000     -10.325766      -280.9784
   6   2.0000     -10.290776      -280.0263
   7   2.0000     -10.289967      -280.0042
   8   2.0000     -10.274870      -279.5934
   9   2.0000     -10.201015      -277.5837
  10   2.0000      -8.287172      -225.5054
  11   2.0000      -6.261519      -170.3846
  12   2.0000      -6.254804      -170.2019
  13   2.0000      -6.253231      -170.1591
  14   2.0000      -1.459618       -39.7182
  15   2.0000      -1.219772       -33.1917
  16   2.0000      -1.120695       -30.4957
  17   2.0000      -1.023298       -27.8453
  18   2.0000      -0.919713       -25.0267
  19   2.0000      -0.851588       -23.1729
  20   2.0000      -0.829401       -22.5692
  21   2.0000      -0.778583       -21.1863
  22   2.0000      -0.738140       -20.0858
  23   2.0000      -0.683958       -18.6114
  24   2.0000      -0.673134       -18.3169
  25   2.0000      -0.650700       -17.7064
  26   2.0000      -0.633366       -17.2348
  27   2.0000      -0.611637       -16.6435
  28   2.0000      -0.578101       -15.7309
  29   2.0000      -0.563870       -15.3437
  30   2.0000      -0.550756       -14.9868
  31   2.0000      -0.545390       -14.8408
  32   2.0000      -0.522979       -14.2310
  33   2.0000      -0.496915       -13.5217
  34   2.0000      -0.478089       -13.0095
  35   2.0000      -0.468744       -12.7552
  36   2.0000      -0.459888       -12.5142
  37   2.0000      -0.447914       -12.1884
  38   2.0000      -0.423880       -11.5344
  39   2.0000      -0.420757       -11.4494
  40   2.0000      -0.410973       -11.1832
  41   2.0000      -0.404414       -11.0047
  42   2.0000      -0.399306       -10.8657
  43   2.0000      -0.257067        -6.9951
  44   0.0000       0.024656         0.6709
  45   0.0000       0.048305         1.3144
  46   0.0000       0.050438         1.3725
  47   0.0000       0.056950         1.5497
  48   0.0000       0.072542         1.9740

MULLIKEN ATOMIC CHARGES
-----------------------
   0 C :    0.606930
   1 C :    0.326531
   2 C :    0.273013
   3 H :    0.077933
   4 H :   -0.205660
   5 S :    1.454232
   6 C :   -0.096788
   7 C :    0.469937
   8 N :    0.801689
   9 H :   -0.458180
  10 H :   -0.245864
  11 H :   -0.190370
  12 H :   -0.527928
  13 O :   -0.653408
  14 O :   -0.689335
  15 F :   -0.547646
  16 H :    0.099696
  17 H :   -0.267285
  18 H :   -0.048126
  19 H :   -0.179372
Sum of atomic charges:    0.0000000

LOEWDIN ATOMIC CHARGES
----------------------
   0 C :    0.027080
   1 C :   -0.012166
   2 C :   -0.031697
   3 H :    0.023147
   4 H :    0.031992
   5 S :    1.133079
   6 C :   -0.248562
   7 C :    0.180733
   8 N :    0.199973
   9 H :   -0.095842
  10 H :    0.022756
  11 H :   -0.082032
  12 H :   -0.088641
  13 O :   -0.446397
  14 O :   -0.449369
  15 F :   -0.272748
  16 H :    0.027524
  17 H :    0.037538
  18 H :    0.034087
  19 H :    0.009545

  Mayer bond orders larger than 0.100000
B(  0-C ,  1-C ) :   1.1378 B(  0-C ,  6-C ) :   1.1271 B(  0-C ,  8-N ) :   0.1142
B(  0-C , 16-H ) :   0.1522 B(  0-C , 17-H ) :   0.1156 B(  0-C , 18-H ) :   0.6963
B(  0-C , 19-H ) :   0.6786 B(  1-C ,  2-C ) :   1.3163 B(  1-C ,  3-H ) :   0.1398
B(  1-C ,  4-H ) :   0.2001 B(  1-C , 16-H ) :   0.7638 B(  1-C , 17-H ) :   0.8376
B(  1-C , 18-H ) :   0.1501 B(  1-C , 19-H ) :   0.1802 B(  2-C ,  3-H ) :   0.8739
B(  2-C ,  4-H ) :   0.7864 B(  2-C ,  5-S ) :   0.9675 B(  2-C , 16-H ) :   0.1504
B(  2-C , 17-H ) :   0.1140 B(  5-S , 13-O ) :   1.5750 B(  5-S , 14-O ) :   1.5387
B(  5-S , 15-F ) :   0.6459 B(  6-C ,  7-C ) :   1.5813 B(  6-C ,  8-N ) :   1.1546
B(  6-C , 10-H ) :  -0.1264 B(  6-C , 12-H ) :   0.1639 B(  6-C , 18-H ) :   0.2004
B(  6-C , 19-H ) :   0.1822 B(  7-C ,  8-N ) :   0.1801 B(  7-C , 11-H ) :   0.9320
B(  7-C , 12-H ) :   0.5716 B(  8-N ,  9-H ) :   0.9148 B(  8-N , 10-H ) :   1.2057
B(  9-H , 10-H ) :  -0.1943 B(  9-H , 15-F ) :   0.1468 B( 13-O , 14-O ) :   0.1019

FINAL SINGLE POINT ENERGY      -899.002957613085

DIPOLE MOMENT
-------------
                                X             Y             Z
Electronic contribution:      6.40337     -13.34643       3.13996
Nuclear contribution   :     -6.26130      13.99605      -3.80018
                        -----------------------------------------
Total Dipole Moment    :      0.14207       0.64962      -0.66022
                        -----------------------------------------
Magnitude (a.u.)       :      0.93706
Magnitude (Debye)      :      2.38182

Rotational constants in cm-1:     0.079895     0.025630     0.022948
Rotational constants in MHz :  2395.188639   768.373696   687.955250

                             ****ORCA TERMINATED NORMALLY****
TOTAL RUN TIME: 0 days 0 hours 1 minutes 50 seconds 892 msec
