                         Program Version 5.0.0 -  RELEASE  -
|  1> !CAM-B3LYP RIJCOSX def2-SVPD def2/J TightSCF xyzfile
|  2>
|  3> *xyzfile 0 1 D6.xyz
|  4>
|  5> %MaxCore 64000
|  6>
|  7> %pal nprocs 4
|  8> end
|  9>
| 10> %scf
| 11>   MaxIter 150
| 12> end
| 13>
| 14>
| 15>                          ****END OF INPUT****

CARTESIAN COORDINATES (ANGSTROEM)
---------------------------------
  C     -0.461293    2.234686   -4.989619
  C      0.848883    2.667967   -4.302351
  C      2.093434    1.861037   -4.656845
  H      2.444814    2.041567   -5.674990
  H      2.901748    2.137864   -3.980338
  S      1.879644    0.078594   -4.462965
  C     -0.423841    2.398772   -6.474317
  N     -0.959467    3.492647   -7.007401
  C      0.145585    1.486891   -7.203987
  H      0.565371    0.696807   -6.723858
  H      0.220682    1.581768   -8.207520
  H     -1.406243    4.181507   -6.403261
  H     -0.934215    3.681601   -7.999468
  O      3.207574   -0.466111   -4.420259
  O      1.075064   -0.056160   -3.268758
  F      1.131661   -0.319960   -5.679031
  H      0.668432    2.559427   -3.232850
  H      1.034074    3.729426   -4.497081
  H     -1.288884    2.826737   -4.594997
  H     -0.651696    1.186343   -4.756552

 Total Charge           Charge          ....    0
 Multiplicity           Mult            ....    1
 Number of Electrons    NEL             ....   88
 Basis Dimension        Dim             ....  296

ORBITAL ENERGIES
----------------

  NO   OCC          E(Eh)            E(eV)
   0   2.0000     -89.220797     -2427.8213
   1   2.0000     -24.876897      -676.9348
   2   2.0000     -19.232409      -523.3404
   3   2.0000     -19.229312      -523.2562
   4   2.0000     -14.416542      -392.2941
   5   2.0000     -10.315537      -280.7000
   6   2.0000     -10.289940      -280.0035
   7   2.0000     -10.288473      -279.9636
   8   2.0000     -10.275239      -279.6035
   9   2.0000     -10.193783      -277.3870
  10   2.0000      -8.274051      -225.1484
  11   2.0000      -6.248177      -170.0215
  12   2.0000      -6.241847      -169.8493
  13   2.0000      -6.240364      -169.8089
  14   2.0000      -1.436229       -39.0818
  15   2.0000      -1.206407       -32.8280
  16   2.0000      -1.108616       -30.1670
  17   2.0000      -1.011909       -27.5354
  18   2.0000      -0.914530       -24.8856
  19   2.0000      -0.851753       -23.1774
  20   2.0000      -0.803028       -21.8515
  21   2.0000      -0.793887       -21.6028
  22   2.0000      -0.718655       -19.5556
  23   2.0000      -0.679232       -18.4828
  24   2.0000      -0.650636       -17.7047
  25   2.0000      -0.634524       -17.2663
  26   2.0000      -0.626758       -17.0550
  27   2.0000      -0.606377       -16.5004
  28   2.0000      -0.574836       -15.6421
  29   2.0000      -0.562936       -15.3183
  30   2.0000      -0.545296       -14.8383
  31   2.0000      -0.532776       -14.4976
  32   2.0000      -0.523494       -14.2450
  33   2.0000      -0.484229       -13.1766
  34   2.0000      -0.476217       -12.9585
  35   2.0000      -0.466184       -12.6855
  36   2.0000      -0.450852       -12.2683
  37   2.0000      -0.443654       -12.0724
  38   2.0000      -0.416755       -11.3405
  39   2.0000      -0.410439       -11.1686
  40   2.0000      -0.406732       -11.0677
  41   2.0000      -0.394638       -10.7386
  42   2.0000      -0.391512       -10.6536
  43   2.0000      -0.263890        -7.1808
  44   0.0000       0.032708         0.8900
  45   0.0000       0.047794         1.3005
  46   0.0000       0.054890         1.4936
  47   0.0000       0.057615         1.5678
  48   0.0000       0.079706         2.1689

MULLIKEN ATOMIC CHARGES
-----------------------
   0 C :    0.513301
   1 C :    0.343090
   2 C :    0.259834
   3 H :    0.154439
   4 H :   -0.259198
   5 S :    1.445835
   6 C :    0.108707
   7 N :    0.160518
   8 C :    1.133653
   9 H :   -0.376353
  10 H :   -0.754380
  11 H :   -0.135588
  12 H :   -0.234510
  13 O :   -0.666546
  14 O :   -0.706839
  15 F :   -0.569557
  16 H :    0.082169
  17 H :   -0.271884
  18 H :   -0.244914
  19 H :    0.018222
Sum of atomic charges:    0.0000000

LOEWDIN ATOMIC CHARGES
----------------------
   0 C :    0.027595
   1 C :   -0.014976
   2 C :   -0.030956
   3 H :    0.022615
   4 H :    0.030225
   5 S :    1.133471
   6 C :   -0.233812
   7 N :    0.173755
   8 C :    0.198559
   9 H :   -0.152058
  10 H :   -0.068779
  11 H :   -0.000022
  12 H :    0.004956
  13 O :   -0.451567
  14 O :   -0.456561
  15 F :   -0.283323
  16 H :    0.026849
  17 H :    0.033998
  18 H :    0.024488
  19 H :    0.015541

  Mayer bond orders larger than 0.100000
B(  0-C ,  1-C ) :   1.1453 B(  0-C ,  6-C ) :   1.0979 B(  0-C ,  7-N ) :   0.1218
B(  0-C ,  8-C ) :   0.1696 B(  0-C , 16-H ) :   0.1333 B(  0-C , 18-H ) :   0.6881
B(  0-C , 19-H ) :   0.8229 B(  1-C ,  2-C ) :   1.3093 B(  1-C ,  3-H ) :   0.1374
B(  1-C ,  4-H ) :   0.1974 B(  1-C , 16-H ) :   0.7484 B(  1-C , 17-H ) :   0.8200
B(  1-C , 18-H ) :   0.1730 B(  1-C , 19-H ) :   0.1599 B(  2-C ,  3-H ) :   0.8608
B(  2-C ,  4-H ) :   0.7959 B(  2-C ,  5-S ) :   0.9800 B(  2-C , 15-F ) :   0.1264
B(  2-C , 16-H ) :   0.1447 B(  2-C , 17-H ) :   0.1019 B(  4-H ,  5-S ) :   0.1074
B(  4-H ,  9-H ) :  -0.1303 B(  5-S , 13-O ) :   1.5587 B(  5-S , 14-O ) :   1.5215
B(  5-S , 15-F ) :   0.6789 B(  6-C ,  7-N ) :   1.0377 B(  6-C ,  8-C ) :   1.8370
B(  6-C ,  9-H ) :   0.3260 B(  6-C , 10-H ) :   0.2864 B(  6-C , 12-H ) :  -0.1336
B(  6-C , 18-H ) :   0.1892 B(  7-N ,  8-C ) :   0.3065 B(  7-N , 11-H ) :   1.1564
B(  7-N , 12-H ) :   1.3398 B(  8-C ,  9-H ) :   0.3358 B(  8-C , 10-H ) :   0.5428
B(  9-H , 10-H ) :  -0.2935 B(  9-H , 15-F ) :   0.1483 B( 11-H , 12-H ) :  -0.1645

FINAL SINGLE POINT ENERGY      -898.994897542014

DIPOLE MOMENT
-------------
                                X             Y             Z
Electronic contribution:      5.53394     -11.90854       3.15178
Nuclear contribution   :     -6.15577      13.80449      -3.81895
                        -----------------------------------------
Total Dipole Moment    :     -0.62183       1.89596      -0.66717
                        -----------------------------------------
Magnitude (a.u.)       :      2.10391
Magnitude (Debye)      :      5.34771

Rotational constants in cm-1:     0.081431     0.024887     0.022470
Rotational constants in MHz :  2441.231544   746.086417   673.646914

                             ****ORCA TERMINATED NORMALLY****
TOTAL RUN TIME: 0 days 0 hours 1 minutes 52 seconds 297 msec
