                         Program Version 5.0.0 -  RELEASE  -
|  1> !LC-BLYP RIJCOSX def2-SVPD def2/J TightSCF
|  2> *xyz -1 1
|  3> C         -1.10433        0.25137       -2.86006
|  4> C         -0.71189        0.84252       -4.21834
|  5> H          0.15463        1.49980       -4.13091
|  6> H         -1.53813        1.45922       -4.58267
|  7> C         -0.39762       -0.20587       -5.28802
|  8> O          0.61717       -0.00535       -5.99827
|  9> O         -1.13317       -1.22138       -5.34147
| 10> H         -1.95489       -0.38644       -2.98099
| 11> H         -1.34603        1.04362       -2.18269
| 12> H         -0.28606       -0.31581       -2.46809
| 13> *
| 14>
| 15> %MaxCore 64000
| 16>
| 17> %pal nprocs 4
| 18> end
| 19>
| 20> %scf
| 21>   MaxIter 150
| 22> end
| 23>
| 24>
| 25>                          ****END OF INPUT****

CARTESIAN COORDINATES (ANGSTROEM)
---------------------------------
  C     -1.104330    0.251370   -2.860060
  C     -0.711890    0.842520   -4.218340
  H      0.154630    1.499800   -4.130910
  H     -1.538130    1.459220   -4.582670
  C     -0.397620   -0.205870   -5.288020
  O      0.617170   -0.005350   -5.998270
  O     -1.133170   -1.221380   -5.341470
  H     -1.954890   -0.386440   -2.980990
  H     -1.346030    1.043620   -2.182690
  H     -0.286060   -0.315810   -2.468090

 Total Charge           Charge          ....   -1
 Multiplicity           Mult            ....    1
 Number of Electrons    NEL             ....   40
 Basis Dimension        Dim             ....  146

ORBITAL ENERGIES
----------------

  NO   OCC          E(Eh)            E(eV)
   0   2.0000     -18.697443      -508.7833
   1   2.0000     -18.696430      -508.7557
   2   2.0000      -9.975329      -271.4425
   3   2.0000      -9.923160      -270.0229
   4   2.0000      -9.913589      -269.7625
   5   2.0000      -0.908892       -24.7322
   6   2.0000      -0.813626       -22.1399
   7   2.0000      -0.710372       -19.3302
   8   2.0000      -0.579140       -15.7592
   9   2.0000      -0.425618       -11.5817
  10   2.0000      -0.401526       -10.9261
  11   2.0000      -0.362394        -9.8613
  12   2.0000      -0.337180        -9.1751
  13   2.0000      -0.320318        -8.7163
  14   2.0000      -0.310633        -8.4527
  15   2.0000      -0.282130        -7.6772
  16   2.0000      -0.266495        -7.2517
  17   2.0000      -0.151875        -4.1327
  18   2.0000      -0.144654        -3.9362
  19   2.0000      -0.130926        -3.5627
  20   0.0000       0.204685         5.5698
  21   0.0000       0.239208         6.5092
  22   0.0000       0.249756         6.7962
  23   0.0000       0.271060         7.3759
  24   0.0000       0.297938         8.1073

MULLIKEN ATOMIC CHARGES
-----------------------
   0 C :    0.818627
   1 C :   -0.132165
   2 H :   -0.136331
   3 H :   -0.092821
   4 C :    0.142027
   5 O :   -0.564144
   6 O :   -0.590153
   7 H :   -0.116589
   8 H :   -0.172971
   9 H :   -0.155480
Sum of atomic charges:   -1.0000000

LOEWDIN ATOMIC CHARGES
----------------------
   0 C :    0.086702
   1 C :   -0.050961
   2 H :    0.004271
   3 H :    0.014751
   4 C :   -0.347653
   5 O :   -0.315211
   6 O :   -0.304181
   7 H :   -0.027453
   8 H :   -0.040301
   9 H :   -0.019963

  Mayer bond orders larger than 0.100000
B(  0-C ,  1-C ) :   1.2745 B(  0-C ,  2-H ) :   0.1014 B(  0-C ,  7-H ) :   0.7771
B(  0-C ,  8-H ) :   0.7615 B(  0-C ,  9-H ) :   0.7876 B(  1-C ,  2-H ) :   0.9288
B(  1-C ,  3-H ) :   0.8507 B(  1-C ,  4-C ) :   1.0378 B(  1-C ,  7-H ) :   0.2238
B(  1-C ,  8-H ) :   0.2267 B(  1-C ,  9-H ) :   0.1934 B(  2-H ,  4-C ) :   0.2069
B(  4-C ,  5-O ) :   1.6104 B(  4-C ,  6-O ) :   1.6389

FINAL SINGLE POINT ENERGY      -267.062865629525

DIPOLE MOMENT
-------------
                                X             Y             Z
Electronic contribution:      1.52473      -2.31705      -5.16204
Nuclear contribution   :     -2.09607       3.44215       6.87744
                        -----------------------------------------
Total Dipole Moment    :     -0.57134       1.12509       1.71540
                        -----------------------------------------
Magnitude (a.u.)       :      2.12952
Magnitude (Debye)      :      5.41281

Rotational constants in cm-1:     0.324698     0.133739     0.103466
Rotational constants in MHz :  9734.203431  4009.406827  3101.846422

                             ****ORCA TERMINATED NORMALLY****
TOTAL RUN TIME: 0 days 0 hours 0 minutes 21 seconds 759 msec
