                         Program Version 5.0.0 -  RELEASE  -
|  1> !LC-BLYP RIJCOSX def2-SVPD def2/J TightSCF
|  2> *xyz 1 1
|  3> C          2.23447       -2.98975       -2.39762
|  4> N          2.75680       -2.94555       -3.76503
|  5> C          1.98721       -2.59045       -4.81898
|  6> N          0.74322       -3.01749       -4.91352
|  7> N          2.49964       -1.84860       -5.80324
|  8> H          3.30978       -1.29282       -5.55895
|  9> H          1.80103       -1.30430       -6.28913
| 10> H          3.71612       -2.62880       -3.82953
| 11> H          0.39583       -3.62775       -4.18502
| 12> H          0.03920       -2.45438       -5.37137
| 13> C          2.19120       -1.61950       -1.71549
| 14> H          2.87278       -3.66637       -1.82801
| 15> H          1.24619       -3.44744       -2.40784
| 16> H          1.56387       -0.96046       -2.27853
| 17> H          3.18033       -1.21449       -1.66568
| 18> H          1.79916       -1.72608       -0.72562
| 19> *
| 20>
| 21> %MaxCore 64000
| 22>
| 23> %pal nprocs 4
| 24> end
| 25>
| 26> %scf
| 27>   MaxIter 150
| 28> end
| 29>
| 30>
| 31>                          ****END OF INPUT****

CARTESIAN COORDINATES (ANGSTROEM)
---------------------------------
  C      2.234470   -2.989750   -2.397620
  N      2.756800   -2.945550   -3.765030
  C      1.987210   -2.590450   -4.818980
  N      0.743220   -3.017490   -4.913520
  N      2.499640   -1.848600   -5.803240
  H      3.309780   -1.292820   -5.558950
  H      1.801030   -1.304300   -6.289130
  H      3.716120   -2.628800   -3.829530
  H      0.395830   -3.627750   -4.185020
  H      0.039200   -2.454380   -5.371370
  C      2.191200   -1.619500   -1.715490
  H      2.872780   -3.666370   -1.828010
  H      1.246190   -3.447440   -2.407840
  H      1.563870   -0.960460   -2.278530
  H      3.180330   -1.214490   -1.665680
  H      1.799160   -1.726080   -0.725620

 Total Charge           Charge          ....    1
 Multiplicity           Mult            ....    1
 Number of Electrons    NEL             ....   48
 Basis Dimension        Dim             ....  200

ORBITAL ENERGIES
----------------

  NO   OCC          E(Eh)            E(eV)
   0   2.0000     -14.420510      -392.4020
   1   2.0000     -14.416264      -392.2865
   2   2.0000     -14.413435      -392.2095
   3   2.0000     -10.430578      -283.8305
   4   2.0000     -10.295208      -280.1469
   5   2.0000     -10.227564      -278.3062
   6   2.0000      -1.317581       -35.8532
   7   2.0000      -1.203368       -32.7453
   8   2.0000      -1.197933       -32.5974
   9   2.0000      -1.034410       -28.1477
  10   2.0000      -0.947449       -25.7814
  11   2.0000      -0.911924       -24.8147
  12   2.0000      -0.895018       -24.3547
  13   2.0000      -0.847202       -23.0535
  14   2.0000      -0.809287       -22.0218
  15   2.0000      -0.788889       -21.4668
  16   2.0000      -0.758526       -20.6406
  17   2.0000      -0.729703       -19.8562
  18   2.0000      -0.708145       -19.2696
  19   2.0000      -0.674946       -18.3662
  20   2.0000      -0.636575       -17.3221
  21   2.0000      -0.615822       -16.7574
  22   2.0000      -0.590851       -16.0779
  23   2.0000      -0.551079       -14.9956
  24   0.0000      -0.119261        -3.2453
  25   0.0000      -0.097095        -2.6421
  26   0.0000      -0.065357        -1.7785
  27   0.0000      -0.052619        -1.4318
  28   0.0000      -0.031902        -0.8681

MULLIKEN ATOMIC CHARGES
-----------------------
   0 C :    0.451302
   1 N :   -0.228994
   2 C :    0.599391
   3 N :    0.281627
   4 N :    0.170248
   5 H :   -0.014282
   6 H :    0.013499
   7 H :   -0.184824
   8 H :   -0.054444
   9 H :   -0.054392
  10 C :    0.947730
  11 H :   -0.323430
  12 H :   -0.234071
  13 H :   -0.191638
  14 H :   -0.104658
  15 H :   -0.073063
Sum of atomic charges:    1.0000000

LOEWDIN ATOMIC CHARGES
----------------------
   0 C :    0.019720
   1 N :    0.065845
   2 C :   -0.073261
   3 N :    0.294139
   4 N :    0.281894
   5 H :    0.036378
   6 H :    0.035980
   7 H :    0.052405
   8 H :    0.025753
   9 H :    0.049245
  10 C :    0.151963
  11 H :    0.045241
  12 H :    0.019568
  13 H :   -0.011029
  14 H :   -0.002590
  15 H :    0.008749

  Mayer bond orders larger than 0.100000
B(  0-C ,  1-N ) :   0.9573 B(  0-C ,  7-H ) :  -0.1054 B(  0-C , 10-C ) :   1.2592
B(  0-C , 11-H ) :   0.8157 B(  0-C , 12-H ) :   0.8135 B(  0-C , 13-H ) :   0.2538
B(  0-C , 14-H ) :   0.2266 B(  0-C , 15-H ) :   0.2156 B(  1-N ,  2-C ) :   1.1556
B(  1-N ,  4-N ) :   0.1539 B(  1-N ,  7-H ) :   1.1894 B(  1-N , 11-H ) :   0.2103
B(  1-N , 12-H ) :   0.1349 B(  2-C ,  3-N ) :   1.1371 B(  2-C ,  4-N ) :   1.0987
B(  2-C ,  7-H ) :  -0.2008 B(  3-N ,  4-N ) :   0.1377 B(  3-N ,  8-H ) :   1.0022
B(  3-N ,  9-H ) :   1.2004 B(  4-N ,  5-H ) :   1.0083 B(  4-N ,  6-H ) :   0.9940
B(  8-H ,  9-H ) :  -0.1684 B( 10-C , 13-H ) :   0.7596 B( 10-C , 14-H ) :   0.7500
B( 10-C , 15-H ) :   0.7453

FINAL SINGLE POINT ENERGY      -283.468175973722

DIPOLE MOMENT
-------------
                                X             Y             Z
Electronic contribution:      0.18034      -1.67684      -5.18942
Nuclear contribution   :     -0.59121       2.30298       4.63196
                        -----------------------------------------
Total Dipole Moment    :     -0.41086       0.62614      -0.55747
                        -----------------------------------------
Magnitude (a.u.)       :      0.93361
Magnitude (Debye)      :      2.37305

Rotational constants in cm-1:     0.205874     0.074757     0.066901
Rotational constants in MHz :  6171.937773  2241.151057  2005.629823

                             ****ORCA TERMINATED NORMALLY****
TOTAL RUN TIME: 0 days 0 hours 0 minutes 31 seconds 970 msec
