                         Program Version 5.0.0 -  RELEASE  -
|  1> !LC-BLYP RIJCOSX def2-SVPD def2/J TightSCF xyzfile
|  2>
|  3> *xyzfile 0 1 B.xyz
|  4>
|  5> %MaxCore 64000
|  6>
|  7> %pal nprocs 4
|  8> end
|  9>
| 10> %scf
| 11>   MaxIter 150
| 12> end
| 13>
| 14>
| 15>                          ****END OF INPUT****

CARTESIAN COORDINATES (ANGSTROEM)
---------------------------------
  C      2.234473   -2.989754   -2.397622
  N      2.756799   -2.945553   -3.765029
  C     -1.104325    0.251374   -2.860056
  C     -0.711893    0.842517   -4.218344
  H      0.154626    1.499800   -4.130909
  H     -1.538134    1.459222   -4.582671
  C     -0.397624   -0.205875   -5.288018
  C      1.987208   -2.590451   -4.818975
  N      0.743221   -3.017493   -4.913524
  N      2.499636   -1.848598   -5.803241
  H      3.309780   -1.292818   -5.558947
  H      1.801025   -1.304298   -6.289129
  H      3.716116   -2.628797   -3.829533
  H      0.395828   -3.627747   -4.185024
  H      0.039201   -2.454383   -5.371367
  O      0.617165   -0.005348   -5.998273
  O     -1.133173   -1.221380   -5.341465
  C      2.191199   -1.619503   -1.715492
  H      2.872783   -3.666368   -1.828014
  H      1.246188   -3.447444   -2.407842
  C      1.298729   -0.554314   -2.359773
  H      1.872917   -1.787955   -0.681310
  H      3.216809   -1.238432   -1.654428
  C     -0.196255   -0.863365   -2.325763
  H      1.612531   -0.371346   -3.393065
  H      1.480944    0.388638   -1.834444
  H     -0.404105   -1.761825   -2.909448
  H     -0.490439   -1.087880   -1.294131
  H     -1.143842    1.066711   -2.129680
  H     -2.114401   -0.156834   -2.930323

 Total Charge           Charge          ....    0
 Multiplicity           Mult            ....    1
 Number of Electrons    NEL             ....  102
 Basis Dimension        Dim             ....  402

ORBITAL ENERGIES
----------------

  NO   OCC          E(Eh)            E(eV)
   0   2.0000     -18.879544      -513.7385
   1   2.0000     -18.877659      -513.6872
   2   2.0000     -14.259083      -388.0094
   3   2.0000     -14.228657      -387.1814
   4   2.0000     -14.227447      -387.1485
   5   2.0000     -10.256885      -279.1040
   6   2.0000     -10.161139      -276.4987
   7   2.0000     -10.151250      -276.2295
   8   2.0000     -10.110913      -275.1319
   9   2.0000     -10.091137      -274.5938
  10   2.0000     -10.077376      -274.2193
  11   2.0000     -10.067871      -273.9607
  12   2.0000     -10.055167      -273.6150
  13   2.0000      -1.146428       -31.1959
  14   2.0000      -1.095184       -29.8015
  15   2.0000      -1.040865       -28.3234
  16   2.0000      -1.018925       -27.7263
  17   2.0000      -0.996064       -27.1043
  18   2.0000      -0.925708       -25.1898
  19   2.0000      -0.883069       -24.0295
  20   2.0000      -0.831546       -22.6275
  21   2.0000      -0.787243       -21.4220
  22   2.0000      -0.760525       -20.6949
  23   2.0000      -0.730413       -19.8755
  24   2.0000      -0.721258       -19.6264
  25   2.0000      -0.687324       -18.7030
  26   2.0000      -0.663255       -18.0481
  27   2.0000      -0.644684       -17.5427
  28   2.0000      -0.617918       -16.8144
  29   2.0000      -0.607446       -16.5295
  30   2.0000      -0.590850       -16.0779
  31   2.0000      -0.580495       -15.7961
  32   2.0000      -0.567454       -15.4412
  33   2.0000      -0.555712       -15.1217
  34   2.0000      -0.544784       -14.8243
  35   2.0000      -0.533705       -14.5229
  36   2.0000      -0.517274       -14.0757
  37   2.0000      -0.513013       -13.9598
  38   2.0000      -0.493334       -13.4243
  39   2.0000      -0.486594       -13.2409
  40   2.0000      -0.470979       -12.8160
  41   2.0000      -0.460173       -12.5219
  42   2.0000      -0.447751       -12.1839
  43   2.0000      -0.428310       -11.6549
  44   2.0000      -0.416408       -11.3310
  45   2.0000      -0.408134       -11.1059
  46   2.0000      -0.403157       -10.9705
  47   2.0000      -0.394237       -10.7277
  48   2.0000      -0.333527        -9.0757
  49   2.0000      -0.322526        -8.7764
  50   2.0000      -0.315816        -8.5938
  51   0.0000       0.041254         1.1226
  52   0.0000       0.050804         1.3824
  53   0.0000       0.062346         1.6965
  54   0.0000       0.077072         2.0972
  55   0.0000       0.085941         2.3386

MULLIKEN ATOMIC CHARGES
-----------------------
   0 C :    0.954719
   1 N :   -0.295780
   2 C :    0.733077
   3 C :    0.472708
   4 H :    0.101455
   5 H :   -0.379400
   6 C :   -0.048234
   7 C :    0.535149
   8 N :    0.527411
   9 N :    0.285003
  10 H :    0.054106
  11 H :   -0.245459
  12 H :   -0.141979
  13 H :    0.017152
  14 H :   -0.442828
  15 O :   -0.463693
  16 O :   -0.586906
  17 C :    0.566551
  18 H :   -0.460944
  19 H :   -0.075449
  20 C :    0.189713
  21 H :   -0.036236
  22 H :   -0.177936
  23 C :    0.183368
  24 H :   -0.306784
  25 H :   -0.245895
  26 H :   -0.302110
  27 H :   -0.226117
  28 H :   -0.194780
  29 H :    0.010116
Sum of atomic charges:    0.0000000

LOEWDIN ATOMIC CHARGES
----------------------
   0 C :    0.047113
   1 N :    0.053301
   2 C :   -0.031114
   3 C :    0.021638
   4 H :    0.020334
   5 H :    0.035995
   6 C :   -0.252212
   7 C :   -0.079362
   8 N :    0.320528
   9 N :    0.285651
  10 H :    0.024008
  11 H :   -0.075272
  12 H :    0.036370
  13 H :    0.017811
  14 H :   -0.084817
  15 O :   -0.238456
  16 O :   -0.229392
  17 C :   -0.025482
  18 H :    0.030832
  19 H :    0.013493
  20 C :   -0.032606
  21 H :    0.033732
  22 H :    0.026403
  23 C :   -0.038802
  24 H :    0.009119
  25 H :    0.036949
  26 H :   -0.008599
  27 H :    0.029289
  28 H :    0.023799
  29 H :    0.029749

  Mayer bond orders larger than 0.100000
B(  0-C ,  1-N ) :   0.9746 B(  0-C , 17-C ) :   1.0839 B(  0-C , 18-H ) :   0.6846
B(  0-C , 19-H ) :   0.7345 B(  0-C , 20-C ) :   0.1176 B(  0-C , 21-H ) :   0.1629
B(  0-C , 22-H ) :   0.1447 B(  1-N ,  7-C ) :   1.0293 B(  1-N ,  8-N ) :   0.1022
B(  1-N ,  9-N ) :   0.1769 B(  1-N , 12-H ) :   1.1526 B(  1-N , 18-H ) :   0.2343
B(  1-N , 19-H ) :   0.1212 B(  2-C ,  3-C ) :   1.1386 B(  2-C ,  4-H ) :   0.1218
B(  2-C ,  5-H ) :   0.1717 B(  2-C , 23-C ) :   1.2181 B(  2-C , 28-H ) :   0.7065
B(  2-C , 29-H ) :   0.5527 B(  3-C ,  4-H ) :   0.7515 B(  3-C ,  5-H ) :   0.6962
B(  3-C ,  6-C ) :   1.1207 B(  3-C , 23-C ) :   0.1704 B(  3-C , 28-H ) :   0.1875
B(  3-C , 29-H ) :   0.1222 B(  4-H ,  5-H ) :  -0.1237 B(  4-H ,  6-C ) :   0.3308
B(  4-H , 15-O ) :  -0.1043 B(  5-H ,  6-C ) :   0.1800 B(  5-H , 24-H ) :  -0.1036
B(  6-C , 15-O ) :   1.5584 B(  6-C , 16-O ) :   1.5689 B(  6-C , 24-H ) :   0.1051
B(  7-C ,  8-N ) :   1.0785 B(  7-C ,  9-N ) :   0.9634 B(  7-C , 12-H ) :  -0.1973
B(  7-C , 14-H ) :  -0.1466 B(  8-N ,  9-N ) :   0.1335 B(  8-N , 13-H ) :   0.8775
B(  8-N , 14-H ) :   1.2175 B(  9-N , 10-H ) :   0.9226 B(  9-N , 11-H ) :   1.0000
B( 11-H , 15-O ) :   0.1363 B( 13-H , 14-H ) :  -0.2605 B( 14-H , 16-O ) :   0.2413
B( 15-O , 16-O ) :   0.1238 B( 17-C , 18-H ) :   0.1226 B( 17-C , 19-H ) :   0.1514
B( 17-C , 20-C ) :   1.1976 B( 17-C , 21-H ) :   0.7489 B( 17-C , 22-H ) :   0.6276
B( 17-C , 24-H ) :   0.1038 B( 18-H , 19-H ) :  -0.1835 B( 20-C , 21-H ) :   0.1811
B( 20-C , 22-H ) :   0.3022 B( 20-C , 23-C ) :   1.2591 B( 20-C , 24-H ) :   0.8491
B( 20-C , 25-H ) :   0.7719 B( 20-C , 26-H ) :   0.1869 B( 20-C , 27-H ) :   0.2622
B( 21-H , 22-H ) :  -0.1362 B( 23-C , 24-H ) :   0.1914 B( 23-C , 25-H ) :   0.2142
B( 23-C , 26-H ) :   0.8304 B( 23-C , 27-H ) :   0.6745 B( 23-C , 28-H ) :   0.1939
B( 23-C , 29-H ) :   0.3179 B( 28-H , 29-H ) :  -0.1575

FINAL SINGLE POINT ENERGY      -627.890719834405

DIPOLE MOMENT
-------------
                                X             Y             Z
Electronic contribution:      0.59410      -2.82967     -10.17947
Nuclear contribution   :      1.76912       1.50070      12.36652
                        -----------------------------------------
Total Dipole Moment    :      2.36322      -1.32898       2.18706
                        -----------------------------------------
Magnitude (a.u.)       :      3.48342
Magnitude (Debye)      :      8.85414

Rotational constants in cm-1:     0.033272     0.023886     0.017112
Rotational constants in MHz :   997.469575   716.074432   513.001395

                             ****ORCA TERMINATED NORMALLY****
TOTAL RUN TIME: 0 days 0 hours 3 minutes 3 seconds 622 msec
