                         Program Version 5.0.0 -  RELEASE  -
|  1> !LC-BLYP RIJCOSX def2-SVPD def2/J TightSCF
|  2> *xyz 0 1
|  3> C         -1.10433        0.25137       -2.86006
|  4> C         -0.71189        0.84252       -4.21834
|  5> H          0.15463        1.49980       -4.13091
|  6> H         -1.53813        1.45922       -4.58267
|  7> C         -0.39762       -0.20587       -5.28802
|  8> F          0.61717       -0.00535       -5.99827
|  9> O         -1.13317       -1.22138       -5.34147
| 10> H         -1.95489       -0.38644       -2.98099
| 11> H         -1.34603        1.04362       -2.18269
| 12> H         -0.28606       -0.31581       -2.46809
| 13> *
| 14>
| 15> %MaxCore 64000
| 16>
| 17> %pal nprocs 4
| 18> end
| 19>
| 20> %scf
| 21>   MaxIter 150
| 22> end
| 23>
| 24>
| 25>                          ****END OF INPUT****

CARTESIAN COORDINATES (ANGSTROEM)
---------------------------------
  C     -1.104330    0.251370   -2.860060
  C     -0.711890    0.842520   -4.218340
  H      0.154630    1.499800   -4.130910
  H     -1.538130    1.459220   -4.582670
  C     -0.397620   -0.205870   -5.288020
  F      0.617170   -0.005350   -5.998270
  O     -1.133170   -1.221380   -5.341470
  H     -1.954890   -0.386440   -2.980990
  H     -1.346030    1.043620   -2.182690
  H     -0.286060   -0.315810   -2.468090

 Total Charge           Charge          ....    0
 Multiplicity           Mult            ....    1
 Number of Electrons    NEL             ....   40
 Basis Dimension        Dim             ....  146

ORBITAL ENERGIES
----------------

  NO   OCC          E(Eh)            E(eV)
   0   2.0000     -24.549628      -668.0293
   1   2.0000     -18.970082      -516.2022
   2   2.0000     -10.272671      -279.5336
   3   2.0000     -10.121070      -275.4083
   4   2.0000     -10.090101      -274.5656
   5   2.0000      -1.390461       -37.8364
   6   2.0000      -1.122502       -30.5448
   7   2.0000      -0.906128       -24.6570
   8   2.0000      -0.795603       -21.6495
   9   2.0000      -0.743940       -20.2436
  10   2.0000      -0.662937       -18.0394
  11   2.0000      -0.644466       -17.5368
  12   2.0000      -0.613085       -16.6829
  13   2.0000      -0.573224       -15.5982
  14   2.0000      -0.540114       -14.6972
  15   2.0000      -0.501614       -13.6496
  16   2.0000      -0.479556       -13.0494
  17   2.0000      -0.477326       -12.9887
  18   2.0000      -0.453961       -12.3529
  19   2.0000      -0.399468       -10.8701
  20   0.0000       0.046417         1.2631
  21   0.0000       0.065199         1.7741
  22   0.0000       0.094282         2.5655
  23   0.0000       0.106184         2.8894
  24   0.0000       0.127153         3.4600

MULLIKEN ATOMIC CHARGES
-----------------------
   0 C :    0.846650
   1 C :   -0.175719
   2 H :   -0.106158
   3 H :   -0.020468
   4 C :    0.452545
   5 F :   -0.270526
   6 O :   -0.354056
   7 H :   -0.101524
   8 H :   -0.140367
   9 H :   -0.130377
Sum of atomic charges:   -0.0000000

LOEWDIN ATOMIC CHARGES
----------------------
   0 C :    0.129690
   1 C :   -0.007907
   2 H :    0.028211
   3 H :    0.045484
   4 C :   -0.052153
   5 F :   -0.012098
   6 O :   -0.110711
   7 H :   -0.007372
   8 H :   -0.009068
   9 H :   -0.004075

  Mayer bond orders larger than 0.100000
B(  0-C ,  1-C ) :   1.3274 B(  0-C ,  2-H ) :   0.1037 B(  0-C ,  7-H ) :   0.7735
B(  0-C ,  8-H ) :   0.7639 B(  0-C ,  9-H ) :   0.7874 B(  1-C ,  2-H ) :   0.9230
B(  1-C ,  3-H ) :   0.8411 B(  1-C ,  4-C ) :   1.0937 B(  1-C ,  7-H ) :   0.2063
B(  1-C ,  8-H ) :   0.2193 B(  1-C ,  9-H ) :   0.1881 B(  2-H ,  4-C ) :   0.1262
B(  4-C ,  5-F ) :   0.8931 B(  4-C ,  6-O ) :   1.9708 B(  5-F ,  6-O ) :   0.1081

FINAL SINGLE POINT ENERGY      -291.579990549354

DIPOLE MOMENT
-------------
                                X             Y             Z
Electronic contribution:      3.60199      -2.33023      -7.69323
Nuclear contribution   :     -3.36368       3.36392       8.24820
                        -----------------------------------------
Total Dipole Moment    :      0.23831       1.03368       0.55497
                        -----------------------------------------
Magnitude (a.u.)       :      1.19720
Magnitude (Debye)      :      3.04303

Rotational constants in cm-1:     0.315013     0.126712     0.098430
Rotational constants in MHz :  9443.861322  3798.734540  2950.846388

                             ****ORCA TERMINATED NORMALLY****
TOTAL RUN TIME: 0 days 0 hours 0 minutes 18 seconds 319 msec
