                         Program Version 5.0.0 -  RELEASE  -
|  1> !LC-BLYP RIJCOSX def2-SVPD def2/J TightSCF
|  2> *xyz 0 1
|  3> C          2.23447       -2.98975       -2.39762
|  4> C          2.75680       -2.94555       -3.76503
|  5> C          1.98721       -2.59045       -4.81898
|  6> N          0.74322       -3.01749       -4.91352
|  7> N          2.49964       -1.84860       -5.80324
|  8> H          3.30978       -1.29282       -5.55895
|  9> H          1.80103       -1.30430       -6.28913
| 10> H          3.71612       -2.62880       -3.82953
| 11> H          0.39583       -3.62775       -4.18502
| 12> H          0.03920       -2.45438       -5.37137
| 13> C          2.19120       -1.61950       -1.71549
| 14> H          2.87278       -3.66637       -1.82801
| 15> H          1.24619       -3.44744       -2.40784
| 16> H          1.56387       -0.96046       -2.27853
| 17> H          3.18033       -1.21449       -1.66568
| 18> H          1.79916       -1.72608       -0.72562
| 19> *
| 20>
| 21> %MaxCore 64000
| 22>
| 23> %pal nprocs 4
| 24> end
| 25>
| 26> %scf
| 27>   MaxIter 150
| 28> end
| 29>
| 30>
| 31>                          ****END OF INPUT****

CARTESIAN COORDINATES (ANGSTROEM)
---------------------------------
  C      2.234470   -2.989750   -2.397620
  C      2.756800   -2.945550   -3.765030
  C      1.987210   -2.590450   -4.818980
  N      0.743220   -3.017490   -4.913520
  N      2.499640   -1.848600   -5.803240
  H      3.309780   -1.292820   -5.558950
  H      1.801030   -1.304300   -6.289130
  H      3.716120   -2.628800   -3.829530
  H      0.395830   -3.627750   -4.185020
  H      0.039200   -2.454380   -5.371370
  C      2.191200   -1.619500   -1.715490
  H      2.872780   -3.666370   -1.828010
  H      1.246190   -3.447440   -2.407840
  H      1.563870   -0.960460   -2.278530
  H      3.180330   -1.214490   -1.665680
  H      1.799160   -1.726080   -0.725620

 Total Charge           Charge          ....    0
 Multiplicity           Mult            ....    1
 Number of Electrons    NEL             ....   48
 Basis Dimension        Dim             ....  200

ORBITAL ENERGIES
----------------

  NO   OCC          E(Eh)            E(eV)
   0   2.0000     -14.196343      -386.3021
   1   2.0000     -14.191503      -386.1704
   2   2.0000     -10.137875      -275.8656
   3   2.0000     -10.063633      -273.8454
   4   2.0000     -10.055274      -273.6179
   5   2.0000     -10.012766      -272.4612
   6   2.0000      -1.067209       -29.0402
   7   2.0000      -0.974125       -26.5073
   8   2.0000      -0.878876       -23.9154
   9   2.0000      -0.796070       -21.6622
  10   2.0000      -0.723537       -19.6885
  11   2.0000      -0.686556       -18.6821
  12   2.0000      -0.650684       -17.7060
  13   2.0000      -0.613092       -16.6831
  14   2.0000      -0.572399       -15.5758
  15   2.0000      -0.559756       -15.2317
  16   2.0000      -0.519274       -14.1302
  17   2.0000      -0.500684       -13.6243
  18   2.0000      -0.476572       -12.9682
  19   2.0000      -0.464080       -12.6283
  20   2.0000      -0.427814       -11.6414
  21   2.0000      -0.418917       -11.3993
  22   2.0000      -0.377705       -10.2779
  23   2.0000      -0.255923        -6.9640
  24   0.0000       0.064546         1.7564
  25   0.0000       0.096853         2.6355
  26   0.0000       0.098767         2.6876
  27   0.0000       0.107852         2.9348
  28   0.0000       0.130035         3.5384

MULLIKEN ATOMIC CHARGES
-----------------------
   0 C :   -0.073270
   1 C :   -0.037601
   2 C :    0.043271
   3 N :    0.215456
   4 N :    0.152780
   5 H :    0.030986
   6 H :   -0.038896
   7 H :   -0.262852
   8 H :   -0.039980
   9 H :   -0.145387
  10 C :    0.986617
  11 H :   -0.118338
  12 H :   -0.285220
  13 H :   -0.185518
  14 H :   -0.123115
  15 H :   -0.118933
Sum of atomic charges:   -0.0000000

LOEWDIN ATOMIC CHARGES
----------------------
   0 C :   -0.118198
   1 C :   -0.028319
   2 C :   -0.258371
   3 N :    0.208974
   4 N :    0.200268
   5 H :    0.002397
   6 H :   -0.012114
   7 H :   -0.054045
   8 H :   -0.005270
   9 H :   -0.001887
  10 C :    0.111621
  11 H :    0.015683
  12 H :   -0.003720
  13 H :   -0.020123
  14 H :   -0.016054
  15 H :   -0.020841

  Mayer bond orders larger than 0.100000
B(  0-C ,  1-C ) :   1.2573 B(  0-C ,  2-C ) :   0.1792 B(  0-C ,  7-H ) :   0.3649
B(  0-C , 10-C ) :   1.2409 B(  0-C , 11-H ) :   0.7625 B(  0-C , 12-H ) :   0.8136
B(  0-C , 13-H ) :   0.2581 B(  0-C , 14-H ) :   0.2636 B(  0-C , 15-H ) :   0.2547
B(  1-C ,  2-C ) :   1.7454 B(  1-C ,  3-N ) :   0.1650 B(  1-C ,  4-N ) :   0.2117
B(  1-C ,  7-H ) :   0.5889 B(  1-C , 11-H ) :   0.2279 B(  1-C , 12-H ) :   0.2398
B(  2-C ,  3-N ) :   1.1957 B(  2-C ,  4-N ) :   1.1030 B(  2-C ,  7-H ) :   0.3152
B(  3-N ,  4-N ) :   0.1138 B(  3-N ,  8-H ) :   1.0102 B(  3-N ,  9-H ) :   1.2080
B(  4-N ,  5-H ) :   0.9517 B(  4-N ,  6-H ) :   0.9036 B(  8-H ,  9-H ) :  -0.1538
B( 10-C , 13-H ) :   0.7646 B( 10-C , 14-H ) :   0.7265 B( 10-C , 15-H ) :   0.7237
B( 11-H , 12-H ) :   0.1112

FINAL SINGLE POINT ENERGY      -267.006838748093

DIPOLE MOMENT
-------------
                                X             Y             Z
Electronic contribution:     -0.32797      -1.37127      -4.95934
Nuclear contribution   :     -0.44240       2.20379       4.66256
                        -----------------------------------------
Total Dipole Moment    :     -0.77037       0.83252      -0.29678
                        -----------------------------------------
Magnitude (a.u.)       :      1.17244
Magnitude (Debye)      :      2.98012

Rotational constants in cm-1:     0.209447     0.075194     0.066975
Rotational constants in MHz :  6279.068019  2254.272519  2007.845458

                             ****ORCA TERMINATED NORMALLY****
TOTAL RUN TIME: 0 days 0 hours 0 minutes 34 seconds 838 msec
