                         Program Version 5.0.0 -  RELEASE  -
|  1> !LC-BLYP RIJCOSX def2-SVPD def2/J TightSCF
|  2> *xyz 0 1
|  3> C         -1.10433        0.25137       -2.86006
|  4> C         -0.71189        0.84252       -4.21834
|  5> H          0.15463        1.49980       -4.13091
|  6> H         -1.53813        1.45922       -4.58267
|  7> C         -0.39762       -0.20587       -5.28802
|  8> O          0.61717       -0.00535       -5.99827
|  9> F         -1.13317       -1.22138       -5.34147
| 10> H         -1.95489       -0.38644       -2.98099
| 11> H         -1.34603        1.04362       -2.18269
| 12> H         -0.28606       -0.31581       -2.46809
| 13> *
| 14>
| 15> %MaxCore 64000
| 16>
| 17> %pal nprocs 4
| 18> end
| 19>
| 20> %scf
| 21>   MaxIter 150
| 22> end
| 23>
| 24>
| 25>                          ****END OF INPUT****

CARTESIAN COORDINATES (ANGSTROEM)
---------------------------------
  C     -1.104330    0.251370   -2.860060
  C     -0.711890    0.842520   -4.218340
  H      0.154630    1.499800   -4.130910
  H     -1.538130    1.459220   -4.582670
  C     -0.397620   -0.205870   -5.288020
  O      0.617170   -0.005350   -5.998270
  F     -1.133170   -1.221380   -5.341470
  H     -1.954890   -0.386440   -2.980990
  H     -1.346030    1.043620   -2.182690
  H     -0.286060   -0.315810   -2.468090

 Total Charge           Charge          ....    0
 Multiplicity           Mult            ....    1
 Number of Electrons    NEL             ....   40
 Basis Dimension        Dim             ....  146

ORBITAL ENERGIES
----------------

  NO   OCC          E(Eh)            E(eV)
   0   2.0000     -24.550576      -668.0551
   1   2.0000     -18.968768      -516.1664
   2   2.0000     -10.272033      -279.5162
   3   2.0000     -10.120268      -275.3865
   4   2.0000     -10.096219      -274.7321
   5   2.0000      -1.390986       -37.8507
   6   2.0000      -1.121445       -30.5161
   7   2.0000      -0.910496       -24.7758
   8   2.0000      -0.790329       -21.5059
   9   2.0000      -0.751327       -20.4447
  10   2.0000      -0.664652       -18.0861
  11   2.0000      -0.652751       -17.7622
  12   2.0000      -0.602748       -16.4016
  13   2.0000      -0.574160       -15.6237
  14   2.0000      -0.539244       -14.6736
  15   2.0000      -0.508365       -13.8333
  16   2.0000      -0.489830       -13.3290
  17   2.0000      -0.480354       -13.0711
  18   2.0000      -0.454559       -12.3692
  19   2.0000      -0.394230       -10.7275
  20   0.0000       0.048277         1.3137
  21   0.0000       0.063043         1.7155
  22   0.0000       0.096364         2.6222
  23   0.0000       0.103575         2.8184
  24   0.0000       0.127508         3.4697

MULLIKEN ATOMIC CHARGES
-----------------------
   0 C :    0.846848
   1 C :   -0.157578
   2 H :   -0.113975
   3 H :   -0.034898
   4 C :    0.466957
   5 O :   -0.328635
   6 F :   -0.294356
   7 H :   -0.113674
   8 H :   -0.137253
   9 H :   -0.133436
Sum of atomic charges:   -0.0000000

LOEWDIN ATOMIC CHARGES
----------------------
   0 C :    0.122279
   1 C :   -0.001880
   2 H :    0.038975
   3 H :    0.043616
   4 C :   -0.054758
   5 O :   -0.115367
   6 F :   -0.007725
   7 H :   -0.011792
   8 H :   -0.008570
   9 H :   -0.004776

  Mayer bond orders larger than 0.100000
B(  0-C ,  1-C ) :   1.2994 B(  0-C ,  7-H ) :   0.7667 B(  0-C ,  8-H ) :   0.7723
B(  0-C ,  9-H ) :   0.7936 B(  1-C ,  2-H ) :   0.9492 B(  1-C ,  3-H ) :   0.8404
B(  1-C ,  4-C ) :   1.0604 B(  1-C ,  7-H ) :   0.1955 B(  1-C ,  8-H ) :   0.2202
B(  1-C ,  9-H ) :   0.1831 B(  2-H ,  4-C ) :   0.1504 B(  4-C ,  5-O ) :   1.9601
B(  4-C ,  6-F ) :   0.8701 B(  5-O ,  6-F ) :   0.1146

FINAL SINGLE POINT ENERGY      -291.578988291291

DIPOLE MOMENT
-------------
                                X             Y             Z
Electronic contribution:      0.66514      -4.34963      -6.56534
Nuclear contribution   :     -1.45527       4.68977       7.53208
                        -----------------------------------------
Total Dipole Moment    :     -0.79013       0.34014       0.96674
                        -----------------------------------------
Magnitude (a.u.)       :      1.29406
Magnitude (Debye)      :      3.28923

Rotational constants in cm-1:     0.298240     0.132464     0.099915
Rotational constants in MHz :  8940.998095  3971.171647  2995.369122

                             ****ORCA TERMINATED NORMALLY****
TOTAL RUN TIME: 0 days 0 hours 0 minutes 19 seconds 860 msec
