                         Program Version 5.0.0 -  RELEASE  -
|  1> !LC-BLYP RIJCOSX def2-SVPD def2/J TightSCF
|  2> *xyz 0 1
|  3> C          2.23447       -2.98975       -2.39762
|  4> N          2.75680       -2.94555       -3.76503
|  5> C          1.98721       -2.59045       -4.81898
|  6> C          0.74322       -3.01749       -4.91352
|  7> N          2.49964       -1.84860       -5.80324
|  8> H          3.30978       -1.29282       -5.55895
|  9> H          1.80103       -1.30430       -6.28913
| 10> H          3.71612       -2.62880       -3.82953
| 11> H          0.39583       -3.62775       -4.18502
| 12> H          0.03920       -2.45438       -5.37137
| 13> C          2.19120       -1.61950       -1.71549
| 14> H          2.87278       -3.66637       -1.82801
| 15> H          1.24619       -3.44744       -2.40784
| 16> H          1.56387       -0.96046       -2.27853
| 17> H          3.18033       -1.21449       -1.66568
| 18> H          1.79916       -1.72608       -0.72562
| 19> *
| 20>
| 21> %MaxCore 64000
| 22>
| 23> %pal nprocs 4
| 24> end
| 25>
| 26> %scf
| 27>   MaxIter 150
| 28> end
| 29>
| 30>
| 31>                          ****END OF INPUT****

CARTESIAN COORDINATES (ANGSTROEM)
---------------------------------
  C      2.234470   -2.989750   -2.397620
  N      2.756800   -2.945550   -3.765030
  C      1.987210   -2.590450   -4.818980
  C      0.743220   -3.017490   -4.913520
  N      2.499640   -1.848600   -5.803240
  H      3.309780   -1.292820   -5.558950
  H      1.801030   -1.304300   -6.289130
  H      3.716120   -2.628800   -3.829530
  H      0.395830   -3.627750   -4.185020
  H      0.039200   -2.454380   -5.371370
  C      2.191200   -1.619500   -1.715490
  H      2.872780   -3.666370   -1.828010
  H      1.246190   -3.447440   -2.407840
  H      1.563870   -0.960460   -2.278530
  H      3.180330   -1.214490   -1.665680
  H      1.799160   -1.726080   -0.725620

 Total Charge           Charge          ....    0
 Multiplicity           Mult            ....    1
 Number of Electrons    NEL             ....   48
 Basis Dimension        Dim             ....  200

ORBITAL ENERGIES
----------------

  NO   OCC          E(Eh)            E(eV)
   0   2.0000     -14.191333      -386.1658
   1   2.0000     -14.189958      -386.1284
   2   2.0000     -10.135158      -275.7917
   3   2.0000     -10.118074      -275.3268
   4   2.0000     -10.075600      -274.1710
   5   2.0000     -10.005677      -272.2683
   6   2.0000      -1.064313       -28.9614
   7   2.0000      -0.984427       -26.7876
   8   2.0000      -0.859569       -23.3901
   9   2.0000      -0.818357       -22.2686
  10   2.0000      -0.745795       -20.2941
  11   2.0000      -0.666507       -18.1366
  12   2.0000      -0.652069       -17.7437
  13   2.0000      -0.617376       -16.7997
  14   2.0000      -0.568965       -15.4823
  15   2.0000      -0.552165       -15.0252
  16   2.0000      -0.523225       -14.2377
  17   2.0000      -0.500733       -13.6256
  18   2.0000      -0.496698       -13.5158
  19   2.0000      -0.471525       -12.8308
  20   2.0000      -0.462864       -12.5952
  21   2.0000      -0.446693       -12.1551
  22   2.0000      -0.353012        -9.6060
  23   2.0000      -0.273306        -7.4370
  24   0.0000       0.065756         1.7893
  25   0.0000       0.093647         2.5483
  26   0.0000       0.102218         2.7815
  27   0.0000       0.104251         2.8368
  28   0.0000       0.128988         3.5099

MULLIKEN ATOMIC CHARGES
-----------------------
   0 C :    0.378691
   1 N :   -0.120624
   2 C :    0.206179
   3 C :    0.517150
   4 N :    0.191165
   5 H :   -0.103041
   6 H :    0.016467
   7 H :   -0.300200
   8 H :   -0.234713
   9 H :   -0.488588
  10 C :    0.939563
  11 H :   -0.355937
  12 H :   -0.201295
  13 H :   -0.181324
  14 H :   -0.141411
  15 H :   -0.122082
Sum of atomic charges:    0.0000000

LOEWDIN ATOMIC CHARGES
----------------------
   0 C :   -0.004247
   1 N :    0.005238
   2 C :   -0.265876
   3 C :    0.154013
   4 N :    0.198152
   5 H :   -0.014828
   6 H :    0.000485
   7 H :    0.012477
   8 H :   -0.101273
   9 H :   -0.089284
  10 C :    0.124480
  11 H :    0.021339
  12 H :    0.010069
  13 H :   -0.016681
  14 H :   -0.019717
  15 H :   -0.014345

  Mayer bond orders larger than 0.100000
B(  0-C ,  1-N ) :   0.9420 B(  0-C , 10-C ) :   1.2303 B(  0-C , 11-H ) :   0.8246
B(  0-C , 12-H ) :   0.8203 B(  0-C , 13-H ) :   0.2730 B(  0-C , 14-H ) :   0.2386
B(  0-C , 15-H ) :   0.2300 B(  1-N ,  2-C ) :   1.1103 B(  1-N ,  3-C ) :   0.2555
B(  1-N ,  4-N ) :   0.1158 B(  1-N ,  7-H ) :   1.1052 B(  1-N , 11-H ) :   0.1913
B(  1-N , 12-H ) :   0.1234 B(  2-C ,  3-C ) :   1.7435 B(  2-C ,  4-N ) :   1.0254
B(  2-C ,  7-H ) :  -0.1412 B(  2-C ,  8-H ) :   0.3070 B(  2-C ,  9-H ) :   0.1447
B(  3-C ,  4-N ) :   0.2224 B(  3-C ,  8-H ) :   0.4780 B(  3-C ,  9-H ) :   0.7847
B(  4-N ,  5-H ) :   0.9493 B(  4-N ,  6-H ) :   0.9603 B(  8-H ,  9-H ) :   0.2123
B( 10-C , 13-H ) :   0.7541 B( 10-C , 14-H ) :   0.7540 B( 10-C , 15-H ) :   0.7494

FINAL SINGLE POINT ENERGY      -267.001099632180

DIPOLE MOMENT
-------------
                                X             Y             Z
Electronic contribution:      1.48595      -1.24411      -3.82871
Nuclear contribution   :     -0.86957       2.18853       4.41892
                        -----------------------------------------
Total Dipole Moment    :      0.61639       0.94441       0.59021
                        -----------------------------------------
Magnitude (a.u.)       :      1.27287
Magnitude (Debye)      :      3.23537

Rotational constants in cm-1:     0.214718     0.075736     0.068547
Rotational constants in MHz :  6437.075121  2270.519635  2054.974198

                             ****ORCA TERMINATED NORMALLY****
TOTAL RUN TIME: 0 days 0 hours 0 minutes 35 seconds 914 msec
