                         Program Version 5.0.0 -  RELEASE  -
|  1> !LC-BLYP RIJCOSX def2-SVPD def2/J TightSCF
|  2> *xyz 0 1
|  3> C          2.23447       -2.98975       -2.39762
|  4> N          2.75680       -2.94555       -3.76503
|  5> C          1.98721       -2.59045       -4.81898
|  6> N          0.74322       -3.01749       -4.91352
|  7> C          2.49964       -1.84860       -5.80324
|  8> H          3.30978       -1.29282       -5.55895
|  9> H          1.80103       -1.30430       -6.28913
| 10> H          3.71612       -2.62880       -3.82953
| 11> H          0.39583       -3.62775       -4.18502
| 12> H          0.03920       -2.45438       -5.37137
| 13> C          2.19120       -1.61950       -1.71549
| 14> H          2.87278       -3.66637       -1.82801
| 15> H          1.24619       -3.44744       -2.40784
| 16> H          1.56387       -0.96046       -2.27853
| 17> H          3.18033       -1.21449       -1.66568
| 18> H          1.79916       -1.72608       -0.72562
| 19> *
| 20>
| 21> %MaxCore 64000
| 22>
| 23> %pal nprocs 4
| 24> end
| 25>
| 26> %scf
| 27>   MaxIter 150
| 28> end
| 29>
| 30>
| 31>                          ****END OF INPUT****

CARTESIAN COORDINATES (ANGSTROEM)
---------------------------------
  C      2.234470   -2.989750   -2.397620
  N      2.756800   -2.945550   -3.765030
  C      1.987210   -2.590450   -4.818980
  N      0.743220   -3.017490   -4.913520
  C      2.499640   -1.848600   -5.803240
  H      3.309780   -1.292820   -5.558950
  H      1.801030   -1.304300   -6.289130
  H      3.716120   -2.628800   -3.829530
  H      0.395830   -3.627750   -4.185020
  H      0.039200   -2.454380   -5.371370
  C      2.191200   -1.619500   -1.715490
  H      2.872780   -3.666370   -1.828010
  H      1.246190   -3.447440   -2.407840
  H      1.563870   -0.960460   -2.278530
  H      3.180330   -1.214490   -1.665680
  H      1.799160   -1.726080   -0.725620

 Total Charge           Charge          ....    0
 Multiplicity           Mult            ....    1
 Number of Electrons    NEL             ....   48
 Basis Dimension        Dim             ....  200

ORBITAL ENERGIES
----------------

  NO   OCC          E(Eh)            E(eV)
   0   2.0000     -14.193267      -386.2184
   1   2.0000     -14.190098      -386.1322
   2   2.0000     -10.138669      -275.8872
   3   2.0000     -10.126932      -275.5678
   4   2.0000     -10.079660      -274.2815
   5   2.0000     -10.000212      -272.1196
   6   2.0000      -1.066362       -29.0172
   7   2.0000      -0.983941       -26.7744
   8   2.0000      -0.872584       -23.7442
   9   2.0000      -0.811424       -22.0800
  10   2.0000      -0.734532       -19.9876
  11   2.0000      -0.707594       -19.2546
  12   2.0000      -0.647086       -17.6081
  13   2.0000      -0.598680       -16.2909
  14   2.0000      -0.595198       -16.1962
  15   2.0000      -0.542785       -14.7699
  16   2.0000      -0.533708       -14.5229
  17   2.0000      -0.507106       -13.7990
  18   2.0000      -0.478773       -13.0281
  19   2.0000      -0.471427       -12.8282
  20   2.0000      -0.465894       -12.6776
  21   2.0000      -0.455162       -12.3856
  22   2.0000      -0.355675        -9.6784
  23   2.0000      -0.267842        -7.2883
  24   0.0000       0.064116         1.7447
  25   0.0000       0.090936         2.4745
  26   0.0000       0.100295         2.7292
  27   0.0000       0.104076         2.8321
  28   0.0000       0.128149         3.4871

MULLIKEN ATOMIC CHARGES
-----------------------
   0 C :    0.432095
   1 N :   -0.276297
   2 C :    0.105401
   3 N :    0.397327
   4 C :    0.647849
   5 H :   -0.245135
   6 H :   -0.505212
   7 H :   -0.178362
   8 H :   -0.157883
   9 H :   -0.113308
  10 C :    0.910917
  11 H :   -0.357844
  12 H :   -0.246013
  13 H :   -0.189312
  14 H :   -0.136895
  15 H :   -0.087327
Sum of atomic charges:    0.0000000

LOEWDIN ATOMIC CHARGES
----------------------
   0 C :   -0.010744
   1 N :    0.007944
   2 C :   -0.261581
   3 N :    0.209465
   4 C :    0.135791
   5 H :   -0.102572
   6 H :   -0.103273
   7 H :    0.025629
   8 H :   -0.019872
   9 H :    0.013025
  10 C :    0.125546
  11 H :    0.020598
  12 H :    0.004282
  13 H :   -0.015050
  14 H :   -0.014657
  15 H :   -0.014531

  Mayer bond orders larger than 0.100000
B(  0-C ,  1-N ) :   0.9591 B(  0-C ,  7-H ) :  -0.1039 B(  0-C , 10-C ) :   1.2447
B(  0-C , 11-H ) :   0.8155 B(  0-C , 12-H ) :   0.8113 B(  0-C , 13-H ) :   0.2505
B(  0-C , 14-H ) :   0.2417 B(  0-C , 15-H ) :   0.2184 B(  1-N ,  2-C ) :   1.0854
B(  1-N ,  4-C ) :   0.2289 B(  1-N ,  7-H ) :   1.1442 B(  1-N , 11-H ) :   0.2110
B(  1-N , 12-H ) :   0.1366 B(  2-C ,  3-N ) :   1.1525 B(  2-C ,  4-C ) :   1.9143
B(  2-C ,  5-H ) :   0.2470 B(  2-C ,  6-H ) :   0.2787 B(  2-C ,  7-H ) :  -0.1411
B(  3-N ,  4-C ) :   0.2189 B(  3-N ,  8-H ) :   0.9840 B(  3-N ,  9-H ) :   1.1378
B(  4-C ,  5-H ) :   0.6574 B(  4-C ,  6-H ) :   0.6064 B(  5-H ,  6-H ) :   0.3117
B(  8-H ,  9-H ) :  -0.1682 B( 10-C , 13-H ) :   0.7702 B( 10-C , 14-H ) :   0.7395
B( 10-C , 15-H ) :   0.7432

FINAL SINGLE POINT ENERGY      -266.996382420832

DIPOLE MOMENT
-------------
                                X             Y             Z
Electronic contribution:     -0.12360      -2.38109      -2.94438
Nuclear contribution   :     -0.49695       2.43650       4.23017
                        -----------------------------------------
Total Dipole Moment    :     -0.62056       0.05541       1.28579
                        -----------------------------------------
Magnitude (a.u.)       :      1.42878
Magnitude (Debye)      :      3.63167

Rotational constants in cm-1:     0.211102     0.077011     0.069221
Rotational constants in MHz :  6328.667765  2308.731604  2075.192956

                             ****ORCA TERMINATED NORMALLY****
TOTAL RUN TIME: 0 days 0 hours 0 minutes 34 seconds 132 msec
