                         Program Version 5.0.0 -  RELEASE  -
|  1> !LC-BLYP RIJCOSX def2-SVPD def2/J TightSCF xyzfile
|  2>
|  3> *xyzfile 0 1 D1.xyz
|  4>
|  5> %MaxCore 64000
|  6>
|  7> %pal nprocs 4
|  8> end
|  9>
| 10> %scf
| 11>   MaxIter 150
| 12> end
| 13>
| 14>
| 15>                          ****END OF INPUT****

CARTESIAN COORDINATES (ANGSTROEM)
---------------------------------
  C      2.234473   -2.989754   -2.397622
  C      2.756799   -2.945553   -3.765029
  C     -1.104325    0.251374   -2.860056
  C     -0.711893    0.842517   -4.218344
  H      0.154626    1.499800   -4.130909
  H     -1.538134    1.459222   -4.582671
  C     -0.397624   -0.205875   -5.288018
  C      1.987208   -2.590451   -4.818975
  N      0.743221   -3.017493   -4.913524
  N      2.499636   -1.848598   -5.803241
  H      3.309780   -1.292818   -5.558947
  H      1.801025   -1.304298   -6.289129
  H      3.716116   -2.628797   -3.829533
  H      0.395828   -3.627747   -4.185024
  H      0.039201   -2.454383   -5.371367
  F      0.617165   -0.005348   -5.998273
  O     -1.133173   -1.221380   -5.341465
  C      2.191199   -1.619503   -1.715492
  H      2.872783   -3.666368   -1.828014
  H      1.246188   -3.447444   -2.407842
  C      1.298729   -0.554314   -2.359773
  H      1.872917   -1.787955   -0.681310
  H      3.216809   -1.238432   -1.654428
  C     -0.196255   -0.863365   -2.325763
  H      1.612531   -0.371346   -3.393065
  H      1.480944    0.388638   -1.834444
  H     -0.404105   -1.761825   -2.909448
  H     -0.490439   -1.087880   -1.294131
  H     -1.143842    1.066711   -2.129680
  H     -2.114401   -0.156834   -2.930323

 Total Charge           Charge          ....    0
 Multiplicity           Mult            ....    1
 Number of Electrons    NEL             ....  102
 Basis Dimension        Dim             ....  402

ORBITAL ENERGIES
----------------

  NO   OCC          E(Eh)            E(eV)
   0   2.0000     -24.585312      -669.0004
   1   2.0000     -19.001763      -517.0643
   2   2.0000     -14.177387      -385.7863
   3   2.0000     -14.168126      -385.5343
   4   2.0000     -10.301919      -280.3295
   5   2.0000     -10.132717      -275.7252
   6   2.0000     -10.126027      -275.5432
   7   2.0000     -10.105921      -274.9961
   8   2.0000     -10.085174      -274.4315
   9   2.0000     -10.081619      -274.3348
  10   2.0000     -10.068496      -273.9777
  11   2.0000     -10.058010      -273.6924
  12   2.0000     -10.000814      -272.1360
  13   2.0000      -1.427155       -38.8349
  14   2.0000      -1.159469       -31.5507
  15   2.0000      -1.053235       -28.6600
  16   2.0000      -0.959197       -26.1011
  17   2.0000      -0.938406       -25.5353
  18   2.0000      -0.896481       -24.3945
  19   2.0000      -0.859419       -23.3860
  20   2.0000      -0.815084       -22.1796
  21   2.0000      -0.795286       -21.6408
  22   2.0000      -0.759058       -20.6550
  23   2.0000      -0.721639       -19.6368
  24   2.0000      -0.702844       -19.1254
  25   2.0000      -0.689636       -18.7660
  26   2.0000      -0.677464       -18.4347
  27   2.0000      -0.657852       -17.9011
  28   2.0000      -0.648820       -17.6553
  29   2.0000      -0.623927       -16.9779
  30   2.0000      -0.600038       -16.3279
  31   2.0000      -0.592135       -16.1128
  32   2.0000      -0.583966       -15.8905
  33   2.0000      -0.561096       -15.2682
  34   2.0000      -0.550810       -14.9883
  35   2.0000      -0.544609       -14.8196
  36   2.0000      -0.529136       -14.3985
  37   2.0000      -0.516274       -14.0485
  38   2.0000      -0.499536       -13.5931
  39   2.0000      -0.491851       -13.3840
  40   2.0000      -0.481871       -13.1124
  41   2.0000      -0.473576       -12.8866
  42   2.0000      -0.459560       -12.5053
  43   2.0000      -0.447994       -12.1905
  44   2.0000      -0.438252       -11.9254
  45   2.0000      -0.428289       -11.6543
  46   2.0000      -0.416065       -11.3217
  47   2.0000      -0.410161       -11.1611
  48   2.0000      -0.402380       -10.9493
  49   2.0000      -0.358434        -9.7535
  50   2.0000      -0.244457        -6.6520
  51   0.0000       0.016962         0.4616
  52   0.0000       0.055150         1.5007
  53   0.0000       0.078292         2.1304
  54   0.0000       0.082474         2.2442
  55   0.0000       0.088141         2.3984

MULLIKEN ATOMIC CHARGES
-----------------------
   0 C :    0.530775
   1 C :   -0.040193
   2 C :    0.735916
   3 C :    0.373787
   4 H :    0.117526
   5 H :   -0.344423
   6 C :    0.384572
   7 C :    0.056065
   8 N :    0.492383
   9 N :    0.313946
  10 H :    0.127624
  11 H :   -0.235499
  12 H :   -0.313118
  13 H :    0.058597
  14 H :   -0.597600
  15 F :   -0.290655
  16 O :   -0.437716
  17 C :    0.615697
  18 H :   -0.238342
  19 H :   -0.262439
  20 C :    0.215360
  21 H :   -0.090963
  22 H :   -0.185127
  23 C :    0.211118
  24 H :   -0.322551
  25 H :   -0.193160
  26 H :   -0.306854
  27 H :   -0.210368
  28 H :   -0.168221
  29 H :    0.003861
Sum of atomic charges:    0.0000000

LOEWDIN ATOMIC CHARGES
----------------------
   0 C :   -0.072328
   1 C :   -0.023580
   2 C :   -0.021348
   3 C :    0.046690
   4 H :    0.033302
   5 H :    0.048644
   6 C :   -0.005131
   7 C :   -0.245167
   8 N :    0.243278
   9 N :    0.219869
  10 H :    0.007820
  11 H :   -0.070067
  12 H :   -0.056099
  13 H :    0.004503
  14 H :   -0.105801
  15 F :   -0.006285
  16 O :   -0.092971
  17 C :   -0.033718
  18 H :    0.016784
  19 H :   -0.003755
  20 C :   -0.037477
  21 H :    0.023373
  22 H :    0.027697
  23 C :   -0.033207
  24 H :    0.003784
  25 H :    0.029932
  26 H :   -0.003314
  27 H :    0.036299
  28 H :    0.034230
  29 H :    0.034043

  Mayer bond orders larger than 0.100000
B(  0-C ,  1-C ) :   1.1494 B(  0-C ,  7-C ) :   0.1756 B(  0-C , 12-H ) :   0.4311
B(  0-C , 17-C ) :   1.1236 B(  0-C , 18-H ) :   0.6242 B(  0-C , 19-H ) :   0.6785
B(  0-C , 21-H ) :   0.2308 B(  0-C , 22-H ) :   0.2067 B(  1-C ,  7-C ) :   1.5977
B(  1-C ,  8-N ) :   0.1825 B(  1-C ,  9-N ) :   0.3214 B(  1-C , 12-H ) :   0.4462
B(  1-C , 18-H ) :   0.2472 B(  1-C , 19-H ) :   0.2551 B(  2-C ,  3-C ) :   1.1422
B(  2-C ,  4-H ) :   0.1287 B(  2-C ,  5-H ) :   0.1818 B(  2-C , 23-C ) :   1.2159
B(  2-C , 28-H ) :   0.6999 B(  2-C , 29-H ) :   0.5615 B(  3-C ,  4-H ) :   0.7817
B(  3-C ,  5-H ) :   0.6978 B(  3-C ,  6-C ) :   1.1877 B(  3-C , 23-C ) :   0.1619
B(  3-C , 28-H ) :   0.1866 B(  3-C , 29-H ) :   0.1059 B(  4-H ,  5-H ) :  -0.1163
B(  4-H ,  6-C ) :   0.1991 B(  5-H ,  6-C ) :   0.2104 B(  5-H , 24-H ) :  -0.1009
B(  6-C , 15-F ) :   0.8146 B(  6-C , 16-O ) :   1.8459 B(  7-C ,  8-N ) :   1.1135
B(  7-C ,  9-N ) :   0.9457 B(  7-C , 11-H ) :   0.1576 B(  7-C , 12-H ) :   0.4347
B(  8-N ,  9-N ) :   0.1114 B(  8-N , 13-H ) :   0.8836 B(  8-N , 14-H ) :   1.1591
B(  9-N , 10-H ) :   0.8368 B(  9-N , 11-H ) :   0.7974 B( 13-H , 14-H ) :  -0.2802
B( 14-H , 16-O ) :   0.1900 B( 15-F , 16-O ) :   0.1121 B( 17-C , 18-H ) :   0.1209
B( 17-C , 19-H ) :   0.1473 B( 17-C , 20-C ) :   1.2263 B( 17-C , 21-H ) :   0.6959
B( 17-C , 22-H ) :   0.5927 B( 17-C , 24-H ) :   0.1262 B( 20-C , 21-H ) :   0.1751
B( 20-C , 22-H ) :   0.3332 B( 20-C , 23-C ) :   1.2373 B( 20-C , 24-H ) :   0.8201
B( 20-C , 25-H ) :   0.7052 B( 20-C , 26-H ) :   0.1793 B( 20-C , 27-H ) :   0.2366
B( 21-H , 22-H ) :  -0.1716 B( 23-C , 24-H ) :   0.2005 B( 23-C , 25-H ) :   0.2352
B( 23-C , 26-H ) :   0.8435 B( 23-C , 27-H ) :   0.6929 B( 23-C , 28-H ) :   0.1841
B( 23-C , 29-H ) :   0.3239 B( 28-H , 29-H ) :  -0.1538

FINAL SINGLE POINT ENERGY      -635.753442658596

DIPOLE MOMENT
-------------
                                X             Y             Z
Electronic contribution:     -3.11721       2.28197     -14.47797
Nuclear contribution   :      2.31842      -0.27661      14.74721
                        -----------------------------------------
Total Dipole Moment    :     -0.79878       2.00537       0.26923
                        -----------------------------------------
Magnitude (a.u.)       :      2.17533
Magnitude (Debye)      :      5.52924

Rotational constants in cm-1:     0.032691     0.023990     0.017099
Rotational constants in MHz :   980.050971   719.190545   512.606858

                             ****ORCA TERMINATED NORMALLY****
TOTAL RUN TIME: 0 days 0 hours 3 minutes 1 seconds 748 msec
