                         Program Version 5.0.0 -  RELEASE  -
|  1> !DLPNO-CCSD(T) aug-cc-pVTZ aug-cc-pVTZ/C TightSCF TightPNO RIJCOSX def2/J
|  2> *xyz -1 1
|  3> C          0.64866        1.00359       -3.64560
|  4> C          0.13297        2.38587       -4.02462
|  5> C         -1.36646        2.47911       -4.31393
|  6> C         -2.35773        2.30686       -3.13675
|  7> H         -1.63680        1.72709       -5.06399
|  8> H         -1.58235        3.44561       -4.76869
|  9> O         -3.44376        2.84652       -3.25274
| 10> O         -1.97092        1.58304       -2.15123
| 11> H          0.41484        3.10285       -3.24517
| 12> H          0.68317        2.68756       -4.91972
| 13> H          0.37534        0.30051       -4.40446
| 14> H          0.21856        0.70606       -2.71212
| 15> H          1.71431        1.03324       -3.55398
| 16> *
| 17> %MaxCore 64000
| 18>
| 19> %pal nprocs 8
| 20> end
| 21>
| 22> %scf
| 23>   MaxIter 150
| 24> end
| 25>
| 26>
| 27>                          ****END OF INPUT****

CARTESIAN COORDINATES (ANGSTROEM)
---------------------------------
  C      0.648660    1.003590   -3.645600
  C      0.132970    2.385870   -4.024620
  C     -1.366460    2.479110   -4.313930
  C     -2.357730    2.306860   -3.136750
  H     -1.636800    1.727090   -5.063990
  H     -1.582350    3.445610   -4.768690
  O     -3.443760    2.846520   -3.252740
  O     -1.970920    1.583040   -2.151230
  H      0.414840    3.102850   -3.245170
  H      0.683170    2.687560   -4.919720
  H      0.375340    0.300510   -4.404460
  H      0.218560    0.706060   -2.712120
  H      1.714310    1.033240   -3.553980

 Total Charge           Charge          ....   -1
 Multiplicity           Mult            ....    1
 Number of Electrons    NEL             ....   48
 Basis Dimension        Dim             ....  437

ORBITAL ENERGIES
----------------

  NO   OCC          E(Eh)            E(eV)
   0   2.0000     -20.292749      -552.1938
   1   2.0000     -20.279800      -551.8414
   2   2.0000     -11.129165      -302.8400
   3   2.0000     -11.075729      -301.3859
   4   2.0000     -11.059943      -300.9564
   5   2.0000     -11.054972      -300.8211
   6   2.0000      -1.175065       -31.9751
   7   2.0000      -1.059030       -28.8177
   8   2.0000      -0.909912       -24.7600
   9   2.0000      -0.792481       -21.5645
  10   2.0000      -0.667117       -18.1532
  11   2.0000      -0.518980       -14.1222
  12   2.0000      -0.474805       -12.9201
  13   2.0000      -0.460838       -12.5400
  14   2.0000      -0.421281       -11.4637
  15   2.0000      -0.408238       -11.1087
  16   2.0000      -0.396767       -10.7966
  17   2.0000      -0.355348        -9.6695
  18   2.0000      -0.343064        -9.3353
  19   2.0000      -0.325127        -8.8472
  20   2.0000      -0.310099        -8.4382
  21   2.0000      -0.203582        -5.5398
  22   2.0000      -0.193775        -5.2729
  23   2.0000      -0.189446        -5.1551
  24   0.0000       0.112563         3.0630
  25   0.0000       0.123589         3.3630
  26   0.0000       0.129061         3.5119
  27   0.0000       0.143298         3.8993
  28   0.0000       0.147433         4.0119

MULLIKEN ATOMIC CHARGES
-----------------------
   0 C :   -0.981716
   1 C :   -0.434932
   2 C :   -0.190095
   3 C :    0.433491
   4 H :    0.218845
   5 H :    0.222602
   6 O :   -0.852573
   7 O :   -0.834530
   8 H :    0.284811
   9 H :    0.210953
  10 H :    0.267172
  11 H :    0.369158
  12 H :    0.286814
Sum of atomic charges:   -1.0000000

LOEWDIN ATOMIC CHARGES
----------------------
   0 C :    0.562765
   1 C :    0.221317
   2 C :    0.202028
   3 C :   -1.188480
   4 H :   -0.174590
   5 H :   -0.199517
   6 O :    0.278932
   7 O :    0.247070
   8 H :   -0.152632
   9 H :   -0.173916
  10 H :   -0.192487
  11 H :   -0.228147
  12 H :   -0.202343

  Mayer bond orders larger than 0.100000
B(  0-C ,  1-C ) :   0.8413 B(  0-C , 10-H ) :   0.9823 B(  0-C , 11-H ) :   0.8779
B(  0-C , 12-H ) :   0.9585 B(  1-C ,  2-C ) :   0.8835 B(  1-C ,  8-H ) :   0.8965
B(  1-C ,  9-H ) :   0.9990 B(  2-C ,  3-C ) :   0.6842 B(  2-C ,  4-H ) :   0.9586
B(  2-C ,  5-H ) :   0.9959 B(  3-C ,  6-O ) :   1.3812 B(  3-C ,  7-O ) :   1.4151

E(0)                                       ...   -305.421617642
E(0)                                       ...   -305.421617642
E(CORR)(strong-pairs)                      ...     -1.210459024
E(CORR)(weak-pairs)                        ...     -0.001163150
E(CORR)(corrected)                         ...     -1.211622173
E(TOT)                                     ...   -306.633239815
E(CCSD(T))                                 ...   -306.684549017
FINAL SINGLE POINT ENERGY      -306.684549016778

DIPOLE MOMENT
-------------
                                X             Y             Z
Electronic contribution:     -7.10116       1.47807       3.01809
Nuclear contribution   :      9.31936      -1.53308      -4.48293
                        -----------------------------------------
Total Dipole Moment    :      2.21820      -0.05501      -1.46484
                        -----------------------------------------
Magnitude (a.u.)       :      2.65880
Magnitude (Debye)      :      6.75812

Rotational constants in cm-1:     0.250458     0.077448     0.063252
Rotational constants in MHz :  7508.538874  2321.842942  1896.252250

                             ****ORCA TERMINATED NORMALLY****
TOTAL RUN TIME: 0 days 0 hours 13 minutes 19 seconds 588 msec
