                         Program Version 5.0.0 -  RELEASE  -
|  1> !DLPNO-CCSD(T) aug-cc-pVTZ aug-cc-pVTZ/C TightSCF TightPNO RIJCOSX def2/J
|  2> *xyz 1 1
|  3> C          0.64866        1.00359       -3.64560
|  4> N          0.28128        0.67645       -2.24018
|  5> C          0.13297        2.38587       -4.02462
|  6> C         -1.36646        2.47911       -4.31393
|  7> H          0.39079       -0.31925       -2.02649
|  8> H         -0.69269        0.99010       -2.13812
|  9> H          0.85421        1.21221       -1.57528
| 10> H          0.19099        0.23965       -4.27575
| 11> H          1.73157        0.93173       -3.75075
| 12> H          0.41484        3.10285       -3.24517
| 13> H          0.68317        2.68756       -4.91972
| 14> H         -1.62719        1.77449       -5.07580
| 15> H         -1.60483        3.46796       -4.64597
| 16> H         -1.91603        2.26007       -3.42236
| 17> *
| 18> %MaxCore 64000
| 19>
| 20> %pal nprocs 8
| 21> end
| 22>
| 23> %scf
| 24>   MaxIter 150
| 25> end
| 26>
| 27>
| 28>                          ****END OF INPUT****

CARTESIAN COORDINATES (ANGSTROEM)
---------------------------------
  C      0.648660    1.003590   -3.645600
  N      0.281280    0.676450   -2.240180
  C      0.132970    2.385870   -4.024620
  C     -1.366460    2.479110   -4.313930
  H      0.390790   -0.319250   -2.026490
  H     -0.692690    0.990100   -2.138120
  H      0.854210    1.212210   -1.575280
  H      0.190990    0.239650   -4.275750
  H      1.731570    0.931730   -3.750750
  H      0.414840    3.102850   -3.245170
  H      0.683170    2.687560   -4.919720
  H     -1.627190    1.774490   -5.075800
  H     -1.604830    3.467960   -4.645970
  H     -1.916030    2.260070   -3.422360

 Total Charge           Charge          ....    1
 Multiplicity           Mult            ....    1
 Number of Electrons    NEL             ....   34
 Basis Dimension        Dim             ....  414

ORBITAL ENERGIES
----------------

  NO   OCC          E(Eh)            E(eV)
   0   2.0000     -15.895316      -432.5336
   1   2.0000     -11.474255      -312.2303
   2   2.0000     -11.401880      -310.2609
   3   2.0000     -11.367526      -309.3261
   4   2.0000      -1.516554       -41.2675
   5   2.0000      -1.240873       -33.7659
   6   2.0000      -1.124445       -30.5977
   7   2.0000      -1.007572       -27.4174
   8   2.0000      -0.977460       -26.5980
   9   2.0000      -0.959603       -26.1121
  10   2.0000      -0.853444       -23.2234
  11   2.0000      -0.790482       -21.5101
  12   2.0000      -0.768705       -20.9175
  13   2.0000      -0.740168       -20.1410
  14   2.0000      -0.672096       -18.2887
  15   2.0000      -0.660422       -17.9710
  16   2.0000      -0.658211       -17.9108
  17   0.0000      -0.114220        -3.1081
  18   0.0000      -0.081288        -2.2119
  19   0.0000      -0.078602        -2.1389
  20   0.0000      -0.068148        -1.8544
  21   0.0000      -0.045585        -1.2404

MULLIKEN ATOMIC CHARGES
-----------------------
   0 C :   -0.343693
   1 N :    0.064888
   2 C :   -0.509075
   3 C :   -0.917157
   4 H :    0.117269
   5 H :    0.188915
   6 H :    0.147108
   7 H :    0.345418
   8 H :    0.395013
   9 H :    0.281628
  10 H :    0.316872
  11 H :    0.301661
  12 H :    0.316520
  13 H :    0.294633
Sum of atomic charges:    1.0000000

LOEWDIN ATOMIC CHARGES
----------------------
   0 C :    0.334575
   1 N :    1.104050
   2 C :    0.313425
   3 C :    0.637332
   4 H :   -0.118661
   5 H :   -0.162115
   6 H :   -0.121309
   7 H :   -0.111478
   8 H :   -0.105725
   9 H :   -0.132544
  10 H :   -0.128016
  11 H :   -0.168320
  12 H :   -0.157310
  13 H :   -0.183906

  Mayer bond orders larger than 0.100000
B(  0-C ,  1-N ) :   0.7661 B(  0-C ,  2-C ) :   0.9070 B(  0-C ,  7-H ) :   0.8905
B(  0-C ,  8-H ) :   0.8514 B(  1-N ,  4-H ) :   1.0454 B(  1-N ,  5-H ) :   0.9611
B(  1-N ,  6-H ) :   1.0097 B(  2-C ,  3-C ) :   0.8260 B(  2-C ,  9-H ) :   0.9377
B(  2-C , 10-H ) :   0.9224 B(  3-C , 11-H ) :   0.9316 B(  3-C , 12-H ) :   0.9576
B(  3-C , 13-H ) :   0.9289

E(0)                                       ...   -173.719631178
E(0)                                       ...   -173.719631178
E(CORR)(strong-pairs)                      ...     -0.802847063
E(CORR)(weak-pairs)                        ...     -0.000702769
E(CORR)(corrected)                         ...     -0.803549832
E(TOT)                                     ...   -174.523181010
E(CCSD(T))                                 ...   -174.551709177
FINAL SINGLE POINT ENERGY      -174.551709176597

DIPOLE MOMENT
-------------
                                X             Y             Z
Electronic contribution:      1.32287      -1.49278       1.59902
Nuclear contribution   :     -0.74670       0.28200      -0.02386
                        -----------------------------------------
Total Dipole Moment    :      0.57617      -1.21079       1.57516
                        -----------------------------------------
Magnitude (a.u.)       :      2.06860
Magnitude (Debye)      :      5.25796

Rotational constants in cm-1:     0.472563     0.149855     0.132807
Rotational constants in MHz : 14167.078489  4492.544970  3981.441276

                             ****ORCA TERMINATED NORMALLY****
TOTAL RUN TIME: 0 days 0 hours 6 minutes 13 seconds 744 msec
