                         Program Version 5.0.0 -  RELEASE  -
|  1> !DLPNO-CCSD(T) aug-cc-pVTZ aug-cc-pVTZ/C TightSCF TightPNO RIJCOSX def2/J
|  2>
|  3> *xyzfile 0 1 B.xyz
|  4>
|  5> %MaxCore 64000
|  6>
|  7> %pal nprocs 18
|  8> end
|  9>
| 10> %scf
| 11>   MaxIter 150
| 12> end
| 13>
| 14>
| 15>                          ****END OF INPUT****

CARTESIAN COORDINATES (ANGSTROEM)
---------------------------------
  C      0.648656    1.003595   -3.645601
  N      0.281280    0.676454   -2.240179
  C      0.132968    2.385869   -4.024618
  C     -1.366462    2.479106   -4.313932
  C     -2.357732    2.306858   -3.136753
  H     -1.636802    1.727095   -5.063993
  H     -1.582347    3.445605   -4.768687
  H      0.390790   -0.319253   -2.026495
  H     -0.692686    0.990104   -2.138123
  H      0.854206    1.212214   -1.575279
  O     -3.443763    2.846518   -3.252744
  O     -1.970922    1.583042   -2.151229
  H      0.190993    0.239655   -4.275752
  H      1.731572    0.931729   -3.750751
  H      0.414839    3.102847   -3.245165
  H      0.683167    2.687560   -4.919721

 Total Charge           Charge          ....    0
 Multiplicity           Mult            ....    1
 Number of Electrons    NEL             ....   56
 Basis Dimension        Dim             ....  529

ORBITAL ENERGIES
----------------

  NO   OCC          E(Eh)            E(eV)
   0   2.0000     -20.474243      -557.1325
   1   2.0000     -20.455732      -556.6288
   2   2.0000     -15.678339      -426.6293
   3   2.0000     -11.319729      -308.0255
   4   2.0000     -11.304154      -307.6017
   5   2.0000     -11.256311      -306.2998
   6   2.0000     -11.219160      -305.2889
   7   2.0000      -1.356802       -36.9205
   8   2.0000      -1.321467       -35.9589
   9   2.0000      -1.249025       -33.9877
  10   2.0000      -1.085541       -29.5391
  11   2.0000      -0.966155       -26.2904
  12   2.0000      -0.861027       -23.4297
  13   2.0000      -0.800256       -21.7761
  14   2.0000      -0.777792       -21.1648
  15   2.0000      -0.702844       -19.1254
  16   2.0000      -0.668448       -18.1894
  17   2.0000      -0.652078       -17.7440
  18   2.0000      -0.602310       -16.3897
  19   2.0000      -0.595752       -16.2112
  20   2.0000      -0.566194       -15.4069
  21   2.0000      -0.545933       -14.8556
  22   2.0000      -0.535957       -14.5841
  23   2.0000      -0.512890       -13.9565
  24   2.0000      -0.486498       -13.2383
  25   2.0000      -0.394500       -10.7349
  26   2.0000      -0.373692       -10.1687
  27   2.0000      -0.364372        -9.9151
  28   0.0000       0.001679         0.0457
  29   0.0000       0.022582         0.6145
  30   0.0000       0.024121         0.6564
  31   0.0000       0.036689         0.9984
  32   0.0000       0.047193         1.2842

MULLIKEN ATOMIC CHARGES
-----------------------
   0 C :   -0.325169
   1 N :    0.061695
   2 C :   -0.531781
   3 C :   -0.175124
   4 C :    0.447296
   5 H :    0.200281
   6 H :    0.271344
   7 H :    0.062374
   8 H :    0.149930
   9 H :    0.091076
  10 O :   -0.864466
  11 O :   -0.609761
  12 H :    0.292316
  13 H :    0.399504
  14 H :    0.261675
  15 H :    0.268810
Sum of atomic charges:    0.0000000

LOEWDIN ATOMIC CHARGES
----------------------
   0 C :    0.316813
   1 N :    1.057890
   2 C :    0.296553
   3 C :    0.263036
   4 C :   -0.996489
   5 H :   -0.158569
   6 H :   -0.173952
   7 H :   -0.130093
   8 H :   -0.707793
   9 H :   -0.129281
  10 O :    0.353391
  11 O :    0.532607
  12 H :   -0.120107
  13 H :   -0.124363
  14 H :   -0.135682
  15 H :   -0.143961

  Mayer bond orders larger than 0.100000
B(  0-C ,  1-N ) :   0.7560 B(  0-C ,  2-C ) :   0.8984 B(  0-C , 12-H ) :   0.9479
B(  0-C , 13-H ) :   0.8458 B(  1-N ,  7-H ) :   1.0953 B(  1-N ,  8-H ) :   0.8710
B(  1-N ,  9-H ) :   1.0110 B(  2-C ,  3-C ) :   0.9076 B(  2-C , 14-H ) :   0.9405
B(  2-C , 15-H ) :   0.9585 B(  3-C ,  4-C ) :   0.6569 B(  3-C ,  5-H ) :   0.9787
B(  3-C ,  6-H ) :   0.9603 B(  4-C , 10-O ) :   1.3838 B(  4-C , 11-O ) :   1.2610
B(  8-H , 11-O ) :   0.3018

E(0)                                       ...   -361.007572904
E(0)                                       ...   -361.007572904
E(CORR)(strong-pairs)                      ...     -1.426845372
E(CORR)(weak-pairs)                        ...     -0.001579859
E(CORR)(corrected)                         ...     -1.428425231
E(TOT)                                     ...   -362.435998134
E(CCSD(T))                                 ...   -362.495513794
FINAL SINGLE POINT ENERGY      -362.495513794284

DIPOLE MOMENT
-------------
                                X             Y             Z
Electronic contribution:     -5.58990       0.87882       2.45838
Nuclear contribution   :      9.92875      -2.62114      -2.63866
                        -----------------------------------------
Total Dipole Moment    :      4.33885      -1.74232      -0.18028
                        -----------------------------------------
Magnitude (a.u.)       :      4.67908
Magnitude (Debye)      :     11.89328

Rotational constants in cm-1:     0.159108     0.062474     0.047603
Rotational constants in MHz :  4769.938632  1872.932224  1427.103830

                             ****ORCA TERMINATED NORMALLY****
TOTAL RUN TIME: 0 days 0 hours 18 minutes 13 seconds 267 msec
