                         Program Version 5.0.0 -  RELEASE  -
|  1> !DLPNO-CCSD(T) aug-cc-pVTZ aug-cc-pVTZ/C TightSCF TightPNO RIJCOSX def2/J
|  2> *xyz 0 1
|  3> C          0.64866        1.00359       -3.64560
|  4> C          0.13297        2.38587       -4.02462
|  5> C         -1.36646        2.47911       -4.31393
|  6> C         -2.35773        2.30686       -3.13675
|  7> H         -1.63680        1.72709       -5.06399
|  8> H         -1.58235        3.44561       -4.76869
|  9> F         -3.44376        2.84652       -3.25274
| 10> O         -1.97092        1.58304       -2.15123
| 11> H          0.41484        3.10285       -3.24517
| 12> H          0.68317        2.68756       -4.91972
| 13> H          0.37534        0.30051       -4.40446
| 14> H          0.21856        0.70606       -2.71212
| 15> H          1.71431        1.03324       -3.55398
| 16> *
| 17> %MaxCore 64000
| 18>
| 19> %pal nprocs 8
| 20> end
| 21>
| 22> %scf
| 23>   MaxIter 150
| 24> end
| 25>
| 26>
| 27>                          ****END OF INPUT****

CARTESIAN COORDINATES (ANGSTROEM)
---------------------------------
  C      0.648660    1.003590   -3.645600
  C      0.132970    2.385870   -4.024620
  C     -1.366460    2.479110   -4.313930
  C     -2.357730    2.306860   -3.136750
  H     -1.636800    1.727090   -5.063990
  H     -1.582350    3.445610   -4.768690
  F     -3.443760    2.846520   -3.252740
  O     -1.970920    1.583040   -2.151230
  H      0.414840    3.102850   -3.245170
  H      0.683170    2.687560   -4.919720
  H      0.375340    0.300510   -4.404460
  H      0.218560    0.706060   -2.712120
  H      1.714310    1.033240   -3.553980

 Total Charge           Charge          ....    0
 Multiplicity           Mult            ....    1
 Number of Electrons    NEL             ....   48
 Basis Dimension        Dim             ....  437

ORBITAL ENERGIES
----------------

  NO   OCC          E(Eh)            E(eV)
   0   2.0000     -26.392368      -718.1728
   1   2.0000     -20.557591      -559.4005
   2   2.0000     -11.435995      -311.1892
   3   2.0000     -11.262686      -306.4733
   4   2.0000     -11.236528      -305.7615
   5   2.0000     -11.201383      -304.8051
   6   2.0000      -1.762693       -47.9653
   7   2.0000      -1.355575       -36.8871
   8   2.0000      -1.086246       -29.5582
   9   2.0000      -0.991401       -26.9774
  10   2.0000      -0.917926       -24.9780
  11   2.0000      -0.839679       -22.8488
  12   2.0000      -0.791618       -21.5410
  13   2.0000      -0.776418       -21.1274
  14   2.0000      -0.707676       -19.2568
  15   2.0000      -0.634929       -17.2773
  16   2.0000      -0.621789       -16.9197
  17   2.0000      -0.581042       -15.8110
  18   2.0000      -0.557457       -15.1692
  19   2.0000      -0.507275       -13.8036
  20   2.0000      -0.500398       -13.6165
  21   2.0000      -0.495911       -13.4944
  22   2.0000      -0.478269       -13.0144
  23   2.0000      -0.449786       -12.2393
  24   0.0000       0.026251         0.7143
  25   0.0000       0.037625         1.0238
  26   0.0000       0.038584         1.0499
  27   0.0000       0.046311         1.2602
  28   0.0000       0.058481         1.5914

MULLIKEN ATOMIC CHARGES
-----------------------
   0 C :   -0.969047
   1 C :   -0.416622
   2 C :   -0.316171
   3 C :    0.562476
   4 H :    0.279716
   5 H :    0.264982
   6 F :   -0.241548
   7 O :   -0.642694
   8 H :    0.289802
   9 H :    0.246305
  10 H :    0.273281
  11 H :    0.354568
  12 H :    0.314951
Sum of atomic charges:   -0.0000000

LOEWDIN ATOMIC CHARGES
----------------------
   0 C :    0.589917
   1 C :    0.255205
   2 C :    0.269361
   3 C :   -0.907530
   4 H :   -0.156337
   5 H :   -0.178236
   6 F :    0.623323
   7 O :    0.379146
   8 H :   -0.142640
   9 H :   -0.150925
  10 H :   -0.182381
  11 H :   -0.217702
  12 H :   -0.181200

  Mayer bond orders larger than 0.100000
B(  0-C ,  1-C ) :   0.8588 B(  0-C , 10-H ) :   0.9707 B(  0-C , 11-H ) :   0.8960
B(  0-C , 12-H ) :   0.9385 B(  1-C ,  2-C ) :   0.9057 B(  1-C ,  8-H ) :   0.8902
B(  1-C ,  9-H ) :   0.9709 B(  2-C ,  3-C ) :   0.7969 B(  2-C ,  4-H ) :   0.9099
B(  2-C ,  5-H ) :   0.9535 B(  3-C ,  6-F ) :   0.8902 B(  3-C ,  7-O ) :   1.6569

E(0)                                       ...   -329.960859753
E(0)                                       ...   -329.960859753
E(CORR)(strong-pairs)                      ...     -1.212148132
E(CORR)(weak-pairs)                        ...     -0.001187191
E(CORR)(corrected)                         ...     -1.213335324
E(TOT)                                     ...   -331.174195077
E(CCSD(T))                                 ...   -331.222246432
FINAL SINGLE POINT ENERGY      -331.222246432356

DIPOLE MOMENT
-------------
                                X             Y             Z
Electronic contribution:    -11.43815       2.96190       3.50654
Nuclear contribution   :     11.62992      -2.38586      -4.66016
                        -----------------------------------------
Total Dipole Moment    :      0.19177       0.57604      -1.15362
                        -----------------------------------------
Magnitude (a.u.)       :      1.30362
Magnitude (Debye)      :      3.31354

Rotational constants in cm-1:     0.249088     0.072929     0.060128
Rotational constants in MHz :  7467.482637  2186.350475  1802.579568

                             ****ORCA TERMINATED NORMALLY****
TOTAL RUN TIME: 0 days 0 hours 12 minutes 25 seconds 625 msec
