                         Program Version 5.0.0 -  RELEASE  -
|  1> !DLPNO-CCSD(T) aug-cc-pVTZ aug-cc-pVTZ/C TightSCF TightPNO RIJCOSX def2/J
|  2> *xyz 0 1
|  3> C          0.64866        1.00359       -3.64560
|  4> C          0.28128        0.67645       -2.24018
|  5> C          0.13297        2.38587       -4.02462
|  6> C         -1.36646        2.47911       -4.31393
|  7> H          0.39079       -0.31925       -2.02649
|  8> H         -0.69269        0.99010       -2.13812
|  9> H          0.85421        1.21221       -1.57528
| 10> H          0.19099        0.23965       -4.27575
| 11> H          1.73157        0.93173       -3.75075
| 12> H          0.41484        3.10285       -3.24517
| 13> H          0.68317        2.68756       -4.91972
| 14> H         -1.62719        1.77449       -5.07580
| 15> H         -1.60483        3.46796       -4.64597
| 16> H         -1.91603        2.26007       -3.42236
| 17> *
| 18> %MaxCore 64000
| 19>
| 20> %pal nprocs 8
| 21> end
| 22>
| 23> %scf
| 24>   MaxIter 150
| 25> end
| 26>
| 27>
| 28>                          ****END OF INPUT****

CARTESIAN COORDINATES (ANGSTROEM)
---------------------------------
  C      0.648660    1.003590   -3.645600
  C      0.281280    0.676450   -2.240180
  C      0.132970    2.385870   -4.024620
  C     -1.366460    2.479110   -4.313930
  H      0.390790   -0.319250   -2.026490
  H     -0.692690    0.990100   -2.138120
  H      0.854210    1.212210   -1.575280
  H      0.190990    0.239650   -4.275750
  H      1.731570    0.931730   -3.750750
  H      0.414840    3.102850   -3.245170
  H      0.683170    2.687560   -4.919720
  H     -1.627190    1.774490   -5.075800
  H     -1.604830    3.467960   -4.645970
  H     -1.916030    2.260070   -3.422360

 Total Charge           Charge          ....    0
 Multiplicity           Mult            ....    1
 Number of Electrons    NEL             ....   34
 Basis Dimension        Dim             ....  414

ORBITAL ENERGIES
----------------

  NO   OCC          E(Eh)            E(eV)
   0   2.0000     -11.211184      -305.0718
   1   2.0000     -11.205596      -304.9198
   2   2.0000     -11.202291      -304.8298
   3   2.0000     -11.177218      -304.1476
   4   2.0000      -1.080912       -29.4131
   5   2.0000      -0.989305       -26.9204
   6   2.0000      -0.877781       -23.8856
   7   2.0000      -0.780129       -21.2284
   8   2.0000      -0.638610       -17.3775
   9   2.0000      -0.625168       -17.0117
  10   2.0000      -0.587798       -15.9948
  11   2.0000      -0.551104       -14.9963
  12   2.0000      -0.526095       -14.3158
  13   2.0000      -0.509662       -13.8686
  14   2.0000      -0.464278       -12.6337
  15   2.0000      -0.462853       -12.5949
  16   2.0000      -0.450160       -12.2495
  17   0.0000       0.032859         0.8941
  18   0.0000       0.038627         1.0511
  19   0.0000       0.040452         1.1007
  20   0.0000       0.041758         1.1363
  21   0.0000       0.058380         1.5886

MULLIKEN ATOMIC CHARGES
-----------------------
   0 C :   -0.366694
   1 C :   -1.134609
   2 C :   -0.483666
   3 C :   -0.965296
   4 H :    0.282067
   5 H :    0.423803
   6 H :    0.268098
   7 H :    0.219879
   8 H :    0.316079
   9 H :    0.263697
  10 H :    0.278984
  11 H :    0.280588
  12 H :    0.289587
  13 H :    0.327483
Sum of atomic charges:    0.0000000

LOEWDIN ATOMIC CHARGES
----------------------
   0 C :    0.266990
   1 C :    0.614017
   2 C :    0.269205
   3 C :    0.606681
   4 H :   -0.198557
   5 H :   -0.229379
   6 H :   -0.198850
   7 H :   -0.143115
   8 H :   -0.138233
   9 H :   -0.140543
  10 H :   -0.153810
  11 H :   -0.180517
  12 H :   -0.181587
  13 H :   -0.192301

  Mayer bond orders larger than 0.100000
B(  0-C ,  1-C ) :   0.7378 B(  0-C ,  2-C ) :   0.8619 B(  0-C ,  7-H ) :   0.9892
B(  0-C ,  8-H ) :   0.9144 B(  1-C ,  4-H ) :   0.9992 B(  1-C ,  5-H ) :   0.8292
B(  1-C ,  6-H ) :   1.0099 B(  2-C ,  3-C ) :   0.8108 B(  2-C ,  9-H ) :   0.9351
B(  2-C , 10-H ) :   0.9482 B(  3-C , 11-H ) :   0.9581 B(  3-C , 12-H ) :   0.9727
B(  3-C , 13-H ) :   0.9138

E(0)                                       ...   -157.341325689
E(0)                                       ...   -157.341325689
E(CORR)(strong-pairs)                      ...     -0.777866175
E(CORR)(weak-pairs)                        ...     -0.000698865
E(CORR)(corrected)                         ...     -0.778565040
E(TOT)                                     ...   -158.119890728
E(CCSD(T))                                 ...   -158.148054780
FINAL SINGLE POINT ENERGY      -158.148054780131

DIPOLE MOMENT
-------------
                                X             Y             Z
Electronic contribution:      0.64488       0.01526      -0.37927
Nuclear contribution   :     -0.63302      -0.01177       0.37643
                        -----------------------------------------
Total Dipole Moment    :      0.01186       0.00349      -0.00285
                        -----------------------------------------
Magnitude (a.u.)       :      0.01268
Magnitude (Debye)      :      0.03224

Rotational constants in cm-1:     0.480601     0.156500     0.138605
Rotational constants in MHz : 14408.061205  4691.756081  4155.280646

                             ****ORCA TERMINATED NORMALLY****
TOTAL RUN TIME: 0 days 0 hours 6 minutes 8 seconds 669 msec
