                         Program Version 5.0.0 -  RELEASE  -
|  1> !DLPNO-CCSD(T) aug-cc-pVTZ aug-cc-pVTZ/C TightSCF TightPNO RIJCOSX def2/J
|  2> *xyz 0 1
|  3> C          0.64866        1.00359       -3.64560
|  4> C          0.13297        2.38587       -4.02462
|  5> C         -1.36646        2.47911       -4.31393
|  6> C         -2.35773        2.30686       -3.13675
|  7> H         -1.63680        1.72709       -5.06399
|  8> H         -1.58235        3.44561       -4.76869
|  9> O         -3.44376        2.84652       -3.25274
| 10> F         -1.97092        1.58304       -2.15123
| 11> H          0.41484        3.10285       -3.24517
| 12> H          0.68317        2.68756       -4.91972
| 13> H          0.37534        0.30051       -4.40446
| 14> H          0.21856        0.70606       -2.71212
| 15> H          1.71431        1.03324       -3.55398
| 16> *
| 17> %MaxCore 64000
| 18>
| 19> %pal nprocs 8
| 20> end
| 21>
| 22> %scf
| 23>   MaxIter 150
| 24> end
| 25>
| 26>
| 27>                          ****END OF INPUT****

CARTESIAN COORDINATES (ANGSTROEM)
---------------------------------
  C      0.648660    1.003590   -3.645600
  C      0.132970    2.385870   -4.024620
  C     -1.366460    2.479110   -4.313930
  C     -2.357730    2.306860   -3.136750
  H     -1.636800    1.727090   -5.063990
  H     -1.582350    3.445610   -4.768690
  O     -3.443760    2.846520   -3.252740
  F     -1.970920    1.583040   -2.151230
  H      0.414840    3.102850   -3.245170
  H      0.683170    2.687560   -4.919720
  H      0.375340    0.300510   -4.404460
  H      0.218560    0.706060   -2.712120
  H      1.714310    1.033240   -3.553980

 Total Charge           Charge          ....    0
 Multiplicity           Mult            ....    1
 Number of Electrons    NEL             ....   48
 Basis Dimension        Dim             ....  437

ORBITAL ENERGIES
----------------

  NO   OCC          E(Eh)            E(eV)
   0   2.0000     -26.365993      -717.4552
   1   2.0000     -20.568260      -559.6908
   2   2.0000     -11.427537      -310.9591
   3   2.0000     -11.260248      -306.4069
   4   2.0000     -11.241430      -305.8949
   5   2.0000     -11.216768      -305.2238
   6   2.0000      -1.709857       -46.5276
   7   2.0000      -1.402055       -38.1518
   8   2.0000      -1.092362       -29.7247
   9   2.0000      -0.986283       -26.8381
  10   2.0000      -0.892367       -24.2825
  11   2.0000      -0.839528       -22.8447
  12   2.0000      -0.765425       -20.8283
  13   2.0000      -0.755610       -20.5612
  14   2.0000      -0.704828       -19.1793
  15   2.0000      -0.636811       -17.3285
  16   2.0000      -0.625707       -17.0264
  17   2.0000      -0.598196       -16.2777
  18   2.0000      -0.581884       -15.8339
  19   2.0000      -0.526253       -14.3201
  20   2.0000      -0.519733       -14.1426
  21   2.0000      -0.495980       -13.4963
  22   2.0000      -0.488967       -13.3055
  23   2.0000      -0.460026       -12.5180
  24   0.0000       0.026540         0.7222
  25   0.0000       0.036910         1.0044
  26   0.0000       0.037248         1.0136
  27   0.0000       0.043277         1.1776
  28   0.0000       0.058239         1.5848

MULLIKEN ATOMIC CHARGES
-----------------------
   0 C :   -0.967196
   1 C :   -0.462409
   2 C :   -0.231956
   3 C :    0.598838
   4 H :    0.281411
   5 H :    0.289872
   6 O :   -0.674190
   7 F :   -0.295243
   8 H :    0.287823
   9 H :    0.236017
  10 H :    0.283172
  11 H :    0.337631
  12 H :    0.316230
Sum of atomic charges:   -0.0000000

LOEWDIN ATOMIC CHARGES
----------------------
   0 C :    0.591309
   1 C :    0.251499
   2 C :    0.269609
   3 C :   -0.901204
   4 H :   -0.154737
   5 H :   -0.169744
   6 O :    0.411010
   7 F :    0.563370
   8 H :   -0.144456
   9 H :   -0.149561
  10 H :   -0.181747
  11 H :   -0.206421
  12 H :   -0.178928

  Mayer bond orders larger than 0.100000
B(  0-C ,  1-C ) :   0.8513 B(  0-C , 10-H ) :   0.9628 B(  0-C , 11-H ) :   0.9096
B(  0-C , 12-H ) :   0.9450 B(  1-C ,  2-C ) :   0.9009 B(  1-C ,  8-H ) :   0.9064
B(  1-C ,  9-H ) :   0.9773 B(  2-C ,  3-C ) :   0.7244 B(  2-C ,  4-H ) :   0.9190
B(  2-C ,  5-H ) :   0.9491 B(  3-C ,  6-O ) :   1.6204 B(  3-C ,  7-F ) :   0.8291

E(0)                                       ...   -329.980198446
E(0)                                       ...   -329.980198446
E(CORR)(strong-pairs)                      ...     -1.210130972
E(CORR)(weak-pairs)                        ...     -0.001118946
E(CORR)(corrected)                         ...     -1.211249918
E(TOT)                                     ...   -331.191448364
E(CCSD(T))                                 ...   -331.238789260
FINAL SINGLE POINT ENERGY      -331.238789260138

DIPOLE MOMENT
-------------
                                X             Y             Z
Electronic contribution:     -8.76621       0.72515       5.40773
Nuclear contribution   :      9.96624      -0.95867      -5.90440
                        -----------------------------------------
Total Dipole Moment    :      1.20003      -0.23352      -0.49667
                        -----------------------------------------
Magnitude (a.u.)       :      1.31958
Magnitude (Debye)      :      3.35410

Rotational constants in cm-1:     0.233484     0.076940     0.061803
Rotational constants in MHz :  6999.682494  2306.588565  1852.797552

                             ****ORCA TERMINATED NORMALLY****
TOTAL RUN TIME: 0 days 0 hours 11 minutes 52 seconds 315 msec
