                         Program Version 5.0.0 -  RELEASE  -
|  1> !DLPNO-CCSD(T) aug-cc-pVTZ aug-cc-pVTZ/C TightSCF TightPNO RIJCOSX def2/J
|  2>
|  3> *xyzfile 0 1 D1.xyz
|  4>
|  5> %MaxCore 64000
|  6>
|  7> %pal nprocs 18
|  8> end
|  9>
| 10> %scf
| 11>   MaxIter 150
| 12> end
| 13>
| 14>
| 15>                          ****END OF INPUT****

CARTESIAN COORDINATES (ANGSTROEM)
---------------------------------
  C      0.648656    1.003595   -3.645601
  C      0.281280    0.676454   -2.240179
  C      0.132968    2.385869   -4.024618
  C     -1.366462    2.479106   -4.313932
  C     -2.357732    2.306858   -3.136753
  H     -1.636802    1.727095   -5.063993
  H     -1.582347    3.445605   -4.768687
  H      0.390790   -0.319253   -2.026495
  H     -0.692686    0.990104   -2.138123
  H      0.854206    1.212214   -1.575279
  F     -3.443763    2.846518   -3.252744
  O     -1.970922    1.583042   -2.151229
  H      0.190993    0.239655   -4.275752
  H      1.731572    0.931729   -3.750751
  H      0.414839    3.102847   -3.245165
  H      0.683167    2.687560   -4.919721

 Total Charge           Charge          ....    0
 Multiplicity           Mult            ....    1
 Number of Electrons    NEL             ....   56
 Basis Dimension        Dim             ....  529

ORBITAL ENERGIES
----------------

  NO   OCC          E(Eh)            E(eV)
   0   2.0000     -26.402850      -718.4581
   1   2.0000     -20.563519      -559.5618
   2   2.0000     -11.450766      -311.5912
   3   2.0000     -11.268900      -306.6424
   4   2.0000     -11.233900      -305.6900
   5   2.0000     -11.201347      -304.8042
   6   2.0000     -11.122140      -302.6488
   7   2.0000      -1.772944       -48.2442
   8   2.0000      -1.380758       -37.5723
   9   2.0000      -1.096379       -29.8340
  10   2.0000      -1.026536       -27.9335
  11   2.0000      -0.941689       -25.6247
  12   2.0000      -0.898972       -24.4623
  13   2.0000      -0.803614       -21.8675
  14   2.0000      -0.800815       -21.7913
  15   2.0000      -0.788182       -21.4475
  16   2.0000      -0.725459       -19.7407
  17   2.0000      -0.663600       -18.0575
  18   2.0000      -0.627170       -17.0661
  19   2.0000      -0.597800       -16.2670
  20   2.0000      -0.577906       -15.7256
  21   2.0000      -0.539351       -14.6765
  22   2.0000      -0.529423       -14.4063
  23   2.0000      -0.499993       -13.6055
  24   2.0000      -0.493877       -13.4391
  25   2.0000      -0.461074       -12.5465
  26   2.0000      -0.450563       -12.2604
  27   2.0000      -0.395379       -10.7588
  28   0.0000       0.024729         0.6729
  29   0.0000       0.037378         1.0171
  30   0.0000       0.037694         1.0257
  31   0.0000       0.044373         1.2075
  32   0.0000       0.055663         1.5147

MULLIKEN ATOMIC CHARGES
-----------------------
   0 C :   -0.397170
   1 C :   -1.014292
   2 C :   -0.476985
   3 C :   -0.301679
   4 C :    0.463550
   5 H :    0.237911
   6 H :    0.300076
   7 H :    0.247207
   8 H :    0.515595
   9 H :    0.220198
  10 F :   -0.309807
  11 O :   -0.518265
  12 H :    0.197490
  13 H :    0.320649
  14 H :    0.250797
  15 H :    0.264724
Sum of atomic charges:    0.0000000

LOEWDIN ATOMIC CHARGES
----------------------
   0 C :    0.279615
   1 C :    0.589446
   2 C :    0.290014
   3 C :    0.308372
   4 C :   -0.758709
   5 H :   -0.149829
   6 H :   -0.172666
   7 H :   -0.191478
   8 H :   -0.697041
   9 H :   -0.189703
  10 F :    0.639830
  11 O :    0.612905
  12 H :   -0.142558
  13 H :   -0.138090
  14 H :   -0.133987
  15 H :   -0.146121

  Mayer bond orders larger than 0.100000
B(  0-C ,  1-C ) :   0.7743 B(  0-C ,  2-C ) :   0.8794 B(  0-C , 12-H ) :   1.0227
B(  0-C , 13-H ) :   0.9164 B(  1-C ,  7-H ) :   1.0210 B(  1-C ,  8-H ) :   0.7846
B(  1-C ,  9-H ) :   1.0457 B(  2-C ,  3-C ) :   0.9011 B(  2-C , 14-H ) :   0.9348
B(  2-C , 15-H ) :   0.9645 B(  3-C ,  4-C ) :   0.7177 B(  3-C ,  5-H ) :   0.9451
B(  3-C ,  6-H ) :   0.9326 B(  4-C , 10-F ) :   0.8268 B(  4-C , 11-O ) :   1.7154

E(0)                                       ...   -368.945081691
E(0)                                       ...   -368.945081691
E(CORR)(strong-pairs)                      ...     -1.405071522
E(CORR)(weak-pairs)                        ...     -0.001634154
E(CORR)(corrected)                         ...     -1.406705676
E(TOT)                                     ...   -370.351787368
E(CCSD(T))                                 ...   -370.408020597
FINAL SINGLE POINT ENERGY      -370.408020597078

DIPOLE MOMENT
-------------
                                X             Y             Z
Electronic contribution:    -12.99290       4.64762       1.30756
Nuclear contribution   :     12.79331      -3.91961      -2.45895
                        -----------------------------------------
Total Dipole Moment    :     -0.19959       0.72801      -1.15139
                        -----------------------------------------
Magnitude (a.u.)       :      1.37678
Magnitude (Debye)      :      3.49950

Rotational constants in cm-1:     0.162888     0.059977     0.046450
Rotational constants in MHz :  4883.250030  1798.063289  1392.548669

                             ****ORCA TERMINATED NORMALLY****
TOTAL RUN TIME: 0 days 0 hours 24 minutes 50 seconds 631 msec
