                         Program Version 5.0.0 -  RELEASE  -
|  1> !DLPNO-CCSD(T) aug-cc-pVTZ aug-cc-pVTZ/C TightSCF TightPNO RIJCOSX def2/J
|  2>
|  3> *xyzfile 0 1 D2.xyz
|  4>
|  5> %MaxCore 64000
|  6>
|  7> %pal nprocs 18
|  8> end
|  9>
| 10> %scf
| 11>   MaxIter 150
| 12> end
| 13>
| 14>
| 15>                          ****END OF INPUT****

CARTESIAN COORDINATES (ANGSTROEM)
---------------------------------
  C      0.648656    1.003595   -3.645601
  C      0.281280    0.676454   -2.240179
  C      0.132968    2.385869   -4.024618
  C     -1.366462    2.479106   -4.313932
  C     -2.357732    2.306858   -3.136753
  H     -1.636802    1.727095   -5.063993
  H     -1.582347    3.445605   -4.768687
  H      0.390790   -0.319253   -2.026495
  H     -0.692686    0.990104   -2.138123
  H      0.854206    1.212214   -1.575279
  O     -3.443763    2.846518   -3.252744
  F     -1.970922    1.583042   -2.151229
  H      0.190993    0.239655   -4.275752
  H      1.731572    0.931729   -3.750751
  H      0.414839    3.102847   -3.245165
  H      0.683167    2.687560   -4.919721

 Total Charge           Charge          ....    0
 Multiplicity           Mult            ....    1
 Number of Electrons    NEL             ....   56
 Basis Dimension        Dim             ....  529

ORBITAL ENERGIES
----------------

  NO   OCC          E(Eh)            E(eV)
   0   2.0000     -26.376151      -717.7316
   1   2.0000     -20.575552      -559.8892
   2   2.0000     -11.434905      -311.1596
   3   2.0000     -11.264131      -306.5126
   4   2.0000     -11.237969      -305.8007
   5   2.0000     -11.216585      -305.2188
   6   2.0000     -11.158290      -303.6325
   7   2.0000      -1.733425       -47.1689
   8   2.0000      -1.409668       -38.3590
   9   2.0000      -1.106109       -30.0988
  10   2.0000      -1.032107       -28.0851
  11   2.0000      -0.923977       -25.1427
  12   2.0000      -0.917712       -24.9722
  13   2.0000      -0.803101       -21.8535
  14   2.0000      -0.793011       -21.5789
  15   2.0000      -0.773289       -21.0423
  16   2.0000      -0.712117       -19.3777
  17   2.0000      -0.650857       -17.7107
  18   2.0000      -0.629360       -17.1258
  19   2.0000      -0.613126       -16.6840
  20   2.0000      -0.592004       -16.1093
  21   2.0000      -0.546683       -14.8760
  22   2.0000      -0.542979       -14.7752
  23   2.0000      -0.509861       -13.8740
  24   2.0000      -0.490148       -13.3376
  25   2.0000      -0.477370       -12.9899
  26   2.0000      -0.469721       -12.7818
  27   2.0000      -0.447104       -12.1663
  28   0.0000       0.026508         0.7213
  29   0.0000       0.035827         0.9749
  30   0.0000       0.037278         1.0144
  31   0.0000       0.040347         1.0979
  32   0.0000       0.054672         1.4877

MULLIKEN ATOMIC CHARGES
-----------------------
   0 C :   -0.397922
   1 C :   -1.082229
   2 C :   -0.512242
   3 C :   -0.233441
   4 C :    0.611901
   5 H :    0.237933
   6 H :    0.309820
   7 H :    0.246733
   8 H :    0.657899
   9 H :    0.222624
  10 O :   -0.781359
  11 F :   -0.308958
  12 H :    0.198291
  13 H :    0.322227
  14 H :    0.248873
  15 H :    0.259849
Sum of atomic charges:   -0.0000000

LOEWDIN ATOMIC CHARGES
----------------------
   0 C :    0.279893
   1 C :    0.608860
   2 C :    0.283835
   3 C :    0.296546
   4 C :   -0.799556
   5 H :   -0.149237
   6 H :   -0.164690
   7 H :   -0.188680
   8 H :   -0.614470
   9 H :   -0.187624
  10 O :    0.426238
  11 F :    0.767054
  12 H :   -0.141868
  13 H :   -0.135025
  14 H :   -0.136190
  15 H :   -0.145088

  Mayer bond orders larger than 0.100000
B(  0-C ,  1-C ) :   0.7789 B(  0-C ,  2-C ) :   0.8833 B(  0-C , 12-H ) :   1.0243
B(  0-C , 13-H ) :   0.9151 B(  1-C ,  7-H ) :   1.0312 B(  1-C ,  8-H ) :   0.7651
B(  1-C ,  9-H ) :   1.0529 B(  2-C ,  3-C ) :   0.8970 B(  2-C , 14-H ) :   0.9428
B(  2-C , 15-H ) :   0.9713 B(  3-C ,  4-C ) :   0.7012 B(  3-C ,  5-H ) :   0.9547
B(  3-C ,  6-H ) :   0.9278 B(  4-C , 10-O ) :   1.5288 B(  4-C , 11-F ) :   0.9286
B(  8-H , 11-F ) :  -0.2418

E(0)                                       ...   -368.967335187
E(0)                                       ...   -368.967335187
E(CORR)(strong-pairs)                      ...     -1.402762420
E(CORR)(weak-pairs)                        ...     -0.001533019
E(CORR)(corrected)                         ...     -1.404295439
E(TOT)                                     ...   -370.371630626
E(CCSD(T))                                 ...   -370.427022790
FINAL SINGLE POINT ENERGY      -370.427022790129

DIPOLE MOMENT
-------------
                                X             Y             Z
Electronic contribution:    -10.15615       2.30476       3.27092
Nuclear contribution   :     11.08738      -2.45618      -3.73478
                        -----------------------------------------
Total Dipole Moment    :      0.93123      -0.15142      -0.46386
                        -----------------------------------------
Magnitude (a.u.)       :      1.05133
Magnitude (Debye)      :      2.67227

Rotational constants in cm-1:     0.156244     0.063730     0.048063
Rotational constants in MHz :  4684.071402  1910.571278  1440.877811

                             ****ORCA TERMINATED NORMALLY****
TOTAL RUN TIME: 0 days 0 hours 25 minutes 44 seconds 216 msec
