                         Program Version 5.0.0 -  RELEASE  -
|  1> !B3LYP D3BJ RIJCOSX def2-SVPD def2/J TightSCF
|  2> *xyz -1 1
|  3> C          0.70466        1.44313       -4.50363
|  4> C          1.72854        1.42432       -5.63944
|  5> H          2.64672        1.95379       -5.38105
|  6> H          1.29992        1.93061       -6.50361
|  7> S          2.25263       -0.18811       -6.27184
|  8> O          3.56261       -0.44446       -5.63155
|  9> O          2.34494       -0.03374       -7.69650
| 10> O          1.26606       -1.15918       -5.80536
| 11> H         -0.17385        0.91270       -4.80656
| 12> H          0.44778        2.45562       -4.27173
| 13> H          1.12367        0.97423       -3.63791
| 14> *
| 15>
| 16> %MaxCore 64000
| 17>
| 18> %pal nprocs 4
| 19> end
| 20>
| 21> %scf
| 22>   MaxIter 150
| 23> end
| 24>
| 25>
| 26>                          ****END OF INPUT****

CARTESIAN COORDINATES (ANGSTROEM)
---------------------------------
  C      0.704660    1.443130   -4.503630
  C      1.728540    1.424320   -5.639440
  H      2.646720    1.953790   -5.381050
  H      1.299920    1.930610   -6.503610
  S      2.252630   -0.188110   -6.271840
  O      3.562610   -0.444460   -5.631550
  O      2.344940   -0.033740   -7.696500
  O      1.266060   -1.159180   -5.805360
  H     -0.173850    0.912700   -4.806560
  H      0.447780    2.455620   -4.271730
  H      1.123670    0.974230   -3.637910

 Total Charge           Charge          ....   -1
 Multiplicity           Mult            ....    1
 Number of Electrons    NEL             ....   58
 Basis Dimension        Dim             ....  176

ORBITAL ENERGIES
----------------

  NO   OCC          E(Eh)            E(eV)
   0   2.0000     -88.880522     -2418.5620
   1   2.0000     -18.922042      -514.8949
   2   2.0000     -18.915160      -514.7077
   3   2.0000     -18.906613      -514.4751
   4   2.0000     -10.046592      -273.3817
   5   2.0000     -10.044709      -273.3304
   6   2.0000      -7.934282      -215.9028
   7   2.0000      -5.903205      -160.6344
   8   2.0000      -5.903097      -160.6314
   9   2.0000      -5.902573      -160.6172
  10   2.0000      -0.929576       -25.2950
  11   2.0000      -0.790463       -21.5096
  12   2.0000      -0.766787       -20.8653
  13   2.0000      -0.628501       -17.1024
  14   2.0000      -0.506161       -13.7733
  15   2.0000      -0.381185       -10.3726
  16   2.0000      -0.320845        -8.7306
  17   2.0000      -0.316013        -8.5992
  18   2.0000      -0.278946        -7.5905
  19   2.0000      -0.262110        -7.1324
  20   2.0000      -0.260723        -7.0946
  21   2.0000      -0.230821        -6.2810
  22   2.0000      -0.222170        -6.0455
  23   2.0000      -0.151350        -4.1184
  24   2.0000      -0.149965        -4.0808
  25   2.0000      -0.116079        -3.1587
  26   2.0000      -0.109762        -2.9868
  27   2.0000      -0.099614        -2.7106
  28   2.0000      -0.064717        -1.7610
  29   0.0000       0.138572         3.7707
  30   0.0000       0.169551         4.6137
  31   0.0000       0.178869         4.8673
  32   0.0000       0.184197         5.0123
  33   0.0000       0.205751         5.5988

MULLIKEN ATOMIC CHARGES
-----------------------
   0 C :    0.998758
   1 C :   -0.205834
   2 H :   -0.127561
   3 H :   -0.076068
   4 S :    1.332768
   5 O :   -0.838774
   6 O :   -0.782802
   7 O :   -0.828354
   8 H :   -0.118366
   9 H :   -0.214394
  10 H :   -0.139373
Sum of atomic charges:   -1.0000000

LOEWDIN ATOMIC CHARGES
----------------------
   0 C :    0.107882
   1 C :   -0.116111
   2 H :   -0.003476
   3 H :   -0.011461
   4 S :    0.869535
   5 O :   -0.604021
   6 O :   -0.576841
   7 O :   -0.583078
   8 H :   -0.025577
   9 H :   -0.037937
  10 H :   -0.018916

  Mayer bond orders larger than 0.100000
B(  0-C ,  1-C ) :   1.2788 B(  0-C ,  3-H ) :   0.1007 B(  0-C ,  8-H ) :   0.7602
B(  0-C ,  9-H ) :   0.6965 B(  0-C , 10-H ) :   0.7684 B(  1-C ,  2-H ) :   0.9519
B(  1-C ,  3-H ) :   0.9450 B(  1-C ,  4-S ) :   0.8794 B(  1-C ,  8-H ) :   0.2346
B(  1-C ,  9-H ) :   0.2480 B(  1-C , 10-H ) :   0.2122 B(  4-S ,  5-O ) :   1.2683
B(  4-S ,  6-O ) :   1.3356 B(  4-S ,  7-O ) :   1.2784

Dispersion correction           -0.016511522
FINAL SINGLE POINT ENERGY      -702.585381024831

DIPOLE MOMENT
-------------
                                X             Y             Z
Electronic contribution:      3.61978      -5.56363      -4.27397
Nuclear contribution   :     -4.50297       7.24642       5.01775
                        -----------------------------------------
Total Dipole Moment    :     -0.88319       1.68278       0.74378
                        -----------------------------------------
Magnitude (a.u.)       :      2.04083
Magnitude (Debye)      :      5.18739

Rotational constants in cm-1:     0.162459     0.081286     0.079601
Rotational constants in MHz :  4870.394399  2436.893583  2386.374948

                             ****ORCA TERMINATED NORMALLY****
TOTAL RUN TIME: 0 days 0 hours 0 minutes 22 seconds 291 msec
