                         Program Version 5.0.0 -  RELEASE  -
|  1> !B3LYP D3BJ RIJCOSX def2-SVPD def2/J TightSCF
|  2> *xyz 1 1
|  3> C          2.91632       -1.24259       -1.54313
|  4> C          3.46659       -1.59097       -2.88908
|  5> N          4.65227       -1.14316       -3.25969
|  6> N          2.75226       -2.29204       -3.72803
|  7> H          1.77836       -2.48960       -3.51274
|  8> H          2.94861       -2.20854       -4.71681
|  9> H          5.14672       -0.51251       -2.63385
| 10> H          4.78303       -1.00720       -4.25350
| 11> C          2.80408        0.29070       -1.35924
| 12> H          1.94047       -1.71653       -1.44116
| 13> H          3.55857       -1.66343       -0.76637
| 14> H          2.17393        0.69633       -2.12297
| 15> H          3.77707        0.73043       -1.42880
| 16> H          2.38369        0.50492       -0.39889
| 17> *
| 18>
| 19> %MaxCore 64000
| 20>
| 21> %pal nprocs 4
| 22> end
| 23>
| 24> %scf
| 25>   MaxIter 150
| 26> end
| 27>
| 28>
| 29>                          ****END OF INPUT****

CARTESIAN COORDINATES (ANGSTROEM)
---------------------------------
  C      2.916320   -1.242590   -1.543130
  C      3.466590   -1.590970   -2.889080
  N      4.652270   -1.143160   -3.259690
  N      2.752260   -2.292040   -3.728030
  H      1.778360   -2.489600   -3.512740
  H      2.948610   -2.208540   -4.716810
  H      5.146720   -0.512510   -2.633850
  H      4.783030   -1.007200   -4.253500
  C      2.804080    0.290700   -1.359240
  H      1.940470   -1.716530   -1.441160
  H      3.558570   -1.663430   -0.766370
  H      2.173930    0.696330   -2.122970
  H      3.777070    0.730430   -1.428800
  H      2.383690    0.504920   -0.398890

 Total Charge           Charge          ....    1
 Multiplicity           Mult            ....    1
 Number of Electrons    NEL             ....   40
 Basis Dimension        Dim             ....  172

ORBITAL ENERGIES
----------------

  NO   OCC          E(Eh)            E(eV)
   0   2.0000     -14.580974      -396.7685
   1   2.0000     -14.575563      -396.6212
   2   2.0000     -10.508251      -285.9441
   3   2.0000     -10.386192      -282.6227
   4   2.0000     -10.347520      -281.5703
   5   2.0000      -1.204147       -32.7665
   6   2.0000      -1.105199       -30.0740
   7   2.0000      -0.965867       -26.2826
   8   2.0000      -0.861061       -23.4307
   9   2.0000      -0.816799       -22.2262
  10   2.0000      -0.772682       -21.0258
  11   2.0000      -0.752700       -20.4820
  12   2.0000      -0.702487       -19.1156
  13   2.0000      -0.665735       -18.1156
  14   2.0000      -0.627231       -17.0678
  15   2.0000      -0.602525       -16.3955
  16   2.0000      -0.555466       -15.1150
  17   2.0000      -0.545382       -14.8406
  18   2.0000      -0.532950       -14.5023
  19   2.0000      -0.501228       -13.6391
  20   0.0000      -0.225652        -6.1403
  21   0.0000      -0.163680        -4.4540
  22   0.0000      -0.121266        -3.2998
  23   0.0000      -0.119289        -3.2460
  24   0.0000      -0.087097        -2.3700

MULLIKEN ATOMIC CHARGES
-----------------------
   0 C :   -0.039062
   1 C :    0.363006
   2 N :    0.223953
   3 N :    0.193006
   4 H :    0.012003
   5 H :   -0.121879
   6 H :    0.005237
   7 H :   -0.093991
   8 C :    0.917075
   9 H :   -0.053197
  10 H :   -0.024400
  11 H :   -0.136238
  12 H :   -0.168781
  13 H :   -0.076733
Sum of atomic charges:    1.0000000

LOEWDIN ATOMIC CHARGES
----------------------
   0 C :    0.027320
   1 C :   -0.055270
   2 N :    0.293084
   3 N :    0.290612
   4 H :    0.054576
   5 H :    0.047282
   6 H :    0.044920
   7 H :    0.045158
   8 C :    0.184756
   9 H :    0.032274
  10 H :    0.051605
  11 H :   -0.002542
  12 H :   -0.020145
  13 H :    0.006369

  Mayer bond orders larger than 0.100000
B(  0-C ,  1-C ) :   1.2378 B(  0-C ,  8-C ) :   1.2586 B(  0-C ,  9-H ) :   0.8583
B(  0-C , 10-H ) :   0.7853 B(  0-C , 11-H ) :   0.1745 B(  0-C , 12-H ) :   0.2017
B(  0-C , 13-H ) :   0.1736 B(  1-C ,  2-N ) :   1.1631 B(  1-C ,  3-N ) :   1.1469
B(  1-C ,  5-H ) :  -0.1078 B(  1-C ,  9-H ) :   0.1818 B(  1-C , 10-H ) :   0.1713
B(  2-N ,  3-N ) :   0.1701 B(  2-N ,  6-H ) :   1.0062 B(  2-N ,  7-H ) :   1.1793
B(  3-N ,  4-H ) :   1.0489 B(  3-N ,  5-H ) :   1.1924 B(  4-H ,  5-H ) :  -0.1347
B(  6-H ,  7-H ) :  -0.1282 B(  8-C ,  9-H ) :   0.1115 B(  8-C , 11-H ) :   0.7749
B(  8-C , 12-H ) :   0.7580 B(  8-C , 13-H ) :   0.8171

Dispersion correction           -0.016830365
FINAL SINGLE POINT ENERGY      -228.744557124698

DIPOLE MOMENT
-------------
                                X             Y             Z
Electronic contribution:      1.31399      -2.85460      -2.77280
Nuclear contribution   :     -1.30215       2.77761       1.84194
                        -----------------------------------------
Total Dipole Moment    :      0.01184      -0.07699      -0.93086
                        -----------------------------------------
Magnitude (a.u.)       :      0.93412
Magnitude (Debye)      :      2.37433

Rotational constants in cm-1:     0.267442     0.127541     0.099068
Rotational constants in MHz :  8017.703171  3823.592522  2969.992494

                             ****ORCA TERMINATED NORMALLY****
TOTAL RUN TIME: 0 days 0 hours 0 minutes 19 seconds 974 msec
