                         Program Version 5.0.0 -  RELEASE  -
|  1> !B3LYP D3BJ RIJCOSX def2-SVPD def2/J TightSCF xyzfile
|  2>
|  3> *xyzfile 0 1 B.xyz
|  4>
|  5> %MaxCore 64000
|  6>
|  7> %pal nprocs 4
|  8> end
|  9>
| 10> %scf
| 11>   MaxIter 150
| 12> end
| 13>
| 14>
| 15>                          ****END OF INPUT****

CARTESIAN COORDINATES (ANGSTROEM)
---------------------------------
  C      2.916324   -1.242589   -1.543125
  C      0.704661    1.443129   -4.503630
  C      1.728539    1.424320   -5.639443
  H      2.646718    1.953794   -5.381054
  H      1.299916    1.930613   -6.503614
  S      2.252625   -0.188115   -6.271840
  C      3.466585   -1.590971   -2.889082
  N      4.652275   -1.143164   -3.259692
  N      2.752264   -2.292043   -3.728029
  H      1.778364   -2.489604   -3.512738
  H      2.948612   -2.208544   -4.716813
  H      5.146723   -0.512508   -2.633852
  H      4.783030   -1.007203   -4.253498
  O      3.562607   -0.444464   -5.631552
  O      2.344944   -0.033742   -7.696501
  C      2.804084    0.290698   -1.359243
  C      1.052550    0.695659   -3.214915
  H     -0.232483    1.032925   -4.884449
  H      0.511700    2.495794   -4.267966
  C      2.388380    1.093669   -2.597108
  H      3.763425    0.674718   -0.999889
  H      2.094788    0.461222   -0.545756
  O      1.266058   -1.159177   -5.805365
  H      3.167316    1.013242   -3.359430
  H      2.357690    2.149375   -2.310997
  H      1.039284   -0.368429   -3.449329
  H      0.250787    0.865605   -2.488283
  H      1.940472   -1.716529   -1.441161
  H      3.558569   -1.663433   -0.766371

 Total Charge           Charge          ....    0
 Multiplicity           Mult            ....    1
 Number of Electrons    NEL             ....  112
 Basis Dimension        Dim             ....  404

ORBITAL ENERGIES
----------------

  NO   OCC          E(Eh)            E(eV)
   0   2.0000     -89.036926     -2422.8179
   1   2.0000     -19.079600      -519.1823
   2   2.0000     -19.072735      -518.9955
   3   2.0000     -19.063921      -518.7557
   4   2.0000     -14.404308      -391.9611
   5   2.0000     -14.403715      -391.9450
   6   2.0000     -10.342729      -281.4400
   7   2.0000     -10.248105      -278.8651
   8   2.0000     -10.227209      -278.2965
   9   2.0000     -10.199071      -277.5308
  10   2.0000     -10.186541      -277.1899
  11   2.0000     -10.183131      -277.0971
  12   2.0000     -10.181255      -277.0460
  13   2.0000      -8.089534      -220.1274
  14   2.0000      -6.059240      -164.8803
  15   2.0000      -6.058285      -164.8543
  16   2.0000      -6.057251      -164.8262
  17   2.0000      -1.086876       -29.5754
  18   2.0000      -1.034079       -28.1387
  19   2.0000      -0.941838       -25.6287
  20   2.0000      -0.937623       -25.5140
  21   2.0000      -0.933028       -25.3890
  22   2.0000      -0.841218       -22.8907
  23   2.0000      -0.795738       -21.6531
  24   2.0000      -0.749758       -20.4019
  25   2.0000      -0.697796       -18.9880
  26   2.0000      -0.671121       -18.2621
  27   2.0000      -0.636997       -17.3336
  28   2.0000      -0.604606       -16.4522
  29   2.0000      -0.592094       -16.1117
  30   2.0000      -0.580462       -15.7952
  31   2.0000      -0.538447       -14.6519
  32   2.0000      -0.527044       -14.3416
  33   2.0000      -0.515243       -14.0205
  34   2.0000      -0.498244       -13.5579
  35   2.0000      -0.474104       -12.9010
  36   2.0000      -0.467054       -12.7092
  37   2.0000      -0.449308       -12.2263
  38   2.0000      -0.437581       -11.9072
  39   2.0000      -0.434431       -11.8215
  40   2.0000      -0.429014       -11.6741
  41   2.0000      -0.417738       -11.3672
  42   2.0000      -0.408185       -11.1073
  43   2.0000      -0.388888       -10.5822
  44   2.0000      -0.380828       -10.3628
  45   2.0000      -0.376637       -10.2488
  46   2.0000      -0.349156        -9.5010
  47   2.0000      -0.343159        -9.3378
  48   2.0000      -0.330553        -8.9948
  49   2.0000      -0.327851        -8.9213
  50   2.0000      -0.308144        -8.3850
  51   2.0000      -0.304363        -8.2821
  52   2.0000      -0.269611        -7.3365
  53   2.0000      -0.263938        -7.1821
  54   2.0000      -0.255564        -6.9542
  55   2.0000      -0.227321        -6.1857
  56   0.0000      -0.062747        -1.7074
  57   0.0000      -0.019931        -0.5423
  58   0.0000       0.004625         0.1258
  59   0.0000       0.020518         0.5583
  60   0.0000       0.025090         0.6827

MULLIKEN ATOMIC CHARGES
-----------------------
   0 C :    0.605197
   1 C :    0.686514
   2 C :    0.338115
   3 H :    0.012684
   4 H :   -0.319153
   5 S :    1.345012
   6 C :    0.194552
   7 N :    0.366145
   8 N :    0.399048
   9 H :    0.021687
  10 H :   -0.215917
  11 H :    0.004054
  12 H :   -0.272218
  13 O :   -0.864400
  14 O :   -0.753097
  15 C :    0.576984
  16 C :    0.410913
  17 H :   -0.071557
  18 H :   -0.164108
  19 C :    0.105632
  20 H :   -0.102185
  21 H :   -0.207960
  22 O :   -0.896987
  23 H :   -0.069059
  24 H :   -0.273519
  25 H :   -0.453096
  26 H :   -0.152725
  27 H :    0.048642
  28 H :   -0.299200
Sum of atomic charges:    0.0000000

LOEWDIN ATOMIC CHARGES
----------------------
   0 C :    0.056996
   1 C :   -0.024541
   2 C :   -0.048568
   3 H :    0.003296
   4 H :    0.007887
   5 S :    0.941325
   6 C :   -0.066835
   7 N :    0.293198
   8 N :    0.306099
   9 H :    0.038604
  10 H :   -0.025520
  11 H :    0.036793
  12 H :   -0.036113
  13 O :   -0.570408
  14 O :   -0.512576
  15 C :    0.000993
  16 C :   -0.014819
  17 H :    0.027126
  18 H :    0.022845
  19 C :   -0.015710
  20 H :    0.015089
  21 H :    0.024487
  22 O :   -0.547720
  23 H :   -0.004616
  24 H :    0.029677
  25 H :   -0.021581
  26 H :    0.026687
  27 H :    0.024557
  28 H :    0.033345

  Mayer bond orders larger than 0.100000
B(  0-C ,  6-C ) :   1.1408 B(  0-C ,  8-N ) :   0.1019 B(  0-C , 15-C ) :   1.1371
B(  0-C , 20-H ) :   0.1072 B(  0-C , 21-H ) :   0.1379 B(  0-C , 27-H ) :   0.6969
B(  0-C , 28-H ) :   0.6010 B(  1-C ,  2-C ) :   1.1834 B(  1-C ,  3-H ) :   0.1024
B(  1-C ,  4-H ) :   0.2266 B(  1-C , 16-C ) :   1.2311 B(  1-C , 17-H ) :   0.5918
B(  1-C , 18-H ) :   0.6540 B(  2-C ,  3-H ) :   0.8507 B(  2-C ,  4-H ) :   0.7994
B(  2-C ,  5-S ) :   0.9008 B(  2-C , 14-O ) :   0.1054 B(  2-C , 17-H ) :   0.1385
B(  2-C , 18-H ) :   0.1976 B(  5-S , 13-O ) :   1.1364 B(  5-S , 14-O ) :   1.4081
B(  5-S , 22-O ) :   1.2086 B(  6-C ,  7-N ) :   1.0815 B(  6-C ,  8-N ) :   1.1859
B(  6-C , 27-H ) :   0.2232 B(  6-C , 28-H ) :   0.2883 B(  7-N ,  8-N ) :   0.1874
B(  7-N , 11-H ) :   1.0056 B(  7-N , 12-H ) :   1.0916 B(  8-N ,  9-H ) :   0.9646
B(  8-N , 10-H ) :   1.0788 B(  9-H , 10-H ) :  -0.1302 B( 10-H , 13-O ) :   0.1236
B( 11-H , 12-H ) :  -0.1531 B( 12-H , 13-O ) :   0.1420 B( 13-O , 22-O ) :   0.1007
B( 15-C , 19-C ) :   1.2064 B( 15-C , 20-H ) :   0.6265 B( 15-C , 21-H ) :   0.7656
B( 15-C , 23-H ) :   0.1591 B( 15-C , 24-H ) :   0.1047 B( 15-C , 27-H ) :   0.1410
B( 15-C , 28-H ) :   0.1008 B( 16-C , 17-H ) :   0.3175 B( 16-C , 18-H ) :   0.1070
B( 16-C , 19-C ) :   1.2349 B( 16-C , 23-H ) :   0.1669 B( 16-C , 24-H ) :   0.1853
B( 16-C , 25-H ) :   0.7738 B( 16-C , 26-H ) :   0.6069 B( 17-H , 18-H ) :  -0.1317
B( 19-C , 20-H ) :   0.2924 B( 19-C , 21-H ) :   0.1785 B( 19-C , 23-H ) :   0.8221
B( 19-C , 24-H ) :   0.7438 B( 19-C , 25-H ) :   0.1521 B( 19-C , 26-H ) :   0.2347
B( 20-H , 21-H ) :  -0.1631

Dispersion correction           -0.060656136
FINAL SINGLE POINT ENERGY     -1008.837861464767

DIPOLE MOMENT
-------------
                                X             Y             Z
Electronic contribution:      2.74479      -6.25137     -13.29918
Nuclear contribution   :     -1.90023       6.18953      17.82209
                        -----------------------------------------
Total Dipole Moment    :      0.84456      -0.06184       4.52291
                        -----------------------------------------
Magnitude (a.u.)       :      4.60150
Magnitude (Debye)      :     11.69609

Rotational constants in cm-1:     0.036337     0.018755     0.015005
Rotational constants in MHz :  1089.341704   562.266628   449.834770

                             ****ORCA TERMINATED NORMALLY****
TOTAL RUN TIME: 0 days 0 hours 2 minutes 18 seconds 391 msec
