                         Program Version 5.0.0 -  RELEASE  -
|  1> !B3LYP D3BJ RIJCOSX def2-SVPD def2/J TightSCF
|  2> *xyz 0 1
|  3> C          0.70466        1.44313       -4.50363
|  4> C          1.72854        1.42432       -5.63944
|  5> H          2.64672        1.95379       -5.38105
|  6> H          1.29992        1.93061       -6.50361
|  7> S          2.25263       -0.18811       -6.27184
|  8> F          3.56261       -0.44446       -5.63155
|  9> O          2.34494       -0.03374       -7.69650
| 10> O          1.26606       -1.15918       -5.80536
| 11> H         -0.17385        0.91270       -4.80656
| 12> H          0.44778        2.45562       -4.27173
| 13> H          1.12367        0.97423       -3.63791
| 14> *
| 15>
| 16> %MaxCore 64000
| 17>
| 18> %pal nprocs 4
| 19> end
| 20>
| 21> %scf
| 22>   MaxIter 150
| 23> end
| 24>
| 25>
| 26>                          ****END OF INPUT****

CARTESIAN COORDINATES (ANGSTROEM)
---------------------------------
  C      0.704660    1.443130   -4.503630
  C      1.728540    1.424320   -5.639440
  H      2.646720    1.953790   -5.381050
  H      1.299920    1.930610   -6.503610
  S      2.252630   -0.188110   -6.271840
  F      3.562610   -0.444460   -5.631550
  O      2.344940   -0.033740   -7.696500
  O      1.266060   -1.159180   -5.805360
  H     -0.173850    0.912700   -4.806560
  H      0.447780    2.455620   -4.271730
  H      1.123670    0.974230   -3.637910

 Total Charge           Charge          ....    0
 Multiplicity           Mult            ....    1
 Number of Electrons    NEL             ....   58
 Basis Dimension        Dim             ....  176

ORBITAL ENERGIES
----------------

  NO   OCC          E(Eh)            E(eV)
   0   2.0000     -89.137957     -2425.5671
   1   2.0000     -24.797077      -674.7628
   2   2.0000     -19.156365      -521.2712
   3   2.0000     -19.148969      -521.0699
   4   2.0000     -10.248332      -278.8713
   5   2.0000     -10.206205      -277.7250
   6   2.0000      -8.192544      -222.9304
   7   2.0000      -6.165373      -167.7683
   8   2.0000      -6.159308      -167.6033
   9   2.0000      -6.157973      -167.5670
  10   2.0000      -1.345907       -36.6240
  11   2.0000      -1.116482       -30.3810
  12   2.0000      -1.019303       -27.7366
  13   2.0000      -0.819176       -22.2909
  14   2.0000      -0.726321       -19.7642
  15   2.0000      -0.672277       -18.2936
  16   2.0000      -0.580521       -15.7968
  17   2.0000      -0.567562       -15.4441
  18   2.0000      -0.553346       -15.0573
  19   2.0000      -0.496159       -13.5012
  20   2.0000      -0.484705       -13.1895
  21   2.0000      -0.459899       -12.5145
  22   2.0000      -0.436429       -11.8758
  23   2.0000      -0.408183       -11.1072
  24   2.0000      -0.402732       -10.9589
  25   2.0000      -0.387850       -10.5539
  26   2.0000      -0.340261        -9.2590
  27   2.0000      -0.334739        -9.1087
  28   2.0000      -0.320561        -8.7229
  29   0.0000      -0.006904        -0.1879
  30   0.0000       0.016841         0.4583
  31   0.0000       0.031498         0.8571
  32   0.0000       0.039185         1.0663
  33   0.0000       0.045808         1.2465

MULLIKEN ATOMIC CHARGES
-----------------------
   0 C :    1.018473
   1 C :   -0.228115
   2 H :   -0.083914
   3 H :   -0.029818
   4 S :    1.488179
   5 F :   -0.426626
   6 O :   -0.649688
   7 O :   -0.693801
   8 H :   -0.091369
   9 H :   -0.174329
  10 H :   -0.128992
Sum of atomic charges:   -0.0000000

LOEWDIN ATOMIC CHARGES
----------------------
   0 C :    0.144082
   1 C :   -0.075444
   2 H :    0.014551
   3 H :    0.019397
   4 S :    1.131663
   5 F :   -0.278226
   6 O :   -0.462209
   7 O :   -0.470666
   8 H :   -0.007751
   9 H :   -0.008182
  10 H :   -0.007214

  Mayer bond orders larger than 0.100000
B(  0-C ,  1-C ) :   1.3289 B(  0-C ,  8-H ) :   0.7652 B(  0-C ,  9-H ) :   0.6983
B(  0-C , 10-H ) :   0.7671 B(  1-C ,  2-H ) :   0.9291 B(  1-C ,  3-H ) :   0.9458
B(  1-C ,  4-S ) :   0.9414 B(  1-C ,  8-H ) :   0.2283 B(  1-C ,  9-H ) :   0.2426
B(  1-C , 10-H ) :   0.2083 B(  4-S ,  5-F ) :   0.6316 B(  4-S ,  6-O ) :   1.5492
B(  4-S ,  7-O ) :   1.4958

Dispersion correction           -0.015746827
FINAL SINGLE POINT ENERGY      -727.086935415748

DIPOLE MOMENT
-------------
                                X             Y             Z
Electronic contribution:      6.27700      -6.43762      -3.68387
Nuclear contribution   :     -6.09914       7.80989       4.64238
                        -----------------------------------------
Total Dipole Moment    :      0.17786       1.37227       0.95851
                        -----------------------------------------
Magnitude (a.u.)       :      1.68330
Magnitude (Debye)      :      4.27862

Rotational constants in cm-1:     0.154372     0.078826     0.078033
Rotational constants in MHz :  4627.943144  2363.154585  2339.382767

                             ****ORCA TERMINATED NORMALLY****
TOTAL RUN TIME: 0 days 0 hours 0 minutes 21 seconds 699 msec
