                         Program Version 5.0.0 -  RELEASE  -
|  1> !B3LYP D3BJ RIJCOSX def2-SVPD def2/J TightSCF
|  2> *xyz 0 1
|  3> C          2.91632       -1.24259       -1.54313
|  4> C          3.46659       -1.59097       -2.88908
|  5> C          4.65227       -1.14316       -3.25969
|  6> N          2.75226       -2.29204       -3.72803
|  7> H          1.77836       -2.48960       -3.51274
|  8> H          2.94861       -2.20854       -4.71681
|  9> H          5.14672       -0.51251       -2.63385
| 10> H          4.78303       -1.00720       -4.25350
| 11> C          2.80408        0.29070       -1.35924
| 12> H          1.94047       -1.71653       -1.44116
| 13> H          3.55857       -1.66343       -0.76637
| 14> H          2.17393        0.69633       -2.12297
| 15> H          3.77707        0.73043       -1.42880
| 16> H          2.38369        0.50492       -0.39889
| 17> *
| 18>
| 19> %MaxCore 64000
| 20>
| 21> %pal nprocs 4
| 22> end
| 23>
| 24> %scf
| 25>   MaxIter 150
| 26> end
| 27>
| 28>
| 29>                          ****END OF INPUT****

CARTESIAN COORDINATES (ANGSTROEM)
---------------------------------
  C      2.916320   -1.242590   -1.543130
  C      3.466590   -1.590970   -2.889080
  C      4.652270   -1.143160   -3.259690
  N      2.752260   -2.292040   -3.728030
  H      1.778360   -2.489600   -3.512740
  H      2.948610   -2.208540   -4.716810
  H      5.146720   -0.512510   -2.633850
  H      4.783030   -1.007200   -4.253500
  C      2.804080    0.290700   -1.359240
  H      1.940470   -1.716530   -1.441160
  H      3.558570   -1.663430   -0.766370
  H      2.173930    0.696330   -2.122970
  H      3.777070    0.730430   -1.428800
  H      2.383690    0.504920   -0.398890

 Total Charge           Charge          ....    0
 Multiplicity           Mult            ....    1
 Number of Electrons    NEL             ....   40
 Basis Dimension        Dim             ....  172

ORBITAL ENERGIES
----------------

  NO   OCC          E(Eh)            E(eV)
   0   2.0000     -14.334939      -390.0735
   1   2.0000     -10.203253      -277.6446
   2   2.0000     -10.186286      -277.1829
   3   2.0000     -10.171480      -276.7800
   4   2.0000     -10.113183      -275.1937
   5   2.0000      -0.929833       -25.3021
   6   2.0000      -0.774951       -21.0875
   7   2.0000      -0.706445       -19.2233
   8   2.0000      -0.639346       -17.3975
   9   2.0000      -0.564518       -15.3613
  10   2.0000      -0.522806       -14.2263
  11   2.0000      -0.479150       -13.0383
  12   2.0000      -0.449682       -12.2365
  13   2.0000      -0.411466       -11.1965
  14   2.0000      -0.391388       -10.6502
  15   2.0000      -0.378316       -10.2945
  16   2.0000      -0.358139        -9.7454
  17   2.0000      -0.345746        -9.4082
  18   2.0000      -0.328585        -8.9413
  19   2.0000      -0.190827        -5.1927
  20   0.0000       0.015456         0.4206
  21   0.0000       0.027702         0.7538
  22   0.0000       0.048042         1.3073
  23   0.0000       0.056418         1.5352
  24   0.0000       0.068190         1.8555

MULLIKEN ATOMIC CHARGES
-----------------------
   0 C :    0.140216
   1 C :   -0.209247
   2 C :    0.572781
   3 N :    0.270384
   4 H :   -0.124331
   5 H :   -0.145097
   6 H :   -0.213475
   7 H :   -0.473585
   8 C :    0.899637
   9 H :   -0.151992
  10 H :   -0.088881
  11 H :   -0.184054
  12 H :   -0.195463
  13 H :   -0.096891
Sum of atomic charges:   -0.0000000

LOEWDIN ATOMIC CHARGES
----------------------
   0 C :   -0.014843
   1 C :   -0.262812
   2 C :    0.176037
   3 N :    0.174557
   4 H :   -0.002106
   5 H :    0.005721
   6 H :   -0.089104
   7 H :   -0.090857
   8 C :    0.147521
   9 H :    0.004481
  10 H :    0.024772
  11 H :   -0.017611
  12 H :   -0.031026
  13 H :   -0.024729

  Mayer bond orders larger than 0.100000
B(  0-C ,  1-C ) :   1.1995 B(  0-C ,  8-C ) :   1.2662 B(  0-C ,  9-H ) :   0.7498
B(  0-C , 10-H ) :   0.7889 B(  0-C , 11-H ) :   0.1872 B(  0-C , 12-H ) :   0.2055
B(  0-C , 13-H ) :   0.1880 B(  1-C ,  2-C ) :   1.8816 B(  1-C ,  3-N ) :   1.1284
B(  1-C ,  6-H ) :   0.1582 B(  1-C ,  7-H ) :   0.2169 B(  1-C ,  9-H ) :   0.2377
B(  1-C , 10-H ) :   0.1957 B(  2-C ,  3-N ) :   0.2560 B(  2-C ,  6-H ) :   0.6603
B(  2-C ,  7-H ) :   0.7526 B(  3-N ,  4-H ) :   1.0416 B(  3-N ,  5-H ) :   1.0991
B(  4-H ,  5-H ) :  -0.1208 B(  6-H ,  7-H ) :   0.1284 B(  8-C ,  9-H ) :   0.1057
B(  8-C , 11-H ) :   0.7846 B(  8-C , 12-H ) :   0.7979 B(  8-C , 13-H ) :   0.7683

Dispersion correction           -0.017601889
FINAL SINGLE POINT ENERGY      -212.285313867921

DIPOLE MOMENT
-------------
                                X             Y             Z
Electronic contribution:      0.10340      -2.73703      -1.81833
Nuclear contribution   :     -0.99366       2.78648       1.68526
                        -----------------------------------------
Total Dipole Moment    :     -0.89025       0.04945      -0.13307
                        -----------------------------------------
Magnitude (a.u.)       :      0.90150
Magnitude (Debye)      :      2.29143

Rotational constants in cm-1:     0.282898     0.128664     0.101801
Rotational constants in MHz :  8481.061354  3857.240210  3051.924245

                             ****ORCA TERMINATED NORMALLY****
TOTAL RUN TIME: 0 days 0 hours 0 minutes 20 seconds 707 msec
