                         Program Version 5.0.0 -  RELEASE  -
|  1> !B3LYP D3BJ RIJCOSX def2-SVPD def2/J TightSCF
|  2> *xyz 0 1
|  3> C          0.70466        1.44313       -4.50363
|  4> C          1.72854        1.42432       -5.63944
|  5> H          2.64672        1.95379       -5.38105
|  6> H          1.29992        1.93061       -6.50361
|  7> S          2.25263       -0.18811       -6.27184
|  8> O          3.56261       -0.44446       -5.63155
|  9> F          2.34494       -0.03374       -7.69650
| 10> O          1.26606       -1.15918       -5.80536
| 11> H         -0.17385        0.91270       -4.80656
| 12> H          0.44778        2.45562       -4.27173
| 13> H          1.12367        0.97423       -3.63791
| 14> *
| 15>
| 16> %MaxCore 64000
| 17>
| 18> %pal nprocs 4
| 19> end
| 20>
| 21> %scf
| 22>   MaxIter 150
| 23> end
| 24>
| 25>
| 26>                          ****END OF INPUT****

CARTESIAN COORDINATES (ANGSTROEM)
---------------------------------
  C      0.704660    1.443130   -4.503630
  C      1.728540    1.424320   -5.639440
  H      2.646720    1.953790   -5.381050
  H      1.299920    1.930610   -6.503610
  S      2.252630   -0.188110   -6.271840
  O      3.562610   -0.444460   -5.631550
  F      2.344940   -0.033740   -7.696500
  O      1.266060   -1.159180   -5.805360
  H     -0.173850    0.912700   -4.806560
  H      0.447780    2.455620   -4.271730
  H      1.123670    0.974230   -3.637910

 Total Charge           Charge          ....    0
 Multiplicity           Mult            ....    1
 Number of Electrons    NEL             ....   58
 Basis Dimension        Dim             ....  176

ORBITAL ENERGIES
----------------

  NO   OCC          E(Eh)            E(eV)
   0   2.0000     -89.140014     -2425.6231
   1   2.0000     -24.819880      -675.3833
   2   2.0000     -19.149316      -521.0794
   3   2.0000     -19.141020      -520.8536
   4   2.0000     -10.249511      -278.9034
   5   2.0000     -10.206858      -277.7427
   6   2.0000      -8.194698      -222.9891
   7   2.0000      -6.167716      -167.8321
   8   2.0000      -6.161245      -167.6560
   9   2.0000      -6.159903      -167.6195
  10   2.0000      -1.384304       -37.6688
  11   2.0000      -1.102433       -29.9987
  12   2.0000      -0.998914       -27.1818
  13   2.0000      -0.820375       -22.3235
  14   2.0000      -0.741865       -20.1872
  15   2.0000      -0.680229       -18.5100
  16   2.0000      -0.595871       -16.2145
  17   2.0000      -0.593929       -16.1616
  18   2.0000      -0.558101       -15.1867
  19   2.0000      -0.496682       -13.5154
  20   2.0000      -0.485903       -13.2221
  21   2.0000      -0.449037       -12.2189
  22   2.0000      -0.434012       -11.8101
  23   2.0000      -0.410751       -11.1771
  24   2.0000      -0.394708       -10.7406
  25   2.0000      -0.385020       -10.4769
  26   2.0000      -0.333393        -9.0721
  27   2.0000      -0.323710        -8.8086
  28   2.0000      -0.304994        -8.2993
  29   0.0000      -0.007232        -0.1968
  30   0.0000       0.012544         0.3413
  31   0.0000       0.032343         0.8801
  32   0.0000       0.037841         1.0297
  33   0.0000       0.045731         1.2444

MULLIKEN ATOMIC CHARGES
-----------------------
   0 C :    0.991192
   1 C :   -0.226831
   2 H :   -0.084760
   3 H :   -0.028849
   4 S :    1.488227
   5 O :   -0.690061
   6 F :   -0.394268
   7 O :   -0.682817
   8 H :   -0.091140
   9 H :   -0.172752
  10 H :   -0.107940
Sum of atomic charges:    0.0000000

LOEWDIN ATOMIC CHARGES
----------------------
   0 C :    0.151069
   1 C :   -0.080430
   2 H :    0.019829
   3 H :    0.006886
   4 S :    1.134842
   5 O :   -0.485897
   6 F :   -0.258053
   7 O :   -0.471237
   8 H :   -0.009117
   9 H :   -0.006867
  10 H :   -0.001026

  Mayer bond orders larger than 0.100000
B(  0-C ,  1-C ) :   1.3402 B(  0-C ,  3-H ) :   0.1058 B(  0-C ,  8-H ) :   0.7619
B(  0-C ,  9-H ) :   0.7020 B(  0-C , 10-H ) :   0.7766 B(  1-C ,  2-H ) :   0.9572
B(  1-C ,  3-H ) :   0.9101 B(  1-C ,  4-S ) :   0.9322 B(  1-C ,  8-H ) :   0.2292
B(  1-C ,  9-H ) :   0.2389 B(  1-C , 10-H ) :   0.2022 B(  4-S ,  5-O ) :   1.4843
B(  4-S ,  6-F ) :   0.6990 B(  4-S ,  7-O ) :   1.4924

Dispersion correction           -0.015767031
FINAL SINGLE POINT ENERGY      -727.067013562642

DIPOLE MOMENT
-------------
                                X             Y             Z
Electronic contribution:      4.18439      -5.74154      -7.18355
Nuclear contribution   :     -4.83029       7.38191       6.79413
                        -----------------------------------------
Total Dipole Moment    :     -0.64589       1.64037      -0.38942
                        -----------------------------------------
Magnitude (a.u.)       :      1.80545
Magnitude (Debye)      :      4.58908

Rotational constants in cm-1:     0.156575     0.079070     0.076729
Rotational constants in MHz :  4694.010604  2370.444114  2300.280155

                             ****ORCA TERMINATED NORMALLY****
TOTAL RUN TIME: 0 days 0 hours 0 minutes 21 seconds 393 msec
