                         Program Version 5.0.0 -  RELEASE  -
|  1> !B3LYP D3BJ RIJCOSX def2-SVPD def2/J TightSCF
|  2> *xyz 0 1
|  3> C          2.91632       -1.24259       -1.54313
|  4> C          3.46659       -1.59097       -2.88908
|  5> N          4.65227       -1.14316       -3.25969
|  6> C          2.75226       -2.29204       -3.72803
|  7> H          1.77836       -2.48960       -3.51274
|  8> H          2.94861       -2.20854       -4.71681
|  9> H          5.14672       -0.51251       -2.63385
| 10> H          4.78303       -1.00720       -4.25350
| 11> C          2.80408        0.29070       -1.35924
| 12> H          1.94047       -1.71653       -1.44116
| 13> H          3.55857       -1.66343       -0.76637
| 14> H          2.17393        0.69633       -2.12297
| 15> H          3.77707        0.73043       -1.42880
| 16> H          2.38369        0.50492       -0.39889
| 17> *
| 18>
| 19> %MaxCore 64000
| 20>
| 21> %pal nprocs 4
| 22> end
| 23>
| 24> %scf
| 25>   MaxIter 150
| 26> end
| 27>
| 28>
| 29>                          ****END OF INPUT****

CARTESIAN COORDINATES (ANGSTROEM)
---------------------------------
  C      2.916320   -1.242590   -1.543130
  C      3.466590   -1.590970   -2.889080
  N      4.652270   -1.143160   -3.259690
  C      2.752260   -2.292040   -3.728030
  H      1.778360   -2.489600   -3.512740
  H      2.948610   -2.208540   -4.716810
  H      5.146720   -0.512510   -2.633850
  H      4.783030   -1.007200   -4.253500
  C      2.804080    0.290700   -1.359240
  H      1.940470   -1.716530   -1.441160
  H      3.558570   -1.663430   -0.766370
  H      2.173930    0.696330   -2.122970
  H      3.777070    0.730430   -1.428800
  H      2.383690    0.504920   -0.398890

 Total Charge           Charge          ....    0
 Multiplicity           Mult            ....    1
 Number of Electrons    NEL             ....   40
 Basis Dimension        Dim             ....  172

ORBITAL ENERGIES
----------------

  NO   OCC          E(Eh)            E(eV)
   0   2.0000     -14.331058      -389.9679
   1   2.0000     -10.201766      -277.6042
   2   2.0000     -10.184589      -277.1368
   3   2.0000     -10.176382      -276.9134
   4   2.0000     -10.116859      -275.2937
   5   2.0000      -0.924739       -25.1634
   6   2.0000      -0.772408       -21.0183
   7   2.0000      -0.717482       -19.5237
   8   2.0000      -0.631763       -17.1911
   9   2.0000      -0.563697       -15.3390
  10   2.0000      -0.526928       -14.3384
  11   2.0000      -0.476147       -12.9566
  12   2.0000      -0.438144       -11.9225
  13   2.0000      -0.434636       -11.8271
  14   2.0000      -0.389845       -10.6082
  15   2.0000      -0.381756       -10.3881
  16   2.0000      -0.359123        -9.7722
  17   2.0000      -0.344080        -9.3629
  18   2.0000      -0.323229        -8.7955
  19   2.0000      -0.197687        -5.3793
  20   0.0000       0.012820         0.3488
  21   0.0000       0.030716         0.8358
  22   0.0000       0.052407         1.4261
  23   0.0000       0.057138         1.5548
  24   0.0000       0.066083         1.7982

MULLIKEN ATOMIC CHARGES
-----------------------
   0 C :    0.014253
   1 C :   -0.323636
   2 N :    0.334475
   3 C :    0.481092
   4 H :   -0.112740
   5 H :   -0.469355
   6 H :   -0.140245
   7 H :   -0.131669
   8 C :    0.950788
   9 H :    0.019818
  10 H :   -0.130221
  11 H :   -0.127782
  12 H :   -0.182731
  13 H :   -0.182045
Sum of atomic charges:   -0.0000000

LOEWDIN ATOMIC CHARGES
----------------------
   0 C :   -0.016583
   1 C :   -0.270706
   2 N :    0.180539
   3 C :    0.176290
   4 H :   -0.083302
   5 H :   -0.087447
   6 H :   -0.007531
   7 H :    0.004108
   8 C :    0.145393
   9 H :    0.016904
  10 H :    0.018852
  11 H :   -0.015432
  12 H :   -0.038060
  13 H :   -0.023026

  Mayer bond orders larger than 0.100000
B(  0-C ,  1-C ) :   1.3185 B(  0-C ,  8-C ) :   1.2247 B(  0-C ,  9-H ) :   0.8641
B(  0-C , 10-H ) :   0.7718 B(  0-C , 11-H ) :   0.1782 B(  0-C , 12-H ) :   0.2295
B(  0-C , 13-H ) :   0.2372 B(  1-C ,  2-N ) :   1.1355 B(  1-C ,  3-C ) :   1.9309
B(  1-C ,  5-H ) :   0.2874 B(  1-C ,  9-H ) :   0.1550 B(  1-C , 10-H ) :   0.2334
B(  2-N ,  3-C ) :   0.2831 B(  2-N ,  6-H ) :   0.9956 B(  2-N ,  7-H ) :   1.0618
B(  3-C ,  4-H ) :   0.8649 B(  3-C ,  5-H ) :   0.6082 B(  4-H ,  5-H ) :   0.1472
B(  6-H ,  7-H ) :  -0.1048 B(  8-C ,  9-H ) :   0.1185 B(  8-C , 11-H ) :   0.7761
B(  8-C , 12-H ) :   0.7443 B(  8-C , 13-H ) :   0.7781

Dispersion correction           -0.017548372
FINAL SINGLE POINT ENERGY      -212.288893076284

DIPOLE MOMENT
-------------
                                X             Y             Z
Electronic contribution:      1.73123      -1.74218      -1.41390
Nuclear contribution   :     -1.43372       2.52039       1.57679
                        -----------------------------------------
Total Dipole Moment    :      0.29751       0.77821       0.16289
                        -----------------------------------------
Magnitude (a.u.)       :      0.84891
Magnitude (Debye)      :      2.15777

Rotational constants in cm-1:     0.274962     0.131786     0.102554
Rotational constants in MHz :  8243.150005  3950.846092  3074.493018

                             ****ORCA TERMINATED NORMALLY****
TOTAL RUN TIME: 0 days 0 hours 0 minutes 21 seconds 202 msec
