                         Program Version 5.0.0 -  RELEASE  -
|  1> !B3LYP D3BJ RIJCOSX def2-SVPD def2/J TightSCF
|  2> *xyz 0 1
|  3> C          0.70466        1.44313       -4.50363
|  4> C          1.72854        1.42432       -5.63944
|  5> H          2.64672        1.95379       -5.38105
|  6> H          1.29992        1.93061       -6.50361
|  7> S          2.25263       -0.18811       -6.27184
|  8> O          3.56261       -0.44446       -5.63155
|  9> O          2.34494       -0.03374       -7.69650
| 10> F          1.26606       -1.15918       -5.80536
| 11> H         -0.17385        0.91270       -4.80656
| 12> H          0.44778        2.45562       -4.27173
| 13> H          1.12367        0.97423       -3.63791
| 14> *
| 15>
| 16> %MaxCore 64000
| 17>
| 18> %pal nprocs 4
| 19> end
| 20>
| 21> %scf
| 22>   MaxIter 150
| 23> end
| 24>
| 25>
| 26>                          ****END OF INPUT****

CARTESIAN COORDINATES (ANGSTROEM)
---------------------------------
  C      0.704660    1.443130   -4.503630
  C      1.728540    1.424320   -5.639440
  H      2.646720    1.953790   -5.381050
  H      1.299920    1.930610   -6.503610
  S      2.252630   -0.188110   -6.271840
  O      3.562610   -0.444460   -5.631550
  O      2.344940   -0.033740   -7.696500
  F      1.266060   -1.159180   -5.805360
  H     -0.173850    0.912700   -4.806560
  H      0.447780    2.455620   -4.271730
  H      1.123670    0.974230   -3.637910

 Total Charge           Charge          ....    0
 Multiplicity           Mult            ....    1
 Number of Electrons    NEL             ....   58
 Basis Dimension        Dim             ....  176

ORBITAL ENERGIES
----------------

  NO   OCC          E(Eh)            E(eV)
   0   2.0000     -89.138627     -2425.5853
   1   2.0000     -24.807794      -675.0544
   2   2.0000     -19.156495      -521.2747
   3   2.0000     -19.140561      -520.8411
   4   2.0000     -10.248365      -278.8722
   5   2.0000     -10.213987      -277.9367
   6   2.0000      -8.193271      -222.9502
   7   2.0000      -6.166285      -167.7931
   8   2.0000      -6.159933      -167.6203
   9   2.0000      -6.158520      -167.5818
  10   2.0000      -1.362781       -37.0831
  11   2.0000      -1.112512       -30.2730
  12   2.0000      -1.007309       -27.4103
  13   2.0000      -0.823111       -22.3980
  14   2.0000      -0.730667       -19.8825
  15   2.0000      -0.680818       -18.5260
  16   2.0000      -0.595692       -16.2096
  17   2.0000      -0.580179       -15.7875
  18   2.0000      -0.547340       -14.8939
  19   2.0000      -0.500207       -13.6113
  20   2.0000      -0.479891       -13.0585
  21   2.0000      -0.454695       -12.3729
  22   2.0000      -0.448312       -12.1992
  23   2.0000      -0.417467       -11.3599
  24   2.0000      -0.400945       -10.9103
  25   2.0000      -0.388915       -10.5829
  26   2.0000      -0.339193        -9.2299
  27   2.0000      -0.324656        -8.8343
  28   2.0000      -0.311378        -8.4730
  29   0.0000      -0.014008        -0.3812
  30   0.0000       0.025427         0.6919
  31   0.0000       0.034738         0.9453
  32   0.0000       0.039321         1.0700
  33   0.0000       0.042316         1.1515

MULLIKEN ATOMIC CHARGES
-----------------------
   0 C :    0.996876
   1 C :   -0.199397
   2 H :   -0.082250
   3 H :   -0.024951
   4 S :    1.468038
   5 O :   -0.693680
   6 O :   -0.639137
   7 F :   -0.429169
   8 H :   -0.111560
   9 H :   -0.164511
  10 H :   -0.120259
Sum of atomic charges:   -0.0000000

LOEWDIN ATOMIC CHARGES
----------------------
   0 C :    0.138648
   1 C :   -0.069356
   2 H :    0.027882
   3 H :    0.014365
   4 S :    1.130979
   5 O :   -0.486920
   6 O :   -0.461419
   7 F :   -0.266831
   8 H :   -0.013512
   9 H :   -0.007459
  10 H :   -0.006377

  Mayer bond orders larger than 0.100000
B(  0-C ,  1-C ) :   1.3011 B(  0-C ,  8-H ) :   0.7638 B(  0-C ,  9-H ) :   0.7037
B(  0-C , 10-H ) :   0.7785 B(  1-C ,  2-H ) :   0.9496 B(  1-C ,  3-H ) :   0.9435
B(  1-C ,  4-S ) :   0.9494 B(  1-C ,  8-H ) :   0.2165 B(  1-C ,  9-H ) :   0.2425
B(  1-C , 10-H ) :   0.1953 B(  4-S ,  5-O ) :   1.4843 B(  4-S ,  6-O ) :   1.5486
B(  4-S ,  7-F ) :   0.6599

Dispersion correction           -0.015668358
FINAL SINGLE POINT ENERGY      -727.077010465921

DIPOLE MOMENT
-------------
                                X             Y             Z
Electronic contribution:      2.36033      -7.61197      -3.98041
Nuclear contribution   :     -3.70606       8.55465       4.82350
                        -----------------------------------------
Total Dipole Moment    :     -1.34572       0.94268       0.84309
                        -----------------------------------------
Magnitude (a.u.)       :      1.84673
Magnitude (Debye)      :      4.69402

Rotational constants in cm-1:     0.153201     0.080978     0.077494
Rotational constants in MHz :  4592.852844  2427.650814  2323.207507

                             ****ORCA TERMINATED NORMALLY****
TOTAL RUN TIME: 0 days 0 hours 0 minutes 20 seconds 968 msec
