                         Program Version 5.0.0 -  RELEASE  -
|  1> !B3LYP D3BJ RIJCOSX def2-SVPD def2/J TightSCF xyzfile
|  2>
|  3> *xyzfile 0 1 D1.xyz
|  4>
|  5> %MaxCore 64000
|  6>
|  7> %pal nprocs 4
|  8> end
|  9>
| 10> %scf
| 11>   MaxIter 150
| 12> end
| 13>
| 14>
| 15>                          ****END OF INPUT****

CARTESIAN COORDINATES (ANGSTROEM)
---------------------------------
  C      2.916324   -1.242589   -1.543125
  C      0.704661    1.443129   -4.503630
  C      1.728539    1.424320   -5.639443
  H      2.646718    1.953794   -5.381054
  H      1.299916    1.930613   -6.503614
  S      2.252625   -0.188115   -6.271840
  C      3.466585   -1.590971   -2.889082
  C      4.652275   -1.143164   -3.259692
  N      2.752264   -2.292043   -3.728029
  H      1.778364   -2.489604   -3.512738
  H      2.948612   -2.208544   -4.716813
  H      5.146723   -0.512508   -2.633852
  H      4.783030   -1.007203   -4.253498
  F      3.562607   -0.444464   -5.631552
  O      2.344944   -0.033742   -7.696501
  C      2.804084    0.290698   -1.359243
  C      1.052550    0.695659   -3.214915
  H     -0.232483    1.032925   -4.884449
  H      0.511700    2.495794   -4.267966
  C      2.388380    1.093669   -2.597108
  H      3.763425    0.674718   -0.999889
  H      2.094788    0.461222   -0.545756
  O      1.266058   -1.159177   -5.805365
  H      3.167316    1.013242   -3.359430
  H      2.357690    2.149375   -2.310997
  H      1.039284   -0.368429   -3.449329
  H      0.250787    0.865605   -2.488283
  H      1.940472   -1.716529   -1.441161
  H      3.558569   -1.663433   -0.766371

 Total Charge           Charge          ....    0
 Multiplicity           Mult            ....    1
 Number of Electrons    NEL             ....  112
 Basis Dimension        Dim             ....  404

ORBITAL ENERGIES
----------------

  NO   OCC          E(Eh)            E(eV)
   0   2.0000     -89.147110     -2425.8162
   1   2.0000     -24.806263      -675.0127
   2   2.0000     -19.163456      -521.4642
   3   2.0000     -19.159134      -521.3466
   4   2.0000     -14.326601      -389.8466
   5   2.0000     -10.249318      -278.8981
   6   2.0000     -10.214298      -277.9452
   7   2.0000     -10.201642      -277.6008
   8   2.0000     -10.191279      -277.3188
   9   2.0000     -10.188255      -277.2365
  10   2.0000     -10.186510      -277.1890
  11   2.0000     -10.186468      -277.1879
  12   2.0000     -10.110491      -275.1205
  13   2.0000      -8.200490      -223.1467
  14   2.0000      -6.173491      -167.9892
  15   2.0000      -6.167367      -167.8226
  16   2.0000      -6.165810      -167.7802
  17   2.0000      -1.357248       -36.9326
  18   2.0000      -1.125180       -30.6177
  19   2.0000      -1.029388       -28.0111
  20   2.0000      -0.926615       -25.2145
  21   2.0000      -0.837155       -22.7801
  22   2.0000      -0.799321       -21.7506
  23   2.0000      -0.760893       -20.7049
  24   2.0000      -0.732437       -19.9306
  25   2.0000      -0.698505       -19.0073
  26   2.0000      -0.684964       -18.6388
  27   2.0000      -0.634480       -17.2651
  28   2.0000      -0.597861       -16.2686
  29   2.0000      -0.583216       -15.8701
  30   2.0000      -0.573704       -15.6113
  31   2.0000      -0.564853       -15.3704
  32   2.0000      -0.549203       -14.9446
  33   2.0000      -0.516496       -14.0546
  34   2.0000      -0.502978       -13.6867
  35   2.0000      -0.494892       -13.4667
  36   2.0000      -0.479132       -13.0378
  37   2.0000      -0.476479       -12.9657
  38   2.0000      -0.465609       -12.6699
  39   2.0000      -0.447492       -12.1769
  40   2.0000      -0.436679       -11.8826
  41   2.0000      -0.425941       -11.5905
  42   2.0000      -0.403967       -10.9925
  43   2.0000      -0.397151       -10.8070
  44   2.0000      -0.389263       -10.5924
  45   2.0000      -0.384211       -10.4549
  46   2.0000      -0.377726       -10.2784
  47   2.0000      -0.360711        -9.8155
  48   2.0000      -0.354964        -9.6591
  49   2.0000      -0.346227        -9.4213
  50   2.0000      -0.341846        -9.3021
  51   2.0000      -0.331829        -9.0295
  52   2.0000      -0.327647        -8.9157
  53   2.0000      -0.324246        -8.8232
  54   2.0000      -0.318744        -8.6735
  55   2.0000      -0.187848        -5.1116
  56   0.0000      -0.003980        -0.1083
  57   0.0000       0.010330         0.2811
  58   0.0000       0.015861         0.4316
  59   0.0000       0.020984         0.5710
  60   0.0000       0.024765         0.6739

MULLIKEN ATOMIC CHARGES
-----------------------
   0 C :    0.793161
   1 C :    0.694901
   2 C :    0.304939
   3 H :    0.061145
   4 H :   -0.328625
   5 S :    1.554959
   6 C :   -0.577589
   7 C :    0.825680
   8 N :    0.492710
   9 H :   -0.048520
  10 H :   -0.227013
  11 H :   -0.044568
  12 H :   -0.744436
  13 F :   -0.593869
  14 O :   -0.638941
  15 C :    0.525982
  16 C :    0.452148
  17 H :   -0.062959
  18 H :   -0.138464
  19 C :    0.136867
  20 H :   -0.091245
  21 H :   -0.227542
  22 O :   -0.805765
  23 H :   -0.123907
  24 H :   -0.264629
  25 H :   -0.455627
  26 H :   -0.158530
  27 H :    0.006993
  28 H :   -0.317258
Sum of atomic charges:    0.0000000

LOEWDIN ATOMIC CHARGES
----------------------
   0 C :    0.034066
   1 C :   -0.017948
   2 C :   -0.022652
   3 H :    0.014893
   4 H :    0.020973
   5 S :    1.146531
   6 C :   -0.247256
   7 C :    0.177052
   8 N :    0.197506
   9 H :    0.006166
  10 H :   -0.041024
  11 H :   -0.076017
  12 H :   -0.121260
  13 F :   -0.286764
  14 O :   -0.445600
  15 C :   -0.001691
  16 C :   -0.011184
  17 H :    0.029655
  18 H :    0.032714
  19 C :   -0.019410
  20 H :    0.017203
  21 H :    0.015040
  22 O :   -0.464070
  23 H :   -0.009152
  24 H :    0.024014
  25 H :   -0.017331
  26 H :    0.031121
  27 H :    0.009110
  28 H :    0.025315

  Mayer bond orders larger than 0.100000
B(  0-C ,  6-C ) :   1.2781 B(  0-C ,  8-N ) :   0.1093 B(  0-C , 15-C ) :   1.1050
B(  0-C , 19-C ) :   0.1159 B(  0-C , 20-H ) :   0.1209 B(  0-C , 21-H ) :   0.2148
B(  0-C , 27-H ) :   0.5082 B(  0-C , 28-H ) :   0.6083 B(  1-C ,  2-C ) :   1.1948
B(  1-C ,  3-H ) :   0.1152 B(  1-C ,  4-H ) :   0.2262 B(  1-C , 16-C ) :   1.2260
B(  1-C , 17-H ) :   0.5951 B(  1-C , 18-H ) :   0.6540 B(  2-C ,  3-H ) :   0.8405
B(  2-C ,  4-H ) :   0.8180 B(  2-C ,  5-S ) :   0.9390 B(  2-C , 17-H ) :   0.1340
B(  2-C , 18-H ) :   0.1894 B(  5-S , 13-F ) :   0.6200 B(  5-S , 14-O ) :   1.5561
B(  5-S , 22-O ) :   1.4486 B(  6-C ,  7-C ) :   2.1243 B(  6-C ,  8-N ) :   1.0105
B(  6-C , 11-H ) :   0.1427 B(  6-C , 12-H ) :   0.3944 B(  6-C , 15-C ) :   0.1082
B(  6-C , 27-H ) :   0.3387 B(  6-C , 28-H ) :   0.2746 B(  7-C ,  8-N ) :   0.3710
B(  7-C , 11-H ) :   0.5338 B(  7-C , 12-H ) :   0.2342 B(  8-N ,  9-H ) :   0.8875
B(  8-N , 10-H ) :   0.9349 B(  8-N , 11-H ) :   0.1780 B(  9-H , 10-H ) :  -0.1370
B( 10-H , 12-H ) :   0.1146 B( 12-H , 13-F ) :   0.3002 B( 15-C , 19-C ) :   1.1847
B( 15-C , 20-H ) :   0.6211 B( 15-C , 21-H ) :   0.7458 B( 15-C , 23-H ) :   0.2158
B( 15-C , 24-H ) :   0.1060 B( 15-C , 27-H ) :   0.1655 B( 16-C , 17-H ) :   0.3184
B( 16-C , 18-H ) :   0.1035 B( 16-C , 19-C ) :   1.2026 B( 16-C , 23-H ) :   0.1626
B( 16-C , 24-H ) :   0.1828 B( 16-C , 25-H ) :   0.7753 B( 16-C , 26-H ) :   0.6079
B( 17-H , 18-H ) :  -0.1331 B( 19-C , 20-H ) :   0.3172 B( 19-C , 21-H ) :   0.2093
B( 19-C , 23-H ) :   0.7878 B( 19-C , 24-H ) :   0.7641 B( 19-C , 25-H ) :   0.1737
B( 19-C , 26-H ) :   0.2432 B( 20-H , 21-H ) :  -0.1658

Dispersion correction           -0.060347903
FINAL SINGLE POINT ENERGY     -1016.704090083531

DIPOLE MOMENT
-------------
                                X             Y             Z
Electronic contribution:      2.12982      -4.91420     -18.55171
Nuclear contribution   :     -2.89481       6.29550      19.36835
                        -----------------------------------------
Total Dipole Moment    :     -0.76499       1.38130       0.81665
                        -----------------------------------------
Magnitude (a.u.)       :      1.77767
Magnitude (Debye)      :      4.51848

Rotational constants in cm-1:     0.036515     0.018832     0.015081
Rotational constants in MHz :  1094.679513   564.567051   452.109105

                             ****ORCA TERMINATED NORMALLY****
TOTAL RUN TIME: 0 days 0 hours 2 minutes 19 seconds 838 msec
