                         Program Version 5.0.0 -  RELEASE  -
|  1> !PBE0 D3BJ RIJCOSX def2-TZVPD def2/J TightSCF
|  2> *xyz -1 1
|  3> C          1.44442        5.26658       -0.97546
|  4> O          1.56525        4.23349       -1.86489
|  5> C          0.14812        5.21087       -0.13809
|  6> H          1.47425        6.26464       -1.47692
|  7> H          2.28962        5.30327       -0.26445
|  8> H         -0.69779        5.17417       -0.79230
|  9> H          0.08430        6.08276        0.47887
| 10> H          0.15965        4.33708        0.47938
| 11> *
| 12> %MaxCore 64000
| 13>
| 14> %pal nprocs 4
| 15> end
| 16>
| 17> %scf
| 18>   MaxIter 150
| 19> end
| 20>
| 21>
| 22>                          ****END OF INPUT****

CARTESIAN COORDINATES (ANGSTROEM)
---------------------------------
  C      1.444420    5.266580   -0.975460
  O      1.565250    4.233490   -1.864890
  C      0.148120    5.210870   -0.138090
  H      1.474250    6.264640   -1.476920
  H      2.289620    5.303270   -0.264450
  H     -0.697790    5.174170   -0.792300
  H      0.084300    6.082760    0.478870
  H      0.159650    4.337080    0.479380

 Total Charge           Charge          ....   -1
 Multiplicity           Mult            ....    1
 Number of Electrons    NEL             ....   26
 Basis Dimension        Dim             ....  159

ORBITAL ENERGIES
----------------

  NO   OCC          E(Eh)            E(eV)
   0   2.0000     -18.874658      -513.6056
   1   2.0000     -10.034115      -273.0422
   2   2.0000     -10.010497      -272.3995
   3   2.0000      -0.707862       -19.2619
   4   2.0000      -0.547814       -14.9068
   5   2.0000      -0.390938       -10.6380
   6   2.0000      -0.262254        -7.1363
   7   2.0000      -0.240795        -6.5524
   8   2.0000      -0.185666        -5.0522
   9   2.0000      -0.168095        -4.5741
  10   2.0000      -0.127609        -3.4724
  11   2.0000       0.017193         0.4679
  12   2.0000       0.020122         0.5476
  13   0.0000       0.160257         4.3608
  14   0.0000       0.183338         4.9889
  15   0.0000       0.210121         5.7177
  16   0.0000       0.212681         5.7873
  17   0.0000       0.234047         6.3688

MULLIKEN ATOMIC CHARGES
-----------------------
   0 C :   -0.133843
   1 O :   -0.898013
   2 C :   -0.702761
   3 H :    0.088056
   4 H :    0.085063
   5 H :    0.152302
   6 H :    0.252304
   7 H :    0.156891
Sum of atomic charges:   -1.0000000

LOEWDIN ATOMIC CHARGES
----------------------
   0 C :   -0.622725
   1 O :   -0.414539
   2 C :   -0.171684
   3 H :    0.055969
   4 H :    0.052373
   5 H :    0.038170
   6 H :    0.025388
   7 H :    0.037047

  Mayer bond orders larger than 0.100000
B(  0-C ,  1-O ) :   0.9693 B(  0-C ,  2-C ) :   0.8878 B(  0-C ,  3-H ) :   1.0703
B(  0-C ,  4-H ) :   1.0782 B(  1-O ,  2-C ) :   0.3705 B(  2-C ,  5-H ) :   1.0226
B(  2-C ,  6-H ) :   0.9846 B(  2-C ,  7-H ) :   1.0145

Dispersion correction           -0.003045972
FINAL SINGLE POINT ENERGY      -154.306157705158

DIPOLE MOMENT
-------------
                                X             Y             Z
Electronic contribution:      1.21545      -1.65674      -2.10398
Nuclear contribution   :     -1.83256       2.47114       3.17273
                        -----------------------------------------
Total Dipole Moment    :     -0.61711       0.81440       1.06875
                        -----------------------------------------
Magnitude (a.u.)       :      1.47861
Magnitude (Debye)      :      3.75834

Rotational constants in cm-1:     1.286062     0.322579     0.284728
Rotational constants in MHz : 38555.180127  9670.683110  8535.939140

                             ****ORCA TERMINATED NORMALLY****
TOTAL RUN TIME: 0 days 0 hours 0 minutes 16 seconds 805 msec
