                         Program Version 5.0.0 -  RELEASE  -
|  1> !PBE0 D3BJ RIJCOSX def2-TZVPD def2/J TightSCF
|  2> *xyz 1 1
|  3> C         -0.70169        4.07250       -4.00392
|  4> N          0.68053        4.61482       -4.04800
|  5> H          0.69993        5.58489       -4.38827
|  6> H          1.27804        4.05598       -4.66824
|  7> H          1.08573        4.53358       -3.10652
|  8> C         -1.70347        5.09320       -3.47740
|  9> H         -0.99590        3.74039       -5.00065
| 10> H         -0.64358        3.20191       -3.35153
| 11> H         -1.73704        5.93384       -4.13853
| 12> H         -1.40338        5.41759       -2.50291
| 13> H         -2.67335        4.64479       -3.42108
| 14> *
| 15> %MaxCore 64000
| 16>
| 17> %pal nprocs 4
| 18> end
| 19>
| 20> %scf
| 21>   MaxIter 150
| 22> end
| 23>
| 24>
| 25>                          ****END OF INPUT****

CARTESIAN COORDINATES (ANGSTROEM)
---------------------------------
  C     -0.701690    4.072500   -4.003920
  N      0.680530    4.614820   -4.048000
  H      0.699930    5.584890   -4.388270
  H      1.278040    4.055980   -4.668240
  H      1.085730    4.533580   -3.106520
  C     -1.703470    5.093200   -3.477400
  H     -0.995900    3.740390   -5.000650
  H     -0.643580    3.201910   -3.351530
  H     -1.737040    5.933840   -4.138530
  H     -1.403380    5.417590   -2.502910
  H     -2.673350    4.644790   -3.421080

 Total Charge           Charge          ....    1
 Multiplicity           Mult            ....    1
 Number of Electrons    NEL             ....   26
 Basis Dimension        Dim             ....  183

ORBITAL ENERGIES
----------------

  NO   OCC          E(Eh)            E(eV)
   0   2.0000     -14.719193      -400.5296
   1   2.0000     -10.474889      -285.0362
   2   2.0000     -10.394410      -282.8463
   3   2.0000      -1.243935       -33.8492
   4   2.0000      -0.988406       -26.8959
   5   2.0000      -0.864261       -23.5177
   6   2.0000      -0.820076       -22.3154
   7   2.0000      -0.802212       -21.8293
   8   2.0000      -0.711334       -19.3564
   9   2.0000      -0.656380       -17.8610
  10   2.0000      -0.596496       -16.2315
  11   2.0000      -0.580252       -15.7895
  12   2.0000      -0.563117       -15.3232
  13   0.0000      -0.192284        -5.2323
  14   0.0000      -0.134097        -3.6490
  15   0.0000      -0.130421        -3.5489
  16   0.0000      -0.123053        -3.3484
  17   0.0000      -0.093371        -2.5407

MULLIKEN ATOMIC CHARGES
-----------------------
   0 C :   -0.212678
   1 N :   -0.200246
   2 H :    0.315012
   3 H :    0.329925
   4 H :    0.346924
   5 C :   -0.767560
   6 H :    0.210300
   7 H :    0.215502
   8 H :    0.283805
   9 H :    0.268115
  10 H :    0.210901
Sum of atomic charges:    1.0000000

LOEWDIN ATOMIC CHARGES
----------------------
   0 C :   -0.204406
   1 N :    0.182887
   2 H :    0.181094
   3 H :    0.180502
   4 H :    0.183012
   5 C :   -0.055306
   6 H :    0.136618
   7 H :    0.135676
   8 H :    0.083500
   9 H :    0.083161
  10 H :    0.093261

  Mayer bond orders larger than 0.100000
B(  0-C ,  1-N ) :   1.0291 B(  0-C ,  5-C ) :   0.8604 B(  0-C ,  6-H ) :   0.9503
B(  0-C ,  7-H ) :   0.9443 B(  1-N ,  2-H ) :   0.8746 B(  1-N ,  3-H ) :   0.8730
B(  1-N ,  4-H ) :   0.8547 B(  5-C ,  8-H ) :   0.9287 B(  5-C ,  9-H ) :   0.9566
B(  5-C , 10-H ) :   0.9997

Dispersion correction           -0.005014749
FINAL SINGLE POINT ENERGY      -135.423127984567

DIPOLE MOMENT
-------------
                                X             Y             Z
Electronic contribution:      1.74784      -0.32714      -0.45112
Nuclear contribution   :     -0.23930       0.27560       0.19485
                        -----------------------------------------
Total Dipole Moment    :      1.50854      -0.05154      -0.25627
                        -----------------------------------------
Magnitude (a.u.)       :      1.53102
Magnitude (Debye)      :      3.89154

Rotational constants in cm-1:     1.018556     0.279088     0.248454
Rotational constants in MHz : 30535.536069  8366.847891  7448.451392

                             ****ORCA TERMINATED NORMALLY****
TOTAL RUN TIME: 0 days 0 hours 0 minutes 17 seconds 318 msec
