                         Program Version 5.0.0 -  RELEASE  -
|  1> !PBE0 D3BJ RIJCOSX def2-TZVPD def2/J TightSCF xyzfile
|  2>
|  3> *xyzfile 0 1 B.xyz
|  4>
|  5> %MaxCore 64000
|  6>
|  7> %pal nprocs 4
|  8> end
|  9>
| 10> %scf
| 11>   MaxIter 150
| 12> end
| 13>
| 14>
| 15>                          ****END OF INPUT****

CARTESIAN COORDINATES (ANGSTROEM)
---------------------------------
  C     -0.701686    4.072499   -4.003920
  N      0.680528    4.614820   -4.048005
  C      1.444422    5.266576   -0.975463
  O      1.565248    4.233493   -1.864885
  H      0.699926    5.584890   -4.388272
  H      1.278044    4.055977   -4.668235
  H      1.085729    4.533581   -3.106524
  C     -1.703475    5.093197   -3.477396
  H     -0.995895    3.740394   -5.000654
  H     -0.643580    3.201910   -3.351533
  C     -1.313997    5.785995   -2.169271
  H     -1.877057    5.850103   -4.251154
  H     -2.653264    4.564475   -3.354796
  H     -2.097137    6.509395   -1.929558
  H     -0.416875    6.387594   -2.339097
  C     -1.073895    4.844728   -0.979904
  H     -1.968893    4.809608   -0.352568
  C      0.148120    5.210874   -0.138092
  H     -0.909754    3.827531   -1.338975
  H      1.474250    6.264638   -1.476917
  H      2.289622    5.303267   -0.264450
  H      0.261827    4.450942    0.640711
  H     -0.002516    6.171031    0.371483

 Total Charge           Charge          ....    0
 Multiplicity           Mult            ....    1
 Number of Electrons    NEL             ....   66
 Basis Dimension        Dim             ....  434

ORBITAL ENERGIES
----------------

  NO   OCC          E(Eh)            E(eV)
   0   2.0000     -19.075754      -519.0776
   1   2.0000     -14.463955      -393.5842
   2   2.0000     -10.286755      -279.9168
   3   2.0000     -10.242416      -278.7103
   4   2.0000     -10.217543      -278.0335
   5   2.0000     -10.204358      -277.6747
   6   2.0000     -10.196103      -277.4501
   7   2.0000     -10.177571      -276.9458
   8   2.0000      -1.015594       -27.6357
   9   2.0000      -0.919206       -25.0129
  10   2.0000      -0.834062       -22.6960
  11   2.0000      -0.769993       -20.9526
  12   2.0000      -0.715830       -19.4787
  13   2.0000      -0.655678       -17.8419
  14   2.0000      -0.607419       -16.5287
  15   2.0000      -0.586106       -15.9488
  16   2.0000      -0.583668       -15.8824
  17   2.0000      -0.537016       -14.6129
  18   2.0000      -0.505137       -13.7455
  19   2.0000      -0.478177       -13.0118
  20   2.0000      -0.470116       -12.7925
  21   2.0000      -0.432385       -11.7658
  22   2.0000      -0.420932       -11.4541
  23   2.0000      -0.407133       -11.0787
  24   2.0000      -0.388617       -10.5748
  25   2.0000      -0.367168        -9.9912
  26   2.0000      -0.361836        -9.8461
  27   2.0000      -0.343532        -9.3480
  28   2.0000      -0.320189        -8.7128
  29   2.0000      -0.312756        -8.5105
  30   2.0000      -0.304960        -8.2984
  31   2.0000      -0.192583        -5.2405
  32   2.0000      -0.187327        -5.0974
  33   0.0000      -0.017395        -0.4733
  34   0.0000       0.013274         0.3612
  35   0.0000       0.019037         0.5180
  36   0.0000       0.034128         0.9287
  37   0.0000       0.049417         1.3447

MULLIKEN ATOMIC CHARGES
-----------------------
   0 C :   -0.473872
   1 N :    0.029555
   2 C :   -0.274772
   3 O :   -0.885104
   4 H :    0.339232
   5 H :    0.347483
   6 H :   -0.066312
   7 C :   -0.115947
   8 H :    0.156383
   9 H :    0.272429
  10 C :   -0.370533
  11 H :    0.141614
  12 H :    0.090264
  13 H :    0.149682
  14 H :    0.160154
  15 C :   -0.040322
  16 H :    0.135787
  17 C :   -0.263503
  18 H :    0.101771
  19 H :    0.191120
  20 H :    0.095490
  21 H :    0.181026
  22 H :    0.098378
Sum of atomic charges:   -0.0000000

LOEWDIN ATOMIC CHARGES
----------------------
   0 C :   -0.178153
   1 N :    0.144205
   2 C :   -0.423569
   3 O :   -0.277472
   4 H :    0.161646
   5 H :    0.161342
   6 H :   -0.043200
   7 C :   -0.195183
   8 H :    0.117550
   9 H :    0.123591
  10 C :   -0.205876
  11 H :    0.110514
  12 H :    0.119058
  13 H :    0.111867
  14 H :    0.092160
  15 C :   -0.214214
  16 H :    0.106679
  17 C :   -0.202498
  18 H :    0.095630
  19 H :    0.089486
  20 H :    0.096897
  21 H :    0.104095
  22 H :    0.105446

  Mayer bond orders larger than 0.100000
B(  0-C ,  1-N ) :   1.0622 B(  0-C ,  6-H ) :   0.1008 B(  0-C ,  7-C ) :   0.9363
B(  0-C ,  8-H ) :   0.9868 B(  0-C ,  9-H ) :   0.9097 B(  0-C , 15-C ) :   0.1407
B(  1-N ,  3-O ) :  -0.1001 B(  1-N ,  4-H ) :   0.8078 B(  1-N ,  5-H ) :   0.8314
B(  1-N ,  6-H ) :   0.8962 B(  2-C ,  3-O ) :   1.0033 B(  2-C , 10-C ) :   0.1114
B(  2-C , 17-C ) :   0.9646 B(  2-C , 19-H ) :   0.9698 B(  2-C , 20-H ) :   1.0391
B(  3-O ,  6-H ) :   0.3666 B(  7-C , 10-C ) :   0.9754 B(  7-C , 11-H ) :   0.9211
B(  7-C , 12-H ) :   0.9820 B(  7-C , 15-C ) :   0.1859 B( 10-C , 13-H ) :   0.9545
B( 10-C , 14-H ) :   0.9830 B( 10-C , 15-C ) :   0.9608 B( 10-C , 17-C ) :   0.2928
B( 15-C , 16-H ) :   0.9781 B( 15-C , 17-C ) :   0.9787 B( 15-C , 18-H ) :   0.9161
B( 17-C , 18-H ) :   0.1200 B( 17-C , 21-H ) :   0.8978 B( 17-C , 22-H ) :   1.0098

Dispersion correction           -0.018835089
FINAL SINGLE POINT ENERGY      -367.315440732385

DIPOLE MOMENT
-------------
                                X             Y             Z
Electronic contribution:      2.01128      -1.56215      -1.28549
Nuclear contribution   :     -3.16446       1.92310      -1.11926
                        -----------------------------------------
Total Dipole Moment    :     -1.15318       0.36095      -2.40474
                        -----------------------------------------
Magnitude (a.u.)       :      2.69126
Magnitude (Debye)      :      6.84065

Rotational constants in cm-1:     0.085554     0.055600     0.038553
Rotational constants in MHz :  2564.854379  1666.836664  1155.798427

                             ****ORCA TERMINATED NORMALLY****
TOTAL RUN TIME: 0 days 0 hours 2 minutes 4 seconds 384 msec
