                         Program Version 5.0.0 -  RELEASE  -
|  1> !PBE0 D3BJ RIJCOSX def2-TZVPD def2/J TightSCF
|  2> *xyz 0 1
|  3> C          1.44442        5.26658       -0.97546
|  4> F          1.56525        4.23349       -1.86489
|  5> C          0.14812        5.21087       -0.13809
|  6> H          1.47425        6.26464       -1.47692
|  7> H          2.28962        5.30327       -0.26445
|  8> H         -0.69779        5.17417       -0.79230
|  9> H          0.08430        6.08276        0.47887
| 10> H          0.15965        4.33708        0.47938
| 11> *
| 12> %MaxCore 64000
| 13>
| 14> %pal nprocs 4
| 15> end
| 16>
| 17> %scf
| 18>   MaxIter 150
| 19> end
| 20>
| 21>
| 22>                          ****END OF INPUT****

CARTESIAN COORDINATES (ANGSTROEM)
---------------------------------
  C      1.444420    5.266580   -0.975460
  F      1.565250    4.233490   -1.864890
  C      0.148120    5.210870   -0.138090
  H      1.474250    6.264640   -1.476920
  H      2.289620    5.303270   -0.264450
  H     -0.697790    5.174170   -0.792300
  H      0.084300    6.082760    0.478870
  H      0.159650    4.337080    0.479380

 Total Charge           Charge          ....    0
 Multiplicity           Mult            ....    1
 Number of Electrons    NEL             ....   26
 Basis Dimension        Dim             ....  159

ORBITAL ENERGIES
----------------

  NO   OCC          E(Eh)            E(eV)
   0   2.0000     -24.759954      -673.7526
   1   2.0000     -10.299709      -280.2693
   2   2.0000     -10.215227      -277.9704
   3   2.0000      -1.232263       -33.5316
   4   2.0000      -0.786638       -21.4055
   5   2.0000      -0.652456       -17.7542
   6   2.0000      -0.525244       -14.2926
   7   2.0000      -0.510128       -13.8813
   8   2.0000      -0.474792       -12.9198
   9   2.0000      -0.420335       -11.4379
  10   2.0000      -0.414748       -11.2859
  11   2.0000      -0.349572        -9.5123
  12   2.0000      -0.342427        -9.3179
  13   0.0000       0.016693         0.4542
  14   0.0000       0.043330         1.1791
  15   0.0000       0.060810         1.6547
  16   0.0000       0.064698         1.7605
  17   0.0000       0.091158         2.4805

MULLIKEN ATOMIC CHARGES
-----------------------
   0 C :    0.023678
   1 F :   -0.258510
   2 C :   -0.614621
   3 H :    0.133909
   4 H :    0.130169
   5 H :    0.178639
   6 H :    0.227471
   7 H :    0.179265
Sum of atomic charges:    0.0000000

LOEWDIN ATOMIC CHARGES
----------------------
   0 C :   -0.289816
   1 F :   -0.044772
   2 C :   -0.083275
   3 H :    0.114412
   4 H :    0.109009
   5 H :    0.064383
   6 H :    0.066567
   7 H :    0.063492

  Mayer bond orders larger than 0.100000
B(  0-C ,  1-F ) :   0.8577 B(  0-C ,  2-C ) :   0.9280 B(  0-C ,  3-H ) :   0.9892
B(  0-C ,  4-H ) :   0.9959 B(  2-C ,  5-H ) :   0.9790 B(  2-C ,  6-H ) :   0.9531
B(  2-C ,  7-H ) :   0.9764

Dispersion correction           -0.002807364
FINAL SINGLE POINT ENERGY      -178.938662521137

DIPOLE MOMENT
-------------
                                X             Y             Z
Electronic contribution:      2.30132      -2.75015      -3.70629
Nuclear contribution   :     -2.43357       3.25919       4.19687
                        -----------------------------------------
Total Dipole Moment    :     -0.13225       0.50904       0.49058
                        -----------------------------------------
Magnitude (a.u.)       :      0.71922
Magnitude (Debye)      :      1.82812

Rotational constants in cm-1:     1.264662     0.300144     0.266170
Rotational constants in MHz : 37913.611527  8998.095216  7979.576054

                             ****ORCA TERMINATED NORMALLY****
TOTAL RUN TIME: 0 days 0 hours 0 minutes 14 seconds 467 msec
