                         Program Version 5.0.0 -  RELEASE  -
|  1> !PBE0 D3BJ RIJCOSX def2-TZVPD def2/J TightSCF
|  2> *xyz 0 1
|  3> C         -0.70169        4.07250       -4.00392
|  4> C          0.68053        4.61482       -4.04800
|  5> H          0.69993        5.58489       -4.38827
|  6> H          1.27804        4.05598       -4.66824
|  7> H          1.08573        4.53358       -3.10652
|  8> C         -1.70347        5.09320       -3.47740
|  9> H         -0.99590        3.74039       -5.00065
| 10> H         -0.64358        3.20191       -3.35153
| 11> H         -1.73704        5.93384       -4.13853
| 12> H         -1.40338        5.41759       -2.50291
| 13> H         -2.67335        4.64479       -3.42108
| 14> *
| 15> %MaxCore 64000
| 16>
| 17> %pal nprocs 4
| 18> end
| 19>
| 20> %scf
| 21>   MaxIter 150
| 22> end
| 23>
| 24>
| 25>                          ****END OF INPUT****

CARTESIAN COORDINATES (ANGSTROEM)
---------------------------------
  C     -0.701690    4.072500   -4.003920
  C      0.680530    4.614820   -4.048000
  H      0.699930    5.584890   -4.388270
  H      1.278040    4.055980   -4.668240
  H      1.085730    4.533580   -3.106520
  C     -1.703470    5.093200   -3.477400
  H     -0.995900    3.740390   -5.000650
  H     -0.643580    3.201910   -3.351530
  H     -1.737040    5.933840   -4.138530
  H     -1.403380    5.417590   -2.502910
  H     -2.673350    4.644790   -3.421080

 Total Charge           Charge          ....    0
 Multiplicity           Mult            ....    1
 Number of Electrons    NEL             ....   26
 Basis Dimension        Dim             ....  183

ORBITAL ENERGIES
----------------

  NO   OCC          E(Eh)            E(eV)
   0   2.0000     -10.206093      -277.7219
   1   2.0000     -10.196316      -277.4559
   2   2.0000     -10.177247      -276.9370
   3   2.0000      -0.815070       -22.1792
   4   2.0000      -0.711300       -19.3555
   5   2.0000      -0.602341       -16.3905
   6   2.0000      -0.483300       -13.1513
   7   2.0000      -0.458246       -12.4695
   8   2.0000      -0.414801       -11.2873
   9   2.0000      -0.403549       -10.9811
  10   2.0000      -0.348044        -9.4708
  11   2.0000      -0.344672        -9.3790
  12   2.0000      -0.336352        -9.1526
  13   0.0000       0.020447         0.5564
  14   0.0000       0.044630         1.2144
  15   0.0000       0.047689         1.2977
  16   0.0000       0.067055         1.8247
  17   0.0000       0.089186         2.4269

MULLIKEN ATOMIC CHARGES
-----------------------
   0 C :    0.201346
   1 C :   -0.929266
   2 H :    0.227037
   3 H :    0.216637
   4 H :    0.237485
   5 C :   -0.806410
   6 H :    0.126490
   7 H :    0.115312
   8 H :    0.217886
   9 H :    0.214692
  10 H :    0.178790
Sum of atomic charges:   -0.0000000

LOEWDIN ATOMIC CHARGES
----------------------
   0 C :   -0.320402
   1 C :   -0.129498
   2 H :    0.055839
   3 H :    0.051964
   4 H :    0.057232
   5 C :   -0.117273
   6 H :    0.103454
   7 H :    0.103703
   8 H :    0.066453
   9 H :    0.067542
  10 H :    0.060986

  Mayer bond orders larger than 0.100000
B(  0-C ,  1-C ) :   0.7884 B(  0-C ,  5-C ) :   0.7623 B(  0-C ,  6-H ) :   0.9764
B(  0-C ,  7-H ) :   0.9721 B(  1-C ,  2-H ) :   0.9789 B(  1-C ,  3-H ) :   1.0061
B(  1-C ,  4-H ) :   0.9895 B(  1-C ,  5-C ) :   0.2069 B(  5-C ,  8-H ) :   0.9945
B(  5-C ,  9-H ) :   0.9955 B(  5-C , 10-H ) :   1.0187

Dispersion correction           -0.005034410
FINAL SINGLE POINT ENERGY      -119.019819400471

DIPOLE MOMENT
-------------
                                X             Y             Z
Electronic contribution:     -0.13560      -0.30990      -0.13703
Nuclear contribution   :      0.16058       0.27975       0.12812
                        -----------------------------------------
Total Dipole Moment    :      0.02498      -0.03015      -0.00891
                        -----------------------------------------
Magnitude (a.u.)       :      0.04015
Magnitude (Debye)      :      0.10206

Rotational constants in cm-1:     1.027122     0.293327     0.260229
Rotational constants in MHz : 30792.337141  8793.723318  7801.458329

                             ****ORCA TERMINATED NORMALLY****
TOTAL RUN TIME: 0 days 0 hours 0 minutes 18 seconds 54 msec
