                         Program Version 5.0.0 -  RELEASE  -
|  1> !PBE0 D3BJ RIJCOSX def2-TZVPD def2/J TightSCF xyzfile
|  2>
|  3> *xyzfile 0 1 D.xyz
|  4>
|  5> %MaxCore 64000
|  6>
|  7> %pal nprocs 4
|  8> end
|  9>
| 10> %scf
| 11>   MaxIter 150
| 12> end
| 13>
| 14>
| 15>                          ****END OF INPUT****

CARTESIAN COORDINATES (ANGSTROEM)
---------------------------------
  C     -0.701686    4.072499   -4.003920
  C      0.680528    4.614820   -4.048005
  C      1.444422    5.266576   -0.975463
  F      1.565248    4.233493   -1.864885
  H      0.699926    5.584890   -4.388272
  H      1.278044    4.055977   -4.668235
  H      1.085729    4.533581   -3.106524
  C     -1.703475    5.093197   -3.477396
  H     -0.995895    3.740394   -5.000654
  H     -0.643580    3.201910   -3.351533
  C     -1.313997    5.785995   -2.169271
  H     -1.877057    5.850103   -4.251154
  H     -2.653264    4.564475   -3.354796
  H     -2.097137    6.509395   -1.929558
  H     -0.416875    6.387594   -2.339097
  C     -1.073895    4.844728   -0.979904
  H     -1.968893    4.809608   -0.352568
  C      0.148120    5.210874   -0.138092
  H     -0.909754    3.827531   -1.338975
  H      1.474250    6.264638   -1.476917
  H      2.289622    5.303267   -0.264450
  H      0.261827    4.450942    0.640711
  H     -0.002516    6.171031    0.371483

 Total Charge           Charge          ....    0
 Multiplicity           Mult            ....    1
 Number of Electrons    NEL             ....   66
 Basis Dimension        Dim             ....  434

ORBITAL ENERGIES
----------------

  NO   OCC          E(Eh)            E(eV)
   0   2.0000     -24.779784      -674.2922
   1   2.0000     -10.307081      -280.4699
   2   2.0000     -10.231223      -278.4057
   3   2.0000     -10.217082      -278.0209
   4   2.0000     -10.210550      -277.8432
   5   2.0000     -10.203577      -277.6534
   6   2.0000     -10.190707      -277.3032
   7   2.0000     -10.134762      -275.7809
   8   2.0000      -1.265627       -34.4395
   9   2.0000      -0.838327       -22.8120
  10   2.0000      -0.807606       -21.9761
  11   2.0000      -0.746213       -20.3055
  12   2.0000      -0.712141       -19.3784
  13   2.0000      -0.650463       -17.7000
  14   2.0000      -0.615359       -16.7448
  15   2.0000      -0.560311       -15.2468
  16   2.0000      -0.552929       -15.0460
  17   2.0000      -0.536688       -14.6040
  18   2.0000      -0.508588       -13.8394
  19   2.0000      -0.473605       -12.8874
  20   2.0000      -0.466724       -12.7002
  21   2.0000      -0.442245       -12.0341
  22   2.0000      -0.427951       -11.6451
  23   2.0000      -0.402382       -10.9494
  24   2.0000      -0.393354       -10.7037
  25   2.0000      -0.380607       -10.3569
  26   2.0000      -0.371512       -10.1094
  27   2.0000      -0.351358        -9.5609
  28   2.0000      -0.341451        -9.2914
  29   2.0000      -0.326092        -8.8734
  30   2.0000      -0.313904        -8.5417
  31   2.0000      -0.311092        -8.4653
  32   2.0000      -0.288691        -7.8557
  33   0.0000       0.012614         0.3432
  34   0.0000       0.024816         0.6753
  35   0.0000       0.029345         0.7985
  36   0.0000       0.037231         1.0131
  37   0.0000       0.051985         1.4146

MULLIKEN ATOMIC CHARGES
-----------------------
   0 C :   -0.104052
   1 C :   -0.529833
   2 C :   -0.191823
   3 F :   -0.269613
   4 H :    0.246685
   5 H :    0.193210
   6 H :   -0.122515
   7 C :   -0.233411
   8 H :    0.065038
   9 H :    0.202518
  10 C :   -0.333596
  11 H :    0.154662
  12 H :    0.073761
  13 H :    0.152818
  14 H :    0.152291
  15 C :   -0.182433
  16 H :    0.144293
  17 C :   -0.259008
  18 H :    0.159387
  19 H :    0.268812
  20 H :    0.114599
  21 H :    0.183848
  22 H :    0.114364
Sum of atomic charges:    0.0000000

LOEWDIN ATOMIC CHARGES
----------------------
   0 C :   -0.257080
   1 C :   -0.110574
   2 C :   -0.206164
   3 F :   -0.034232
   4 H :    0.065972
   5 H :    0.061051
   6 H :   -0.035070
   7 C :   -0.215390
   8 H :    0.106223
   9 H :    0.102218
  10 C :   -0.206853
  11 H :    0.112242
  12 H :    0.108158
  13 H :    0.109472
  14 H :    0.093305
  15 C :   -0.203578
  16 H :    0.112654
  17 C :   -0.178135
  18 H :    0.102155
  19 H :    0.125195
  20 H :    0.120869
  21 H :    0.108191
  22 H :    0.119372

  Mayer bond orders larger than 0.100000
B(  0-C ,  1-C ) :   0.7800 B(  0-C ,  7-C ) :   0.9877 B(  0-C ,  8-H ) :   1.0221
B(  0-C ,  9-H ) :   0.9129 B(  0-C , 15-C ) :   0.1608 B(  1-C ,  2-C ) :   0.1071
B(  1-C ,  3-F ) :   0.1207 B(  1-C ,  4-H ) :   0.9472 B(  1-C ,  5-H ) :   0.9142
B(  1-C ,  6-H ) :   1.2086 B(  1-C ,  7-C ) :   0.2063 B(  1-C , 10-C ) :   0.1423
B(  2-C ,  3-F ) :   0.7985 B(  2-C , 10-C ) :   0.1528 B(  2-C , 17-C ) :   1.0514
B(  2-C , 19-H ) :   0.9168 B(  2-C , 20-H ) :   0.9985 B(  3-F ,  6-H ) :  -0.1514
B(  5-H ,  6-H ) :   0.1344 B(  7-C , 10-C ) :   1.0471 B(  7-C , 11-H ) :   0.9249
B(  7-C , 12-H ) :   0.9680 B(  7-C , 15-C ) :   0.1902 B( 10-C , 13-H ) :   0.9376
B( 10-C , 14-H ) :   0.9995 B( 10-C , 15-C ) :   0.9377 B( 10-C , 17-C ) :   0.2315
B( 15-C , 16-H ) :   0.9780 B( 15-C , 17-C ) :   0.9615 B( 15-C , 18-H ) :   0.9645
B( 17-C , 21-H ) :   0.9074 B( 17-C , 22-H ) :   0.9791

Dispersion correction           -0.018320546
FINAL SINGLE POINT ENERGY      -375.279559597655

DIPOLE MOMENT
-------------
                                X             Y             Z
Electronic contribution:      5.12792      -2.27545       2.77134
Nuclear contribution   :     -5.08831       2.68947      -1.99048
                        -----------------------------------------
Total Dipole Moment    :      0.03961       0.41403       0.78087
                        -----------------------------------------
Magnitude (a.u.)       :      0.88473
Magnitude (Debye)      :      2.24879

Rotational constants in cm-1:     0.084646     0.055672     0.038419
Rotational constants in MHz :  2537.625105  1668.992890  1151.781380

                             ****ORCA TERMINATED NORMALLY****
TOTAL RUN TIME: 0 days 0 hours 1 minutes 50 seconds 641 msec
