                         Program Version 5.0.0 -  RELEASE  -
|  1> !wB97X-D3 RIJCOSX def2-SVP def2/J TightSCF
|  2> *xyz -1 1
|  3> C         -2.79070       -0.78527        5.70281
|  4> C         -2.45380        0.05510        6.94145
|  5> C         -2.07842        1.48042        6.56410
|  6> H         -1.62558       -0.38216        7.49891
|  7> H         -3.32527        0.08775        7.59917
|  8> O         -0.90125        1.85816        6.82810
|  9> O         -2.93658        2.17731        5.96415
| 10> H         -1.94052       -0.82114        5.05412
| 11> H         -3.61590       -0.34261        5.18514
| 12> H         -3.05063       -1.77815        6.00536
| 13> *
| 14> %MaxCore 64000
| 15>
| 16> %pal nprocs 4
| 17> end
| 18>
| 19> %scf
| 20>   MaxIter 150
| 21> end
| 22>
| 23>
| 24>                          ****END OF INPUT****

CARTESIAN COORDINATES (ANGSTROEM)
---------------------------------
  C     -2.790700   -0.785270    5.702810
  C     -2.453800    0.055100    6.941450
  C     -2.078420    1.480420    6.564100
  H     -1.625580   -0.382160    7.498910
  H     -3.325270    0.087750    7.599170
  O     -0.901250    1.858160    6.828100
  O     -2.936580    2.177310    5.964150
  H     -1.940520   -0.821140    5.054120
  H     -3.615900   -0.342610    5.185140
  H     -3.050630   -1.778150    6.005360

 Total Charge           Charge          ....   -1
 Multiplicity           Mult            ....    1
 Number of Electrons    NEL             ....   40
 Basis Dimension        Dim             ....   95

ORBITAL ENERGIES
----------------

  NO   OCC          E(Eh)            E(eV)
   0   2.0000     -18.938407      -515.3403
   1   2.0000     -18.936200      -515.2802
   2   2.0000     -10.142282      -275.9855
   3   2.0000     -10.120767      -275.4001
   4   2.0000     -10.098953      -274.8065
   5   2.0000      -0.889102       -24.1937
   6   2.0000      -0.791411       -21.5354
   7   2.0000      -0.704456       -19.1692
   8   2.0000      -0.568423       -15.4676
   9   2.0000      -0.406974       -11.0743
  10   2.0000      -0.383181       -10.4269
  11   2.0000      -0.338875        -9.2213
  12   2.0000      -0.311564        -8.4781
  13   2.0000      -0.294289        -8.0080
  14   2.0000      -0.282942        -7.6992
  15   2.0000      -0.247231        -6.7275
  16   2.0000      -0.233936        -6.3657
  17   2.0000      -0.104557        -2.8451
  18   2.0000      -0.103633        -2.8200
  19   2.0000      -0.087169        -2.3720
  20   0.0000       0.299744         8.1564
  21   0.0000       0.351313         9.5597
  22   0.0000       0.363331         9.8867
  23   0.0000       0.367709        10.0059
  24   0.0000       0.374954        10.2030

MULLIKEN ATOMIC CHARGES
-----------------------
   0 C :   -0.023494
   1 C :   -0.026342
   2 C :    0.050290
   3 H :   -0.034805
   4 H :   -0.025955
   5 O :   -0.459627
   6 O :   -0.459270
   7 H :    0.002067
   8 H :    0.010313
   9 H :   -0.033176
Sum of atomic charges:   -1.0000000

LOEWDIN ATOMIC CHARGES
----------------------
   0 C :   -0.062652
   1 C :   -0.092448
   2 C :   -0.040554
   3 H :   -0.001220
   4 H :    0.004088
   5 O :   -0.414516
   6 O :   -0.412717
   7 H :    0.012184
   8 H :    0.013482
   9 H :   -0.005648

  Mayer bond orders larger than 0.100000
B(  0-C ,  1-C ) :   1.0831 B(  0-C ,  7-H ) :   0.9759 B(  0-C ,  8-H ) :   0.9678
B(  0-C ,  9-H ) :   0.9718 B(  1-C ,  2-C ) :   0.9223 B(  1-C ,  3-H ) :   0.9458
B(  1-C ,  4-H ) :   0.9420 B(  2-C ,  5-O ) :   1.8524 B(  2-C ,  6-O ) :   1.8290
B(  5-O ,  6-O ) :   0.1096

Dispersion correction           -0.001962864
FINAL SINGLE POINT ENERGY      -267.542840829132

DIPOLE MOMENT
-------------
                                X             Y             Z
Electronic contribution:      1.68032       5.68913       0.64271
Nuclear contribution   :     -2.24498      -7.51881      -0.57245
                        -----------------------------------------
Total Dipole Moment    :     -0.56466      -1.82968       0.07026
                        -----------------------------------------
Magnitude (a.u.)       :      1.91612
Magnitude (Debye)      :      4.87040

Rotational constants in cm-1:     0.305589     0.135336     0.107479
Rotational constants in MHz :  9161.317320  4057.276612  3222.126231

                             ****ORCA TERMINATED NORMALLY****
TOTAL RUN TIME: 0 days 0 hours 0 minutes 14 seconds 612 msec
