                         Program Version 5.0.0 -  RELEASE  -
|  1> !wB97X-D3 RIJCOSX def2-SVP def2/J TightSCF
|  2> *xyz 1 1
|  3> C         -0.69912        3.48945        3.75516
|  4> H         -0.96672        4.34901        3.14049
|  5> N         -1.08067        3.79296        5.15686
|  6> C          0.77696        3.13839        3.61741
|  7> H         -1.33146        2.65651        3.44632
|  8> H         -0.87449        4.76274        5.42734
|  9> H         -0.68079        3.13476        5.83900
| 10> H         -2.05755        3.53169        5.34620
| 11> H          0.99957        2.92898        2.59199
| 12> H          0.99576        2.27685        4.21303
| 13> H          1.37223        3.96279        3.95046
| 14> *
| 15> %MaxCore 64000
| 16>
| 17> %pal nprocs 4
| 18> end
| 19>
| 20> %scf
| 21>   MaxIter 150
| 22> end
| 23>
| 24>
| 25>                          ****END OF INPUT****

CARTESIAN COORDINATES (ANGSTROEM)
---------------------------------
  C     -0.699120    3.489450    3.755160
  H     -0.966720    4.349010    3.140490
  N     -1.080670    3.792960    5.156860
  C      0.776960    3.138390    3.617410
  H     -1.331460    2.656510    3.446320
  H     -0.874490    4.762740    5.427340
  H     -0.680790    3.134760    5.839000
  H     -2.057550    3.531690    5.346200
  H      0.999570    2.928980    2.591990
  H      0.995760    2.276850    4.213030
  H      1.372230    3.962790    3.950460

 Total Charge           Charge          ....    1
 Multiplicity           Mult            ....    1
 Number of Electrons    NEL             ....   26
 Basis Dimension        Dim             ....   82

ORBITAL ENERGIES
----------------

  NO   OCC          E(Eh)            E(eV)
   0   2.0000     -14.777063      -402.1043
   1   2.0000     -10.543401      -286.9005
   2   2.0000     -10.463116      -284.7159
   3   2.0000      -1.329592       -36.1800
   4   2.0000      -1.077255       -29.3136
   5   2.0000      -0.953145       -25.9364
   6   2.0000      -0.921850       -25.0848
   7   2.0000      -0.872583       -23.7442
   8   2.0000      -0.801033       -21.7972
   9   2.0000      -0.743785       -20.2394
  10   2.0000      -0.678222       -18.4553
  11   2.0000      -0.663292       -18.0491
  12   2.0000      -0.645017       -17.5518
  13   0.0000      -0.095533        -2.5996
  14   0.0000      -0.037243        -1.0134
  15   0.0000      -0.034056        -0.9267
  16   0.0000      -0.001096        -0.0298
  17   0.0000       0.038933         1.0594

MULLIKEN ATOMIC CHARGES
-----------------------
   0 C :   -0.065608
   1 H :    0.120540
   2 N :   -0.020795
   3 C :   -0.064020
   4 H :    0.111304
   5 H :    0.233847
   6 H :    0.209999
   7 H :    0.218810
   8 H :    0.110388
   9 H :    0.071457
  10 H :    0.074080
Sum of atomic charges:    1.0000000

LOEWDIN ATOMIC CHARGES
----------------------
   0 C :    0.048119
   1 H :    0.058033
   2 N :    0.286818
   3 C :   -0.042709
   4 H :    0.054597
   5 H :    0.150235
   6 H :    0.146590
   7 H :    0.152007
   8 H :    0.064706
   9 H :    0.040112
  10 H :    0.041494

  Mayer bond orders larger than 0.100000
B(  0-C ,  1-H ) :   0.9536 B(  0-C ,  2-N ) :   0.9038 B(  0-C ,  3-C ) :   1.0841
B(  0-C ,  4-H ) :   0.9568 B(  2-N ,  5-H ) :   0.9284 B(  2-N ,  6-H ) :   0.9304
B(  2-N ,  7-H ) :   0.9316 B(  3-C ,  8-H ) :   0.9612 B(  3-C ,  9-H ) :   0.9694
B(  3-C , 10-H ) :   0.9726

Dispersion correction           -0.001535741
FINAL SINGLE POINT ENERGY      -135.396469988154

DIPOLE MOMENT
-------------
                                X             Y             Z
Electronic contribution:     -1.36336       0.58580       1.15106
Nuclear contribution   :      0.33986      -0.24565       0.10678
                        -----------------------------------------
Total Dipole Moment    :     -1.02351       0.34014       1.25784
                        -----------------------------------------
Magnitude (a.u.)       :      1.65693
Magnitude (Debye)      :      4.21159

Rotational constants in cm-1:     1.016237     0.277523     0.247812
Rotational constants in MHz : 30466.024354  8319.937961  7429.230177

                             ****ORCA TERMINATED NORMALLY****
TOTAL RUN TIME: 0 days 0 hours 0 minutes 11 seconds 72 msec
