                         Program Version 5.0.0 -  RELEASE  -
|  1> !wB97X-D3 RIJCOSX def2-SVP def2/J TightSCF
|  2> *xyz 0 1
|  3> C         -2.79070       -0.78527        5.70281
|  4> C         -2.45380        0.05510        6.94145
|  5> C         -2.07842        1.48042        6.56410
|  6> H         -1.62558       -0.38216        7.49891
|  7> H         -3.32527        0.08775        7.59917
|  8> F         -0.90125        1.85816        6.82810
|  9> O         -2.93658        2.17731        5.96415
| 10> H         -1.94052       -0.82114        5.05412
| 11> H         -3.61590       -0.34261        5.18514
| 12> H         -3.05063       -1.77815        6.00536
| 13> *
| 14> %MaxCore 64000
| 15>
| 16> %pal nprocs 4
| 17> end
| 18>
| 19> %scf
| 20>   MaxIter 150
| 21> end
| 22>
| 23>
| 24>                          ****END OF INPUT****

CARTESIAN COORDINATES (ANGSTROEM)
---------------------------------
  C     -2.790700   -0.785270    5.702810
  C     -2.453800    0.055100    6.941450
  C     -2.078420    1.480420    6.564100
  H     -1.625580   -0.382160    7.498910
  H     -3.325270    0.087750    7.599170
  F     -0.901250    1.858160    6.828100
  O     -2.936580    2.177310    5.964150
  H     -1.940520   -0.821140    5.054120
  H     -3.615900   -0.342610    5.185140
  H     -3.050630   -1.778150    6.005360

 Total Charge           Charge          ....    0
 Multiplicity           Mult            ....    1
 Number of Electrons    NEL             ....   40
 Basis Dimension        Dim             ....   95

ORBITAL ENERGIES
----------------

  NO   OCC          E(Eh)            E(eV)
   0   2.0000     -24.855403      -676.3499
   1   2.0000     -19.240975      -523.5735
   2   2.0000     -10.462655      -284.7033
   3   2.0000     -10.318549      -280.7820
   4   2.0000     -10.295750      -280.1616
   5   2.0000      -1.407749       -38.3068
   6   2.0000      -1.131375       -30.7863
   7   2.0000      -0.911270       -24.7969
   8   2.0000      -0.792286       -21.5592
   9   2.0000      -0.737605       -20.0713
  10   2.0000      -0.647079       -17.6079
  11   2.0000      -0.631961       -17.1965
  12   2.0000      -0.605215       -16.4687
  13   2.0000      -0.564233       -15.3536
  14   2.0000      -0.530209       -14.4277
  15   2.0000      -0.495374       -13.4798
  16   2.0000      -0.473982       -12.8977
  17   2.0000      -0.468820       -12.7572
  18   2.0000      -0.437354       -11.9010
  19   2.0000      -0.384167       -10.4537
  20   0.0000       0.061904         1.6845
  21   0.0000       0.148266         4.0345
  22   0.0000       0.191805         5.2193
  23   0.0000       0.195395         5.3170
  24   0.0000       0.215668         5.8686

MULLIKEN ATOMIC CHARGES
-----------------------
   0 C :   -0.040014
   1 C :   -0.117336
   2 C :    0.261909
   3 H :    0.044496
   4 H :    0.077925
   5 F :   -0.092302
   6 O :   -0.275390
   7 H :    0.038464
   8 H :    0.059361
   9 H :    0.042888
Sum of atomic charges:    0.0000000

LOEWDIN ATOMIC CHARGES
----------------------
   0 C :   -0.038972
   1 C :   -0.075185
   2 C :    0.119453
   3 H :    0.029812
   4 H :    0.052043
   5 F :    0.029643
   6 O :   -0.206888
   7 H :    0.027063
   8 H :    0.033575
   9 H :    0.029457

  Mayer bond orders larger than 0.100000
B(  0-C ,  1-C ) :   1.0760 B(  0-C ,  7-H ) :   0.9791 B(  0-C ,  8-H ) :   0.9729
B(  0-C ,  9-H ) :   0.9745 B(  1-C ,  2-C ) :   0.9904 B(  1-C ,  3-H ) :   0.9461
B(  1-C ,  4-H ) :   0.9384 B(  2-C ,  5-F ) :   1.1836 B(  2-C ,  6-O ) :   2.0669

Dispersion correction           -0.001919396
FINAL SINGLE POINT ENERGY      -292.097932104524

DIPOLE MOMENT
-------------
                                X             Y             Z
Electronic contribution:      3.96741       7.47524       1.47790
Nuclear contribution   :     -3.69486      -8.49563      -1.04945
                        -----------------------------------------
Total Dipole Moment    :      0.27255      -1.02039       0.42845
                        -----------------------------------------
Magnitude (a.u.)       :      1.13975
Magnitude (Debye)      :      2.89703

Rotational constants in cm-1:     0.293725     0.129218     0.102393
Rotational constants in MHz :  8805.653529  3873.869810  3069.666716

                             ****ORCA TERMINATED NORMALLY****
TOTAL RUN TIME: 0 days 0 hours 0 minutes 14 seconds 482 msec
