                         Program Version 5.0.0 -  RELEASE  -
|  1> !wB97X-D3 RIJCOSX def2-SVP def2/J TightSCF
|  2> *xyz 0 1
|  3> C         -0.69912        3.48945        3.75516
|  4> H         -0.96672        4.34901        3.14049
|  5> C         -1.08067        3.79296        5.15686
|  6> C          0.77696        3.13839        3.61741
|  7> H         -1.33146        2.65651        3.44632
|  8> H         -0.87449        4.76274        5.42734
|  9> H         -0.68079        3.13476        5.83900
| 10> H         -2.05755        3.53169        5.34620
| 11> H          0.99957        2.92898        2.59199
| 12> H          0.99576        2.27685        4.21303
| 13> H          1.37223        3.96279        3.95046
| 14> *
| 15> %MaxCore 64000
| 16>
| 17> %pal nprocs 4
| 18> end
| 19>
| 20> %scf
| 21>   MaxIter 150
| 22> end
| 23>
| 24>
| 25>                          ****END OF INPUT****

CARTESIAN COORDINATES (ANGSTROEM)
---------------------------------
  C     -0.699120    3.489450    3.755160
  H     -0.966720    4.349010    3.140490
  C     -1.080670    3.792960    5.156860
  C      0.776960    3.138390    3.617410
  H     -1.331460    2.656510    3.446320
  H     -0.874490    4.762740    5.427340
  H     -0.680790    3.134760    5.839000
  H     -2.057550    3.531690    5.346200
  H      0.999570    2.928980    2.591990
  H      0.995760    2.276850    4.213030
  H      1.372230    3.962790    3.950460

 Total Charge           Charge          ....    0
 Multiplicity           Mult            ....    1
 Number of Electrons    NEL             ....   26
 Basis Dimension        Dim             ....   82

ORBITAL ENERGIES
----------------

  NO   OCC          E(Eh)            E(eV)
   0   2.0000     -10.274161      -279.5741
   1   2.0000     -10.266645      -279.3696
   2   2.0000     -10.249007      -278.8897
   3   2.0000      -0.900203       -24.4958
   4   2.0000      -0.797588       -21.7035
   5   2.0000      -0.690975       -18.8024
   6   2.0000      -0.572323       -15.5737
   7   2.0000      -0.538312       -14.6482
   8   2.0000      -0.496487       -13.5101
   9   2.0000      -0.491743       -13.3810
  10   2.0000      -0.432752       -11.7758
  11   2.0000      -0.420566       -11.4442
  12   2.0000      -0.417183       -11.3521
  13   0.0000       0.150382         4.0921
  14   0.0000       0.197804         5.3825
  15   0.0000       0.201968         5.4958
  16   0.0000       0.204111         5.5541
  17   0.0000       0.234140         6.3713

MULLIKEN ATOMIC CHARGES
-----------------------
   0 C :   -0.123732
   1 H :    0.025710
   2 C :    0.032748
   3 C :   -0.026499
   4 H :    0.020728
   5 H :    0.016725
   6 H :   -0.011662
   7 H :   -0.005020
   8 H :    0.025252
   9 H :    0.022463
  10 H :    0.023287
Sum of atomic charges:    0.0000000

LOEWDIN ATOMIC CHARGES
----------------------
   0 C :   -0.046030
   1 H :    0.021669
   2 C :   -0.054750
   3 C :   -0.055306
   4 H :    0.020951
   5 H :    0.015163
   6 H :    0.016154
   7 H :    0.019699
   8 H :    0.021157
   9 H :    0.020469
  10 H :    0.020824

  Mayer bond orders larger than 0.100000
B(  0-C ,  1-H ) :   0.9621 B(  0-C ,  2-C ) :   1.0900 B(  0-C ,  3-C ) :   1.0864
B(  0-C ,  4-H ) :   0.9637 B(  2-C ,  5-H ) :   0.9766 B(  2-C ,  6-H ) :   0.9644
B(  2-C ,  7-H ) :   0.9642 B(  3-C ,  8-H ) :   0.9754 B(  3-C ,  9-H ) :   0.9764
B(  3-C , 10-H ) :   0.9789

Dispersion correction           -0.001483159
FINAL SINGLE POINT ENERGY      -119.002333649182

DIPOLE MOMENT
-------------
                                X             Y             Z
Electronic contribution:     -0.13379       0.11912      -0.38878
Nuclear contribution   :      0.10024      -0.14218       0.41628
                        -----------------------------------------
Total Dipole Moment    :     -0.03354      -0.02307       0.02751
                        -----------------------------------------
Magnitude (a.u.)       :      0.04913
Magnitude (Debye)      :      0.12488

Rotational constants in cm-1:     1.024179     0.291605     0.259489
Rotational constants in MHz : 30704.103454  8742.106283  7779.285909

                             ****ORCA TERMINATED NORMALLY****
TOTAL RUN TIME: 0 days 0 hours 0 minutes 10 seconds 543 msec
