                         Program Version 5.0.0 -  RELEASE  -
|  1> !wB97X-D3 RIJCOSX def2-SVP def2/J TightSCF
|  2> *xyz 0 1
|  3> C         -2.79070       -0.78527        5.70281
|  4> C         -2.45380        0.05510        6.94145
|  5> C         -2.07842        1.48042        6.56410
|  6> H         -1.62558       -0.38216        7.49891
|  7> H         -3.32527        0.08775        7.59917
|  8> O         -0.90125        1.85816        6.82810
|  9> F         -2.93658        2.17731        5.96415
| 10> H         -1.94052       -0.82114        5.05412
| 11> H         -3.61590       -0.34261        5.18514
| 12> H         -3.05063       -1.77815        6.00536
| 13> *
| 14> %MaxCore 64000
| 15>
| 16> %pal nprocs 4
| 17> end
| 18>
| 19> %scf
| 20>   MaxIter 150
| 21> end
| 22>
| 23>
| 24>                          ****END OF INPUT****

CARTESIAN COORDINATES (ANGSTROEM)
---------------------------------
  C     -2.790700   -0.785270    5.702810
  C     -2.453800    0.055100    6.941450
  C     -2.078420    1.480420    6.564100
  H     -1.625580   -0.382160    7.498910
  H     -3.325270    0.087750    7.599170
  O     -0.901250    1.858160    6.828100
  F     -2.936580    2.177310    5.964150
  H     -1.940520   -0.821140    5.054120
  H     -3.615900   -0.342610    5.185140
  H     -3.050630   -1.778150    6.005360

 Total Charge           Charge          ....    0
 Multiplicity           Mult            ....    1
 Number of Electrons    NEL             ....   40
 Basis Dimension        Dim             ....   95

ORBITAL ENERGIES
----------------

  NO   OCC          E(Eh)            E(eV)
   0   2.0000     -24.859333      -676.4568
   1   2.0000     -19.238579      -523.5084
   2   2.0000     -10.462086      -284.6878
   3   2.0000     -10.317844      -280.7628
   4   2.0000     -10.299664      -280.2681
   5   2.0000      -1.413560       -38.4649
   6   2.0000      -1.126003       -30.6401
   7   2.0000      -0.914417       -24.8825
   8   2.0000      -0.789844       -21.4927
   9   2.0000      -0.744694       -20.2641
  10   2.0000      -0.651652       -17.7324
  11   2.0000      -0.638816       -17.3831
  12   2.0000      -0.598837       -16.2952
  13   2.0000      -0.564129       -15.3507
  14   2.0000      -0.532068       -14.4783
  15   2.0000      -0.497874       -13.5478
  16   2.0000      -0.477320       -12.9885
  17   2.0000      -0.471388       -12.8271
  18   2.0000      -0.437884       -11.9154
  19   2.0000      -0.377726       -10.2784
  20   0.0000       0.065094         1.7713
  21   0.0000       0.144492         3.9318
  22   0.0000       0.189260         5.1500
  23   0.0000       0.197634         5.3779
  24   0.0000       0.219171         5.9639

MULLIKEN ATOMIC CHARGES
-----------------------
   0 C :   -0.059780
   1 C :   -0.109108
   2 C :    0.259300
   3 H :    0.070892
   4 H :    0.060358
   5 O :   -0.276297
   6 F :   -0.087944
   7 H :    0.049929
   8 H :    0.044380
   9 H :    0.048268
Sum of atomic charges:    0.0000000

LOEWDIN ATOMIC CHARGES
----------------------
   0 C :   -0.047402
   1 C :   -0.071027
   2 C :    0.116740
   3 H :    0.046503
   4 H :    0.040707
   5 O :   -0.210152
   6 F :    0.036479
   7 H :    0.029928
   8 H :    0.026450
   9 H :    0.031775

  Mayer bond orders larger than 0.100000
B(  0-C ,  1-C ) :   1.0619 B(  0-C ,  7-H ) :   0.9779 B(  0-C ,  8-H ) :   0.9759
B(  0-C ,  9-H ) :   0.9739 B(  1-C ,  2-C ) :   1.0006 B(  1-C ,  3-H ) :   0.9545
B(  1-C ,  4-H ) :   0.9372 B(  2-C ,  5-O ) :   2.0749 B(  2-C ,  6-F ) :   1.1799

Dispersion correction           -0.001918098
FINAL SINGLE POINT ENERGY      -292.095173813248

DIPOLE MOMENT
-------------
                                X             Y             Z
Electronic contribution:      0.60518       7.99120       0.04685
Nuclear contribution   :     -1.47571      -8.84360      -0.10748
                        -----------------------------------------
Total Dipole Moment    :     -0.87053      -0.85241      -0.06062
                        -----------------------------------------
Magnitude (a.u.)       :      1.21987
Magnitude (Debye)      :      3.10067

Rotational constants in cm-1:     0.283081     0.133379     0.103386
Rotational constants in MHz :  8486.545774  3998.599544  3099.448040

                             ****ORCA TERMINATED NORMALLY****
TOTAL RUN TIME: 0 days 0 hours 0 minutes 14 seconds 496 msec
