                         Program Version 5.0.0 -  RELEASE  -
|  1> !wB97X-D3 RIJCOSX def2-SVP def2/J TightSCF xyzfile
|  2>
|  3> *xyzfile 0 1 D1.xyz
|  4>
|  5> %MaxCore 64000
|  6>
|  7> %pal nprocs 18
|  8> end
|  9>
| 10> %scf
| 11>   MaxIter 150
| 12> end
| 13>
| 14>
| 15>                          ****END OF INPUT****

CARTESIAN COORDINATES (ANGSTROEM)
---------------------------------
  C     -0.699123    3.489451    3.755163
  H     -0.966716    4.349013    3.140491
  C     -1.080669    3.792957    5.156857
  C      0.776956    3.138391    3.617408
  H     -1.331455    2.656510    3.446323
  H      1.371398    3.888342    4.149744
  H      1.046926    3.232057    2.561331
  C      1.118917    1.731170    4.115155
  H      2.200573    1.654226    4.254882
  C      0.659466    0.635182    3.153306
  H      0.677024    1.576674    5.103150
  H      1.312288    0.638870    2.274207
  H     -0.339563    0.868049    2.772876
  C      0.639957   -0.771175    3.755619
  C     -0.341821   -0.965537    4.915046
  H      1.648266   -1.028665    4.097015
  H      0.398568   -1.482386    2.958453
  H     -0.279892   -2.005646    5.252547
  C     -1.789164   -0.639231    4.557496
  H     -0.032380   -0.352918    5.765118
  H     -2.107151   -1.270102    3.719619
  H     -1.856352    0.391636    4.197604
  C     -2.790700   -0.785275    5.702812
  H     -2.867308   -1.835651    6.001675
  H     -3.774554   -0.486577    5.334807
  C     -2.453797    0.055101    6.941445
  C     -2.078419    1.480421    6.564098
  H     -1.625584   -0.382163    7.498914
  H     -3.325274    0.087746    7.599175
  H     -0.874488    4.762737    5.427344
  H     -0.680793    3.134762    5.839000
  H     -2.057550    3.531691    5.346197
  F     -0.901252    1.858156    6.828104
  O     -2.936582    2.177309    5.964151

 Total Charge           Charge          ....    0
 Multiplicity           Mult            ....    1
 Number of Electrons    NEL             ....  104
 Basis Dimension        Dim             ....  287

ORBITAL ENERGIES
----------------

  NO   OCC          E(Eh)            E(eV)
   0   2.0000     -24.873481      -676.8418
   1   2.0000     -19.254103      -523.9308
   2   2.0000     -10.479313      -285.1566
   3   2.0000     -10.323598      -280.9194
   4   2.0000     -10.307139      -280.4715
   5   2.0000     -10.292527      -280.0739
   6   2.0000     -10.289522      -279.9921
   7   2.0000     -10.283821      -279.8370
   8   2.0000     -10.276597      -279.6404
   9   2.0000     -10.273526      -279.5569
  10   2.0000     -10.265905      -279.3495
  11   2.0000     -10.255916      -279.0777
  12   2.0000     -10.202146      -277.6145
  13   2.0000      -1.430928       -38.9375
  14   2.0000      -1.151333       -31.3294
  15   2.0000      -0.944488       -25.7008
  16   2.0000      -0.919176       -25.0120
  17   2.0000      -0.887884       -24.1606
  18   2.0000      -0.858560       -23.3626
  19   2.0000      -0.815540       -22.1920
  20   2.0000      -0.791080       -21.5264
  21   2.0000      -0.763302       -20.7705
  22   2.0000      -0.731093       -19.8940
  23   2.0000      -0.713781       -19.4230
  24   2.0000      -0.670505       -18.2454
  25   2.0000      -0.667785       -18.1714
  26   2.0000      -0.658324       -17.9139
  27   2.0000      -0.639308       -17.3964
  28   2.0000      -0.620879       -16.8950
  29   2.0000      -0.582264       -15.8442
  30   2.0000      -0.578986       -15.7550
  31   2.0000      -0.560869       -15.2620
  32   2.0000      -0.558135       -15.1876
  33   2.0000      -0.536637       -14.6026
  34   2.0000      -0.526814       -14.3353
  35   2.0000      -0.512132       -13.9358
  36   2.0000      -0.505715       -13.7612
  37   2.0000      -0.497126       -13.5275
  38   2.0000      -0.485682       -13.2161
  39   2.0000      -0.475747       -12.9457
  40   2.0000      -0.463287       -12.6067
  41   2.0000      -0.454901       -12.3785
  42   2.0000      -0.446194       -12.1416
  43   2.0000      -0.438818       -11.9409
  44   2.0000      -0.432146       -11.7593
  45   2.0000      -0.421418       -11.4674
  46   2.0000      -0.415795       -11.3144
  47   2.0000      -0.404299       -11.0015
  48   2.0000      -0.400449       -10.8968
  49   2.0000      -0.389271       -10.5926
  50   2.0000      -0.386131       -10.5072
  51   2.0000      -0.357064        -9.7162
  52   0.0000       0.044477         1.2103
  53   0.0000       0.133388         3.6297
  54   0.0000       0.151969         4.1353
  55   0.0000       0.155258         4.2248
  56   0.0000       0.164645         4.4802

MULLIKEN ATOMIC CHARGES
-----------------------
   0 C :   -0.064859
   1 H :    0.015046
   2 C :   -0.004919
   3 C :   -0.004859
   4 H :   -0.003625
   5 H :    0.012900
   6 H :    0.005724
   7 C :   -0.034165
   8 H :    0.015266
   9 C :   -0.063130
  10 H :   -0.008214
  11 H :    0.020362
  12 H :    0.019790
  13 C :    0.011563
  14 C :   -0.050134
  15 H :    0.017749
  16 H :    0.017422
  17 H :    0.020152
  18 C :   -0.090887
  19 H :    0.011286
  20 H :    0.029565
  21 H :    0.038216
  22 C :   -0.012646
  23 H :    0.036948
  24 H :    0.050922
  25 C :   -0.032497
  26 C :    0.253052
  27 H :    0.048905
  28 H :    0.077737
  29 H :   -0.014577
  30 H :   -0.009432
  31 H :    0.029382
  32 F :   -0.078009
  33 O :   -0.260036
Sum of atomic charges:   -0.0000000

LOEWDIN ATOMIC CHARGES
----------------------
   0 C :   -0.040463
   1 H :    0.020758
   2 C :   -0.087310
   3 C :   -0.037972
   4 H :    0.011142
   5 H :    0.020627
   6 H :    0.016680
   7 C :   -0.042098
   8 H :    0.022487
   9 C :   -0.041674
  10 H :    0.007552
  11 H :    0.024339
  12 H :    0.016350
  13 C :   -0.036015
  14 C :   -0.045000
  15 H :    0.022789
  16 H :    0.022468
  17 H :    0.023593
  18 C :   -0.047455
  19 H :    0.010601
  20 H :    0.029793
  21 H :    0.020542
  22 C :   -0.023351
  23 H :    0.029300
  24 H :    0.034582
  25 C :   -0.062650
  26 C :    0.145270
  27 H :    0.031057
  28 H :    0.056121
  29 H :    0.003728
  30 H :   -0.014219
  31 H :    0.002528
  32 F :    0.071140
  33 O :   -0.165240

  Mayer bond orders larger than 0.100000
B(  0-C ,  1-H ) :   0.9503 B(  0-C ,  2-C ) :   1.0947 B(  0-C ,  3-C ) :   1.0628
B(  0-C ,  4-H ) :   0.9527 B(  2-C , 29-H ) :   0.9403 B(  2-C , 30-H ) :   0.9579
B(  2-C , 31-H ) :   0.9308 B(  3-C ,  5-H ) :   0.9509 B(  3-C ,  6-H ) :   0.9484
B(  3-C ,  7-C ) :   1.0718 B(  7-C ,  8-H ) :   0.9427 B(  7-C ,  9-C ) :   1.0469
B(  7-C , 10-H ) :   0.9519 B(  9-C , 11-H ) :   0.9429 B(  9-C , 12-H ) :   0.9533
B(  9-C , 13-C ) :   1.0744 B( 13-C , 14-C ) :   1.0808 B( 13-C , 15-H ) :   0.9473
B( 13-C , 16-H ) :   0.9473 B( 14-C , 17-H ) :   0.9467 B( 14-C , 18-C ) :   1.0511
B( 14-C , 19-H ) :   0.9413 B( 18-C , 20-H ) :   0.9419 B( 18-C , 21-H ) :   0.9317
B( 18-C , 22-C ) :   1.0933 B( 22-C , 23-H ) :   0.9521 B( 22-C , 24-H ) :   0.9478
B( 22-C , 25-C ) :   1.0582 B( 25-C , 26-C ) :   0.9912 B( 25-C , 27-H ) :   0.9347
B( 25-C , 28-H ) :   0.9273 B( 26-C , 32-F ) :   1.1183 B( 26-C , 33-O ) :   1.9828

Dispersion correction           -0.017256555
FINAL SINGLE POINT ENERGY      -606.255019126745

DIPOLE MOMENT
-------------
                                X             Y             Z
Electronic contribution:     -5.50478       2.47921      10.88427
Nuclear contribution   :      5.54676      -3.70047     -10.28793
                        -----------------------------------------
Total Dipole Moment    :      0.04197      -1.22125       0.59634
                        -----------------------------------------
Magnitude (a.u.)       :      1.35972
Magnitude (Debye)      :      3.45614

Rotational constants in cm-1:     0.028503     0.023389     0.015214
Rotational constants in MHz :   854.502405   701.197575   456.108322

                             ****ORCA TERMINATED NORMALLY****
TOTAL RUN TIME: 0 days 0 hours 0 minutes 54 seconds 86 msec
