                         Program Version 5.0.0 -  RELEASE  -
|  1> !wB97X-D3 RIJCOSX def2-SVP def2/J TightSCF xyzfile
|  2>
|  3> *xyzfile 0 1 D2.xyz
|  4>
|  5> %MaxCore 64000
|  6>
|  7> %pal nprocs 18
|  8> end
|  9>
| 10> %scf
| 11>   MaxIter 150
| 12> end
| 13>
| 14>
| 15>                          ****END OF INPUT****

CARTESIAN COORDINATES (ANGSTROEM)
---------------------------------
  C     -0.699123    3.489451    3.755163
  H     -0.966716    4.349013    3.140491
  C     -1.080669    3.792957    5.156857
  C      0.776956    3.138391    3.617408
  H     -1.331455    2.656510    3.446323
  H      1.371398    3.888342    4.149744
  H      1.046926    3.232057    2.561331
  C      1.118917    1.731170    4.115155
  H      2.200573    1.654226    4.254882
  C      0.659466    0.635182    3.153306
  H      0.677024    1.576674    5.103150
  H      1.312288    0.638870    2.274207
  H     -0.339563    0.868049    2.772876
  C      0.639957   -0.771175    3.755619
  C     -0.341821   -0.965537    4.915046
  H      1.648266   -1.028665    4.097015
  H      0.398568   -1.482386    2.958453
  H     -0.279892   -2.005646    5.252547
  C     -1.789164   -0.639231    4.557496
  H     -0.032380   -0.352918    5.765118
  H     -2.107151   -1.270102    3.719619
  H     -1.856352    0.391636    4.197604
  C     -2.790700   -0.785275    5.702812
  H     -2.867308   -1.835651    6.001675
  H     -3.774554   -0.486577    5.334807
  C     -2.453797    0.055101    6.941445
  C     -2.078419    1.480421    6.564098
  H     -1.625584   -0.382163    7.498914
  H     -3.325274    0.087746    7.599175
  H     -0.874488    4.762737    5.427344
  H     -0.680793    3.134762    5.839000
  H     -2.057550    3.531691    5.346197
  O     -0.901252    1.858156    6.828104
  F     -2.936582    2.177309    5.964151

 Total Charge           Charge          ....    0
 Multiplicity           Mult            ....    1
 Number of Electrons    NEL             ....  104
 Basis Dimension        Dim             ....  287

ORBITAL ENERGIES
----------------

  NO   OCC          E(Eh)            E(eV)
   0   2.0000     -24.876933      -676.9358
   1   2.0000     -19.254433      -523.9398
   2   2.0000     -10.481467      -285.2152
   3   2.0000     -10.324043      -280.9315
   4   2.0000     -10.310686      -280.5680
   5   2.0000     -10.294819      -280.1363
   6   2.0000     -10.283828      -279.8372
   7   2.0000     -10.279614      -279.7225
   8   2.0000     -10.272311      -279.5238
   9   2.0000     -10.264941      -279.3232
  10   2.0000     -10.262305      -279.2515
  11   2.0000     -10.255860      -279.0761
  12   2.0000     -10.200910      -277.5809
  13   2.0000      -1.434728       -39.0409
  14   2.0000      -1.151351       -31.3299
  15   2.0000      -0.945877       -25.7386
  16   2.0000      -0.916120       -24.9289
  17   2.0000      -0.885972       -24.1085
  18   2.0000      -0.857001       -23.3202
  19   2.0000      -0.812158       -22.1000
  20   2.0000      -0.788209       -21.4483
  21   2.0000      -0.765522       -20.8309
  22   2.0000      -0.727157       -19.7870
  23   2.0000      -0.714710       -19.4482
  24   2.0000      -0.670326       -18.2405
  25   2.0000      -0.667109       -18.1530
  26   2.0000      -0.661371       -17.9968
  27   2.0000      -0.638707       -17.3801
  28   2.0000      -0.616670       -16.7805
  29   2.0000      -0.585314       -15.9272
  30   2.0000      -0.579773       -15.7764
  31   2.0000      -0.559462       -15.2237
  32   2.0000      -0.553095       -15.0505
  33   2.0000      -0.531572       -14.4648
  34   2.0000      -0.521843       -14.2001
  35   2.0000      -0.515012       -14.0142
  36   2.0000      -0.505670       -13.7600
  37   2.0000      -0.499189       -13.5836
  38   2.0000      -0.484229       -13.1765
  39   2.0000      -0.471656       -12.8344
  40   2.0000      -0.467295       -12.7158
  41   2.0000      -0.461975       -12.5710
  42   2.0000      -0.445131       -12.1126
  43   2.0000      -0.436983       -11.8909
  44   2.0000      -0.430110       -11.7039
  45   2.0000      -0.419239       -11.4081
  46   2.0000      -0.413103       -11.2411
  47   2.0000      -0.402998       -10.9661
  48   2.0000      -0.396189       -10.7809
  49   2.0000      -0.385922       -10.5015
  50   2.0000      -0.383374       -10.4321
  51   2.0000      -0.348090        -9.4720
  52   0.0000       0.044493         1.2107
  53   0.0000       0.130331         3.5465
  54   0.0000       0.150938         4.1072
  55   0.0000       0.154830         4.2132
  56   0.0000       0.168029         4.5723

MULLIKEN ATOMIC CHARGES
-----------------------
   0 C :   -0.060633
   1 H :    0.011539
   2 C :   -0.006469
   3 C :   -0.003211
   4 H :   -0.016187
   5 H :    0.014398
   6 H :    0.002705
   7 C :   -0.042532
   8 H :    0.012449
   9 C :   -0.062392
  10 H :    0.022563
  11 H :    0.017652
  12 H :    0.013662
  13 C :    0.010851
  14 C :   -0.052596
  15 H :    0.018260
  16 H :    0.013368
  17 H :    0.016817
  18 C :   -0.076067
  19 H :    0.034644
  20 H :    0.030060
  21 H :    0.024822
  22 C :   -0.045405
  23 H :    0.041751
  24 H :    0.040376
  25 C :   -0.022701
  26 C :    0.256321
  27 H :    0.074730
  28 H :    0.063962
  29 H :   -0.012639
  30 H :    0.027013
  31 H :   -0.010444
  32 O :   -0.260736
  33 F :   -0.075929
Sum of atomic charges:   -0.0000000

LOEWDIN ATOMIC CHARGES
----------------------
   0 C :   -0.041784
   1 H :    0.018146
   2 C :   -0.087853
   3 C :   -0.036507
   4 H :    0.006836
   5 H :    0.021766
   6 H :    0.015102
   7 C :   -0.042579
   8 H :    0.021753
   9 C :   -0.042052
  10 H :    0.017805
  11 H :    0.022938
  12 H :    0.013671
  13 C :   -0.035832
  14 C :   -0.044862
  15 H :    0.023427
  16 H :    0.020327
  17 H :    0.022314
  18 C :   -0.046039
  19 H :    0.019745
  20 H :    0.029322
  21 H :    0.016339
  22 C :   -0.033036
  23 H :    0.031244
  24 H :    0.027962
  25 C :   -0.059249
  26 C :    0.149115
  27 H :    0.047447
  28 H :    0.046147
  29 H :    0.004762
  30 H :   -0.009533
  31 H :   -0.006757
  32 O :   -0.159590
  33 F :    0.069504

  Mayer bond orders larger than 0.100000
B(  0-C ,  1-H ) :   0.9501 B(  0-C ,  2-C ) :   1.0887 B(  0-C ,  3-C ) :   1.0675
B(  0-C ,  4-H ) :   0.9511 B(  2-C , 29-H ) :   0.9405 B(  2-C , 30-H ) :   0.9372
B(  2-C , 31-H ) :   0.9484 B(  3-C ,  5-H ) :   0.9508 B(  3-C ,  6-H ) :   0.9487
B(  3-C ,  7-C ) :   1.0720 B(  7-C ,  8-H ) :   0.9420 B(  7-C ,  9-C ) :   1.0457
B(  7-C , 10-H ) :   0.9526 B(  9-C , 11-H ) :   0.9427 B(  9-C , 12-H ) :   0.9527
B(  9-C , 13-C ) :   1.0758 B( 13-C , 14-C ) :   1.0819 B( 13-C , 15-H ) :   0.9468
B( 13-C , 16-H ) :   0.9477 B( 14-C , 17-H ) :   0.9467 B( 14-C , 18-C ) :   1.0507
B( 14-C , 19-H ) :   0.9406 B( 18-C , 20-H ) :   0.9427 B( 18-C , 21-H ) :   0.9309
B( 18-C , 22-C ) :   1.0874 B( 22-C , 23-H ) :   0.9500 B( 22-C , 24-H ) :   0.9520
B( 22-C , 25-C ) :   1.0470 B( 25-C , 26-C ) :   0.9971 B( 25-C , 27-H ) :   0.9425
B( 25-C , 28-H ) :   0.9293 B( 26-C , 32-O ) :   1.9499 B( 26-C , 33-F ) :   1.1408
B( 30-H , 32-O ) :   0.1020

Dispersion correction           -0.017268117
FINAL SINGLE POINT ENERGY      -606.253198152265

DIPOLE MOMENT
-------------
                                X             Y             Z
Electronic contribution:     -8.98776       3.01625       9.50356
Nuclear contribution   :      8.07181      -4.09641      -9.21610
                        -----------------------------------------
Total Dipole Moment    :     -0.91595      -1.08016       0.28746
                        -----------------------------------------
Magnitude (a.u.)       :      1.44511
Magnitude (Debye)      :      3.67318

Rotational constants in cm-1:     0.028400     0.023377     0.015073
Rotational constants in MHz :   851.414727   700.831775   451.871218

                             ****ORCA TERMINATED NORMALLY****
TOTAL RUN TIME: 0 days 0 hours 0 minutes 38 seconds 434 msec
