                         Program Version 5.0.0 -  RELEASE  -
|  1> !LC-BLYP RIJCOSX def2-SVPD def2/J TightSCF
|  2> *xyz -1 1
|  3> C          0.61188        1.65763       -4.50029
|  4> C          1.69499        1.54179       -5.57045
|  5> H          2.69733        1.73466       -5.18400
|  6> H          1.50666        2.27224       -6.35808
|  7> S          1.78029       -0.03313       -6.42874
|  8> O          2.56929        0.21366       -7.60736
|  9> O          0.41688       -0.46297       -6.61859
| 10> C          0.68036        0.65542       -3.34804
| 11> H         -0.35687        1.54923       -4.99113
| 12> H          0.65023        2.67544       -4.09600
| 13> O          2.50513       -0.93326       -5.48257
| 14> H          0.64318       -0.34009       -3.73853
| 15> H         -0.14865        0.81153       -2.68980
| 16> H          1.59447        0.79330       -2.80925
| 17> *
| 18> %MaxCore 64000
| 19>
| 20> %pal nprocs 8
| 21> end
| 22>
| 23> %scf
| 24>   MaxIter 150
| 25> end
| 26>
| 27>
| 28>                          ****END OF INPUT****

CARTESIAN COORDINATES (ANGSTROEM)
---------------------------------
  C      0.611880    1.657630   -4.500290
  C      1.694990    1.541790   -5.570450
  H      2.697330    1.734660   -5.184000
  H      1.506660    2.272240   -6.358080
  S      1.780290   -0.033130   -6.428740
  O      2.569290    0.213660   -7.607360
  O      0.416880   -0.462970   -6.618590
  C      0.680360    0.655420   -3.348040
  H     -0.356870    1.549230   -4.991130
  H      0.650230    2.675440   -4.096000
  O      2.505130   -0.933260   -5.482570
  H      0.643180   -0.340090   -3.738530
  H     -0.148650    0.811530   -2.689800
  H      1.594470    0.793300   -2.809250

 Total Charge           Charge          ....   -1
 Multiplicity           Mult            ....    1
 Number of Electrons    NEL             ....   66
 Basis Dimension        Dim             ....  212

ORBITAL ENERGIES
----------------

  NO   OCC          E(Eh)            E(eV)
   0   2.0000     -88.312227     -2403.0979
   1   2.0000     -18.745405      -510.0884
   2   2.0000     -18.743637      -510.0403
   3   2.0000     -18.725214      -509.5390
   4   2.0000      -9.957948      -270.9695
   5   2.0000      -9.951259      -270.7875
   6   2.0000      -9.938199      -270.4321
   7   2.0000      -7.861093      -213.9112
   8   2.0000      -5.895495      -160.4246
   9   2.0000      -5.895285      -160.4189
  10   2.0000      -5.894783      -160.4052
  11   2.0000      -1.036035       -28.1920
  12   2.0000      -0.894538       -24.3416
  13   2.0000      -0.860911       -23.4266
  14   2.0000      -0.764625       -20.8065
  15   2.0000      -0.675485       -18.3809
  16   2.0000      -0.578516       -15.7422
  17   2.0000      -0.488981       -13.3059
  18   2.0000      -0.442240       -12.0340
  19   2.0000      -0.428777       -11.6676
  20   2.0000      -0.404658       -11.0113
  21   2.0000      -0.388695       -10.5769
  22   2.0000      -0.368777       -10.0349
  23   2.0000      -0.358537        -9.7563
  24   2.0000      -0.326023        -8.8715
  25   2.0000      -0.318952        -8.6791
  26   2.0000      -0.302000        -8.2178
  27   2.0000      -0.259488        -7.0610
  28   2.0000      -0.257856        -7.0166
  29   2.0000      -0.223585        -6.0841
  30   2.0000      -0.212597        -5.7851
  31   2.0000      -0.197925        -5.3858
  32   2.0000      -0.166303        -4.5253
  33   0.0000       0.185208         5.0398
  34   0.0000       0.205759         5.5990
  35   0.0000       0.210829         5.7369
  36   0.0000       0.217697         5.9238
  37   0.0000       0.237389         6.4597

MULLIKEN ATOMIC CHARGES
-----------------------
   0 C :   -0.105421
   1 C :    0.193176
   2 H :   -0.105580
   3 H :   -0.103866
   4 S :    1.060796
   5 O :   -0.718094
   6 O :   -0.722229
   7 C :    1.050446
   8 H :   -0.077928
   9 H :   -0.241991
  10 O :   -0.763936
  11 H :   -0.176868
  12 H :   -0.172233
  13 H :   -0.116274
Sum of atomic charges:   -1.0000000

LOEWDIN ATOMIC CHARGES
----------------------
   0 C :   -0.106734
   1 C :   -0.107478
   2 H :    0.015722
   3 H :    0.007294
   4 S :    0.801818
   5 O :   -0.553826
   6 O :   -0.548487
   7 C :    0.110693
   8 H :    0.017972
   9 H :    0.012154
  10 O :   -0.581542
  11 H :   -0.024884
  12 H :   -0.028041
  13 H :   -0.014662

  Mayer bond orders larger than 0.100000
B(  0-C ,  1-C ) :   1.2534 B(  0-C ,  2-H ) :   0.1477 B(  0-C ,  3-H ) :   0.1662
B(  0-C ,  7-C ) :   1.2603 B(  0-C ,  8-H ) :   0.8539 B(  0-C ,  9-H ) :   0.8343
B(  0-C , 11-H ) :   0.2617 B(  0-C , 12-H ) :   0.2573 B(  0-C , 13-H ) :   0.2587
B(  1-C ,  2-H ) :   0.8929 B(  1-C ,  3-H ) :   0.8765 B(  1-C ,  4-S ) :   0.9162
B(  1-C ,  8-H ) :   0.1556 B(  1-C ,  9-H ) :   0.1737 B(  4-S ,  5-O ) :   1.4331
B(  4-S ,  6-O ) :   1.3479 B(  4-S , 10-O ) :   1.2996 B(  7-C ,  8-H ) :   0.1008
B(  7-C , 11-H ) :   0.7335 B(  7-C , 12-H ) :   0.6727 B(  7-C , 13-H ) :   0.6815
B( 11-H , 13-H ) :   0.1126

FINAL SINGLE POINT ENERGY      -741.112214160433

DIPOLE MOMENT
-------------
                                X             Y             Z
Electronic contribution:      3.16065      -5.18862      -8.56636
Nuclear contribution   :     -3.81113       6.97418       9.97106
                        -----------------------------------------
Total Dipole Moment    :     -0.65049       1.78556       1.40470
                        -----------------------------------------
Magnitude (a.u.)       :      2.36317
Magnitude (Debye)      :      6.00669

Rotational constants in cm-1:     0.136135     0.055477     0.052562
Rotational constants in MHz :  4081.221574  1663.170947  1575.772362

                             ****ORCA TERMINATED NORMALLY****
TOTAL RUN TIME: 0 days 0 hours 0 minutes 17 seconds 693 msec
