                         Program Version 5.0.0 -  RELEASE  -
|  1> !LC-BLYP RIJCOSX def2-SVPD def2/J TightSCF
|  2> *xyz 1 1
|  3> C          1.96337       -1.74915       -1.89689
|  4> N          2.73849       -2.01517       -3.09711
|  5> C          4.04974       -2.15472       -3.15204
|  6> N          4.65821       -1.98629       -4.31866
|  7> N          4.76423       -2.45444       -2.05049
|  8> H          4.28736       -2.77626       -1.21750
|  9> H          5.75082       -2.65835       -2.12599
| 10> H          2.34518       -1.69027       -3.97145
| 11> H          4.10900       -1.59268       -5.07176
| 12> H          5.64910       -2.15646       -4.42724
| 13> C          2.08852       -0.30091       -1.41520
| 14> H          2.23127       -2.45162       -1.10264
| 15> H          0.93025       -1.97780       -2.15544
| 16> C          1.96899        0.73358       -2.53565
| 17> H          3.05136       -0.16860       -0.91187
| 18> H          1.31650       -0.13623       -0.65725
| 19> H          2.73046        0.55745       -3.26643
| 20> H          2.08619        1.71595       -2.12808
| 21> H          1.00672        0.65098       -2.99620
| 22> *
| 23> %MaxCore 64000
| 24>
| 25> %pal nprocs 8
| 26> end
| 27>
| 28> %scf
| 29>   MaxIter 150
| 30> end
| 31>
| 32>
| 33>                          ****END OF INPUT****

CARTESIAN COORDINATES (ANGSTROEM)
---------------------------------
  C      1.963370   -1.749150   -1.896890
  N      2.738490   -2.015170   -3.097110
  C      4.049740   -2.154720   -3.152040
  N      4.658210   -1.986290   -4.318660
  N      4.764230   -2.454440   -2.050490
  H      4.287360   -2.776260   -1.217500
  H      5.750820   -2.658350   -2.125990
  H      2.345180   -1.690270   -3.971450
  H      4.109000   -1.592680   -5.071760
  H      5.649100   -2.156460   -4.427240
  C      2.088520   -0.300910   -1.415200
  H      2.231270   -2.451620   -1.102640
  H      0.930250   -1.977800   -2.155440
  C      1.968990    0.733580   -2.535650
  H      3.051360   -0.168600   -0.911870
  H      1.316500   -0.136230   -0.657250
  H      2.730460    0.557450   -3.266430
  H      2.086190    1.715950   -2.128080
  H      1.006720    0.650980   -2.996200

 Total Charge           Charge          ....    1
 Multiplicity           Mult            ....    1
 Number of Electrons    NEL             ....   56
 Basis Dimension        Dim             ....  236

ORBITAL ENERGIES
----------------

  NO   OCC          E(Eh)            E(eV)
   0   2.0000     -14.412597      -392.1867
   1   2.0000     -14.409940      -392.1144
   2   2.0000     -14.409535      -392.1034
   3   2.0000     -10.422284      -283.6048
   4   2.0000     -10.287175      -279.9283
   5   2.0000     -10.227566      -278.3062
   6   2.0000     -10.204999      -277.6922
   7   2.0000      -1.311071       -35.6761
   8   2.0000      -1.199154       -32.6306
   9   2.0000      -1.185742       -32.2657
  10   2.0000      -1.044008       -28.4089
  11   2.0000      -0.969407       -26.3789
  12   2.0000      -0.929318       -25.2880
  13   2.0000      -0.891187       -24.2504
  14   2.0000      -0.874383       -23.7932
  15   2.0000      -0.829623       -22.5752
  16   2.0000      -0.796762       -21.6810
  17   2.0000      -0.786589       -21.4042
  18   2.0000      -0.767276       -20.8786
  19   2.0000      -0.732147       -19.9227
  20   2.0000      -0.705996       -19.2111
  21   2.0000      -0.691241       -18.8096
  22   2.0000      -0.650550       -17.7024
  23   2.0000      -0.607029       -16.5181
  24   2.0000      -0.594395       -16.1743
  25   2.0000      -0.583038       -15.8653
  26   2.0000      -0.571001       -15.5377
  27   2.0000      -0.543378       -14.7861
  28   0.0000      -0.095564        -2.6004
  29   0.0000      -0.091558        -2.4914
  30   0.0000      -0.064705        -1.7607
  31   0.0000      -0.052377        -1.4252
  32   0.0000      -0.025386        -0.6908

MULLIKEN ATOMIC CHARGES
-----------------------
   0 C :    0.851103
   1 N :   -0.243247
   2 C :    0.967679
   3 N :    0.118813
   4 N :    0.224730
   5 H :   -0.072031
   6 H :   -0.193331
   7 H :   -0.115830
   8 H :   -0.021074
   9 H :   -0.141037
  10 C :   -0.104423
  11 H :   -0.209103
  12 H :   -0.345648
  13 C :    1.046910
  14 H :   -0.090192
  15 H :   -0.175462
  16 H :   -0.265889
  17 H :   -0.164603
  18 H :   -0.067365
Sum of atomic charges:    1.0000000

LOEWDIN ATOMIC CHARGES
----------------------
   0 C :    0.057344
   1 N :    0.056986
   2 C :   -0.063503
   3 N :    0.276738
   4 N :    0.291853
   5 H :    0.021463
   6 H :    0.037013
   7 H :    0.053221
   8 H :    0.038486
   9 H :    0.043844
  10 C :   -0.057093
  11 H :    0.031419
  12 H :    0.047644
  13 C :    0.125088
  14 H :    0.025733
  15 H :    0.042613
  16 H :   -0.030975
  17 H :    0.003507
  18 H :   -0.001379

  Mayer bond orders larger than 0.100000
B(  0-C ,  1-N ) :   1.0471 B(  0-C ,  2-C ) :  -0.1080 B(  0-C ,  7-H ) :  -0.1469
B(  0-C , 10-C ) :   1.0757 B(  0-C , 11-H ) :   0.8583 B(  0-C , 12-H ) :   0.6475
B(  0-C , 15-H ) :   0.1289 B(  1-N ,  2-C ) :   1.1432 B(  1-N ,  3-N ) :   0.3181
B(  1-N ,  4-N ) :   0.2083 B(  1-N ,  7-H ) :   1.1730 B(  1-N , 11-H ) :   0.1236
B(  1-N , 12-H ) :   0.2946 B(  2-C ,  3-N ) :   0.8945 B(  2-C ,  4-N ) :   1.0554
B(  2-C ,  5-H ) :  -0.1319 B(  2-C ,  6-H ) :  -0.1704 B(  2-C ,  7-H ) :  -0.2129
B(  2-C ,  8-H ) :  -0.1506 B(  2-C ,  9-H ) :  -0.1710 B(  3-N ,  4-N ) :   0.1542
B(  3-N ,  8-H ) :   1.1463 B(  3-N ,  9-H ) :   1.2972 B(  4-N ,  5-H ) :   1.0906
B(  4-N ,  6-H ) :   1.2844 B(  5-H ,  6-H ) :  -0.2259 B(  8-H ,  9-H ) :  -0.1934
B( 10-C , 11-H ) :   0.1125 B( 10-C , 12-H ) :   0.1423 B( 10-C , 13-C ) :   1.2968
B( 10-C , 14-H ) :   0.8954 B( 10-C , 15-H ) :   0.9044 B( 10-C , 16-H ) :   0.2385
B( 10-C , 17-H ) :   0.2468 B( 10-C , 18-H ) :   0.2339 B( 11-H , 12-H ) :  -0.1427
B( 13-C , 16-H ) :   0.7364 B( 13-C , 17-H ) :   0.7237 B( 13-C , 18-H ) :   0.6883
B( 16-H , 18-H ) :   0.1249

FINAL SINGLE POINT ENERGY      -322.649323261951

DIPOLE MOMENT
-------------
                                X             Y             Z
Electronic contribution:      3.88385      -4.89369      -2.31433
Nuclear contribution   :     -2.72963       4.05673       1.67650
                        -----------------------------------------
Total Dipole Moment    :      1.15422      -0.83695      -0.63783
                        -----------------------------------------
Magnitude (a.u.)       :      1.56190
Magnitude (Debye)      :      3.97004

Rotational constants in cm-1:     0.140891     0.054763     0.048590
Rotational constants in MHz :  4223.814968  1641.764475  1456.690885

                             ****ORCA TERMINATED NORMALLY****
TOTAL RUN TIME: 0 days 0 hours 0 minutes 19 seconds 900 msec
