                         Program Version 5.0.0 -  RELEASE  -
|  1> !LC-BLYP RIJCOSX def2-SVPD def2/J TightSCF xyzfile
|  2>
|  3> *xyzfile 0 1 B.xyz
|  4>
|  5> %MaxCore 64000
|  6>
|  7> %pal nprocs 4
|  8> end
|  9>
| 10> %scf
| 11>   MaxIter 150
| 12> end
| 13>
| 14>
| 15>                          ****END OF INPUT****

CARTESIAN COORDINATES (ANGSTROEM)
---------------------------------
  C      1.963365   -1.749150   -1.896887
  N      2.738490   -2.015170   -3.097113
  C      0.611877    1.657634   -4.500288
  C      1.694991    1.541794   -5.570447
  H      2.697326    1.734659   -5.183996
  H      1.506656    2.272239   -6.358076
  S      1.780287   -0.033128   -6.428739
  C      4.049736   -2.154717   -3.152044
  N      4.658206   -1.986293   -4.318655
  N      4.764231   -2.454435   -2.050491
  H      4.287363   -2.776259   -1.217496
  H      5.750825   -2.658351   -2.125988
  H      2.345176   -1.690274   -3.971447
  H      4.109004   -1.592677   -5.071760
  H      5.649095   -2.156462   -4.427237
  O      2.569287    0.213657   -7.607360
  O      0.416880   -0.462969   -6.618595
  C      2.088520   -0.300912   -1.415204
  H      2.231272   -2.451616   -1.102643
  H      0.930249   -1.977801   -2.155438
  C      0.680356    0.655418   -3.348038
  H     -0.356865    1.549231   -4.991128
  H      0.650228    2.675438   -4.096000
  C      1.968993    0.733582   -2.535654
  H      3.051356   -0.168602   -0.911868
  H      1.316501   -0.136231   -0.657252
  O      2.505129   -0.933263   -5.482570
  H      2.824195    0.624726   -3.208464
  H      2.058919    1.730331   -2.093112
  H      0.542252   -0.344731   -3.766662
  H     -0.174219    0.829692   -2.685182

 Total Charge           Charge          ....    0
 Multiplicity           Mult            ....    1
 Number of Electrons    NEL             ....  120
 Basis Dimension        Dim             ....  432

ORBITAL ENERGIES
----------------

  NO   OCC          E(Eh)            E(eV)
   0   2.0000     -88.458440     -2407.0765
   1   2.0000     -18.899838      -514.2907
   2   2.0000     -18.879422      -513.7352
   3   2.0000     -18.878066      -513.6983
   4   2.0000     -14.277524      -388.5112
   5   2.0000     -14.247702      -387.6997
   6   2.0000     -14.243517      -387.5858
   7   2.0000     -10.272373      -279.5255
   8   2.0000     -10.158283      -276.4209
   9   2.0000     -10.109070      -275.0818
  10   2.0000     -10.090205      -274.5684
  11   2.0000     -10.078576      -274.2520
  12   2.0000     -10.077938      -274.2346
  13   2.0000     -10.075616      -274.1714
  14   2.0000      -8.006062      -217.8560
  15   2.0000      -6.041570      -164.3995
  16   2.0000      -6.039892      -164.3538
  17   2.0000      -6.039142      -164.3334
  18   2.0000      -1.181351       -32.1462
  19   2.0000      -1.160838       -31.5880
  20   2.0000      -1.053087       -28.6560
  21   2.0000      -1.038743       -28.2656
  22   2.0000      -1.029067       -28.0023
  23   2.0000      -1.025230       -27.8979
  24   2.0000      -0.928565       -25.2675
  25   2.0000      -0.890330       -24.2271
  26   2.0000      -0.842107       -22.9149
  27   2.0000      -0.803227       -21.8569
  28   2.0000      -0.777415       -21.1545
  29   2.0000      -0.745258       -20.2795
  30   2.0000      -0.736207       -20.0332
  31   2.0000      -0.702387       -19.1129
  32   2.0000      -0.680074       -18.5058
  33   2.0000      -0.664037       -18.0694
  34   2.0000      -0.645742       -17.5715
  35   2.0000      -0.631806       -17.1923
  36   2.0000      -0.610345       -16.6083
  37   2.0000      -0.589515       -16.0415
  38   2.0000      -0.587068       -15.9749
  39   2.0000      -0.580350       -15.7921
  40   2.0000      -0.565091       -15.3769
  41   2.0000      -0.547769       -14.9055
  42   2.0000      -0.537141       -14.6163
  43   2.0000      -0.524614       -14.2755
  44   2.0000      -0.507437       -13.8081
  45   2.0000      -0.498699       -13.5703
  46   2.0000      -0.481504       -13.1024
  47   2.0000      -0.473485       -12.8842
  48   2.0000      -0.466594       -12.6967
  49   2.0000      -0.439175       -11.9506
  50   2.0000      -0.435400       -11.8478
  51   2.0000      -0.431036       -11.7291
  52   2.0000      -0.413463       -11.2509
  53   2.0000      -0.409149       -11.1335
  54   2.0000      -0.402260       -10.9460
  55   2.0000      -0.394899       -10.7457
  56   2.0000      -0.365169        -9.9368
  57   2.0000      -0.355719        -9.6796
  58   2.0000      -0.346004        -9.4152
  59   2.0000      -0.320279        -8.7152
  60   0.0000       0.025177         0.6851
  61   0.0000       0.048478         1.3192
  62   0.0000       0.055827         1.5191
  63   0.0000       0.076244         2.0747
  64   0.0000       0.083005         2.2587

MULLIKEN ATOMIC CHARGES
-----------------------
   0 C :    1.089602
   1 N :    0.291037
   2 C :    0.628461
   3 C :    0.338113
   4 H :   -0.042219
   5 H :   -0.214461
   6 S :    1.104795
   7 C :    0.908809
   8 N :    0.501814
   9 N :    0.283335
  10 H :   -0.094522
  11 H :   -0.219124
  12 H :   -0.804952
  13 H :   -0.284314
  14 H :   -0.248234
  15 O :   -0.668195
  16 O :   -0.718901
  17 C :    0.653969
  18 H :   -0.568351
  19 H :   -0.182989
  20 C :    0.210435
  21 H :   -0.085188
  22 H :   -0.124898
  23 C :    0.203008
  24 H :   -0.153910
  25 H :   -0.116358
  26 O :   -0.752521
  27 H :   -0.053330
  28 H :   -0.427232
  29 H :   -0.174281
  30 H :   -0.279401
Sum of atomic charges:   -0.0000000

LOEWDIN ATOMIC CHARGES
----------------------
   0 C :    0.059176
   1 N :    0.088641
   2 C :   -0.042453
   3 C :   -0.079306
   4 H :    0.014146
   5 H :    0.024131
   6 S :    0.900231
   7 C :   -0.058984
   8 N :    0.292538
   9 N :    0.264157
  10 H :    0.003746
  11 H :    0.018356
  12 H :   -0.074386
  13 H :   -0.065174
  14 H :    0.028859
  15 O :   -0.502400
  16 O :   -0.499522
  17 C :   -0.022671
  18 H :    0.015854
  19 H :    0.037859
  20 C :   -0.035555
  21 H :    0.032414
  22 H :    0.031447
  23 C :   -0.038330
  24 H :    0.019837
  25 H :    0.032948
  26 O :   -0.535325
  27 H :    0.010504
  28 H :    0.034207
  29 H :    0.009129
  30 H :    0.035923

  Mayer bond orders larger than 0.100000
B(  0-C ,  1-N ) :   0.9966 B(  0-C , 12-H ) :  -0.3860 B(  0-C , 17-C ) :   1.0371
B(  0-C , 18-H ) :   0.7839 B(  0-C , 19-H ) :   0.5867 B(  0-C , 23-C ) :   0.1633
B(  0-C , 25-H ) :   0.1271 B(  1-N ,  7-C ) :   1.1776 B(  1-N ,  8-N ) :   0.1094
B(  1-N ,  9-N ) :   0.2265 B(  1-N , 12-H ) :   1.1638 B(  1-N , 13-H ) :   0.1077
B(  1-N , 18-H ) :   0.1013 B(  1-N , 19-H ) :   0.1833 B(  2-C ,  3-C ) :   1.2149
B(  2-C ,  4-H ) :   0.1109 B(  2-C ,  5-H ) :   0.1948 B(  2-C , 20-C ) :   1.2390
B(  2-C , 21-H ) :   0.5672 B(  2-C , 22-H ) :   0.7253 B(  3-C ,  4-H ) :   0.8619
B(  3-C ,  5-H ) :   0.7868 B(  3-C ,  6-S ) :   0.9516 B(  3-C , 21-H ) :   0.1374
B(  3-C , 22-H ) :   0.1678 B(  6-S , 15-O ) :   1.4852 B(  6-S , 16-O ) :   1.3674
B(  6-S , 26-O ) :   1.1875 B(  7-C ,  8-N ) :   0.9476 B(  7-C ,  9-N ) :   0.9861
B(  7-C , 10-H ) :  -0.1308 B(  7-C , 11-H ) :  -0.1229 B(  7-C , 12-H ) :  -0.5345
B(  7-C , 13-H ) :  -0.2195 B(  7-C , 14-H ) :  -0.2130 B(  8-N ,  9-N ) :   0.1423
B(  8-N , 13-H ) :   1.1784 B(  8-N , 14-H ) :   1.3258 B(  9-N , 10-H ) :   1.0963
B(  9-N , 11-H ) :   1.2698 B( 10-H , 11-H ) :  -0.2338 B( 12-H , 19-H ) :   0.1830
B( 12-H , 24-H ) :   0.1066 B( 12-H , 26-O ) :   0.2363 B( 12-H , 27-H ) :   0.1072
B( 12-H , 28-H ) :  -0.1257 B( 13-H , 14-H ) :  -0.2247 B( 13-H , 26-O ) :   0.2360
B( 17-C , 18-H ) :   0.1598 B( 17-C , 23-C ) :   1.2310 B( 17-C , 24-H ) :   0.6840
B( 17-C , 25-H ) :   0.7843 B( 18-H , 19-H ) :  -0.1927 B( 20-C , 21-H ) :   0.3415
B( 20-C , 23-C ) :   1.1725 B( 20-C , 27-H ) :   0.1431 B( 20-C , 28-H ) :   0.1372
B( 20-C , 29-H ) :   0.9134 B( 20-C , 30-H ) :   0.7779 B( 21-H , 22-H ) :  -0.1214
B( 23-C , 24-H ) :   0.2604 B( 23-C , 25-H ) :   0.1272 B( 23-C , 27-H ) :   0.8492
B( 23-C , 28-H ) :   0.8435 B( 23-C , 29-H ) :   0.1072 B( 23-C , 30-H ) :   0.1602
B( 24-H , 25-H ) :  -0.1081

FINAL SINGLE POINT ENERGY     -1062.761722218370

DIPOLE MOMENT
-------------
                                X             Y             Z
Electronic contribution:      2.24011      -4.90657     -14.13080
Nuclear contribution   :      0.44641       3.59123      19.13564
                        -----------------------------------------
Total Dipole Moment    :      2.68653      -1.31533       5.00484
                        -----------------------------------------
Magnitude (a.u.)       :      5.83061
Magnitude (Debye)      :     14.82023

Rotational constants in cm-1:     0.029186     0.014646     0.011115
Rotational constants in MHz :   874.975540   439.070287   333.231642

                             ****ORCA TERMINATED NORMALLY****
TOTAL RUN TIME: 0 days 0 hours 3 minutes 27 seconds 35 msec
