                         Program Version 5.0.0 -  RELEASE  -
|  1> !LC-BLYP RIJCOSX def2-SVPD def2/J TightSCF
|  2> *xyz 0 1
|  3> C          0.61188        1.65763       -4.50029
|  4> C          1.69499        1.54179       -5.57045
|  5> H          2.69733        1.73466       -5.18400
|  6> H          1.50666        2.27224       -6.35808
|  7> S          1.78029       -0.03313       -6.42874
|  8> F          2.56929        0.21366       -7.60736
|  9> O          0.41688       -0.46297       -6.61859
| 10> C          0.68036        0.65542       -3.34804
| 11> H         -0.35687        1.54923       -4.99113
| 12> H          0.65023        2.67544       -4.09600
| 13> O          2.50513       -0.93326       -5.48257
| 14> H          0.64318       -0.34009       -3.73853
| 15> H         -0.14865        0.81153       -2.68980
| 16> H          1.59447        0.79330       -2.80925
| 17> *
| 18> %MaxCore 64000
| 19>
| 20> %pal nprocs 8
| 21> end
| 22>
| 23> %scf
| 24>   MaxIter 150
| 25> end
| 26>
| 27>
| 28>                          ****END OF INPUT****

CARTESIAN COORDINATES (ANGSTROEM)
---------------------------------
  C      0.611880    1.657630   -4.500290
  C      1.694990    1.541790   -5.570450
  H      2.697330    1.734660   -5.184000
  H      1.506660    2.272240   -6.358080
  S      1.780290   -0.033130   -6.428740
  F      2.569290    0.213660   -7.607360
  O      0.416880   -0.462970   -6.618590
  C      0.680360    0.655420   -3.348040
  H     -0.356870    1.549230   -4.991130
  H      0.650230    2.675440   -4.096000
  O      2.505130   -0.933260   -5.482570
  H      0.643180   -0.340090   -3.738530
  H     -0.148650    0.811530   -2.689800
  H      1.594470    0.793300   -2.809250

 Total Charge           Charge          ....    0
 Multiplicity           Mult            ....    1
 Number of Electrons    NEL             ....   66
 Basis Dimension        Dim             ....  212

ORBITAL ENERGIES
----------------

  NO   OCC          E(Eh)            E(eV)
   0   2.0000     -88.567377     -2410.0409
   1   2.0000     -24.597568      -669.3339
   2   2.0000     -18.975763      -516.3568
   3   2.0000     -18.955640      -515.8092
   4   2.0000     -10.149932      -276.1937
   5   2.0000     -10.115252      -275.2500
   6   2.0000     -10.076995      -274.2090
   7   2.0000      -8.117203      -220.8803
   8   2.0000      -6.155992      -167.5131
   9   2.0000      -6.149210      -167.3285
  10   2.0000      -6.147674      -167.2867
  11   2.0000      -1.464280       -39.8451
  12   2.0000      -1.206595       -32.8331
  13   2.0000      -1.094839       -29.7921
  14   2.0000      -0.940174       -25.5834
  15   2.0000      -0.865492       -23.5512
  16   2.0000      -0.815101       -22.1800
  17   2.0000      -0.745791       -20.2940
  18   2.0000      -0.697223       -18.9724
  19   2.0000      -0.686863       -18.6905
  20   2.0000      -0.662017       -18.0144
  21   2.0000      -0.602615       -16.3980
  22   2.0000      -0.593043       -16.1375
  23   2.0000      -0.562285       -15.3005
  24   2.0000      -0.551797       -15.0151
  25   2.0000      -0.529980       -14.4215
  26   2.0000      -0.494479       -13.4555
  27   2.0000      -0.477603       -12.9962
  28   2.0000      -0.472411       -12.8550
  29   2.0000      -0.454719       -12.3735
  30   2.0000      -0.438409       -11.9297
  31   2.0000      -0.415720       -11.3123
  32   2.0000      -0.405217       -11.0265
  33   0.0000       0.045625         1.2415
  34   0.0000       0.069769         1.8985
  35   0.0000       0.077442         2.1073
  36   0.0000       0.082583         2.2472
  37   0.0000       0.103614         2.8195

MULLIKEN ATOMIC CHARGES
-----------------------
   0 C :   -0.089143
   1 C :    0.153903
   2 H :   -0.055505
   3 H :   -0.054502
   4 S :    1.268876
   5 F :   -0.369050
   6 O :   -0.575535
   7 C :    1.074360
   8 H :   -0.064809
   9 H :   -0.215898
  10 O :   -0.620232
  11 H :   -0.197148
  12 H :   -0.150986
  13 H :   -0.104331
Sum of atomic charges:    0.0000000

LOEWDIN ATOMIC CHARGES
----------------------
   0 C :   -0.077501
   1 C :   -0.072742
   2 H :    0.033927
   3 H :    0.023775
   4 S :    1.067245
   5 F :   -0.235919
   6 O :   -0.440222
   7 C :    0.132199
   8 H :    0.031765
   9 H :    0.038263
  10 O :   -0.471143
  11 H :   -0.019762
  12 H :   -0.007051
  13 H :   -0.002834

  Mayer bond orders larger than 0.100000
B(  0-C ,  1-C ) :   1.2958 B(  0-C ,  2-H ) :   0.1386 B(  0-C ,  3-H ) :   0.1730
B(  0-C ,  7-C ) :   1.2759 B(  0-C ,  8-H ) :   0.8503 B(  0-C ,  9-H ) :   0.8324
B(  0-C , 11-H ) :   0.2490 B(  0-C , 12-H ) :   0.2505 B(  0-C , 13-H ) :   0.2515
B(  1-C ,  2-H ) :   0.9009 B(  1-C ,  3-H ) :   0.8408 B(  1-C ,  4-S ) :   0.9463
B(  1-C ,  8-H ) :   0.1528 B(  1-C ,  9-H ) :   0.1729 B(  4-S ,  5-F ) :   0.7753
B(  4-S ,  6-O ) :   1.5502 B(  4-S , 10-O ) :   1.4938 B(  7-C , 11-H ) :   0.7336
B(  7-C , 12-H ) :   0.6760 B(  7-C , 13-H ) :   0.6835 B( 11-H , 13-H ) :   0.1072

FINAL SINGLE POINT ENERGY      -765.579690816636

DIPOLE MOMENT
-------------
                                X             Y             Z
Electronic contribution:      5.11014      -5.35461     -11.97547
Nuclear contribution   :     -4.93724       7.05784      11.92827
                        -----------------------------------------
Total Dipole Moment    :      0.17290       1.70323      -0.04720
                        -----------------------------------------
Magnitude (a.u.)       :      1.71264
Magnitude (Debye)      :      4.35317

Rotational constants in cm-1:     0.134572     0.053398     0.050578
Rotational constants in MHz :  4034.377338  1600.833917  1516.302250

                             ****ORCA TERMINATED NORMALLY****
TOTAL RUN TIME: 0 days 0 hours 0 minutes 16 seconds 647 msec
