                         Program Version 5.0.0 -  RELEASE  -
|  1> !LC-BLYP RIJCOSX def2-SVPD def2/J TightSCF
|  2> *xyz 0 1
|  3> C          1.96337       -1.74915       -1.89689
|  4> C          2.73849       -2.01517       -3.09711
|  5> C          4.04974       -2.15472       -3.15204
|  6> N          4.65821       -1.98629       -4.31866
|  7> N          4.76423       -2.45444       -2.05049
|  8> H          4.28736       -2.77626       -1.21750
|  9> H          5.75082       -2.65835       -2.12599
| 10> H          2.34518       -1.69027       -3.97145
| 11> H          4.10900       -1.59268       -5.07176
| 12> H          5.64910       -2.15646       -4.42724
| 13> C          2.08852       -0.30091       -1.41520
| 14> H          2.23127       -2.45162       -1.10264
| 15> H          0.93025       -1.97780       -2.15544
| 16> C          1.96899        0.73358       -2.53565
| 17> H          3.05136       -0.16860       -0.91187
| 18> H          1.31650       -0.13623       -0.65725
| 19> H          2.73046        0.55745       -3.26643
| 20> H          2.08619        1.71595       -2.12808
| 21> H          1.00672        0.65098       -2.99620
| 22> *
| 23> %MaxCore 64000
| 24>
| 25> %pal nprocs 8
| 26> end
| 27>
| 28> %scf
| 29>   MaxIter 150
| 30> end
| 31>
| 32>
| 33>                          ****END OF INPUT****

CARTESIAN COORDINATES (ANGSTROEM)
---------------------------------
  C      1.963370   -1.749150   -1.896890
  C      2.738490   -2.015170   -3.097110
  C      4.049740   -2.154720   -3.152040
  N      4.658210   -1.986290   -4.318660
  N      4.764230   -2.454440   -2.050490
  H      4.287360   -2.776260   -1.217500
  H      5.750820   -2.658350   -2.125990
  H      2.345180   -1.690270   -3.971450
  H      4.109000   -1.592680   -5.071760
  H      5.649100   -2.156460   -4.427240
  C      2.088520   -0.300910   -1.415200
  H      2.231270   -2.451620   -1.102640
  H      0.930250   -1.977800   -2.155440
  C      1.968990    0.733580   -2.535650
  H      3.051360   -0.168600   -0.911870
  H      1.316500   -0.136230   -0.657250
  H      2.730460    0.557450   -3.266430
  H      2.086190    1.715950   -2.128080
  H      1.006720    0.650980   -2.996200

 Total Charge           Charge          ....    0
 Multiplicity           Mult            ....    1
 Number of Electrons    NEL             ....   56
 Basis Dimension        Dim             ....  236

ORBITAL ENERGIES
----------------

  NO   OCC          E(Eh)            E(eV)
   0   2.0000     -14.190827      -386.1520
   1   2.0000     -14.188722      -386.0948
   2   2.0000     -10.131271      -275.6859
   3   2.0000     -10.060866      -273.7701
   4   2.0000     -10.058025      -273.6928
   5   2.0000     -10.051588      -273.5176
   6   2.0000     -10.006262      -272.2842
   7   2.0000      -1.055425       -28.7196
   8   2.0000      -0.964791       -26.2533
   9   2.0000      -0.890165       -24.2226
  10   2.0000      -0.821404       -22.3515
  11   2.0000      -0.762804       -20.7570
  12   2.0000      -0.701738       -19.0953
  13   2.0000      -0.673579       -18.3290
  14   2.0000      -0.649554       -17.6753
  15   2.0000      -0.607787       -16.5387
  16   2.0000      -0.575914       -15.6714
  17   2.0000      -0.552369       -15.0307
  18   2.0000      -0.541713       -14.7408
  19   2.0000      -0.510263       -13.8850
  20   2.0000      -0.495420       -13.4811
  21   2.0000      -0.475972       -12.9518
  22   2.0000      -0.456738       -12.4285
  23   2.0000      -0.429714       -11.6931
  24   2.0000      -0.410287       -11.1645
  25   2.0000      -0.404597       -11.0096
  26   2.0000      -0.366800        -9.9811
  27   2.0000      -0.254404        -6.9227
  28   0.0000       0.068239         1.8569
  29   0.0000       0.093851         2.5538
  30   0.0000       0.094798         2.5796
  31   0.0000       0.112315         3.0562
  32   0.0000       0.124822         3.3966

MULLIKEN ATOMIC CHARGES
-----------------------
   0 C :    0.410062
   1 C :   -0.270180
   2 C :    0.539568
   3 N :    0.160255
   4 N :    0.142827
   5 H :   -0.051325
   6 H :   -0.301966
   7 H :   -0.200613
   8 H :    0.007734
   9 H :   -0.253584
  10 C :   -0.107689
  11 H :   -0.182133
  12 H :   -0.133202
  13 C :    1.014322
  14 H :   -0.117651
  15 H :   -0.154102
  16 H :   -0.261525
  17 H :   -0.151543
  18 H :   -0.089254
Sum of atomic charges:   -0.0000000

LOEWDIN ATOMIC CHARGES
----------------------
   0 C :   -0.073715
   1 C :   -0.057100
   2 C :   -0.238716
   3 N :    0.193308
   4 N :    0.213858
   5 H :   -0.008906
   6 H :   -0.012531
   7 H :   -0.045889
   8 H :    0.005640
   9 H :   -0.007251
  10 C :   -0.081852
  11 H :    0.008071
  12 H :    0.020000
  13 C :    0.107901
  14 H :    0.017696
  15 H :    0.017763
  16 H :   -0.027733
  17 H :   -0.018585
  18 H :   -0.011961

  Mayer bond orders larger than 0.100000
B(  0-C ,  1-C ) :   1.2355 B(  0-C ,  7-H ) :   0.3670 B(  0-C , 10-C ) :   1.1492
B(  0-C , 11-H ) :   0.7779 B(  0-C , 12-H ) :   0.6502 B(  0-C , 14-H ) :   0.1084
B(  0-C , 15-H ) :   0.1751 B(  1-C ,  2-C ) :   1.7939 B(  1-C ,  3-N ) :   0.3069
B(  1-C ,  4-N ) :   0.2752 B(  1-C ,  7-H ) :   0.5983 B(  1-C , 11-H ) :   0.2754
B(  1-C , 12-H ) :   0.3412 B(  2-C ,  3-N ) :   0.9523 B(  2-C ,  4-N ) :   1.0122
B(  2-C ,  6-H ) :  -0.1965 B(  2-C ,  7-H ) :   0.3583 B(  2-C ,  9-H ) :  -0.1350
B(  2-C , 11-H ) :  -0.1252 B(  3-N ,  4-N ) :   0.1015 B(  3-N ,  8-H ) :   1.1171
B(  3-N ,  9-H ) :   1.3088 B(  4-N ,  5-H ) :   1.0649 B(  4-N ,  6-H ) :   1.3567
B(  5-H ,  6-H ) :  -0.2235 B(  8-H ,  9-H ) :  -0.1945 B( 10-C , 12-H ) :   0.1186
B( 10-C , 13-C ) :   1.2772 B( 10-C , 14-H ) :   0.9183 B( 10-C , 15-H ) :   0.8278
B( 10-C , 16-H ) :   0.2790 B( 10-C , 17-H ) :   0.2617 B( 10-C , 18-H ) :   0.2487
B( 13-C , 16-H ) :   0.7323 B( 13-C , 17-H ) :   0.6905 B( 13-C , 18-H ) :   0.6880
B( 16-H , 18-H ) :   0.1174

FINAL SINGLE POINT ENERGY      -306.181303497012

DIPOLE MOMENT
-------------
                                X             Y             Z
Electronic contribution:      3.81250      -4.06246      -1.71690
Nuclear contribution   :     -2.83106       3.92601       1.57906
                        -----------------------------------------
Total Dipole Moment    :      0.98144      -0.13645      -0.13784
                        -----------------------------------------
Magnitude (a.u.)       :      1.00042
Magnitude (Debye)      :      2.54287

Rotational constants in cm-1:     0.142679     0.055043     0.048600
Rotational constants in MHz :  4277.395781  1650.135877  1456.977167

                             ****ORCA TERMINATED NORMALLY****
TOTAL RUN TIME: 0 days 0 hours 0 minutes 20 seconds 651 msec
