                         Program Version 5.0.0 -  RELEASE  -
|  1> !LC-BLYP RIJCOSX def2-SVPD def2/J TightSCF
|  2> *xyz 0 1
|  3> C          0.61188        1.65763       -4.50029
|  4> C          1.69499        1.54179       -5.57045
|  5> H          2.69733        1.73466       -5.18400
|  6> H          1.50666        2.27224       -6.35808
|  7> S          1.78029       -0.03313       -6.42874
|  8> O          2.56929        0.21366       -7.60736
|  9> F          0.41688       -0.46297       -6.61859
| 10> C          0.68036        0.65542       -3.34804
| 11> H         -0.35687        1.54923       -4.99113
| 12> H          0.65023        2.67544       -4.09600
| 13> O          2.50513       -0.93326       -5.48257
| 14> H          0.64318       -0.34009       -3.73853
| 15> H         -0.14865        0.81153       -2.68980
| 16> H          1.59447        0.79330       -2.80925
| 17> *
| 18> %MaxCore 64000
| 19>
| 20> %pal nprocs 8
| 21> end
| 22>
| 23> %scf
| 24>   MaxIter 150
| 25> end
| 26>
| 27>
| 28>                          ****END OF INPUT****

CARTESIAN COORDINATES (ANGSTROEM)
---------------------------------
  C      0.611880    1.657630   -4.500290
  C      1.694990    1.541790   -5.570450
  H      2.697330    1.734660   -5.184000
  H      1.506660    2.272240   -6.358080
  S      1.780290   -0.033130   -6.428740
  O      2.569290    0.213660   -7.607360
  F      0.416880   -0.462970   -6.618590
  C      0.680360    0.655420   -3.348040
  H     -0.356870    1.549230   -4.991130
  H      0.650230    2.675440   -4.096000
  O      2.505130   -0.933260   -5.482570
  H      0.643180   -0.340090   -3.738530
  H     -0.148650    0.811530   -2.689800
  H      1.594470    0.793300   -2.809250

 Total Charge           Charge          ....    0
 Multiplicity           Mult            ....    1
 Number of Electrons    NEL             ....   66
 Basis Dimension        Dim             ....  212

ORBITAL ENERGIES
----------------

  NO   OCC          E(Eh)            E(eV)
   0   2.0000     -88.566795     -2410.0250
   1   2.0000     -24.597550      -669.3334
   2   2.0000     -18.974302      -516.3170
   3   2.0000     -18.954818      -515.7868
   4   2.0000     -10.149537      -276.1829
   5   2.0000     -10.120962      -275.4054
   6   2.0000     -10.086098      -274.4567
   7   2.0000      -8.116594      -220.8638
   8   2.0000      -6.155606      -167.5025
   9   2.0000      -6.148474      -167.3085
  10   2.0000      -6.146984      -167.2679
  11   2.0000      -1.462916       -39.8080
  12   2.0000      -1.206714       -32.8364
  13   2.0000      -1.094026       -29.7700
  14   2.0000      -0.945380       -25.7251
  15   2.0000      -0.863217       -23.4893
  16   2.0000      -0.820122       -22.3166
  17   2.0000      -0.748214       -20.3599
  18   2.0000      -0.704631       -19.1740
  19   2.0000      -0.695968       -18.9383
  20   2.0000      -0.648804       -17.6548
  21   2.0000      -0.602956       -16.4073
  22   2.0000      -0.592658       -16.1270
  23   2.0000      -0.569523       -15.4975
  24   2.0000      -0.548604       -14.9283
  25   2.0000      -0.538816       -14.6619
  26   2.0000      -0.495324       -13.4785
  27   2.0000      -0.487413       -13.2632
  28   2.0000      -0.482073       -13.1179
  29   2.0000      -0.462883       -12.5957
  30   2.0000      -0.432932       -11.7807
  31   2.0000      -0.417246       -11.3538
  32   2.0000      -0.402733       -10.9589
  33   0.0000       0.043434         1.1819
  34   0.0000       0.071890         1.9562
  35   0.0000       0.078258         2.1295
  36   0.0000       0.079107         2.1526
  37   0.0000       0.102352         2.7851

MULLIKEN ATOMIC CHARGES
-----------------------
   0 C :   -0.065730
   1 C :    0.180349
   2 H :   -0.065513
   3 H :   -0.069073
   4 S :    1.217120
   5 O :   -0.561699
   6 F :   -0.348572
   7 C :    1.095307
   8 H :   -0.090777
   9 H :   -0.218248
  10 O :   -0.616444
  11 H :   -0.211564
  12 H :   -0.148453
  13 H :   -0.096702
Sum of atomic charges:    0.0000000

LOEWDIN ATOMIC CHARGES
----------------------
   0 C :   -0.091347
   1 C :   -0.060958
   2 H :    0.045990
   3 H :    0.027489
   4 S :    1.062899
   5 O :   -0.440251
   6 F :   -0.233541
   7 C :    0.128282
   8 H :    0.026429
   9 H :    0.036948
  10 O :   -0.469211
  11 H :   -0.025782
  12 H :   -0.007288
  13 H :    0.000342

  Mayer bond orders larger than 0.100000
B(  0-C ,  1-C ) :   1.2415 B(  0-C ,  2-H ) :   0.1406 B(  0-C ,  3-H ) :   0.1591
B(  0-C ,  7-C ) :   1.2806 B(  0-C ,  8-H ) :   0.8463 B(  0-C ,  9-H ) :   0.8339
B(  0-C , 11-H ) :   0.2551 B(  0-C , 12-H ) :   0.2500 B(  0-C , 13-H ) :   0.2580
B(  1-C ,  2-H ) :   0.8934 B(  1-C ,  3-H ) :   0.8900 B(  1-C ,  4-S ) :   0.9800
B(  1-C ,  8-H ) :   0.1446 B(  1-C ,  9-H ) :   0.1702 B(  4-S ,  5-O ) :   1.6443
B(  4-S ,  6-F ) :   0.7425 B(  4-S , 10-O ) :   1.5208 B(  7-C , 11-H ) :   0.7189
B(  7-C , 12-H ) :   0.6766 B(  7-C , 13-H ) :   0.6825 B( 11-H , 13-H ) :   0.1191

FINAL SINGLE POINT ENERGY      -765.578854633937

DIPOLE MOMENT
-------------
                                X             Y             Z
Electronic contribution:      1.41620      -6.49165     -10.21441
Nuclear contribution   :     -2.62245       7.78551      10.86491
                        -----------------------------------------
Total Dipole Moment    :     -1.20625       1.29386       0.65050
                        -----------------------------------------
Magnitude (a.u.)       :      1.88475
Magnitude (Debye)      :      4.79064

Rotational constants in cm-1:     0.129509     0.054228     0.052367
Rotational constants in MHz :  3882.596420  1625.701900  1569.934536

                             ****ORCA TERMINATED NORMALLY****
TOTAL RUN TIME: 0 days 0 hours 0 minutes 16 seconds 808 msec
