                         Program Version 5.0.0 -  RELEASE  -
|  1> !LC-BLYP RIJCOSX def2-SVPD def2/J TightSCF
|  2> *xyz 0 1
|  3> C          1.96337       -1.74915       -1.89689
|  4> N          2.73849       -2.01517       -3.09711
|  5> C          4.04974       -2.15472       -3.15204
|  6> C          4.65821       -1.98629       -4.31866
|  7> N          4.76423       -2.45444       -2.05049
|  8> H          4.28736       -2.77626       -1.21750
|  9> H          5.75082       -2.65835       -2.12599
| 10> H          2.34518       -1.69027       -3.97145
| 11> H          4.10900       -1.59268       -5.07176
| 12> H          5.64910       -2.15646       -4.42724
| 13> C          2.08852       -0.30091       -1.41520
| 14> H          2.23127       -2.45162       -1.10264
| 15> H          0.93025       -1.97780       -2.15544
| 16> C          1.96899        0.73358       -2.53565
| 17> H          3.05136       -0.16860       -0.91187
| 18> H          1.31650       -0.13623       -0.65725
| 19> H          2.73046        0.55745       -3.26643
| 20> H          2.08619        1.71595       -2.12808
| 21> H          1.00672        0.65098       -2.99620
| 22> *
| 23> %MaxCore 64000
| 24>
| 25> %pal nprocs 8
| 26> end
| 27>
| 28> %scf
| 29>   MaxIter 150
| 30> end
| 31>
| 32>
| 33>                          ****END OF INPUT****

CARTESIAN COORDINATES (ANGSTROEM)
---------------------------------
  C      1.963370   -1.749150   -1.896890
  N      2.738490   -2.015170   -3.097110
  C      4.049740   -2.154720   -3.152040
  C      4.658210   -1.986290   -4.318660
  N      4.764230   -2.454440   -2.050490
  H      4.287360   -2.776260   -1.217500
  H      5.750820   -2.658350   -2.125990
  H      2.345180   -1.690270   -3.971450
  H      4.109000   -1.592680   -5.071760
  H      5.649100   -2.156460   -4.427240
  C      2.088520   -0.300910   -1.415200
  H      2.231270   -2.451620   -1.102640
  H      0.930250   -1.977800   -2.155440
  C      1.968990    0.733580   -2.535650
  H      3.051360   -0.168600   -0.911870
  H      1.316500   -0.136230   -0.657250
  H      2.730460    0.557450   -3.266430
  H      2.086190    1.715950   -2.128080
  H      1.006720    0.650980   -2.996200

 Total Charge           Charge          ....    0
 Multiplicity           Mult            ....    1
 Number of Electrons    NEL             ....   56
 Basis Dimension        Dim             ....  236

ORBITAL ENERGIES
----------------

  NO   OCC          E(Eh)            E(eV)
   0   2.0000     -14.188974      -386.1016
   1   2.0000     -14.186444      -386.0328
   2   2.0000     -10.132931      -275.7311
   3   2.0000     -10.122220      -275.4396
   4   2.0000     -10.083678      -274.3908
   5   2.0000     -10.070568      -274.0341
   6   2.0000      -9.998734      -272.0794
   7   2.0000      -1.064202       -28.9584
   8   2.0000      -0.978360       -26.6225
   9   2.0000      -0.890740       -24.2383
  10   2.0000      -0.829060       -22.5599
  11   2.0000      -0.773055       -21.0359
  12   2.0000      -0.715606       -19.4726
  13   2.0000      -0.690630       -18.7930
  14   2.0000      -0.639986       -17.4149
  15   2.0000      -0.601970       -16.3804
  16   2.0000      -0.583334       -15.8733
  17   2.0000      -0.566171       -15.4063
  18   2.0000      -0.548203       -14.9174
  19   2.0000      -0.506996       -13.7961
  20   2.0000      -0.499299       -13.5866
  21   2.0000      -0.491876       -13.3846
  22   2.0000      -0.472554       -12.8588
  23   2.0000      -0.452866       -12.3231
  24   2.0000      -0.448794       -12.2123
  25   2.0000      -0.434384       -11.8202
  26   2.0000      -0.353180        -9.6105
  27   2.0000      -0.258722        -7.0402
  28   0.0000       0.066510         1.8098
  29   0.0000       0.086457         2.3526
  30   0.0000       0.096456         2.6247
  31   0.0000       0.101121         2.7516
  32   0.0000       0.127238         3.4623

MULLIKEN ATOMIC CHARGES
-----------------------
   0 C :    0.879481
   1 N :   -0.184626
   2 C :    0.417503
   3 C :    0.550185
   4 N :    0.338814
   5 H :   -0.154602
   6 H :   -0.218368
   7 H :   -0.143933
   8 H :   -0.354178
   9 H :   -0.568396
  10 C :   -0.142154
  11 H :   -0.239186
  12 H :   -0.392944
  13 C :    1.031458
  14 H :   -0.072451
  15 H :   -0.237790
  16 H :   -0.240722
  17 H :   -0.184659
  18 H :   -0.083429
Sum of atomic charges:    0.0000000

LOEWDIN ATOMIC CHARGES
----------------------
   0 C :    0.027747
   1 N :   -0.002694
   2 C :   -0.258398
   3 C :    0.139826
   4 N :    0.212722
   5 H :   -0.023760
   6 H :    0.004389
   7 H :    0.029033
   8 H :   -0.098389
   9 H :   -0.096980
  10 C :   -0.075682
  11 H :    0.013982
  12 H :    0.025375
  13 C :    0.112915
  14 H :    0.019315
  15 H :    0.021202
  16 H :   -0.024151
  17 H :   -0.013652
  18 H :   -0.012800

  Mayer bond orders larger than 0.100000
B(  0-C ,  1-N ) :   0.9892 B(  0-C ,  7-H ) :  -0.1533 B(  0-C , 10-C ) :   1.0559
B(  0-C , 11-H ) :   0.8480 B(  0-C , 12-H ) :   0.6345 B(  0-C , 15-H ) :   0.1292
B(  1-N ,  2-C ) :   1.1490 B(  1-N ,  3-C ) :   0.3161 B(  1-N ,  4-N ) :   0.1318
B(  1-N ,  7-H ) :   1.1157 B(  1-N , 11-H ) :   0.1431 B(  1-N , 12-H ) :   0.2977
B(  2-C ,  3-C ) :   1.2363 B(  2-C ,  4-N ) :   1.0935 B(  2-C ,  6-H ) :  -0.1169
B(  2-C ,  7-H ) :  -0.1368 B(  2-C ,  9-H ) :   0.1725 B(  3-C ,  4-N ) :   0.2149
B(  3-C ,  8-H ) :   0.8302 B(  3-C ,  9-H ) :   0.6576 B(  4-N ,  5-H ) :   1.0371
B(  4-N ,  6-H ) :   1.2446 B(  4-N , 11-H ) :   0.1037 B(  5-H ,  6-H ) :  -0.2218
B( 10-C , 11-H ) :   0.1135 B( 10-C , 12-H ) :   0.1558 B( 10-C , 13-C ) :   1.2929
B( 10-C , 14-H ) :   0.8964 B( 10-C , 15-H ) :   0.9326 B( 10-C , 16-H ) :   0.2385
B( 10-C , 17-H ) :   0.2504 B( 10-C , 18-H ) :   0.2373 B( 11-H , 12-H ) :  -0.1495
B( 13-C , 16-H ) :   0.7535 B( 13-C , 17-H ) :   0.7064 B( 13-C , 18-H ) :   0.6908
B( 16-H , 18-H ) :   0.1234

FINAL SINGLE POINT ENERGY      -306.176816760348

DIPOLE MOMENT
-------------
                                X             Y             Z
Electronic contribution:      1.93441      -3.92073      -0.41815
Nuclear contribution   :     -2.41054       3.93233       1.31148
                        -----------------------------------------
Total Dipole Moment    :     -0.47613       0.01160       0.89333
                        -----------------------------------------
Magnitude (a.u.)       :      1.01236
Magnitude (Debye)      :      2.57322

Rotational constants in cm-1:     0.144008     0.056232     0.050126
Rotational constants in MHz :  4317.255215  1685.791221  1502.728769

                             ****ORCA TERMINATED NORMALLY****
TOTAL RUN TIME: 0 days 0 hours 0 minutes 21 seconds 763 msec
