                         Program Version 5.0.0 -  RELEASE  -
|  1> !LC-BLYP RIJCOSX def2-SVPD def2/J TightSCF
|  2> *xyz 0 1
|  3> C          0.61188        1.65763       -4.50029
|  4> C          1.69499        1.54179       -5.57045
|  5> H          2.69733        1.73466       -5.18400
|  6> H          1.50666        2.27224       -6.35808
|  7> S          1.78029       -0.03313       -6.42874
|  8> O          2.56929        0.21366       -7.60736
|  9> O          0.41688       -0.46297       -6.61859
| 10> C          0.68036        0.65542       -3.34804
| 11> H         -0.35687        1.54923       -4.99113
| 12> H          0.65023        2.67544       -4.09600
| 13> F          2.50513       -0.93326       -5.48257
| 14> H          0.64318       -0.34009       -3.73853
| 15> H         -0.14865        0.81153       -2.68980
| 16> H          1.59447        0.79330       -2.80925
| 17> *
| 18> %MaxCore 64000
| 19>
| 20> %pal nprocs 8
| 21> end
| 22>
| 23> %scf
| 24>   MaxIter 150
| 25> end
| 26>
| 27>
| 28>                          ****END OF INPUT****

CARTESIAN COORDINATES (ANGSTROEM)
---------------------------------
  C      0.611880    1.657630   -4.500290
  C      1.694990    1.541790   -5.570450
  H      2.697330    1.734660   -5.184000
  H      1.506660    2.272240   -6.358080
  S      1.780290   -0.033130   -6.428740
  O      2.569290    0.213660   -7.607360
  O      0.416880   -0.462970   -6.618590
  C      0.680360    0.655420   -3.348040
  H     -0.356870    1.549230   -4.991130
  H      0.650230    2.675440   -4.096000
  F      2.505130   -0.933260   -5.482570
  H      0.643180   -0.340090   -3.738530
  H     -0.148650    0.811530   -2.689800
  H      1.594470    0.793300   -2.809250

 Total Charge           Charge          ....    0
 Multiplicity           Mult            ....    1
 Number of Electrons    NEL             ....   66
 Basis Dimension        Dim             ....  212

ORBITAL ENERGIES
----------------

  NO   OCC          E(Eh)            E(eV)
   0   2.0000     -88.564585     -2409.9649
   1   2.0000     -24.569774      -668.5776
   2   2.0000     -18.974659      -516.3267
   3   2.0000     -18.973755      -516.3021
   4   2.0000     -10.148517      -276.1552
   5   2.0000     -10.116299      -275.2785
   6   2.0000     -10.090405      -274.5739
   7   2.0000      -8.114179      -220.7980
   8   2.0000      -6.152860      -167.4278
   9   2.0000      -6.146397      -167.2520
  10   2.0000      -6.144860      -167.2101
  11   2.0000      -1.419483       -38.6261
  12   2.0000      -1.216915       -33.1139
  13   2.0000      -1.121674       -30.5223
  14   2.0000      -0.942942       -25.6588
  15   2.0000      -0.859803       -23.3964
  16   2.0000      -0.803148       -21.8548
  17   2.0000      -0.744677       -20.2637
  18   2.0000      -0.676810       -18.4169
  19   2.0000      -0.665528       -18.1099
  20   2.0000      -0.655065       -17.8252
  21   2.0000      -0.606377       -16.5004
  22   2.0000      -0.588221       -16.0063
  23   2.0000      -0.566213       -15.4074
  24   2.0000      -0.557176       -15.1615
  25   2.0000      -0.542715       -14.7680
  26   2.0000      -0.503554       -13.7024
  27   2.0000      -0.488961       -13.3053
  28   2.0000      -0.475791       -12.9469
  29   2.0000      -0.462208       -12.5773
  30   2.0000      -0.444291       -12.0898
  31   2.0000      -0.430885       -11.7250
  32   2.0000      -0.425045       -11.5661
  33   0.0000       0.050067         1.3624
  34   0.0000       0.072589         1.9752
  35   0.0000       0.079091         2.1522
  36   0.0000       0.079470         2.1625
  37   0.0000       0.106870         2.9081

MULLIKEN ATOMIC CHARGES
-----------------------
   0 C :   -0.044215
   1 C :    0.158082
   2 H :   -0.057612
   3 H :   -0.058455
   4 S :    1.214876
   5 O :   -0.573480
   6 O :   -0.589805
   7 C :    1.065263
   8 H :   -0.063791
   9 H :   -0.212983
  10 F :   -0.360699
  11 H :   -0.226872
  12 H :   -0.145516
  13 H :   -0.104792
Sum of atomic charges:    0.0000000

LOEWDIN ATOMIC CHARGES
----------------------
   0 C :   -0.086768
   1 C :   -0.063280
   2 H :    0.032920
   3 H :    0.037944
   4 S :    1.057078
   5 O :   -0.441332
   6 O :   -0.438835
   7 C :    0.127377
   8 H :    0.032174
   9 H :    0.036918
  10 F :   -0.260791
  11 H :   -0.023076
  12 H :   -0.004849
  13 H :   -0.005481

  Mayer bond orders larger than 0.100000
B(  0-C ,  1-C ) :   1.2813 B(  0-C ,  2-H ) :   0.1442 B(  0-C ,  3-H ) :   0.1514
B(  0-C ,  7-C ) :   1.2736 B(  0-C ,  8-H ) :   0.8547 B(  0-C ,  9-H ) :   0.8227
B(  0-C , 11-H ) :   0.2459 B(  0-C , 12-H ) :   0.2470 B(  0-C , 13-H ) :   0.2506
B(  1-C ,  2-H ) :   0.8959 B(  1-C ,  3-H ) :   0.8680 B(  1-C ,  4-S ) :   0.9775
B(  1-C ,  8-H ) :   0.1565 B(  1-C ,  9-H ) :   0.1733 B(  4-S ,  5-O ) :   1.6409
B(  4-S ,  6-O ) :   1.5729 B(  4-S , 10-F ) :   0.6756 B(  7-C , 11-H ) :   0.7261
B(  7-C , 12-H ) :   0.6864 B(  7-C , 13-H ) :   0.6868 B( 11-H , 13-H ) :   0.1045

FINAL SINGLE POINT ENERGY      -765.603528856446

DIPOLE MOMENT
-------------
                                X             Y             Z
Electronic contribution:      4.98511      -7.31668      -8.24982
Nuclear contribution   :     -4.86824       8.29128       9.64318
                        -----------------------------------------
Total Dipole Moment    :      0.11687       0.97461       1.39337
                        -----------------------------------------
Magnitude (a.u.)       :      1.70440
Magnitude (Debye)      :      4.33225

Rotational constants in cm-1:     0.129339     0.055092     0.051542
Rotational constants in MHz :  3877.477482  1651.602611  1545.182728

                             ****ORCA TERMINATED NORMALLY****
TOTAL RUN TIME: 0 days 0 hours 0 minutes 16 seconds 594 msec
