                         Program Version 5.0.0 -  RELEASE  -
|  1> !LC-BLYP RIJCOSX def2-SVPD def2/J TightSCF
|  2> *xyz 0 1
|  3> C          1.96337       -1.74915       -1.89689
|  4> N          2.73849       -2.01517       -3.09711
|  5> C          4.04974       -2.15472       -3.15204
|  6> N          4.65821       -1.98629       -4.31866
|  7> C          4.76423       -2.45444       -2.05049
|  8> H          4.28736       -2.77626       -1.21750
|  9> H          5.75082       -2.65835       -2.12599
| 10> H          2.34518       -1.69027       -3.97145
| 11> H          4.10900       -1.59268       -5.07176
| 12> H          5.64910       -2.15646       -4.42724
| 13> C          2.08852       -0.30091       -1.41520
| 14> H          2.23127       -2.45162       -1.10264
| 15> H          0.93025       -1.97780       -2.15544
| 16> C          1.96899        0.73358       -2.53565
| 17> H          3.05136       -0.16860       -0.91187
| 18> H          1.31650       -0.13623       -0.65725
| 19> H          2.73046        0.55745       -3.26643
| 20> H          2.08619        1.71595       -2.12808
| 21> H          1.00672        0.65098       -2.99620
| 22> *
| 23> %MaxCore 64000
| 24>
| 25> %pal nprocs 8
| 26> end
| 27>
| 28> %scf
| 29>   MaxIter 150
| 30> end
| 31>
| 32>
| 33>                          ****END OF INPUT****

CARTESIAN COORDINATES (ANGSTROEM)
---------------------------------
  C      1.963370   -1.749150   -1.896890
  N      2.738490   -2.015170   -3.097110
  C      4.049740   -2.154720   -3.152040
  N      4.658210   -1.986290   -4.318660
  C      4.764230   -2.454440   -2.050490
  H      4.287360   -2.776260   -1.217500
  H      5.750820   -2.658350   -2.125990
  H      2.345180   -1.690270   -3.971450
  H      4.109000   -1.592680   -5.071760
  H      5.649100   -2.156460   -4.427240
  C      2.088520   -0.300910   -1.415200
  H      2.231270   -2.451620   -1.102640
  H      0.930250   -1.977800   -2.155440
  C      1.968990    0.733580   -2.535650
  H      3.051360   -0.168600   -0.911870
  H      1.316500   -0.136230   -0.657250
  H      2.730460    0.557450   -3.266430
  H      2.086190    1.715950   -2.128080
  H      1.006720    0.650980   -2.996200

 Total Charge           Charge          ....    0
 Multiplicity           Mult            ....    1
 Number of Electrons    NEL             ....   56
 Basis Dimension        Dim             ....  236

ORBITAL ENERGIES
----------------

  NO   OCC          E(Eh)            E(eV)
   0   2.0000     -14.191407      -386.1678
   1   2.0000     -14.190684      -386.1481
   2   2.0000     -10.134728      -275.7800
   3   2.0000     -10.115848      -275.2662
   4   2.0000     -10.077878      -274.2330
   5   2.0000     -10.070258      -274.0257
   6   2.0000      -9.998702      -272.0785
   7   2.0000      -1.069800       -29.1107
   8   2.0000      -0.983128       -26.7523
   9   2.0000      -0.880856       -23.9693
  10   2.0000      -0.813027       -22.1236
  11   2.0000      -0.797208       -21.6931
  12   2.0000      -0.713276       -19.4092
  13   2.0000      -0.656846       -17.8737
  14   2.0000      -0.653736       -17.7891
  15   2.0000      -0.628219       -17.0947
  16   2.0000      -0.582330       -15.8460
  17   2.0000      -0.558001       -15.1840
  18   2.0000      -0.542377       -14.7588
  19   2.0000      -0.505554       -13.7568
  20   2.0000      -0.500948       -13.6315
  21   2.0000      -0.484354       -13.1799
  22   2.0000      -0.470012       -12.7897
  23   2.0000      -0.452073       -12.3015
  24   2.0000      -0.445198       -12.1144
  25   2.0000      -0.427640       -11.6367
  26   2.0000      -0.350624        -9.5410
  27   2.0000      -0.260043        -7.0761
  28   0.0000       0.063764         1.7351
  29   0.0000       0.089149         2.4259
  30   0.0000       0.097921         2.6646
  31   0.0000       0.102803         2.7974
  32   0.0000       0.123655         3.3648

MULLIKEN ATOMIC CHARGES
-----------------------
   0 C :    0.831010
   1 N :   -0.203986
   2 C :    0.465816
   3 N :    0.236936
   4 C :    0.570469
   5 H :   -0.172537
   6 H :   -0.738553
   7 H :   -0.235849
   8 H :   -0.129700
   9 H :   -0.167701
  10 C :   -0.098985
  11 H :   -0.109475
  12 H :   -0.420184
  13 C :    1.025580
  14 H :   -0.133044
  15 H :   -0.207072
  16 H :   -0.250470
  17 H :   -0.181689
  18 H :   -0.080567
Sum of atomic charges:    0.0000000

LOEWDIN ATOMIC CHARGES
----------------------
   0 C :    0.036558
   1 N :   -0.005674
   2 C :   -0.260560
   3 N :    0.198823
   4 C :    0.155083
   5 H :   -0.110112
   6 H :   -0.103233
   7 H :    0.016770
   8 H :   -0.009615
   9 H :    0.011113
  10 C :   -0.069406
  11 H :    0.021827
  12 H :    0.024987
  13 C :    0.108230
  14 H :    0.019826
  15 H :    0.023285
  16 H :   -0.029271
  17 H :   -0.014083
  18 H :   -0.014548

  Mayer bond orders larger than 0.100000
B(  0-C ,  1-N ) :   0.9997 B(  0-C ,  4-C ) :   0.1107 B(  0-C ,  7-H ) :  -0.1435
B(  0-C , 10-C ) :   1.0288 B(  0-C , 11-H ) :   0.8574 B(  0-C , 12-H ) :   0.7077
B(  0-C , 14-H ) :   0.1230 B(  0-C , 15-H ) :   0.1250 B(  1-N ,  2-C ) :   1.0287
B(  1-N ,  3-N ) :   0.2006 B(  1-N ,  4-C ) :   0.4011 B(  1-N ,  7-H ) :   1.1852
B(  1-N , 12-H ) :   0.2346 B(  2-C ,  3-N ) :   0.9529 B(  2-C ,  4-C ) :   1.5524
B(  2-C ,  5-H ) :   0.2897 B(  2-C ,  6-H ) :   0.1390 B(  2-C ,  7-H ) :  -0.2017
B(  2-C ,  9-H ) :  -0.1170 B(  2-C , 11-H ) :  -0.1001 B(  2-C , 12-H ) :   0.1115
B(  3-N ,  4-C ) :   0.2241 B(  3-N ,  8-H ) :   1.1310 B(  3-N ,  9-H ) :   1.2711
B(  4-C ,  5-H ) :   0.5606 B(  4-C ,  6-H ) :   0.7792 B(  5-H , 11-H ) :   0.1423
B(  5-H , 12-H ) :  -0.1178 B(  8-H ,  9-H ) :  -0.1823 B( 10-C , 12-H ) :   0.1533
B( 10-C , 13-C ) :   1.2804 B( 10-C , 14-H ) :   0.9160 B( 10-C , 15-H ) :   0.9056
B( 10-C , 16-H ) :   0.2490 B( 10-C , 17-H ) :   0.2494 B( 10-C , 18-H ) :   0.2411
B( 11-H , 12-H ) :  -0.2014 B( 13-C , 16-H ) :   0.7498 B( 13-C , 17-H ) :   0.7071
B( 13-C , 18-H ) :   0.6864 B( 16-H , 18-H ) :   0.1192

FINAL SINGLE POINT ENERGY      -306.175949056206

DIPOLE MOMENT
-------------
                                X             Y             Z
Electronic contribution:      1.86570      -3.41271      -2.60932
Nuclear contribution   :     -2.38731       3.82978       1.80833
                        -----------------------------------------
Total Dipole Moment    :     -0.52161       0.41708      -0.80099
                        -----------------------------------------
Magnitude (a.u.)       :      1.04289
Magnitude (Debye)      :      2.65081

Rotational constants in cm-1:     0.144922     0.055791     0.049560
Rotational constants in MHz :  4344.653038  1672.561873  1485.775629

                             ****ORCA TERMINATED NORMALLY****
TOTAL RUN TIME: 0 days 0 hours 0 minutes 20 seconds 267 msec
