                         Program Version 5.0.0 -  RELEASE  -
|  1> !LC-BLYP RIJCOSX def2-SVPD def2/J TightSCF xyzfile
|  2>
|  3> *xyzfile 0 1 D5.xyz
|  4>
|  5> %MaxCore 64000
|  6>
|  7> %pal nprocs 4
|  8> end
|  9>
| 10> %scf
| 11>   MaxIter 150
| 12> end
| 13>
| 14>
| 15>                          ****END OF INPUT****

CARTESIAN COORDINATES (ANGSTROEM)
---------------------------------
  C      1.963365   -1.749150   -1.896887
  N      2.738490   -2.015170   -3.097113
  C      0.611877    1.657634   -4.500288
  C      1.694991    1.541794   -5.570447
  H      2.697326    1.734659   -5.183996
  H      1.506656    2.272239   -6.358076
  S      1.780287   -0.033128   -6.428739
  C      4.049736   -2.154717   -3.152044
  C      4.658206   -1.986293   -4.318655
  N      4.764231   -2.454435   -2.050491
  H      4.287363   -2.776259   -1.217496
  H      5.750825   -2.658351   -2.125988
  H      2.345176   -1.690274   -3.971447
  H      4.109004   -1.592677   -5.071760
  H      5.649095   -2.156462   -4.427237
  O      2.569287    0.213657   -7.607360
  F      0.416880   -0.462969   -6.618595
  C      2.088520   -0.300912   -1.415204
  H      2.231272   -2.451616   -1.102643
  H      0.930249   -1.977801   -2.155438
  C      0.680356    0.655418   -3.348038
  H     -0.356865    1.549231   -4.991128
  H      0.650228    2.675438   -4.096000
  C      1.968993    0.733582   -2.535654
  H      3.051356   -0.168602   -0.911868
  H      1.316501   -0.136231   -0.657252
  O      2.505129   -0.933263   -5.482570
  H      2.824195    0.624726   -3.208464
  H      2.058919    1.730331   -2.093112
  H      0.542252   -0.344731   -3.766662
  H     -0.174219    0.829692   -2.685182

 Total Charge           Charge          ....    0
 Multiplicity           Mult            ....    1
 Number of Electrons    NEL             ....  120
 Basis Dimension        Dim             ....  432

ORBITAL ENERGIES
----------------

  NO   OCC          E(Eh)            E(eV)
   0   2.0000     -88.580201     -2410.3898
   1   2.0000     -24.607195      -669.5958
   2   2.0000     -18.984433      -516.5927
   3   2.0000     -18.970270      -516.2073
   4   2.0000     -14.169957      -385.5841
   5   2.0000     -14.153700      -385.1418
   6   2.0000     -10.155776      -276.3527
   7   2.0000     -10.124494      -275.5015
   8   2.0000     -10.110153      -275.1112
   9   2.0000     -10.107625      -275.0425
  10   2.0000     -10.101739      -274.8823
  11   2.0000     -10.087602      -274.4976
  12   2.0000     -10.080763      -274.3115
  13   2.0000      -9.966767      -271.2095
  14   2.0000      -8.128681      -221.1926
  15   2.0000      -6.167733      -167.8325
  16   2.0000      -6.160753      -167.6426
  17   2.0000      -6.159064      -167.5967
  18   2.0000      -1.472293       -40.0631
  19   2.0000      -1.219039       -33.1718
  20   2.0000      -1.112085       -30.2614
  21   2.0000      -1.041074       -28.3291
  22   2.0000      -0.961606       -26.1666
  23   2.0000      -0.955507       -26.0007
  24   2.0000      -0.901829       -24.5400
  25   2.0000      -0.865447       -23.5500
  26   2.0000      -0.831322       -22.6214
  27   2.0000      -0.807166       -21.9641
  28   2.0000      -0.766452       -20.8562
  29   2.0000      -0.738761       -20.1027
  30   2.0000      -0.713895       -19.4261
  31   2.0000      -0.711697       -19.3663
  32   2.0000      -0.696808       -18.9611
  33   2.0000      -0.676027       -18.3956
  34   2.0000      -0.653632       -17.7862
  35   2.0000      -0.624835       -17.0026
  36   2.0000      -0.614182       -16.7128
  37   2.0000      -0.603652       -16.4262
  38   2.0000      -0.588199       -16.0057
  39   2.0000      -0.581895       -15.8342
  40   2.0000      -0.573749       -15.6125
  41   2.0000      -0.563270       -15.3274
  42   2.0000      -0.551827       -15.0160
  43   2.0000      -0.537324       -14.6213
  44   2.0000      -0.529359       -14.4046
  45   2.0000      -0.504194       -13.7198
  46   2.0000      -0.500313       -13.6142
  47   2.0000      -0.490469       -13.3463
  48   2.0000      -0.479734       -13.0542
  49   2.0000      -0.469658       -12.7800
  50   2.0000      -0.462423       -12.5832
  51   2.0000      -0.452560       -12.3148
  52   2.0000      -0.441108       -12.0032
  53   2.0000      -0.433362       -11.7924
  54   2.0000      -0.430787       -11.7223
  55   2.0000      -0.424504       -11.5514
  56   2.0000      -0.417839       -11.3700
  57   2.0000      -0.408413       -11.1135
  58   2.0000      -0.331914        -9.0318
  59   2.0000      -0.233725        -6.3600
  60   0.0000       0.039863         1.0847
  61   0.0000       0.063966         1.7406
  62   0.0000       0.070098         1.9075
  63   0.0000       0.075013         2.0412
  64   0.0000       0.087208         2.3730

MULLIKEN ATOMIC CHARGES
-----------------------
   0 C :    1.096035
   1 N :    0.325630
   2 C :    0.645333
   3 C :    0.294734
   4 H :   -0.001475
   5 H :   -0.179311
   6 S :    1.292021
   7 C :    0.477822
   8 C :    0.876699
   9 N :    0.404225
  10 H :   -0.106310
  11 H :   -0.233682
  12 H :   -0.797618
  13 H :   -0.498434
  14 H :   -0.783819
  15 O :   -0.537801
  16 F :   -0.400969
  17 C :    0.626345
  18 H :   -0.545484
  19 H :   -0.249905
  20 C :    0.247668
  21 H :   -0.111848
  22 H :   -0.115987
  23 C :    0.210553
  24 H :   -0.113170
  25 H :   -0.181229
  26 O :   -0.722779
  27 H :   -0.023491
  28 H :   -0.434038
  29 H :   -0.185435
  30 H :   -0.274281
Sum of atomic charges:   -0.0000000

LOEWDIN ATOMIC CHARGES
----------------------
   0 C :    0.039797
   1 N :    0.021825
   2 C :   -0.043325
   3 C :   -0.043853
   4 H :    0.042150
   5 H :    0.030020
   6 S :    1.136139
   7 C :   -0.238447
   8 C :    0.164042
   9 N :    0.206386
  10 H :   -0.029095
  11 H :    0.000049
  12 H :   -0.084684
  13 H :   -0.161110
  14 H :   -0.095715
  15 O :   -0.415711
  16 F :   -0.223367
  17 C :   -0.025135
  18 H :    0.011237
  19 H :    0.019439
  20 C :   -0.037704
  21 H :    0.029967
  22 H :    0.043120
  23 C :   -0.033659
  24 H :    0.023839
  25 H :    0.023416
  26 O :   -0.454422
  27 H :    0.016213
  28 H :    0.031755
  29 H :    0.006629
  30 H :    0.040205

  Mayer bond orders larger than 0.100000
B(  0-C ,  1-N ) :   0.9878 B(  0-C , 12-H ) :  -0.4002 B(  0-C , 17-C ) :   1.0322
B(  0-C , 18-H ) :   0.7820 B(  0-C , 19-H ) :   0.5623 B(  0-C , 23-C ) :   0.1783
B(  0-C , 25-H ) :   0.1265 B(  1-N ,  7-C ) :   1.0928 B(  1-N ,  8-C ) :   0.2324
B(  1-N ,  9-N ) :   0.2176 B(  1-N , 12-H ) :   1.0414 B(  1-N , 19-H ) :   0.1422
B(  2-C ,  3-C ) :   1.2234 B(  2-C ,  4-H ) :   0.1037 B(  2-C ,  5-H ) :   0.1940
B(  2-C , 20-C ) :   1.2298 B(  2-C , 21-H ) :   0.5606 B(  2-C , 22-H ) :   0.7292
B(  3-C ,  4-H ) :   0.8753 B(  3-C ,  5-H ) :   0.8023 B(  3-C ,  6-S ) :   1.0141
B(  3-C , 21-H ) :   0.1222 B(  3-C , 22-H ) :   0.1691 B(  6-S , 15-O ) :   1.6786
B(  6-S , 16-F ) :   0.6574 B(  6-S , 26-O ) :   1.4544 B(  7-C ,  8-C ) :   1.3256
B(  7-C ,  9-N ) :   1.0322 B(  7-C , 11-H ) :  -0.1290 B(  7-C , 12-H ) :  -0.4100
B(  7-C , 13-H ) :   0.1140 B(  7-C , 14-H ) :   0.2616 B(  8-C ,  9-N ) :   0.2797
B(  8-C , 13-H ) :   0.5426 B(  8-C , 14-H ) :   0.5046 B(  9-N , 10-H ) :   0.9486
B(  9-N , 11-H ) :   1.2464 B(  9-N , 18-H ) :   0.1122 B( 10-H , 11-H ) :  -0.2257
B( 12-H , 13-H ) :  -0.1072 B( 12-H , 19-H ) :   0.2171 B( 12-H , 24-H ) :   0.1462
B( 12-H , 26-O ) :   0.2125 B( 12-H , 27-H ) :   0.1071 B( 12-H , 28-H ) :  -0.1168
B( 13-H , 14-H ) :  -0.2372 B( 13-H , 26-O ) :   0.3087 B( 16-F , 26-O ) :   0.1296
B( 17-C , 18-H ) :   0.1528 B( 17-C , 19-H ) :   0.1113 B( 17-C , 23-C ) :   1.2341
B( 17-C , 24-H ) :   0.6828 B( 17-C , 25-H ) :   0.8223 B( 18-H , 19-H ) :  -0.1956
B( 19-H , 23-C ) :  -0.1159 B( 20-C , 21-H ) :   0.3378 B( 20-C , 23-C ) :   1.1596
B( 20-C , 27-H ) :   0.1397 B( 20-C , 28-H ) :   0.1344 B( 20-C , 29-H ) :   0.9003
B( 20-C , 30-H ) :   0.7823 B( 21-H , 22-H ) :  -0.1389 B( 23-C , 24-H ) :   0.2647
B( 23-C , 25-H ) :   0.1222 B( 23-C , 27-H ) :   0.8461 B( 23-C , 28-H ) :   0.8420
B( 23-C , 29-H ) :   0.1279 B( 23-C , 30-H ) :   0.1456 B( 24-H , 25-H ) :  -0.1231

FINAL SINGLE POINT ENERGY     -1070.585524587733

DIPOLE MOMENT
-------------
                                X             Y             Z
Electronic contribution:     -4.64986      -1.91828     -20.67703
Nuclear contribution   :      2.89225       3.36404      21.70199
                        -----------------------------------------
Total Dipole Moment    :     -1.75761       1.44576       1.02497
                        -----------------------------------------
Magnitude (a.u.)       :      2.49599
Magnitude (Debye)      :      6.34430

Rotational constants in cm-1:     0.029431     0.014408     0.011084
Rotational constants in MHz :   882.306106   431.946714   332.288152

                             ****ORCA TERMINATED NORMALLY****
TOTAL RUN TIME: 0 days 0 hours 3 minutes 12 seconds 635 msec
