                         Program Version 5.0.0 -  RELEASE  -
|  1> !BLYP D3BJ RIJCOSX def2-TZVP def2/J TightSCF
|  2> *xyz -1 1
|  3> C          3.76678       -2.26611       -6.51175
|  4> C          2.49670       -1.84416       -5.73570
|  5> H          1.62642       -2.21743       -6.30895
|  6> H          2.48182       -2.45607       -4.79341
|  7> O          2.45973       -0.50920       -5.50576
|  8> H          3.82914       -1.70941       -7.42340
|  9> H          3.71764       -3.31144       -6.73483
| 10> H          4.63199       -2.06931       -5.91377
| 11> *
| 12>
| 13> %MaxCore 64000
| 14>
| 15> %pal nprocs 4
| 16> end
| 17>
| 18> %scf
| 19>   MaxIter 150
| 20> end
| 21>
| 22>
| 23>                          ****END OF INPUT****

CARTESIAN COORDINATES (ANGSTROEM)
---------------------------------
  C      3.766780   -2.266110   -6.511750
  C      2.496700   -1.844160   -5.735700
  H      1.626420   -2.217430   -6.308950
  H      2.481820   -2.456070   -4.793410
  O      2.459730   -0.509200   -5.505760
  H      3.829140   -1.709410   -7.423400
  H      3.717640   -3.311440   -6.734830
  H      4.631990   -2.069310   -5.913770

 Total Charge           Charge          ....   -1
 Multiplicity           Mult            ....    1
 Number of Electrons    NEL             ....   26
 Basis Dimension        Dim             ....  123

ORBITAL ENERGIES
----------------

  NO   OCC          E(Eh)            E(eV)
   0   2.0000     -18.428289      -501.4593
   1   2.0000      -9.709470      -264.2081
   2   2.0000      -9.686336      -263.5786
   3   2.0000      -0.585777       -15.9398
   4   2.0000      -0.441045       -12.0014
   5   2.0000      -0.299529        -8.1506
   6   2.0000      -0.189552        -5.1580
   7   2.0000      -0.168829        -4.5941
   8   2.0000      -0.117701        -3.2028
   9   2.0000      -0.102451        -2.7878
  10   2.0000      -0.057832        -1.5737
  11   2.0000       0.083448         2.2707
  12   2.0000       0.086172         2.3448
  13   0.0000       0.198436         5.3997
  14   0.0000       0.231585         6.3017
  15   0.0000       0.255437         6.9508
  16   0.0000       0.261655         7.1200
  17   0.0000       0.292898         7.9702

MULLIKEN ATOMIC CHARGES
-----------------------
   0 C :   -0.035977
   1 C :    0.060980
   2 H :   -0.094083
   3 H :   -0.109128
   4 O :   -0.709444
   5 H :   -0.014505
   6 H :   -0.086972
   7 H :   -0.010872
Sum of atomic charges:   -1.0000000

LOEWDIN ATOMIC CHARGES
----------------------
   0 C :   -0.360761
   1 C :   -0.561628
   2 H :    0.041178
   3 H :    0.039737
   4 O :   -0.372492
   5 H :    0.076915
   6 H :    0.059351
   7 H :    0.077698

  Mayer bond orders larger than 0.100000
B(  0-C ,  1-C ) :   0.8425 B(  0-C ,  4-O ) :  -0.3692 B(  0-C ,  5-H ) :   0.9492
B(  0-C ,  6-H ) :   0.8824 B(  0-C ,  7-H ) :   0.9559 B(  1-C ,  2-H ) :   0.8978
B(  1-C ,  3-H ) :   0.8817 B(  1-C ,  4-O ) :   1.6898 B(  4-O ,  5-H ) :   0.1037
B(  4-O ,  6-H ) :   0.1547

Dispersion correction           -0.007746066
FINAL SINGLE POINT ENERGY      -154.430543674854

DIPOLE MOMENT
-------------
                                X             Y             Z
Electronic contribution:     -1.13980       2.90501       1.05263
Nuclear contribution   :      1.63615      -3.79938      -1.48621
                        -----------------------------------------
Total Dipole Moment    :      0.49636      -0.89437      -0.43358
                        -----------------------------------------
Magnitude (a.u.)       :      1.11097
Magnitude (Debye)      :      2.82386

Rotational constants in cm-1:     1.265582     0.329289     0.289024
Rotational constants in MHz : 37941.194363  9871.829581  8664.719106

                             ****ORCA TERMINATED NORMALLY****
TOTAL RUN TIME: 0 days 0 hours 0 minutes 7 seconds 448 msec
