                         Program Version 5.0.0 -  RELEASE  -
|  1> !BLYP D3BJ RIJCOSX def2-TZVP def2/J TightSCF
|  2> *xyz 1 1
|  3> C          4.99986       -1.59613       -5.92488
|  4> N          5.28156       -1.97413       -4.53576
|  5> C          3.76678       -2.26611       -6.51175
|  6> C          4.79250       -1.36132       -3.45730
|  7> N          3.93990       -0.37492       -3.55736
|  8> N          5.25986       -1.75422       -2.23913
|  9> H          5.92282       -2.52145       -2.18672
| 10> H          4.65468       -1.64040       -1.44202
| 11> H          5.70914       -2.87560       -4.38702
| 12> H          3.33010       -0.31764       -4.36125
| 13> H          3.69849        0.11447       -2.70833
| 14> H          4.84333       -0.51793       -5.94302
| 15> H          5.90170       -1.82250       -6.49647
| 16> H          3.63046       -1.94025       -7.52177
| 17> H          2.90710       -2.00116       -5.93240
| 18> H          3.89538       -3.32820       -6.49392
| 19> *
| 20>
| 21> %MaxCore 64000
| 22>
| 23> %pal nprocs 4
| 24> end
| 25>
| 26> %scf
| 27>   MaxIter 150
| 28> end
| 29>
| 30>
| 31>                          ****END OF INPUT****

CARTESIAN COORDINATES (ANGSTROEM)
---------------------------------
  C      4.999860   -1.596130   -5.924880
  N      5.281560   -1.974130   -4.535760
  C      3.766780   -2.266110   -6.511750
  C      4.792500   -1.361320   -3.457300
  N      3.939900   -0.374920   -3.557360
  N      5.259860   -1.754220   -2.239130
  H      5.922820   -2.521450   -2.186720
  H      4.654680   -1.640400   -1.442020
  H      5.709140   -2.875600   -4.387020
  H      3.330100   -0.317640   -4.361250
  H      3.698490    0.114470   -2.708330
  H      4.843330   -0.517930   -5.943020
  H      5.901700   -1.822500   -6.496470
  H      3.630460   -1.940250   -7.521770
  H      2.907100   -2.001160   -5.932400
  H      3.895380   -3.328200   -6.493920

 Total Charge           Charge          ....    1
 Multiplicity           Mult            ....    1
 Number of Electrons    NEL             ....   48
 Basis Dimension        Dim             ....  246

ORBITAL ENERGIES
----------------

  NO   OCC          E(Eh)            E(eV)
   0   2.0000     -14.230607      -387.2345
   1   2.0000     -14.226824      -387.1316
   2   2.0000     -14.221679      -386.9916
   3   2.0000     -10.228416      -278.3294
   4   2.0000     -10.109159      -275.0842
   5   2.0000     -10.043699      -273.3029
   6   2.0000      -1.120865       -30.5003
   7   2.0000      -1.020101       -27.7584
   8   2.0000      -1.005712       -27.3668
   9   2.0000      -0.855026       -23.2664
  10   2.0000      -0.775504       -21.1025
  11   2.0000      -0.738119       -20.0852
  12   2.0000      -0.728170       -19.8145
  13   2.0000      -0.680979       -18.5304
  14   2.0000      -0.642260       -17.4768
  15   2.0000      -0.639150       -17.3922
  16   2.0000      -0.590446       -16.0669
  17   2.0000      -0.574153       -15.6235
  18   2.0000      -0.556069       -15.1314
  19   2.0000      -0.512805       -13.9541
  20   2.0000      -0.488043       -13.2803
  21   2.0000      -0.470412       -12.8006
  22   2.0000      -0.434228       -11.8159
  23   2.0000      -0.409261       -11.1365
  24   0.0000      -0.203304        -5.5322
  25   0.0000      -0.173993        -4.7346
  26   0.0000      -0.144209        -3.9241
  27   0.0000      -0.131755        -3.5852
  28   0.0000      -0.117156        -3.1880

MULLIKEN ATOMIC CHARGES
-----------------------
   0 C :   -0.175053
   1 N :   -0.219605
   2 C :   -0.248808
   3 C :    0.421949
   4 N :   -0.337539
   5 N :   -0.377359
   6 H :    0.258231
   7 H :    0.257792
   8 H :    0.231108
   9 H :    0.271200
  10 H :    0.259352
  11 H :    0.141049
  12 H :    0.154997
  13 H :    0.149426
  14 H :    0.088389
  15 H :    0.124869
Sum of atomic charges:    1.0000000

LOEWDIN ATOMIC CHARGES
----------------------
   0 C :   -0.275219
   1 N :    0.180201
   2 C :   -0.278108
   3 C :   -0.415128
   4 N :    0.098427
   5 N :    0.050763
   6 H :    0.191287
   7 H :    0.186191
   8 H :    0.201575
   9 H :    0.196986
  10 H :    0.199087
  11 H :    0.141150
  12 H :    0.148008
  13 H :    0.136455
  14 H :    0.113438
  15 H :    0.124887

  Mayer bond orders larger than 0.100000
B(  0-C ,  1-N ) :   0.8756 B(  0-C ,  2-C ) :   0.9542 B(  0-C , 11-H ) :   0.9661
B(  0-C , 12-H ) :   0.9554 B(  1-N ,  3-C ) :   1.3643 B(  1-N ,  8-H ) :   0.9092
B(  2-C , 13-H ) :   0.9662 B(  2-C , 14-H ) :   0.9557 B(  2-C , 15-H ) :   0.9689
B(  3-C ,  4-N ) :   1.3365 B(  3-C ,  5-N ) :   1.2701 B(  4-N ,  9-H ) :   0.8914
B(  4-N , 10-H ) :   0.9049 B(  5-N ,  6-H ) :   0.9094 B(  5-N ,  7-H ) :   0.9020

Dispersion correction           -0.024975237
FINAL SINGLE POINT ENERGY      -284.406236608247

DIPOLE MOMENT
-------------
                                X             Y             Z
Electronic contribution:      1.76301       1.08569       4.73120
Nuclear contribution   :     -1.95709      -1.20097      -3.70214
                        -----------------------------------------
Total Dipole Moment    :     -0.19408      -0.11528       1.02906
                        -----------------------------------------
Magnitude (a.u.)       :      1.05353
Magnitude (Debye)      :      2.67785

Rotational constants in cm-1:     0.241661     0.071598     0.061743
Rotational constants in MHz :  7244.800091  2146.442409  1851.001864

                             ****ORCA TERMINATED NORMALLY****
TOTAL RUN TIME: 0 days 0 hours 0 minutes 13 seconds 212 msec
