                         Program Version 5.0.0 -  RELEASE  -
|  1> !BLYP D3BJ RIJCOSX def2-TZVP def2/J TightSCF
|  2> *xyz 0 1
|  3> C          3.76678       -2.26611       -6.51175
|  4> C          2.49670       -1.84416       -5.73570
|  5> H          1.62642       -2.21743       -6.30895
|  6> H          2.48182       -2.45607       -4.79341
|  7> F          2.45973       -0.50920       -5.50576
|  8> H          3.82914       -1.70941       -7.42340
|  9> H          3.71764       -3.31144       -6.73483
| 10> H          4.63199       -2.06931       -5.91377
| 11> *
| 12>
| 13> %MaxCore 64000
| 14>
| 15> %pal nprocs 4
| 16> end
| 17>
| 18> %scf
| 19>   MaxIter 150
| 20> end
| 21>
| 22>
| 23>                          ****END OF INPUT****

CARTESIAN COORDINATES (ANGSTROEM)
---------------------------------
  C      3.766780   -2.266110   -6.511750
  C      2.496700   -1.844160   -5.735700
  H      1.626420   -2.217430   -6.308950
  H      2.481820   -2.456070   -4.793410
  F      2.459730   -0.509200   -5.505760
  H      3.829140   -1.709410   -7.423400
  H      3.717640   -3.311440   -6.734830
  H      4.631990   -2.069310   -5.913770

 Total Charge           Charge          ....    0
 Multiplicity           Mult            ....    1
 Number of Electrons    NEL             ....   26
 Basis Dimension        Dim             ....  123

ORBITAL ENERGIES
----------------

  NO   OCC          E(Eh)            E(eV)
   0   2.0000     -24.272213      -660.4805
   1   2.0000      -9.980976      -271.5962
   2   2.0000      -9.897680      -269.3296
   3   2.0000      -1.096997       -29.8508
   4   2.0000      -0.683382       -18.5958
   5   2.0000      -0.563068       -15.3219
   6   2.0000      -0.453417       -12.3381
   7   2.0000      -0.435487       -11.8502
   8   2.0000      -0.400183       -10.8895
   9   2.0000      -0.352377        -9.5887
  10   2.0000      -0.351091        -9.5537
  11   2.0000      -0.282311        -7.6821
  12   2.0000      -0.279216        -7.5979
  13   0.0000       0.020686         0.5629
  14   0.0000       0.057850         1.5742
  15   0.0000       0.069771         1.8986
  16   0.0000       0.074383         2.0241
  17   0.0000       0.091223         2.4823

MULLIKEN ATOMIC CHARGES
-----------------------
   0 C :   -0.282914
   1 C :    0.065371
   2 H :    0.074374
   3 H :    0.069780
   4 F :   -0.221445
   5 H :    0.102220
   6 H :    0.090482
   7 H :    0.102130
Sum of atomic charges:   -0.0000000

LOEWDIN ATOMIC CHARGES
----------------------
   0 C :   -0.305007
   1 C :   -0.386343
   2 H :    0.110468
   3 H :    0.113277
   4 F :    0.125102
   5 H :    0.112911
   6 H :    0.117268
   7 H :    0.112323

  Mayer bond orders larger than 0.100000
B(  0-C ,  1-C ) :   0.9638 B(  0-C ,  5-H ) :   0.9694 B(  0-C ,  6-H ) :   0.9544
B(  0-C ,  7-H ) :   0.9710 B(  1-C ,  2-H ) :   0.9628 B(  1-C ,  3-H ) :   0.9607
B(  1-C ,  4-F ) :   1.0181

Dispersion correction           -0.007135539
FINAL SINGLE POINT ENERGY      -179.080621898401

DIPOLE MOMENT
-------------
                                X             Y             Z
Electronic contribution:     -2.08469       4.39900       1.82364
Nuclear contribution   :      2.16248      -5.01128      -1.96962
                        -----------------------------------------
Total Dipole Moment    :      0.07778      -0.61228      -0.14598
                        -----------------------------------------
Magnitude (a.u.)       :      0.63423
Magnitude (Debye)      :      1.61208

Rotational constants in cm-1:     1.244010     0.306580     0.270375
Rotational constants in MHz : 37294.476802  9191.037795  8105.639967

                             ****ORCA TERMINATED NORMALLY****
TOTAL RUN TIME: 0 days 0 hours 0 minutes 7 seconds 333 msec
