                         Program Version 5.0.0 -  RELEASE  -
|  1> !BLYP D3BJ RIJCOSX def2-TZVP def2/J TightSCF
|  2> *xyz 0 1
|  3> C          4.99986       -1.59613       -5.92488
|  4> C          5.28156       -1.97413       -4.53576
|  5> C          3.76678       -2.26611       -6.51175
|  6> C          4.79250       -1.36132       -3.45730
|  7> N          3.93990       -0.37492       -3.55736
|  8> N          5.25986       -1.75422       -2.23913
|  9> H          5.92282       -2.52145       -2.18672
| 10> H          4.65468       -1.64040       -1.44202
| 11> H          5.70914       -2.87560       -4.38702
| 12> H          3.33010       -0.31764       -4.36125
| 13> H          3.69849        0.11447       -2.70833
| 14> H          4.84333       -0.51793       -5.94302
| 15> H          5.90170       -1.82250       -6.49647
| 16> H          3.63046       -1.94025       -7.52177
| 17> H          2.90710       -2.00116       -5.93240
| 18> H          3.89538       -3.32820       -6.49392
| 19> *
| 20>
| 21> %MaxCore 64000
| 22>
| 23> %pal nprocs 4
| 24> end
| 25>
| 26> %scf
| 27>   MaxIter 150
| 28> end
| 29>
| 30>
| 31>                          ****END OF INPUT****

CARTESIAN COORDINATES (ANGSTROEM)
---------------------------------
  C      4.999860   -1.596130   -5.924880
  C      5.281560   -1.974130   -4.535760
  C      3.766780   -2.266110   -6.511750
  C      4.792500   -1.361320   -3.457300
  N      3.939900   -0.374920   -3.557360
  N      5.259860   -1.754220   -2.239130
  H      5.922820   -2.521450   -2.186720
  H      4.654680   -1.640400   -1.442020
  H      5.709140   -2.875600   -4.387020
  H      3.330100   -0.317640   -4.361250
  H      3.698490    0.114470   -2.708330
  H      4.843330   -0.517930   -5.943020
  H      5.901700   -1.822500   -6.496470
  H      3.630460   -1.940250   -7.521770
  H      2.907100   -2.001160   -5.932400
  H      3.895380   -3.328200   -6.493920

 Total Charge           Charge          ....    0
 Multiplicity           Mult            ....    1
 Number of Electrons    NEL             ....   48
 Basis Dimension        Dim             ....  246

ORBITAL ENERGIES
----------------

  NO   OCC          E(Eh)            E(eV)
   0   2.0000     -14.007401      -381.1608
   1   2.0000     -13.998554      -380.9200
   2   2.0000      -9.939262      -270.4611
   3   2.0000      -9.874736      -268.7052
   4   2.0000      -9.870223      -268.5824
   5   2.0000      -9.826190      -267.3842
   6   2.0000      -0.870624       -23.6909
   7   2.0000      -0.786470       -21.4009
   8   2.0000      -0.690695       -18.7948
   9   2.0000      -0.618812       -16.8387
  10   2.0000      -0.547904       -14.9092
  11   2.0000      -0.514516       -14.0007
  12   2.0000      -0.487264       -13.2591
  13   2.0000      -0.446139       -12.1401
  14   2.0000      -0.424992       -11.5646
  15   2.0000      -0.389550       -10.6002
  16   2.0000      -0.362961        -9.8767
  17   2.0000      -0.341618        -9.2959
  18   2.0000      -0.331622        -9.0239
  19   2.0000      -0.302755        -8.2384
  20   2.0000      -0.280085        -7.6215
  21   2.0000      -0.273561        -7.4440
  22   2.0000      -0.217241        -5.9114
  23   2.0000      -0.126073        -3.4306
  24   0.0000      -0.003762        -0.1024
  25   0.0000       0.026116         0.7107
  26   0.0000       0.041792         1.1372
  27   0.0000       0.053663         1.4603
  28   0.0000       0.065294         1.7767

MULLIKEN ATOMIC CHARGES
-----------------------
   0 C :   -0.202714
   1 C :   -0.268080
   2 C :   -0.232343
   3 C :    0.342057
   4 N :   -0.417830
   5 N :   -0.442773
   6 H :    0.213809
   7 H :    0.178184
   8 H :    0.059522
   9 H :    0.225943
  10 H :    0.190337
  11 H :    0.061424
  12 H :    0.069455
  13 H :    0.080070
  14 H :    0.062605
  15 H :    0.080334
Sum of atomic charges:   -0.0000000

LOEWDIN ATOMIC CHARGES
----------------------
   0 C :   -0.303748
   1 C :   -0.266406
   2 C :   -0.300980
   3 C :   -0.462741
   4 N :    0.017780
   5 N :   -0.028624
   6 H :    0.169630
   7 H :    0.143593
   8 H :    0.112955
   9 H :    0.174862
  10 H :    0.161738
  11 H :    0.128913
  12 H :    0.133111
  13 H :    0.105986
  14 H :    0.103677
  15 H :    0.110254

  Mayer bond orders larger than 0.100000
B(  0-C ,  1-C ) :   1.0591 B(  0-C ,  2-C ) :   0.9355 B(  0-C , 11-H ) :   0.9694
B(  0-C , 12-H ) :   0.9728 B(  1-C ,  3-C ) :   1.6220 B(  1-C ,  8-H ) :   0.9760
B(  2-C , 13-H ) :   0.9685 B(  2-C , 14-H ) :   0.9746 B(  2-C , 15-H ) :   0.9784
B(  3-C ,  4-N ) :   1.1228 B(  3-C ,  5-N ) :   1.1126 B(  4-N ,  9-H ) :   0.9209
B(  4-N , 10-H ) :   0.9311 B(  5-N ,  6-H ) :   0.9287 B(  5-N ,  7-H ) :   0.9224

Dispersion correction           -0.026108405
FINAL SINGLE POINT ENERGY      -267.911584947976

DIPOLE MOMENT
-------------
                                X             Y             Z
Electronic contribution:      1.22887       1.42062       4.58187
Nuclear contribution   :     -1.82485      -1.28952      -3.74132
                        -----------------------------------------
Total Dipole Moment    :     -0.59598       0.13110       0.84055
                        -----------------------------------------
Magnitude (a.u.)       :      1.03871
Magnitude (Debye)      :      2.64018

Rotational constants in cm-1:     0.245790     0.071632     0.062004
Rotational constants in MHz :  7368.599517  2147.482078  1858.844841

                             ****ORCA TERMINATED NORMALLY****
TOTAL RUN TIME: 0 days 0 hours 0 minutes 14 seconds 627 msec
