                         Program Version 5.0.0 -  RELEASE  -
|  1> !BLYP D3BJ RIJCOSX def2-TZVP def2/J TightSCF
|  2> *xyz 0 1
|  3> C          4.99986       -1.59613       -5.92488
|  4> N          5.28156       -1.97413       -4.53576
|  5> C          3.76678       -2.26611       -6.51175
|  6> C          4.79250       -1.36132       -3.45730
|  7> C          3.93990       -0.37492       -3.55736
|  8> N          5.25986       -1.75422       -2.23913
|  9> H          5.92282       -2.52145       -2.18672
| 10> H          4.65468       -1.64040       -1.44202
| 11> H          5.70914       -2.87560       -4.38702
| 12> H          3.33010       -0.31764       -4.36125
| 13> H          3.69849        0.11447       -2.70833
| 14> H          4.84333       -0.51793       -5.94302
| 15> H          5.90170       -1.82250       -6.49647
| 16> H          3.63046       -1.94025       -7.52177
| 17> H          2.90710       -2.00116       -5.93240
| 18> H          3.89538       -3.32820       -6.49392
| 19> *
| 20>
| 21> %MaxCore 64000
| 22>
| 23> %pal nprocs 4
| 24> end
| 25>
| 26> %scf
| 27>   MaxIter 150
| 28> end
| 29>
| 30>
| 31>                          ****END OF INPUT****

CARTESIAN COORDINATES (ANGSTROEM)
---------------------------------
  C      4.999860   -1.596130   -5.924880
  N      5.281560   -1.974130   -4.535760
  C      3.766780   -2.266110   -6.511750
  C      4.792500   -1.361320   -3.457300
  C      3.939900   -0.374920   -3.557360
  N      5.259860   -1.754220   -2.239130
  H      5.922820   -2.521450   -2.186720
  H      4.654680   -1.640400   -1.442020
  H      5.709140   -2.875600   -4.387020
  H      3.330100   -0.317640   -4.361250
  H      3.698490    0.114470   -2.708330
  H      4.843330   -0.517930   -5.943020
  H      5.901700   -1.822500   -6.496470
  H      3.630460   -1.940250   -7.521770
  H      2.907100   -2.001160   -5.932400
  H      3.895380   -3.328200   -6.493920

 Total Charge           Charge          ....    0
 Multiplicity           Mult            ....    1
 Number of Electrons    NEL             ....   48
 Basis Dimension        Dim             ....  246

ORBITAL ENERGIES
----------------

  NO   OCC          E(Eh)            E(eV)
   0   2.0000     -14.004755      -381.0888
   1   2.0000     -13.999908      -380.9569
   2   2.0000      -9.940664      -270.4992
   3   2.0000      -9.932833      -270.2861
   4   2.0000      -9.887583      -269.0548
   5   2.0000      -9.816008      -267.1072
   6   2.0000      -0.869947       -23.6725
   7   2.0000      -0.793413       -21.5899
   8   2.0000      -0.678144       -18.4532
   9   2.0000      -0.639053       -17.3895
  10   2.0000      -0.569127       -15.4867
  11   2.0000      -0.502374       -13.6703
  12   2.0000      -0.484119       -13.1736
  13   2.0000      -0.455186       -12.3862
  14   2.0000      -0.404884       -11.0174
  15   2.0000      -0.393200       -10.6995
  16   2.0000      -0.370798       -10.0899
  17   2.0000      -0.348325        -9.4784
  18   2.0000      -0.334352        -9.0982
  19   2.0000      -0.324563        -8.8318
  20   2.0000      -0.306674        -8.3450
  21   2.0000      -0.297387        -8.0923
  22   2.0000      -0.203895        -5.5483
  23   2.0000      -0.135915        -3.6984
  24   0.0000      -0.000802        -0.0218
  25   0.0000       0.029285         0.7969
  26   0.0000       0.038668         1.0522
  27   0.0000       0.055284         1.5044
  28   0.0000       0.066844         1.8189

MULLIKEN ATOMIC CHARGES
-----------------------
   0 C :   -0.077176
   1 N :   -0.287768
   2 C :   -0.257756
   3 C :    0.423541
   4 C :   -0.528461
   5 N :   -0.451346
   6 H :    0.186277
   7 H :    0.216382
   8 H :    0.158613
   9 H :    0.084770
  10 H :    0.058317
  11 H :    0.109720
  12 H :    0.087788
  13 H :    0.089596
  14 H :    0.111626
  15 H :    0.075877
Sum of atomic charges:   -0.0000000

LOEWDIN ATOMIC CHARGES
----------------------
   0 C :   -0.293332
   1 N :    0.124400
   2 C :   -0.300971
   3 C :   -0.459518
   4 C :   -0.327238
   5 N :   -0.024001
   6 H :    0.152609
   7 H :    0.164537
   8 H :    0.165719
   9 H :    0.099130
  10 H :    0.098425
  11 H :    0.136809
  12 H :    0.123746
  13 H :    0.114614
  14 H :    0.116753
  15 H :    0.108317

  Mayer bond orders larger than 0.100000
B(  0-C ,  1-N ) :   0.9380 B(  0-C ,  2-C ) :   0.9415 B(  0-C , 11-H ) :   0.9592
B(  0-C , 12-H ) :   0.9731 B(  1-N ,  3-C ) :   1.1525 B(  1-N ,  8-H ) :   0.9289
B(  2-C , 13-H ) :   0.9670 B(  2-C , 14-H ) :   0.9763 B(  2-C , 15-H ) :   0.9722
B(  3-C ,  4-C ) :   1.6042 B(  3-C ,  5-N ) :   1.0697 B(  4-C ,  9-H ) :   0.9889
B(  4-C , 10-H ) :   1.0088 B(  5-N ,  6-H ) :   0.9368 B(  5-N ,  7-H ) :   0.9275

Dispersion correction           -0.025979641
FINAL SINGLE POINT ENERGY      -267.906237575071

DIPOLE MOMENT
-------------
                                X             Y             Z
Electronic contribution:      2.45222      -0.12163       3.54295
Nuclear contribution   :     -2.10948      -0.95026      -3.53375
                        -----------------------------------------
Total Dipole Moment    :      0.34274      -1.07189       0.00920
                        -----------------------------------------
Magnitude (a.u.)       :      1.12539
Magnitude (Debye)      :      2.86052

Rotational constants in cm-1:     0.255209     0.072067     0.062929
Rotational constants in MHz :  7650.964615  2160.525743  1886.569524

                             ****ORCA TERMINATED NORMALLY****
TOTAL RUN TIME: 0 days 0 hours 0 minutes 13 seconds 682 msec
