                         Program Version 5.0.0 -  RELEASE  -
|  1> !BLYP D3BJ RIJCOSX def2-TZVP def2/J TightSCF
|  2> *xyz 0 1
|  3> C          4.99986       -1.59613       -5.92488
|  4> N          5.28156       -1.97413       -4.53576
|  5> C          3.76678       -2.26611       -6.51175
|  6> C          4.79250       -1.36132       -3.45730
|  7> N          3.93990       -0.37492       -3.55736
|  8> C          5.25986       -1.75422       -2.23913
|  9> H          5.92282       -2.52145       -2.18672
| 10> H          4.65468       -1.64040       -1.44202
| 11> H          5.70914       -2.87560       -4.38702
| 12> H          3.33010       -0.31764       -4.36125
| 13> H          3.69849        0.11447       -2.70833
| 14> H          4.84333       -0.51793       -5.94302
| 15> H          5.90170       -1.82250       -6.49647
| 16> H          3.63046       -1.94025       -7.52177
| 17> H          2.90710       -2.00116       -5.93240
| 18> H          3.89538       -3.32820       -6.49392
| 19> *
| 20>
| 21> %MaxCore 64000
| 22>
| 23> %pal nprocs 4
| 24> end
| 25>
| 26> %scf
| 27>   MaxIter 150
| 28> end
| 29>
| 30>
| 31>                          ****END OF INPUT****

CARTESIAN COORDINATES (ANGSTROEM)
---------------------------------
  C      4.999860   -1.596130   -5.924880
  N      5.281560   -1.974130   -4.535760
  C      3.766780   -2.266110   -6.511750
  C      4.792500   -1.361320   -3.457300
  N      3.939900   -0.374920   -3.557360
  C      5.259860   -1.754220   -2.239130
  H      5.922820   -2.521450   -2.186720
  H      4.654680   -1.640400   -1.442020
  H      5.709140   -2.875600   -4.387020
  H      3.330100   -0.317640   -4.361250
  H      3.698490    0.114470   -2.708330
  H      4.843330   -0.517930   -5.943020
  H      5.901700   -1.822500   -6.496470
  H      3.630460   -1.940250   -7.521770
  H      2.907100   -2.001160   -5.932400
  H      3.895380   -3.328200   -6.493920

 Total Charge           Charge          ....    0
 Multiplicity           Mult            ....    1
 Number of Electrons    NEL             ....   48
 Basis Dimension        Dim             ....  246

ORBITAL ENERGIES
----------------

  NO   OCC          E(Eh)            E(eV)
   0   2.0000     -14.007663      -381.1679
   1   2.0000     -14.005454      -381.1078
   2   2.0000      -9.944941      -270.6156
   3   2.0000      -9.941808      -270.5303
   4   2.0000      -9.898408      -269.3494
   5   2.0000      -9.813601      -267.0417
   6   2.0000      -0.880119       -23.9493
   7   2.0000      -0.804356       -21.8876
   8   2.0000      -0.694420       -18.8961
   9   2.0000      -0.621824       -16.9207
  10   2.0000      -0.560960       -15.2645
  11   2.0000      -0.540983       -14.7209
  12   2.0000      -0.487345       -13.2613
  13   2.0000      -0.444511       -12.0958
  14   2.0000      -0.429311       -11.6821
  15   2.0000      -0.394860       -10.7447
  16   2.0000      -0.378054       -10.2874
  17   2.0000      -0.354658        -9.6507
  18   2.0000      -0.336900        -9.1675
  19   2.0000      -0.320289        -8.7155
  20   2.0000      -0.318537        -8.6678
  21   2.0000      -0.299082        -8.1384
  22   2.0000      -0.211215        -5.7475
  23   2.0000      -0.124472        -3.3871
  24   0.0000      -0.003452        -0.0939
  25   0.0000       0.028157         0.7662
  26   0.0000       0.035475         0.9653
  27   0.0000       0.048167         1.3107
  28   0.0000       0.060836         1.6554

MULLIKEN ATOMIC CHARGES
-----------------------
   0 C :   -0.142935
   1 N :   -0.271031
   2 C :   -0.222315
   3 C :    0.383258
   4 N :   -0.414273
   5 C :   -0.503550
   6 H :    0.047030
   7 H :    0.063358
   8 H :    0.193585
   9 H :    0.195764
  10 H :    0.216148
  11 H :    0.101694
  12 H :    0.098124
  13 H :    0.089407
  14 H :    0.078847
  15 H :    0.086887
Sum of atomic charges:    0.0000000

LOEWDIN ATOMIC CHARGES
----------------------
   0 C :   -0.309431
   1 N :    0.131001
   2 C :   -0.303205
   3 C :   -0.468707
   4 N :    0.020973
   5 C :   -0.358745
   6 H :    0.090121
   7 H :    0.088130
   8 H :    0.185295
   9 H :    0.157726
  10 H :    0.177913
  11 H :    0.129174
  12 H :    0.126633
  13 H :    0.114085
  14 H :    0.107311
  15 H :    0.111726

  Mayer bond orders larger than 0.100000
B(  0-C ,  1-N ) :   0.9553 B(  0-C ,  2-C ) :   0.9361 B(  0-C , 11-H ) :   0.9709
B(  0-C , 12-H ) :   0.9730 B(  1-N ,  3-C ) :   1.1677 B(  1-N ,  8-H ) :   0.9309
B(  2-C , 13-H ) :   0.9650 B(  2-C , 14-H ) :   0.9683 B(  2-C , 15-H ) :   0.9727
B(  3-C ,  4-N ) :   1.1588 B(  3-C ,  5-C ) :   1.5337 B(  4-N ,  9-H ) :   0.9167
B(  4-N , 10-H ) :   0.9256 B(  5-C ,  6-H ) :   1.0245 B(  5-C ,  7-H ) :   0.9778

Dispersion correction           -0.025791016
FINAL SINGLE POINT ENERGY      -267.901264666335

DIPOLE MOMENT
-------------
                                X             Y             Z
Electronic contribution:      1.17311       1.25945       2.16889
Nuclear contribution   :     -1.82946      -1.24287      -3.25410
                        -----------------------------------------
Total Dipole Moment    :     -0.65635       0.01658      -1.08520
                        -----------------------------------------
Magnitude (a.u.)       :      1.26836
Magnitude (Debye)      :      3.22391

Rotational constants in cm-1:     0.244672     0.074506     0.064043
Rotational constants in MHz :  7335.067153  2233.624025  1919.970379

                             ****ORCA TERMINATED NORMALLY****
TOTAL RUN TIME: 0 days 0 hours 0 minutes 14 seconds 153 msec
