                         Program Version 5.0.0 -  RELEASE  -
|  1> !BLYP D3BJ RIJCOSX def2-TZVP def2/J TightSCF xyzfile
|  2>
|  3> *xyzfile 0 1 D1.xyz
|  4>
|  5> %MaxCore 64000
|  6>
|  7> %pal nprocs 18
|  8> end
|  9>
| 10> %scf
| 11>   MaxIter 150
| 12> end
| 13>
| 14>
| 15>                          ****END OF INPUT****

CARTESIAN COORDINATES (ANGSTROEM)
---------------------------------
  C      4.999862   -1.596133   -5.924876
  C      5.281560   -1.974132   -4.535764
  C      3.766779   -2.266110   -6.511752
  C      2.496702   -1.844161   -5.735704
  H      1.626416   -2.217434   -6.308950
  H      2.481824   -2.456069   -4.793414
  F      2.459729   -0.509204   -5.505757
  C      4.792500   -1.361316   -3.457295
  N      3.939898   -0.374925   -3.557359
  N      5.259860   -1.754224   -2.239133
  H      5.922824   -2.521451   -2.186720
  H      4.654678   -1.640404   -1.442016
  H      5.709139   -2.875599   -4.387021
  H      3.330101   -0.317639   -4.361247
  H      3.698494    0.114468   -2.708333
  H      4.843333   -0.517930   -5.943019
  H      5.901695   -1.822503   -6.496467
  H      3.886191   -3.357076   -6.533604
  H      3.685602   -1.922168   -7.547128

 Total Charge           Charge          ....    0
 Multiplicity           Mult            ....    1
 Number of Electrons    NEL             ....   64
 Basis Dimension        Dim             ....  314

ORBITAL ENERGIES
----------------

  NO   OCC          E(Eh)            E(eV)
   0   2.0000     -24.305080      -661.3748
   1   2.0000     -13.992869      -380.7653
   2   2.0000     -13.979447      -380.4001
   3   2.0000      -9.983242      -271.6578
   4   2.0000      -9.933079      -270.2928
   5   2.0000      -9.896853      -269.3071
   6   2.0000      -9.876927      -268.7648
   7   2.0000      -9.822231      -267.2765
   8   2.0000      -1.136983       -30.9389
   9   2.0000      -0.858995       -23.3744
  10   2.0000      -0.776151       -21.1201
  11   2.0000      -0.711790       -19.3688
  12   2.0000      -0.645822       -17.5737
  13   2.0000      -0.598832       -16.2951
  14   2.0000      -0.533769       -14.5246
  15   2.0000      -0.522829       -14.2269
  16   2.0000      -0.482293       -13.1238
  17   2.0000      -0.468574       -12.7506
  18   2.0000      -0.454825       -12.3764
  19   2.0000      -0.439211       -11.9516
  20   2.0000      -0.427989       -11.6462
  21   2.0000      -0.400595       -10.9007
  22   2.0000      -0.369445       -10.0531
  23   2.0000      -0.350399        -9.5348
  24   2.0000      -0.341664        -9.2972
  25   2.0000      -0.320053        -8.7091
  26   2.0000      -0.299309        -8.1446
  27   2.0000      -0.288385        -7.8474
  28   2.0000      -0.279096        -7.5946
  29   2.0000      -0.269417        -7.3312
  30   2.0000      -0.206066        -5.6073
  31   2.0000      -0.122257        -3.3268
  32   0.0000       0.007729         0.2103
  33   0.0000       0.029543         0.8039
  34   0.0000       0.042208         1.1485
  35   0.0000       0.050772         1.3816
  36   0.0000       0.055269         1.5039

MULLIKEN ATOMIC CHARGES
-----------------------
   0 C :   -0.196632
   1 C :   -0.322767
   2 C :   -0.068887
   3 C :   -0.010007
   4 H :    0.095859
   5 H :    0.108036
   6 F :   -0.207670
   7 C :    0.324942
   8 N :   -0.440533
   9 N :   -0.444174
  10 H :    0.209267
  11 H :    0.177653
  12 H :    0.057255
  13 H :    0.256928
  14 H :    0.177041
  15 H :    0.084328
  16 H :    0.073594
  17 H :    0.064111
  18 H :    0.061654
Sum of atomic charges:    0.0000000

LOEWDIN ATOMIC CHARGES
----------------------
   0 C :   -0.283927
   1 C :   -0.277477
   2 C :   -0.266082
   3 C :   -0.362181
   4 H :    0.119792
   5 H :    0.129187
   6 F :    0.176883
   7 C :   -0.469660
   8 N :    0.019612
   9 N :   -0.029161
  10 H :    0.167032
  11 H :    0.143411
  12 H :    0.111388
  13 H :    0.129122
  14 H :    0.155924
  15 H :    0.137974
  16 H :    0.136948
  17 H :    0.134966
  18 H :    0.126248

  Mayer bond orders larger than 0.100000
B(  0-C ,  1-C ) :   1.0542 B(  0-C ,  2-C ) :   0.9386 B(  0-C , 15-H ) :   0.9726
B(  0-C , 16-H ) :   0.9713 B(  1-C ,  7-C ) :   1.5929 B(  1-C , 12-H ) :   0.9737
B(  2-C ,  3-C ) :   0.9753 B(  2-C , 17-H ) :   0.9371 B(  2-C , 18-H ) :   0.9426
B(  3-C ,  4-H ) :   0.9631 B(  3-C ,  5-H ) :   0.9778 B(  3-C ,  6-F ) :   0.9286
B(  6-F , 13-H ) :   0.1260 B(  7-C ,  8-N ) :   1.1686 B(  7-C ,  9-N ) :   1.1195
B(  8-N , 13-H ) :   0.8472 B(  8-N , 14-H ) :   0.9355 B(  9-N , 10-H ) :   0.9280
B(  9-N , 11-H ) :   0.9235

Dispersion correction           -0.035654829
FINAL SINGLE POINT ENERGY      -406.483649319681

DIPOLE MOMENT
-------------
                                X             Y             Z
Electronic contribution:     -3.33897       4.06456       0.86284
Nuclear contribution   :      2.63975      -4.51113      -0.34926
                        -----------------------------------------
Total Dipole Moment    :     -0.69923      -0.44657       0.51358
                        -----------------------------------------
Magnitude (a.u.)       :      0.97576
Magnitude (Debye)      :      2.48019

Rotational constants in cm-1:     0.109429     0.049838     0.039337
Rotational constants in MHz :  3280.611039  1494.113088  1179.280063

                             ****ORCA TERMINATED NORMALLY****
TOTAL RUN TIME: 0 days 0 hours 0 minutes 10 seconds 365 msec
