                         Program Version 5.0.0 -  RELEASE  -
|  1> !BLYP D3BJ RIJCOSX def2-TZVP def2/J TightSCF xyzfile
|  2>
|  3> *xyzfile 0 1 D2.xyz
|  4>
|  5> %MaxCore 64000
|  6>
|  7> %pal nprocs 18
|  8> end
|  9>
| 10> %scf
| 11>   MaxIter 150
| 12> end
| 13>
| 14>
| 15>                          ****END OF INPUT****

CARTESIAN COORDINATES (ANGSTROEM)
---------------------------------
  C      4.999862   -1.596133   -5.924876
  N      5.281560   -1.974132   -4.535764
  C      3.766779   -2.266110   -6.511752
  C      2.496702   -1.844161   -5.735704
  H      1.626416   -2.217434   -6.308950
  H      2.481824   -2.456069   -4.793414
  F      2.459729   -0.509204   -5.505757
  C      4.792500   -1.361316   -3.457295
  C      3.939898   -0.374925   -3.557359
  N      5.259860   -1.754224   -2.239133
  H      5.922824   -2.521451   -2.186720
  H      4.654678   -1.640404   -1.442016
  H      5.709139   -2.875599   -4.387021
  H      3.330101   -0.317639   -4.361247
  H      3.698494    0.114468   -2.708333
  H      4.843333   -0.517930   -5.943019
  H      5.901695   -1.822503   -6.496467
  H      3.886191   -3.357076   -6.533604
  H      3.685602   -1.922168   -7.547128

 Total Charge           Charge          ....    0
 Multiplicity           Mult            ....    1
 Number of Electrons    NEL             ....   64
 Basis Dimension        Dim             ....  314

ORBITAL ENERGIES
----------------

  NO   OCC          E(Eh)            E(eV)
   0   2.0000     -24.282569      -660.7623
   1   2.0000     -14.001620      -381.0034
   2   2.0000     -13.991677      -380.7329
   3   2.0000      -9.982415      -271.6353
   4   2.0000      -9.935080      -270.3473
   5   2.0000      -9.929649      -270.1995
   6   2.0000      -9.912675      -269.7376
   7   2.0000      -9.790521      -266.4136
   8   2.0000      -1.116888       -30.3921
   9   2.0000      -0.865118       -23.5410
  10   2.0000      -0.789253       -21.4767
  11   2.0000      -0.704160       -19.1612
  12   2.0000      -0.633854       -17.2480
  13   2.0000      -0.618866       -16.8402
  14   2.0000      -0.546435       -14.8692
  15   2.0000      -0.505056       -13.7433
  16   2.0000      -0.486737       -13.2448
  17   2.0000      -0.458069       -12.4647
  18   2.0000      -0.455773       -12.4022
  19   2.0000      -0.438679       -11.9371
  20   2.0000      -0.423449       -11.5226
  21   2.0000      -0.403514       -10.9802
  22   2.0000      -0.370895       -10.0926
  23   2.0000      -0.354820        -9.6551
  24   2.0000      -0.335939        -9.1414
  25   2.0000      -0.326668        -8.8891
  26   2.0000      -0.313587        -8.5331
  27   2.0000      -0.294476        -8.0131
  28   2.0000      -0.285953        -7.7812
  29   2.0000      -0.253654        -6.9023
  30   2.0000      -0.199887        -5.4392
  31   2.0000      -0.125242        -3.4080
  32   0.0000      -0.001193        -0.0325
  33   0.0000       0.024308         0.6615
  34   0.0000       0.039941         1.0869
  35   0.0000       0.048801         1.3279
  36   0.0000       0.058640         1.5957

MULLIKEN ATOMIC CHARGES
-----------------------
   0 C :   -0.083559
   1 N :   -0.303490
   2 C :   -0.126617
   3 C :    0.024530
   4 H :    0.090835
   5 H :    0.100800
   6 F :   -0.175745
   7 C :    0.399502
   8 C :   -0.572235
   9 N :   -0.457823
  10 H :    0.180039
  11 H :    0.214269
  12 H :    0.154025
  13 H :    0.148042
  14 H :    0.048248
  15 H :    0.123534
  16 H :    0.095330
  17 H :    0.069976
  18 H :    0.070340
Sum of atomic charges:   -0.0000000

LOEWDIN ATOMIC CHARGES
----------------------
   0 C :   -0.273798
   1 N :    0.121411
   2 C :   -0.273807
   3 C :   -0.361885
   4 H :    0.118623
   5 H :    0.129009
   6 F :    0.183496
   7 C :   -0.476394
   8 C :   -0.322163
   9 N :   -0.029430
  10 H :    0.148859
  11 H :    0.163256
  12 H :    0.163553
  13 H :    0.076022
  14 H :    0.095000
  15 H :    0.144061
  16 H :    0.127810
  17 H :    0.132749
  18 H :    0.133628

  Mayer bond orders larger than 0.100000
B(  0-C ,  1-N ) :   0.9311 B(  0-C ,  2-C ) :   0.9642 B(  0-C , 15-H ) :   0.9588
B(  0-C , 16-H ) :   0.9728 B(  1-N ,  7-C ) :   1.1318 B(  1-N , 12-H ) :   0.9265
B(  2-C ,  3-C ) :   0.9793 B(  2-C , 17-H ) :   0.9403 B(  2-C , 18-H ) :   0.9455
B(  3-C ,  4-H ) :   0.9557 B(  3-C ,  5-H ) :   0.9738 B(  3-C ,  6-F ) :   0.9773
B(  7-C ,  8-C ) :   1.6149 B(  7-C ,  9-N ) :   1.0489 B(  8-C , 13-H ) :   0.9672
B(  8-C , 14-H ) :   1.0097 B(  9-N , 10-H ) :   0.9369 B(  9-N , 11-H ) :   0.9279

Dispersion correction           -0.035545129
FINAL SINGLE POINT ENERGY      -406.453839690655

DIPOLE MOMENT
-------------
                                X             Y             Z
Electronic contribution:     -2.24007       2.71609      -0.09178
Nuclear contribution   :      2.43398      -4.26587      -0.19921
                        -----------------------------------------
Total Dipole Moment    :      0.19391      -1.54978      -0.29099
                        -----------------------------------------
Magnitude (a.u.)       :      1.58874
Magnitude (Debye)      :      4.03826

Rotational constants in cm-1:     0.110089     0.049944     0.039407
Rotational constants in MHz :  3300.378855  1497.273856  1181.385913

                             ****ORCA TERMINATED NORMALLY****
TOTAL RUN TIME: 0 days 0 hours 0 minutes 8 seconds 428 msec
