                         Program Version 5.0.0 -  RELEASE  -
|  1> !wB97X-D3 RIJCOSX def2-SVPD def2/J TightSCF
|  2> *xyz -1 1
|  3> C         -0.98480        1.28474       -2.92869
|  4> C         -0.10608        1.76991       -4.08984
|  5> H         -0.34774        2.82220       -4.26294
|  6> H          0.94968        1.74588       -3.80878
|  7> C         -0.25875        1.00432       -5.40983
|  8> C          0.39596       -0.37070       -5.33994
|  9> H          0.23915        1.56939       -6.20125
| 10> H         -1.30936        0.88869       -5.68245
| 11> O         -0.32633       -1.39040       -5.49128
| 12> O          1.61941       -0.40073       -5.03683
| 13> H         -2.01317        1.31546       -3.22263
| 14> H         -0.83724        1.91975       -2.08023
| 15> H         -0.71656        0.28077       -2.67373
| 16> *
| 17> %MaxCore 64000
| 18>
| 19> %pal nprocs 18
| 20> end
| 21>
| 22> %scf
| 23>   MaxIter 150
| 24> end
| 25>
| 26>
| 27>                          ****END OF INPUT****

CARTESIAN COORDINATES (ANGSTROEM)
---------------------------------
  C     -0.984800    1.284740   -2.928690
  C     -0.106080    1.769910   -4.089840
  H     -0.347740    2.822200   -4.262940
  H      0.949680    1.745880   -3.808780
  C     -0.258750    1.004320   -5.409830
  C      0.395960   -0.370700   -5.339940
  H      0.239150    1.569390   -6.201250
  H     -1.309360    0.888690   -5.682450
  O     -0.326330   -1.390400   -5.491280
  O      1.619410   -0.400730   -5.036830
  H     -2.013170    1.315460   -3.222630
  H     -0.837240    1.919750   -2.080230
  H     -0.716560    0.280770   -2.673730

 Total Charge           Charge          ....   -1
 Multiplicity           Mult            ....    1
 Number of Electrons    NEL             ....   48
 Basis Dimension        Dim             ....  182

ORBITAL ENERGIES
----------------

  NO   OCC          E(Eh)            E(eV)
   0   2.0000     -18.984417      -516.5922
   1   2.0000     -18.983062      -516.5554
   2   2.0000     -10.179179      -276.9895
   3   2.0000     -10.142546      -275.9927
   4   2.0000     -10.141346      -275.9601
   5   2.0000     -10.118782      -275.3460
   6   2.0000      -0.928930       -25.2775
   7   2.0000      -0.831765       -22.6335
   8   2.0000      -0.750329       -20.4175
   9   2.0000      -0.655651       -17.8412
  10   2.0000      -0.553079       -15.0500
  11   2.0000      -0.435340       -11.8462
  12   2.0000      -0.408034       -11.1032
  13   2.0000      -0.389626       -10.6023
  14   2.0000      -0.360447        -9.8083
  15   2.0000      -0.337076        -9.1723
  16   2.0000      -0.318463        -8.6658
  17   2.0000      -0.306930        -8.3520
  18   2.0000      -0.288996        -7.8640
  19   2.0000      -0.272091        -7.4040
  20   2.0000      -0.260609        -7.0915
  21   2.0000      -0.144825        -3.9409
  22   2.0000      -0.140674        -3.8279
  23   2.0000      -0.126076        -3.4307
  24   0.0000       0.213795         5.8177
  25   0.0000       0.238509         6.4902
  26   0.0000       0.252690         6.8760
  27   0.0000       0.263668         7.1748
  28   0.0000       0.294714         8.0196

MULLIKEN ATOMIC CHARGES
-----------------------
   0 C :    0.608164
   1 C :   -0.449589
   2 H :   -0.115203
   3 H :   -0.017501
   4 C :    0.066263
   5 C :    0.444598
   6 H :    0.001721
   7 H :   -0.017939
   8 O :   -0.686642
   9 O :   -0.729980
  10 H :   -0.010187
  11 H :   -0.057120
  12 H :   -0.036585
Sum of atomic charges:   -1.0000000

LOEWDIN ATOMIC CHARGES
----------------------
   0 C :    0.111480
   1 C :   -0.086861
   2 H :   -0.002885
   3 H :    0.010119
   4 C :   -0.002873
   5 C :   -0.300538
   6 H :    0.011833
   7 H :    0.005118
   8 O :   -0.335715
   9 O :   -0.333519
  10 H :   -0.026343
  11 H :   -0.034913
  12 H :   -0.014903

  Mayer bond orders larger than 0.100000
B(  0-C ,  1-C ) :   1.2655 B(  0-C , 10-H ) :   0.8026 B(  0-C , 11-H ) :   0.7891
B(  0-C , 12-H ) :   0.8532 B(  1-C ,  2-H ) :   0.9658 B(  1-C ,  3-H ) :   0.9508
B(  1-C ,  4-C ) :   1.2190 B(  1-C ,  6-H ) :   0.1307 B(  1-C ,  7-H ) :   0.1246
B(  1-C , 10-H ) :   0.1946 B(  1-C , 11-H ) :   0.1979 B(  1-C , 12-H ) :   0.2031
B(  3-H ,  4-C ) :   0.1410 B(  4-C ,  5-C ) :   1.0063 B(  4-C ,  6-H ) :   0.8431
B(  4-C ,  7-H ) :   0.9025 B(  5-C ,  7-H ) :   0.1928 B(  5-C ,  8-O ) :   1.5145
B(  5-C ,  9-O ) :   1.5145

Dispersion correction           -0.003300744
FINAL SINGLE POINT ENERGY      -306.862517662094

DIPOLE MOMENT
-------------
                                X             Y             Z
Electronic contribution:      3.10581      -5.61394      -3.86797
Nuclear contribution   :     -4.15791       7.87420       4.69333
                        -----------------------------------------
Total Dipole Moment    :     -1.05210       2.26027       0.82537
                        -----------------------------------------
Magnitude (a.u.)       :      2.62620
Magnitude (Debye)      :      6.67528

Rotational constants in cm-1:     0.200385     0.078723     0.072676
Rotational constants in MHz :  6007.394681  2360.059351  2178.761275

                             ****ORCA TERMINATED NORMALLY****
TOTAL RUN TIME: 0 days 0 hours 0 minutes 8 seconds 922 msec
