                         Program Version 5.0.0 -  RELEASE  -
|  1> !wB97X-D3 RIJCOSX def2-SVPD def2/J TightSCF
|  2> *xyz 1 1
|  3> C          0.81607       -2.10149       -2.18655
|  4> H          1.69623       -2.36869       -1.60046
|  5> N          1.10055       -2.46749       -3.59927
|  6> C          0.51624       -0.61363       -2.03937
|  7> H         -0.02007       -2.71285       -1.84084
|  8> C         -0.86862       -0.19392       -2.54630
|  9> H          1.70061       -1.75723       -4.07838
| 10> H          0.29386       -2.35977       -4.25632
| 11> H          1.50132       -3.42848       -3.69491
| 12> H          1.29904       -0.05680       -2.55898
| 13> H          0.61239       -0.36558       -0.97917
| 14> H         -0.95781       -0.43872       -3.58410
| 15> H         -0.99113        0.86113       -2.41690
| 16> H         -1.62334       -0.71130       -1.99167
| 17> *
| 18> %MaxCore 64000
| 19>
| 20> %pal nprocs 18
| 21> end
| 22>
| 23> %scf
| 24>   MaxIter 150
| 25> end
| 26>
| 27>
| 28>                          ****END OF INPUT****

CARTESIAN COORDINATES (ANGSTROEM)
---------------------------------
  C      0.816070   -2.101490   -2.186550
  H      1.696230   -2.368690   -1.600460
  N      1.100550   -2.467490   -3.599270
  C      0.516240   -0.613630   -2.039370
  H     -0.020070   -2.712850   -1.840840
  C     -0.868620   -0.193920   -2.546300
  H      1.700610   -1.757230   -4.078380
  H      0.293860   -2.359770   -4.256320
  H      1.501320   -3.428480   -3.694910
  H      1.299040   -0.056800   -2.558980
  H      0.612390   -0.365580   -0.979170
  H     -0.957810   -0.438720   -3.584100
  H     -0.991130    0.861130   -2.416900
  H     -1.623340   -0.711300   -1.991670

 Total Charge           Charge          ....    1
 Multiplicity           Mult            ....    1
 Number of Electrons    NEL             ....   34
 Basis Dimension        Dim             ....  160

ORBITAL ENERGIES
----------------

  NO   OCC          E(Eh)            E(eV)
   0   2.0000     -14.772632      -401.9838
   1   2.0000     -10.537490      -286.7397
   2   2.0000     -10.469293      -284.8840
   3   2.0000     -10.433484      -283.9095
   4   2.0000      -1.314976       -35.7823
   5   2.0000      -1.083623       -29.4869
   6   2.0000      -0.992887       -27.0178
   7   2.0000      -0.911194       -24.7948
   8   2.0000      -0.881447       -23.9854
   9   2.0000      -0.862995       -23.4833
  10   2.0000      -0.795707       -21.6523
  11   2.0000      -0.726338       -19.7647
  12   2.0000      -0.708147       -19.2696
  13   2.0000      -0.683018       -18.5859
  14   2.0000      -0.619587       -16.8598
  15   2.0000      -0.613301       -16.6888
  16   2.0000      -0.609067       -16.5735
  17   0.0000      -0.111286        -3.0282
  18   0.0000      -0.055138        -1.5004
  19   0.0000      -0.053997        -1.4693
  20   0.0000      -0.039549        -1.0762
  21   0.0000      -0.012299        -0.3347

MULLIKEN ATOMIC CHARGES
-----------------------
   0 C :    0.599188
   1 H :   -0.012832
   2 N :   -1.000628
   3 C :   -0.377894
   4 H :   -0.020049
   5 C :    0.657284
   6 H :    0.492108
   7 H :    0.376361
   8 H :    0.427062
   9 H :   -0.041860
  10 H :   -0.022100
  11 H :   -0.127808
  12 H :    0.011906
  13 H :    0.039263
Sum of atomic charges:    1.0000000

LOEWDIN ATOMIC CHARGES
----------------------
   0 C :    0.084695
   1 H :    0.052843
   2 N :    0.306112
   3 C :   -0.047796
   4 H :    0.055591
   5 C :    0.147662
   6 H :    0.113070
   7 H :    0.108173
   8 H :    0.123391
   9 H :    0.029086
  10 H :    0.045616
  11 H :   -0.023857
  12 H :    0.005587
  13 H :   -0.000172

  Mayer bond orders larger than 0.100000
B(  0-C ,  1-H ) :   0.9159 B(  0-C ,  2-N ) :   0.6436 B(  0-C ,  3-C ) :   1.1309
B(  0-C ,  4-H ) :   0.9145 B(  0-C , 10-H ) :   0.1053 B(  1-H ,  2-N ) :   0.1025
B(  2-N ,  4-H ) :   0.1242 B(  2-N ,  6-H ) :   0.5963 B(  2-N ,  7-H ) :   0.7681
B(  2-N ,  8-H ) :   0.6532 B(  3-C ,  5-C ) :   1.2388 B(  3-C ,  9-H ) :   0.9620
B(  3-C , 10-H ) :   0.9885 B(  3-C , 11-H ) :   0.1704 B(  3-C , 12-H ) :   0.1818
B(  3-C , 13-H ) :   0.1635 B(  5-C , 11-H ) :   0.8451 B(  5-C , 12-H ) :   0.8213
B(  5-C , 13-H ) :   0.8139

Dispersion correction           -0.002840577
FINAL SINGLE POINT ENERGY      -174.685563689131

DIPOLE MOMENT
-------------
                                X             Y             Z
Electronic contribution:      1.49146      -1.84931      -0.71218
Nuclear contribution   :     -0.52914       0.42437      -0.52967
                        -----------------------------------------
Total Dipole Moment    :      0.96232      -1.42494      -1.24186
                        -----------------------------------------
Magnitude (a.u.)       :      2.12102
Magnitude (Debye)      :      5.39121

Rotational constants in cm-1:     0.462856     0.150885     0.132529
Rotational constants in MHz : 13876.083919  4523.416930  3973.119974

                             ****ORCA TERMINATED NORMALLY****
TOTAL RUN TIME: 0 days 0 hours 0 minutes 7 seconds 793 msec
