                         Program Version 5.0.0 -  RELEASE  -
|  1> !wB97X-D3 RIJCOSX def2-SVPD def2/J TightSCF
|  2> *xyz 0 1
|  3> C         -0.98480        1.28474       -2.92869
|  4> C         -0.10608        1.76991       -4.08984
|  5> H         -0.34774        2.82220       -4.26294
|  6> H          0.94968        1.74588       -3.80878
|  7> C         -0.25875        1.00432       -5.40983
|  8> C          0.39596       -0.37070       -5.33994
|  9> H          0.23915        1.56939       -6.20125
| 10> H         -1.30936        0.88869       -5.68245
| 11> F         -0.32633       -1.39040       -5.49128
| 12> O          1.61941       -0.40073       -5.03683
| 13> H         -2.01317        1.31546       -3.22263
| 14> H         -0.83724        1.91975       -2.08023
| 15> H         -0.71656        0.28077       -2.67373
| 16> *
| 17> %MaxCore 64000
| 18>
| 19> %pal nprocs 18
| 20> end
| 21>
| 22> %scf
| 23>   MaxIter 150
| 24> end
| 25>
| 26>
| 27>                          ****END OF INPUT****

CARTESIAN COORDINATES (ANGSTROEM)
---------------------------------
  C     -0.984800    1.284740   -2.928690
  C     -0.106080    1.769910   -4.089840
  H     -0.347740    2.822200   -4.262940
  H      0.949680    1.745880   -3.808780
  C     -0.258750    1.004320   -5.409830
  C      0.395960   -0.370700   -5.339940
  H      0.239150    1.569390   -6.201250
  H     -1.309360    0.888690   -5.682450
  F     -0.326330   -1.390400   -5.491280
  O      1.619410   -0.400730   -5.036830
  H     -2.013170    1.315460   -3.222630
  H     -0.837240    1.919750   -2.080230
  H     -0.716560    0.280770   -2.673730

 Total Charge           Charge          ....    0
 Multiplicity           Mult            ....    1
 Number of Electrons    NEL             ....   48
 Basis Dimension        Dim             ....  182

ORBITAL ENERGIES
----------------

  NO   OCC          E(Eh)            E(eV)
   0   2.0000     -24.874623      -676.8729
   1   2.0000     -19.254662      -523.9460
   2   2.0000     -10.475776      -285.0604
   3   2.0000     -10.323132      -280.9067
   4   2.0000     -10.305911      -280.4381
   5   2.0000     -10.285894      -279.8934
   6   2.0000      -1.422907       -38.7193
   7   2.0000      -1.139766       -31.0146
   8   2.0000      -0.926453       -25.2101
   9   2.0000      -0.841898       -22.9092
  10   2.0000      -0.771845       -21.0030
  11   2.0000      -0.718787       -19.5592
  12   2.0000      -0.658067       -17.9069
  13   2.0000      -0.641138       -17.4463
  14   2.0000      -0.615605       -16.7515
  15   2.0000      -0.566295       -15.4097
  16   2.0000      -0.557638       -15.1741
  17   2.0000      -0.522572       -14.2199
  18   2.0000      -0.503853       -13.7105
  19   2.0000      -0.477274       -12.9873
  20   2.0000      -0.449856       -12.2412
  21   2.0000      -0.444246       -12.0885
  22   2.0000      -0.439359       -11.9556
  23   2.0000      -0.393739       -10.7142
  24   0.0000       0.047362         1.2888
  25   0.0000       0.084845         2.3087
  26   0.0000       0.110861         3.0167
  27   0.0000       0.119276         3.2457
  28   0.0000       0.127176         3.4606

MULLIKEN ATOMIC CHARGES
-----------------------
   0 C :    0.602138
   1 C :   -0.421244
   2 H :   -0.070686
   3 H :   -0.004747
   4 C :   -0.042591
   5 C :    0.796135
   6 H :    0.071089
   7 H :    0.041851
   8 F :   -0.383429
   9 O :   -0.520690
  10 H :    0.011787
  11 H :   -0.024663
  12 H :   -0.054951
Sum of atomic charges:    0.0000000

LOEWDIN ATOMIC CHARGES
----------------------
   0 C :    0.129200
   1 C :   -0.062511
   2 H :    0.023138
   3 H :    0.024439
   4 C :    0.040465
   5 C :    0.005752
   6 H :    0.041922
   7 H :    0.026708
   8 F :   -0.040125
   9 O :   -0.144817
  10 H :   -0.015286
  11 H :   -0.013393
  12 H :   -0.015493

  Mayer bond orders larger than 0.100000
B(  0-C ,  1-C ) :   1.2926 B(  0-C , 10-H ) :   0.7999 B(  0-C , 11-H ) :   0.8015
B(  0-C , 12-H ) :   0.8565 B(  1-C ,  2-H ) :   0.9704 B(  1-C ,  3-H ) :   0.9485
B(  1-C ,  4-C ) :   1.2269 B(  1-C ,  6-H ) :   0.1252 B(  1-C ,  7-H ) :   0.1240
B(  1-C , 10-H ) :   0.1857 B(  1-C , 11-H ) :   0.1878 B(  1-C , 12-H ) :   0.1878
B(  3-H ,  4-C ) :   0.1186 B(  4-C ,  5-C ) :   1.0719 B(  4-C ,  6-H ) :   0.8557
B(  4-C ,  7-H ) :   0.9078 B(  5-C ,  8-F ) :   0.7284 B(  5-C ,  9-O ) :   1.8238

Dispersion correction           -0.003212515
FINAL SINGLE POINT ENERGY      -331.393732518631

DIPOLE MOMENT
-------------
                                X             Y             Z
Electronic contribution:      2.74211      -9.07813      -5.67920
Nuclear contribution   :     -3.72230       9.78546       5.57872
                        -----------------------------------------
Total Dipole Moment    :     -0.98019       0.70733      -0.10048
                        -----------------------------------------
Magnitude (a.u.)       :      1.21292
Magnitude (Debye)      :      3.08300

Rotational constants in cm-1:     0.192703     0.076176     0.069525
Rotational constants in MHz :  5777.081080  2283.698999  2084.312921

                             ****ORCA TERMINATED NORMALLY****
TOTAL RUN TIME: 0 days 0 hours 0 minutes 10 seconds 588 msec
