                         Program Version 5.0.0 -  RELEASE  -
|  1> !wB97X-D3 RIJCOSX def2-SVPD def2/J TightSCF
|  2> *xyz 0 1
|  3> C          0.81607       -2.10149       -2.18655
|  4> H          1.69623       -2.36869       -1.60046
|  5> C          1.10055       -2.46749       -3.59927
|  6> C          0.51624       -0.61363       -2.03937
|  7> H         -0.02007       -2.71285       -1.84084
|  8> C         -0.86862       -0.19392       -2.54630
|  9> H          1.70061       -1.75723       -4.07838
| 10> H          0.29386       -2.35977       -4.25632
| 11> H          1.50132       -3.42848       -3.69491
| 12> H          1.29904       -0.05680       -2.55898
| 13> H          0.61239       -0.36558       -0.97917
| 14> H         -0.95781       -0.43872       -3.58410
| 15> H         -0.99113        0.86113       -2.41690
| 16> H         -1.62334       -0.71130       -1.99167
| 17> *
| 18> %MaxCore 64000
| 19>
| 20> %pal nprocs 18
| 21> end
| 22>
| 23> %scf
| 24>   MaxIter 150
| 25> end
| 26>
| 27>
| 28>                          ****END OF INPUT****

CARTESIAN COORDINATES (ANGSTROEM)
---------------------------------
  C      0.816070   -2.101490   -2.186550
  H      1.696230   -2.368690   -1.600460
  C      1.100550   -2.467490   -3.599270
  C      0.516240   -0.613630   -2.039370
  H     -0.020070   -2.712850   -1.840840
  C     -0.868620   -0.193920   -2.546300
  H      1.700610   -1.757230   -4.078380
  H      0.293860   -2.359770   -4.256320
  H      1.501320   -3.428480   -3.694910
  H      1.299040   -0.056800   -2.558980
  H      0.612390   -0.365580   -0.979170
  H     -0.957810   -0.438720   -3.584100
  H     -0.991130    0.861130   -2.416900
  H     -1.623340   -0.711300   -1.991670

 Total Charge           Charge          ....    0
 Multiplicity           Mult            ....    1
 Number of Electrons    NEL             ....   34
 Basis Dimension        Dim             ....  160

ORBITAL ENERGIES
----------------

  NO   OCC          E(Eh)            E(eV)
   0   2.0000     -10.279445      -279.7179
   1   2.0000     -10.276341      -279.6335
   2   2.0000     -10.269886      -279.4578
   3   2.0000     -10.255638      -279.0701
   4   2.0000      -0.912368       -24.8268
   5   2.0000      -0.836417       -22.7601
   6   2.0000      -0.750417       -20.4199
   7   2.0000      -0.676008       -18.3951
   8   2.0000      -0.565524       -15.3887
   9   2.0000      -0.559359       -15.2209
  10   2.0000      -0.522229       -14.2106
  11   2.0000      -0.492216       -13.3939
  12   2.0000      -0.481997       -13.1158
  13   2.0000      -0.450449       -12.2573
  14   2.0000      -0.420635       -11.4461
  15   2.0000      -0.415074       -11.2947
  16   2.0000      -0.407521       -11.0892
  17   0.0000       0.096401         2.6232
  18   0.0000       0.121131         3.2961
  19   0.0000       0.123058         3.3486
  20   0.0000       0.130688         3.5562
  21   0.0000       0.176028         4.7900

MULLIKEN ATOMIC CHARGES
-----------------------
   0 C :   -0.213702
   1 H :   -0.069683
   2 C :    0.818943
   3 C :   -0.339731
   4 H :   -0.057087
   5 C :    0.669445
   6 H :   -0.124122
   7 H :   -0.255622
   8 H :   -0.142965
   9 H :   -0.019127
  10 H :   -0.110208
  11 H :   -0.133815
  12 H :   -0.025316
  13 H :    0.002989
Sum of atomic charges:    0.0000000

LOEWDIN ATOMIC CHARGES
----------------------
   0 C :   -0.082188
   1 H :    0.021861
   2 C :    0.104196
   3 C :   -0.082715
   4 H :    0.024485
   5 C :    0.124328
   6 H :   -0.027670
   7 H :   -0.033837
   8 H :   -0.021255
   9 H :    0.018235
  10 H :    0.014925
  11 H :   -0.025336
  12 H :   -0.019029
  13 H :   -0.015999

  Mayer bond orders larger than 0.100000
B(  0-C ,  1-H ) :   0.9418 B(  0-C ,  2-C ) :   1.2241 B(  0-C ,  3-C ) :   1.1525
B(  0-C ,  4-H ) :   0.9309 B(  0-C ,  6-H ) :   0.1783 B(  0-C ,  7-H ) :   0.1844
B(  0-C ,  8-H ) :   0.2011 B(  0-C , 10-H ) :   0.1263 B(  2-C ,  4-H ) :   0.1141
B(  2-C ,  6-H ) :   0.7040 B(  2-C ,  7-H ) :   0.7140 B(  2-C ,  8-H ) :   0.7864
B(  3-C ,  4-H ) :   0.1024 B(  3-C ,  5-C ) :   1.2327 B(  3-C ,  9-H ) :   0.9293
B(  3-C , 10-H ) :   0.9914 B(  3-C , 11-H ) :   0.1913 B(  3-C , 12-H ) :   0.1857
B(  3-C , 13-H ) :   0.1798 B(  5-C , 11-H ) :   0.8520 B(  5-C , 12-H ) :   0.7916
B(  5-C , 13-H ) :   0.8071 B(  6-H ,  7-H ) :   0.3180

Dispersion correction           -0.002742926
FINAL SINGLE POINT ENERGY      -158.292761238128

DIPOLE MOMENT
-------------
                                X             Y             Z
Electronic contribution:      0.32018      -0.06731       0.82731
Nuclear contribution   :     -0.30980       0.07990      -0.83209
                        -----------------------------------------
Total Dipole Moment    :      0.01038       0.01259      -0.00478
                        -----------------------------------------
Magnitude (a.u.)       :      0.01700
Magnitude (Debye)      :      0.04322

Rotational constants in cm-1:     0.470198     0.157622     0.138278
Rotational constants in MHz : 14096.185772  4725.380109  4145.481686

                             ****ORCA TERMINATED NORMALLY****
TOTAL RUN TIME: 0 days 0 hours 0 minutes 7 seconds 986 msec
