                         Program Version 5.0.0 -  RELEASE  -
|  1> !wB97X-D3 RIJCOSX def2-SVPD def2/J TightSCF
|  2> *xyz 0 1
|  3> C         -0.98480        1.28474       -2.92869
|  4> C         -0.10608        1.76991       -4.08984
|  5> H         -0.34774        2.82220       -4.26294
|  6> H          0.94968        1.74588       -3.80878
|  7> C         -0.25875        1.00432       -5.40983
|  8> C          0.39596       -0.37070       -5.33994
|  9> H          0.23915        1.56939       -6.20125
| 10> H         -1.30936        0.88869       -5.68245
| 11> O         -0.32633       -1.39040       -5.49128
| 12> F          1.61941       -0.40073       -5.03683
| 13> H         -2.01317        1.31546       -3.22263
| 14> H         -0.83724        1.91975       -2.08023
| 15> H         -0.71656        0.28077       -2.67373
| 16> *
| 17> %MaxCore 64000
| 18>
| 19> %pal nprocs 18
| 20> end
| 21>
| 22> %scf
| 23>   MaxIter 150
| 24> end
| 25>
| 26>
| 27>                          ****END OF INPUT****

CARTESIAN COORDINATES (ANGSTROEM)
---------------------------------
  C     -0.984800    1.284740   -2.928690
  C     -0.106080    1.769910   -4.089840
  H     -0.347740    2.822200   -4.262940
  H      0.949680    1.745880   -3.808780
  C     -0.258750    1.004320   -5.409830
  C      0.395960   -0.370700   -5.339940
  H      0.239150    1.569390   -6.201250
  H     -1.309360    0.888690   -5.682450
  O     -0.326330   -1.390400   -5.491280
  F      1.619410   -0.400730   -5.036830
  H     -2.013170    1.315460   -3.222630
  H     -0.837240    1.919750   -2.080230
  H     -0.716560    0.280770   -2.673730

 Total Charge           Charge          ....    0
 Multiplicity           Mult            ....    1
 Number of Electrons    NEL             ....   48
 Basis Dimension        Dim             ....  182

ORBITAL ENERGIES
----------------

  NO   OCC          E(Eh)            E(eV)
   0   2.0000     -24.873615      -676.8455
   1   2.0000     -19.255206      -523.9608
   2   2.0000     -10.474835      -285.0347
   3   2.0000     -10.322816      -280.8981
   4   2.0000     -10.311195      -280.5819
   5   2.0000     -10.286667      -279.9144
   6   2.0000      -1.421664       -38.6854
   7   2.0000      -1.139529       -31.0082
   8   2.0000      -0.930769       -25.3275
   9   2.0000      -0.842260       -22.9191
  10   2.0000      -0.768363       -20.9082
  11   2.0000      -0.723146       -19.6778
  12   2.0000      -0.660457       -17.9719
  13   2.0000      -0.648046       -17.6342
  14   2.0000      -0.601047       -16.3553
  15   2.0000      -0.568466       -15.4687
  16   2.0000      -0.562223       -15.2989
  17   2.0000      -0.523047       -14.2328
  18   2.0000      -0.500941       -13.6313
  19   2.0000      -0.476763       -12.9734
  20   2.0000      -0.459027       -12.4908
  21   2.0000      -0.452661       -12.3175
  22   2.0000      -0.442427       -12.0391
  23   2.0000      -0.388032       -10.5589
  24   0.0000       0.051139         1.3916
  25   0.0000       0.083269         2.2659
  26   0.0000       0.111302         3.0287
  27   0.0000       0.121261         3.2997
  28   0.0000       0.122042         3.3209

MULLIKEN ATOMIC CHARGES
-----------------------
   0 C :    0.601094
   1 C :   -0.433672
   2 H :   -0.077224
   3 H :   -0.017687
   4 C :   -0.023014
   5 C :    0.812679
   6 H :    0.072448
   7 H :    0.018639
   8 O :   -0.490048
   9 F :   -0.409702
  10 H :    0.015363
  11 H :   -0.018942
  12 H :   -0.049934
Sum of atomic charges:   -0.0000000

LOEWDIN ATOMIC CHARGES
----------------------
   0 C :    0.131997
   1 C :   -0.069462
   2 H :    0.022432
   3 H :    0.020314
   4 C :    0.043888
   5 C :   -0.000053
   6 H :    0.037138
   7 H :    0.037991
   8 O :   -0.143171
   9 F :   -0.041290
  10 H :   -0.011427
  11 H :   -0.014039
  12 H :   -0.014317

  Mayer bond orders larger than 0.100000
B(  0-C ,  1-C ) :   1.2974 B(  0-C , 10-H ) :   0.8053 B(  0-C , 11-H ) :   0.8019
B(  0-C , 12-H ) :   0.8544 B(  1-C ,  2-H ) :   0.9879 B(  1-C ,  3-H ) :   0.9313
B(  1-C ,  4-C ) :   1.1999 B(  1-C ,  6-H ) :   0.1201 B(  1-C ,  7-H ) :   0.1090
B(  1-C , 10-H ) :   0.1878 B(  1-C , 11-H ) :   0.1872 B(  1-C , 12-H ) :   0.1899
B(  3-H ,  4-C ) :   0.1088 B(  4-C ,  5-C ) :   1.0322 B(  4-C ,  6-H ) :   0.8517
B(  4-C ,  7-H ) :   0.9480 B(  5-C ,  7-H ) :   0.1299 B(  5-C ,  8-O ) :   1.8329
B(  5-C ,  9-F ) :   0.7079

Dispersion correction           -0.003240728
FINAL SINGLE POINT ENERGY      -331.394857177111

DIPOLE MOMENT
-------------
                                X             Y             Z
Electronic contribution:      6.04798      -7.36678      -4.89303
Nuclear contribution   :     -5.92016       8.66755       5.06539
                        -----------------------------------------
Total Dipole Moment    :      0.12783       1.30077       0.17236
                        -----------------------------------------
Magnitude (a.u.)       :      1.31835
Magnitude (Debye)      :      3.35099

Rotational constants in cm-1:     0.191324     0.076691     0.070269
Rotational constants in MHz :  5735.753800  2299.148675  2106.608556

                             ****ORCA TERMINATED NORMALLY****
TOTAL RUN TIME: 0 days 0 hours 0 minutes 11 seconds 635 msec
