                         Program Version 5.0.0 -  RELEASE  -
|  1> !wB97X-D3 RIJCOSX def2-SVPD def2/J TightSCF xyzfile
|  2>
|  3> *xyzfile 0 1 D2.xyz
|  4>
|  5> %MaxCore 64000
|  6>
|  7> %pal nprocs 18
|  8> end
|  9>
| 10> %scf
| 11>   MaxIter 150
| 12> end
| 13>
| 14>
| 15>                          ****END OF INPUT****

CARTESIAN COORDINATES (ANGSTROEM)
---------------------------------
  C      0.816067   -2.101491   -2.186546
  H      1.696232   -2.368691   -1.600457
  C      1.100552   -2.467492   -3.599269
  C      0.516243   -0.613634   -2.039373
  H     -0.020066   -2.712849   -1.840844
  C     -0.868621   -0.193925   -2.546303
  C     -0.984801    1.284739   -2.928686
  H     -0.764939    1.904116   -2.051568
  H     -2.032613    1.478953   -3.178952
  C     -0.106085    1.769914   -4.089836
  H     -0.347744    2.822196   -4.262942
  H      0.949683    1.745875   -3.808781
  C     -0.258747    1.004323   -5.409829
  C      0.395958   -0.370696   -5.339939
  H      0.239150    1.569393   -6.201253
  H     -1.309360    0.888694   -5.682455
  H      1.700606   -1.757225   -4.078378
  H      0.293855   -2.359766   -4.256324
  H      1.501324   -3.428479   -3.694915
  O     -0.326329   -1.390398   -5.491279
  F      1.619412   -0.400726   -5.036827
  H     -1.607271   -0.412651   -1.768955
  H     -1.157234   -0.796164   -3.409254
  H      1.299044   -0.056805   -2.558982
  H      0.612393   -0.365579   -0.979171

 Total Charge           Charge          ....    0
 Multiplicity           Mult            ....    1
 Number of Electrons    NEL             ....   80
 Basis Dimension        Dim             ....  326

ORBITAL ENERGIES
----------------

  NO   OCC          E(Eh)            E(eV)
   0   2.0000     -24.883565      -677.1162
   1   2.0000     -19.260994      -524.1183
   2   2.0000     -10.483728      -285.2767
   3   2.0000     -10.325927      -280.9828
   4   2.0000     -10.309970      -280.5485
   5   2.0000     -10.293749      -280.1072
   6   2.0000     -10.280649      -279.7507
   7   2.0000     -10.276061      -279.6258
   8   2.0000     -10.263601      -279.2868
   9   2.0000     -10.214292      -277.9450
  10   2.0000      -1.436378       -39.0858
  11   2.0000      -1.154189       -31.4071
  12   2.0000      -0.941931       -25.6312
  13   2.0000      -0.907532       -24.6952
  14   2.0000      -0.856953       -23.3189
  15   2.0000      -0.816208       -22.2101
  16   2.0000      -0.774510       -21.0755
  17   2.0000      -0.747265       -20.3341
  18   2.0000      -0.709144       -19.2968
  19   2.0000      -0.672275       -18.2935
  20   2.0000      -0.667422       -18.1615
  21   2.0000      -0.652402       -17.7528
  22   2.0000      -0.616584       -16.7781
  23   2.0000      -0.583978       -15.8909
  24   2.0000      -0.560541       -15.2531
  25   2.0000      -0.546802       -14.8792
  26   2.0000      -0.542170       -14.7532
  27   2.0000      -0.531316       -14.4578
  28   2.0000      -0.516912       -14.0659
  29   2.0000      -0.491692       -13.3796
  30   2.0000      -0.483778       -13.1643
  31   2.0000      -0.475398       -12.9362
  32   2.0000      -0.465340       -12.6625
  33   2.0000      -0.445854       -12.1323
  34   2.0000      -0.426797       -11.6137
  35   2.0000      -0.424965       -11.5639
  36   2.0000      -0.410910       -11.1814
  37   2.0000      -0.395771       -10.7695
  38   2.0000      -0.394834       -10.7440
  39   2.0000      -0.359728        -9.7887
  40   0.0000       0.038687         1.0527
  41   0.0000       0.083620         2.2754
  42   0.0000       0.106696         2.9034
  43   0.0000       0.107815         2.9338
  44   0.0000       0.110869         3.0169

MULLIKEN ATOMIC CHARGES
-----------------------
   0 C :    0.130031
   1 H :   -0.074469
   2 C :    1.266361
   3 C :    0.149595
   4 H :   -0.153435
   5 C :    0.187639
   6 C :    0.306685
   7 H :   -0.057114
   8 H :    0.075809
   9 C :    0.037692
  10 H :   -0.186911
  11 H :    0.064016
  12 C :    0.190472
  13 C :    0.526125
  14 H :    0.055637
  15 H :   -0.005682
  16 H :   -0.331384
  17 H :   -0.274728
  18 H :   -0.236475
  19 O :   -0.542325
  20 F :   -0.461924
  21 H :   -0.096441
  22 H :   -0.291082
  23 H :   -0.045062
  24 H :   -0.233030
Sum of atomic charges:   -0.0000000

LOEWDIN ATOMIC CHARGES
----------------------
   0 C :   -0.050188
   1 H :    0.020036
   2 C :    0.127962
   3 C :   -0.024139
   4 H :    0.025770
   5 C :   -0.013643
   6 C :   -0.024366
   7 H :    0.026213
   8 H :    0.024184
   9 C :   -0.022051
  10 H :    0.024809
  11 H :    0.014274
  12 C :    0.069535
  13 C :    0.036255
  14 H :    0.040109
  15 H :    0.042919
  16 H :   -0.073065
  17 H :   -0.099067
  18 H :   -0.010847
  19 O :   -0.138111
  20 F :   -0.045249
  21 H :    0.027863
  22 H :   -0.001494
  23 H :    0.002709
  24 H :    0.019580

  Mayer bond orders larger than 0.100000
B(  0-C ,  1-H ) :   0.8102 B(  0-C ,  2-C ) :   1.0649 B(  0-C ,  3-C ) :   1.1601
B(  0-C ,  4-H ) :   0.8446 B(  0-C , 16-H ) :   0.2510 B(  0-C , 17-H ) :   0.1933
B(  0-C , 18-H ) :   0.1708 B(  0-C , 23-H ) :   0.1456 B(  1-H ,  3-C ) :   0.1656
B(  1-H ,  4-H ) :  -0.1113 B(  2-C ,  3-C ) :   0.1070 B(  2-C ,  4-H ) :   0.1391
B(  2-C , 16-H ) :   0.4318 B(  2-C , 17-H ) :   0.3949 B(  2-C , 18-H ) :   0.6768
B(  2-C , 23-H ) :  -0.1528 B(  3-C ,  5-C ) :   1.1191 B(  3-C , 21-H ) :   0.2250
B(  3-C , 22-H ) :   0.1031 B(  3-C , 23-H ) :   0.8248 B(  3-C , 24-H ) :   0.9437
B(  5-C ,  6-C ) :   1.2182 B(  5-C ,  7-H ) :   0.1695 B(  5-C ,  8-H ) :   0.1999
B(  5-C , 21-H ) :   0.7855 B(  5-C , 22-H ) :   0.8949 B(  5-C , 23-H ) :   0.1017
B(  5-C , 24-H ) :   0.1878 B(  6-C ,  7-H ) :   0.8424 B(  6-C ,  8-H ) :   0.6898
B(  6-C ,  9-C ) :   1.2178 B(  6-C , 10-H ) :   0.1456 B(  6-C , 21-H ) :   0.1014
B(  7-H ,  9-C ) :   0.1381 B(  8-H ,  9-C ) :   0.1400 B(  9-C , 10-H ) :   0.9474
B(  9-C , 11-H ) :   0.8192 B(  9-C , 12-C ) :   1.1716 B(  9-C , 14-H ) :   0.1552
B( 10-H , 11-H ) :  -0.1012 B( 10-H , 12-C ) :   0.1005 B( 12-C , 13-C ) :   1.2127
B( 12-C , 14-H ) :   0.7367 B( 12-C , 15-H ) :   0.8971 B( 13-C , 14-H ) :   0.1638
B( 13-C , 15-H ) :   0.2014 B( 13-C , 16-H ) :   0.1224 B( 13-C , 17-H ) :   0.1076
B( 13-C , 19-O ) :   1.7625 B( 13-C , 20-F ) :   0.6177 B( 16-H , 17-H ) :   0.3847
B( 16-H , 20-F ) :   0.1818 B( 16-H , 23-H ) :   0.2207 B( 16-H , 24-H ) :  -0.1529
B( 17-H , 19-O ) :   0.1915 B( 18-H , 23-H ) :  -0.1186

Dispersion correction           -0.010991985
FINAL SINGLE POINT ENERGY      -488.453923685327

DIPOLE MOMENT
-------------
                                X             Y             Z
Electronic contribution:      3.59938      -0.29592      -9.80698
Nuclear contribution   :     -3.57245       1.60200       9.69133
                        -----------------------------------------
Total Dipole Moment    :      0.02694       1.30607      -0.11564
                        -----------------------------------------
Magnitude (a.u.)       :      1.31146
Magnitude (Debye)      :      3.33347

Rotational constants in cm-1:     0.051520     0.042563     0.028962
Rotational constants in MHz :  1544.537298  1275.996546   868.258224

                             ****ORCA TERMINATED NORMALLY****
TOTAL RUN TIME: 0 days 0 hours 0 minutes 50 seconds 268 msec
