                         Program Version 5.0.0 -  RELEASE  -
|  1> !BLYP D3BJ RIJCOSX def2-TZVPD def2/J TightSCF
|  2> *xyz -1 1
|  3> C         -0.90349       -0.87394       -1.98739
|  4> C         -0.96015       -0.52236       -0.48987
|  5> H         -1.69039       -1.20813       -0.02168
|  6> H         -1.41449        0.48633       -0.40668
|  7> O          0.26170       -0.58031        0.13861
|  8> H         -1.88568       -0.80774       -2.40670
|  9> H         -0.53143       -1.87013       -2.10605
| 10> H         -0.25399       -0.18836       -2.49039
| 11> *
| 12>
| 13> %MaxCore 64000
| 14>
| 15> %pal nprocs 4
| 16> end
| 17>
| 18> %scf
| 19>   MaxIter 150
| 20> end
| 21>
| 22>
| 23>                          ****END OF INPUT****

CARTESIAN COORDINATES (ANGSTROEM)
---------------------------------
  C     -0.903490   -0.873940   -1.987390
  C     -0.960150   -0.522360   -0.489870
  H     -1.690390   -1.208130   -0.021680
  H     -1.414490    0.486330   -0.406680
  O      0.261700   -0.580310    0.138610
  H     -1.885680   -0.807740   -2.406700
  H     -0.531430   -1.870130   -2.106050
  H     -0.253990   -0.188360   -2.490390

 Total Charge           Charge          ....   -1
 Multiplicity           Mult            ....    1
 Number of Electrons    NEL             ....   26
 Basis Dimension        Dim             ....  159

ORBITAL ENERGIES
----------------

  NO   OCC          E(Eh)            E(eV)
   0   2.0000     -18.457639      -502.2579
   1   2.0000      -9.722977      -264.5757
   2   2.0000      -9.698473      -263.9089
   3   2.0000      -0.599096       -16.3022
   4   2.0000      -0.455011       -12.3815
   5   2.0000      -0.313487        -8.5304
   6   2.0000      -0.202415        -5.5080
   7   2.0000      -0.181277        -4.9328
   8   2.0000      -0.130642        -3.5550
   9   2.0000      -0.115966        -3.1556
  10   2.0000      -0.073446        -1.9986
  11   2.0000       0.062100         1.6898
  12   2.0000       0.066693         1.8148
  13   0.0000       0.140348         3.8191
  14   0.0000       0.164008         4.4629
  15   0.0000       0.188636         5.1330
  16   0.0000       0.193712         5.2712
  17   0.0000       0.213824         5.8185

MULLIKEN ATOMIC CHARGES
-----------------------
   0 C :   -1.213525
   1 C :   -0.247112
   2 H :    0.213387
   3 H :    0.212813
   4 O :   -0.925270
   5 H :    0.403634
   6 H :    0.278100
   7 H :    0.277974
Sum of atomic charges:   -1.0000000

LOEWDIN ATOMIC CHARGES
----------------------
   0 C :   -0.174596
   1 C :   -0.616134
   2 H :    0.045562
   3 H :    0.046748
   4 O :   -0.383245
   5 H :    0.017062
   6 H :    0.032329
   7 H :    0.032274

  Mayer bond orders larger than 0.100000
B(  0-C ,  1-C ) :   0.7149 B(  0-C ,  4-O ) :   0.6346 B(  0-C ,  5-H ) :   0.9067
B(  0-C ,  6-H ) :   0.9825 B(  0-C ,  7-H ) :   0.9827 B(  1-C ,  2-H ) :   1.0500
B(  1-C ,  3-H ) :   1.0481 B(  1-C ,  4-O ) :   0.7885 B(  2-H ,  3-H ) :   0.1119
B(  4-O ,  5-H ) :  -0.1220

Dispersion correction           -0.007732888
FINAL SINGLE POINT ENERGY      -154.441258672832

DIPOLE MOMENT
-------------
                                X             Y             Z
Electronic contribution:      2.02624       0.19780       2.34875
Nuclear contribution   :     -2.90669      -0.27617      -3.31210
                        -----------------------------------------
Total Dipole Moment    :     -0.88046      -0.07836      -0.96336
                        -----------------------------------------
Magnitude (a.u.)       :      1.30744
Magnitude (Debye)      :      3.32325

Rotational constants in cm-1:     1.291883     0.321656     0.284469
Rotational constants in MHz : 38729.676116  9643.011620  8528.167295

                             ****ORCA TERMINATED NORMALLY****
TOTAL RUN TIME: 0 days 0 hours 0 minutes 9 seconds 57 msec
