                         Program Version 5.0.0 -  RELEASE  -
|  1> !BLYP D3BJ RIJCOSX def2-TZVPD def2/J TightSCF
|  2> *xyz 1 1
|  3> C          4.36645       -0.13321       -1.41606
|  4> C          4.50829       -0.93187       -2.72425
|  5> C          3.05650       -0.32080       -0.70738
|  6> N          2.38983        0.71129       -0.24391
|  7> N          2.51600       -1.50772       -0.55023
|  8> H          2.96768       -2.32291       -0.95631
|  9> H          1.54987       -1.49063       -0.24988
| 10> H          2.74307        1.64947       -0.41280
| 11> H          1.44036        0.50278        0.03703
| 12> H          4.48784        0.93300       -1.61157
| 13> H          5.16967       -0.41443       -0.72982
| 14> H          5.46700       -0.73824       -3.15818
| 15> H          3.74074       -0.63528       -3.40821
| 16> H          4.41574       -1.97727       -2.51573
| 17> *
| 18>
| 19> %MaxCore 64000
| 20>
| 21> %pal nprocs 4
| 22> end
| 23>
| 24> %scf
| 25>   MaxIter 150
| 26> end
| 27>
| 28>
| 29>                          ****END OF INPUT****

CARTESIAN COORDINATES (ANGSTROEM)
---------------------------------
  C      4.366450   -0.133210   -1.416060
  C      4.508290   -0.931870   -2.724250
  C      3.056500   -0.320800   -0.707380
  N      2.389830    0.711290   -0.243910
  N      2.516000   -1.507720   -0.550230
  H      2.967680   -2.322910   -0.956310
  H      1.549870   -1.490630   -0.249880
  H      2.743070    1.649470   -0.412800
  H      1.440360    0.502780    0.037030
  H      4.487840    0.933000   -1.611570
  H      5.169670   -0.414430   -0.729820
  H      5.467000   -0.738240   -3.158180
  H      3.740740   -0.635280   -3.408210
  H      4.415740   -1.977270   -2.515730

 Total Charge           Charge          ....    1
 Multiplicity           Mult            ....    1
 Number of Electrons    NEL             ....   40
 Basis Dimension        Dim             ....  266

ORBITAL ENERGIES
----------------

  NO   OCC          E(Eh)            E(eV)
   0   2.0000     -14.251021      -387.7900
   1   2.0000     -14.249640      -387.7524
   2   2.0000     -10.217515      -278.0327
   3   2.0000     -10.105512      -274.9850
   4   2.0000     -10.062946      -273.8267
   5   2.0000      -1.121044       -30.5052
   6   2.0000      -1.023442       -27.8493
   7   2.0000      -0.892054       -24.2740
   8   2.0000      -0.792419       -21.5628
   9   2.0000      -0.756404       -20.5828
  10   2.0000      -0.711661       -19.3653
  11   2.0000      -0.697992       -18.9933
  12   2.0000      -0.652369       -17.7519
  13   2.0000      -0.606823       -16.5125
  14   2.0000      -0.577727       -15.7208
  15   2.0000      -0.551964       -15.0197
  16   2.0000      -0.509053       -13.8520
  17   2.0000      -0.496251       -13.5037
  18   2.0000      -0.483196       -13.1484
  19   2.0000      -0.451014       -12.2727
  20   0.0000      -0.244429        -6.6513
  21   0.0000      -0.195380        -5.3166
  22   0.0000      -0.151554        -4.1240
  23   0.0000      -0.148378        -4.0376
  24   0.0000      -0.118029        -3.2117

MULLIKEN ATOMIC CHARGES
-----------------------
   0 C :   -0.285787
   1 C :   -1.261891
   2 C :    0.614117
   3 N :   -0.222694
   4 N :   -0.225413
   5 H :    0.200974
   6 H :    0.170473
   7 H :    0.214021
   8 H :    0.172676
   9 H :    0.263520
  10 H :    0.294895
  11 H :    0.328545
  12 H :    0.360604
  13 H :    0.375962
Sum of atomic charges:    1.0000000

LOEWDIN ATOMIC CHARGES
----------------------
   0 C :   -0.132532
   1 C :   -0.046749
   2 C :   -0.366407
   3 N :    0.236880
   4 N :    0.241018
   5 H :    0.142971
   6 H :    0.141947
   7 H :    0.149992
   8 H :    0.140371
   9 H :    0.120989
  10 H :    0.138152
  11 H :    0.085454
  12 H :    0.082880
  13 H :    0.065035

  Mayer bond orders larger than 0.100000
B(  0-C ,  1-C ) :   0.5878 B(  0-C ,  2-C ) :   0.7993 B(  0-C ,  9-H ) :   0.9540
B(  0-C , 10-H ) :   0.9222 B(  1-C , 11-H ) :   0.9745 B(  1-C , 12-H ) :   0.9262
B(  1-C , 13-H ) :   0.8947 B(  2-C ,  3-N ) :   1.2415 B(  2-C ,  4-N ) :   1.2064
B(  3-N ,  4-N ) :   0.1213 B(  3-N ,  7-H ) :   0.9484 B(  3-N ,  8-H ) :   0.9973
B(  4-N ,  5-H ) :   0.9450 B(  4-N ,  6-H ) :   1.0050

Dispersion correction           -0.020577477
FINAL SINGLE POINT ENERGY      -229.027625057756

DIPOLE MOMENT
-------------
                                X             Y             Z
Electronic contribution:     -2.65828       0.62149       3.11345
Nuclear contribution   :      1.78847      -0.48174      -2.67127
                        -----------------------------------------
Total Dipole Moment    :     -0.86981       0.13975       0.44218
                        -----------------------------------------
Magnitude (a.u.)       :      0.98571
Magnitude (Debye)      :      2.50548

Rotational constants in cm-1:     0.286883     0.123210     0.094446
Rotational constants in MHz :  8600.540572  3693.747366  2831.415242

                             ****ORCA TERMINATED NORMALLY****
TOTAL RUN TIME: 0 days 0 hours 0 minutes 15 seconds 74 msec
