                         Program Version 5.0.0 -  RELEASE  -
|  1> !BLYP D3BJ RIJCOSX def2-TZVPD def2/J TightSCF xyzfile
|  2>
|  3> *xyzfile 0 1 B.xyz
|  4>
|  5> %MaxCore 64000
|  6>
|  7> %pal nprocs 4
|  8> end
|  9>
| 10> %scf
| 11>   MaxIter 150
| 12> end
| 13>
| 14>
| 15>                          ****END OF INPUT****

CARTESIAN COORDINATES (ANGSTROEM)
---------------------------------
  C      4.366454   -0.133215   -1.416062
  C      4.508292   -0.931872   -2.724249
  H      4.753716   -1.972051   -2.488408
  C      3.294164   -0.918214   -3.656570
  H      5.385637   -0.536236   -3.242640
  H      2.483463   -1.477378   -3.185764
  H      3.553092   -1.478495   -4.560331
  C      2.772335    0.460100   -4.051448
  H      2.608762    1.065107   -3.155194
  C      1.465354    0.410537   -4.853644
  H      3.532940    0.988848   -4.635671
  C      0.326171   -0.375613   -4.192580
  H      1.666704   -0.022269   -5.839323
  H      1.138198    1.439246   -5.035449
  C     -0.017405    0.080588   -2.778406
  H      0.585573   -1.439385   -4.168057
  H     -0.560005   -0.311425   -4.831461
  H      0.902090    0.201296   -2.206729
  C     -0.903495   -0.873945   -1.987388
  H     -0.479549    1.074657   -2.811915
  H     -0.502554   -1.892096   -2.081204
  H     -1.917039   -0.895427   -2.406277
  C     -0.960148   -0.522365   -0.489867
  H     -1.690392   -1.208130   -0.021677
  H     -1.414490    0.486329   -0.406677
  O      0.261703   -0.580307    0.138611
  C      3.056503   -0.320797   -0.707384
  N      2.389825    0.711285   -0.243909
  N      2.515999   -1.507721   -0.550229
  H      2.967683   -2.322915   -0.956305
  H      1.549872   -1.490634   -0.249876
  H      2.743071    1.649471   -0.412802
  H      1.440364    0.502778    0.037031
  H      4.487835    0.932997   -1.611569
  H      5.169672   -0.414432   -0.729817

 Total Charge           Charge          ....    0
 Multiplicity           Mult            ....    1
 Number of Electrons    NEL             ....  104
 Basis Dimension        Dim             ....  682

ORBITAL ENERGIES
----------------

  NO   OCC          E(Eh)            E(eV)
   0   2.0000     -18.655131      -507.6319
   1   2.0000     -14.032223      -381.8362
   2   2.0000     -14.031868      -381.8265
   3   2.0000     -10.017250      -272.5832
   4   2.0000      -9.946176      -270.6492
   5   2.0000      -9.931521      -270.2504
   6   2.0000      -9.911681      -269.7105
   7   2.0000      -9.905728      -269.5486
   8   2.0000      -9.897611      -269.3277
   9   2.0000      -9.888572      -269.0817
  10   2.0000      -9.887581      -269.0548
  11   2.0000      -9.874918      -268.7102
  12   2.0000      -9.863378      -268.3962
  13   2.0000      -0.915307       -24.9068
  14   2.0000      -0.816798       -22.2262
  15   2.0000      -0.803637       -21.8681
  16   2.0000      -0.751260       -20.4428
  17   2.0000      -0.717604       -19.5270
  18   2.0000      -0.681118       -18.5342
  19   2.0000      -0.644732       -17.5440
  20   2.0000      -0.609683       -16.5903
  21   2.0000      -0.574154       -15.6235
  22   2.0000      -0.556708       -15.1488
  23   2.0000      -0.545546       -14.8451
  24   2.0000      -0.507869       -13.8198
  25   2.0000      -0.492568       -13.4035
  26   2.0000      -0.489833       -13.3290
  27   2.0000      -0.466284       -12.6882
  28   2.0000      -0.450657       -12.2630
  29   2.0000      -0.445999       -12.1363
  30   2.0000      -0.429494       -11.6871
  31   2.0000      -0.410322       -11.1654
  32   2.0000      -0.395744       -10.7687
  33   2.0000      -0.379322       -10.3219
  34   2.0000      -0.369805       -10.0629
  35   2.0000      -0.363645        -9.8953
  36   2.0000      -0.357985        -9.7413
  37   2.0000      -0.352600        -9.5947
  38   2.0000      -0.333567        -9.0768
  39   2.0000      -0.324749        -8.8369
  40   2.0000      -0.316838        -8.6216
  41   2.0000      -0.308404        -8.3921
  42   2.0000      -0.299064        -8.1380
  43   2.0000      -0.294914        -8.0250
  44   2.0000      -0.277333        -7.5466
  45   2.0000      -0.271389        -7.3849
  46   2.0000      -0.262621        -7.1463
  47   2.0000      -0.258163        -7.0250
  48   2.0000      -0.255012        -6.9392
  49   2.0000      -0.244229        -6.6458
  50   2.0000      -0.142962        -3.8902
  51   2.0000      -0.137386        -3.7385
  52   0.0000      -0.053250        -1.4490
  53   0.0000      -0.030710        -0.8357
  54   0.0000      -0.017136        -0.4663
  55   0.0000      -0.002625        -0.0714
  56   0.0000       0.003677         0.1001

MULLIKEN ATOMIC CHARGES
-----------------------
   0 C :   -0.461623
   1 C :   -0.791498
   2 H :    0.317220
   3 C :   -0.301329
   4 H :    0.266758
   5 H :    0.235166
   6 H :    0.307483
   7 C :   -0.567374
   8 H :    0.333284
   9 C :   -0.701552
  10 H :    0.288068
  11 C :   -0.544150
  12 H :    0.282549
  13 H :    0.279696
  14 C :    0.258357
  15 H :    0.190618
  16 H :    0.324716
  17 H :   -0.322065
  18 C :   -0.535592
  19 H :    0.407962
  20 H :    0.200496
  21 H :    0.298515
  22 C :   -0.546668
  23 H :    0.281513
  24 H :    0.279736
  25 O :   -1.025199
  26 C :    0.045806
  27 N :   -0.240624
  28 N :   -0.225134
  29 H :    0.132489
  30 H :    0.450192
  31 H :    0.129333
  32 H :    0.440342
  33 H :    0.291319
  34 H :    0.221190
Sum of atomic charges:   -0.0000000

LOEWDIN ATOMIC CHARGES
----------------------
   0 C :   -0.112516
   1 C :   -0.186365
   2 H :    0.103181
   3 C :   -0.205068
   4 H :    0.110317
   5 H :    0.089344
   6 H :    0.118378
   7 C :   -0.206615
   8 H :    0.091752
   9 C :   -0.199898
  10 H :    0.112301
  11 C :   -0.213368
  12 H :    0.104536
  13 H :    0.106054
  14 C :   -0.217790
  15 H :    0.098362
  16 H :    0.108969
  17 H :    0.070573
  18 C :   -0.198394
  19 H :    0.121025
  20 H :    0.102992
  21 H :    0.104337
  22 C :   -0.393959
  23 H :    0.091831
  24 H :    0.096252
  25 O :   -0.294050
  26 C :   -0.404443
  27 N :    0.203380
  28 N :    0.219248
  29 H :    0.127885
  30 H :    0.048515
  31 H :    0.128171
  32 H :    0.042588
  33 H :    0.109707
  34 H :    0.122770

  Mayer bond orders larger than 0.100000
B(  0-C ,  1-C ) :   0.7983 B(  0-C ,  3-C ) :  -0.1272 B(  0-C ,  7-C ) :   0.1491
B(  0-C , 26-C ) :   0.7812 B(  0-C , 33-H ) :   0.9700 B(  0-C , 34-H ) :   0.9775
B(  1-C ,  2-H ) :   0.9230 B(  1-C ,  3-C ) :   0.7548 B(  1-C ,  4-H ) :   0.9217
B(  1-C ,  7-C ) :   0.1723 B(  3-C ,  5-H ) :   1.0420 B(  3-C ,  6-H ) :   0.8818
B(  3-C ,  7-C ) :   0.3366 B(  3-C ,  9-C ) :   0.1178 B(  3-C , 11-C ) :   0.1341
B(  5-H ,  7-C ) :  -0.1145 B(  7-C ,  8-H ) :   0.9671 B(  7-C ,  9-C ) :   0.8721
B(  7-C , 10-H ) :   0.9125 B(  9-C , 11-C ) :   0.7918 B(  9-C , 12-H ) :   0.9422
B(  9-C , 13-H ) :   0.9575 B(  9-C , 14-C ) :   0.1108 B( 11-C , 14-C ) :   0.3847
B( 11-C , 15-H ) :   1.0090 B( 11-C , 16-H ) :   0.8966 B( 11-C , 17-H ) :  -0.2657
B( 11-C , 18-C ) :   0.3636 B( 14-C , 15-H ) :  -0.1239 B( 14-C , 17-H ) :   1.8222
B( 14-C , 18-C ) :   0.5369 B( 14-C , 19-H ) :   0.7574 B( 14-C , 22-C ) :   0.1380
B( 14-C , 25-O ) :   0.2247 B( 14-C , 27-N ) :  -0.1437 B( 15-H , 18-C ) :   0.1199
B( 17-H , 25-O ) :  -0.1557 B( 18-C , 20-H ) :   0.9456 B( 18-C , 21-H ) :   0.9854
B( 18-C , 22-C ) :   0.7497 B( 22-C , 23-H ) :   0.9471 B( 22-C , 24-H ) :   0.9582
B( 22-C , 25-O ) :   0.9540 B( 25-O , 30-H ) :   0.1754 B( 25-O , 32-H ) :   0.1222
B( 26-C , 27-N ) :   1.5451 B( 26-C , 28-N ) :   1.3999 B( 26-C , 33-H ) :  -0.1092
B( 27-N , 31-H ) :   0.9786 B( 27-N , 32-H ) :   0.6574 B( 28-N , 29-H ) :   0.9497
B( 28-N , 30-H ) :   0.6455

Dispersion correction           -0.078434538
FINAL SINGLE POINT ENERGY      -579.025572110638

DIPOLE MOMENT
-------------
                                X             Y             Z
Electronic contribution:      2.65572      -0.27978       7.61662
Nuclear contribution   :     -0.17996       0.53390      -8.68067
                        -----------------------------------------
Total Dipole Moment    :      2.47576       0.25413      -1.06405
                        -----------------------------------------
Magnitude (a.u.)       :      2.70669
Magnitude (Debye)      :      6.87986

Rotational constants in cm-1:     0.028240     0.022734     0.014600
Rotational constants in MHz :   846.611263   681.554306   437.693928

                             ****ORCA TERMINATED NORMALLY****
TOTAL RUN TIME: 0 days 0 hours 1 minutes 44 seconds 854 msec
