                         Program Version 5.0.0 -  RELEASE  -
|  1> !BLYP D3BJ RIJCOSX def2-TZVPD def2/J TightSCF
|  2> *xyz 0 1
|  3> C         -0.90349       -0.87394       -1.98739
|  4> C         -0.96015       -0.52236       -0.48987
|  5> H         -1.69039       -1.20813       -0.02168
|  6> H         -1.41449        0.48633       -0.40668
|  7> F          0.26170       -0.58031        0.13861
|  8> H         -1.88568       -0.80774       -2.40670
|  9> H         -0.53143       -1.87013       -2.10605
| 10> H         -0.25399       -0.18836       -2.49039
| 11> *
| 12>
| 13> %MaxCore 64000
| 14>
| 15> %pal nprocs 4
| 16> end
| 17>
| 18> %scf
| 19>   MaxIter 150
| 20> end
| 21>
| 22>
| 23>                          ****END OF INPUT****

CARTESIAN COORDINATES (ANGSTROEM)
---------------------------------
  C     -0.903490   -0.873940   -1.987390
  C     -0.960150   -0.522360   -0.489870
  H     -1.690390   -1.208130   -0.021680
  H     -1.414490    0.486330   -0.406680
  F      0.261700   -0.580310    0.138610
  H     -1.885680   -0.807740   -2.406700
  H     -0.531430   -1.870130   -2.106050
  H     -0.253990   -0.188360   -2.490390

 Total Charge           Charge          ....    0
 Multiplicity           Mult            ....    1
 Number of Electrons    NEL             ....   26
 Basis Dimension        Dim             ....  159

ORBITAL ENERGIES
----------------

  NO   OCC          E(Eh)            E(eV)
   0   2.0000     -24.273106      -660.5048
   1   2.0000      -9.981395      -271.6076
   2   2.0000      -9.900260      -269.3998
   3   2.0000      -1.090238       -29.6669
   4   2.0000      -0.687587       -18.7102
   5   2.0000      -0.564530       -15.3616
   6   2.0000      -0.450317       -12.2538
   7   2.0000      -0.436352       -11.8737
   8   2.0000      -0.398775       -10.8512
   9   2.0000      -0.354101        -9.6356
  10   2.0000      -0.352332        -9.5874
  11   2.0000      -0.286245        -7.7891
  12   2.0000      -0.282364        -7.6835
  13   0.0000      -0.006932        -0.1886
  14   0.0000       0.020727         0.5640
  15   0.0000       0.033664         0.9160
  16   0.0000       0.039572         1.0768
  17   0.0000       0.063284         1.7220

MULLIKEN ATOMIC CHARGES
-----------------------
   0 C :   -0.945976
   1 C :   -0.083014
   2 H :    0.222487
   3 H :    0.221005
   4 F :   -0.302878
   5 H :    0.320781
   6 H :    0.283877
   7 H :    0.283717
Sum of atomic charges:   -0.0000000

LOEWDIN ATOMIC CHARGES
----------------------
   0 C :   -0.075514
   1 C :   -0.292814
   2 H :    0.105870
   3 H :    0.107571
   4 F :   -0.030785
   5 H :    0.063860
   6 H :    0.060929
   7 H :    0.060883

  Mayer bond orders larger than 0.100000
B(  0-C ,  1-C ) :   0.7269 B(  0-C ,  5-H ) :   0.9281 B(  0-C ,  6-H ) :   0.9559
B(  0-C ,  7-H ) :   0.9559 B(  1-C ,  2-H ) :   0.9663 B(  1-C ,  3-H ) :   0.9654
B(  1-C ,  4-F ) :   0.8202

Dispersion correction           -0.007126479
FINAL SINGLE POINT ENERGY      -179.084326284121

DIPOLE MOMENT
-------------
                                X             Y             Z
Electronic contribution:      3.25399       0.37440       3.99755
Nuclear contribution   :     -3.84149      -0.36812      -4.38946
                        -----------------------------------------
Total Dipole Moment    :     -0.58750       0.00628      -0.39191
                        -----------------------------------------
Magnitude (a.u.)       :      0.70625
Magnitude (Debye)      :      1.79516

Rotational constants in cm-1:     1.270659     0.299196     0.265842
Rotational constants in MHz : 38093.410361  8969.665806  7969.741481

                             ****ORCA TERMINATED NORMALLY****
TOTAL RUN TIME: 0 days 0 hours 0 minutes 6 seconds 588 msec
