                         Program Version 5.0.0 -  RELEASE  -
|  1> !BLYP D3BJ RIJCOSX def2-TZVPD def2/J TightSCF
|  2> *xyz 0 1
|  3> C          4.36645       -0.13321       -1.41606
|  4> C          4.50829       -0.93187       -2.72425
|  5> C          3.05650       -0.32080       -0.70738
|  6> C          2.38983        0.71129       -0.24391
|  7> N          2.51600       -1.50772       -0.55023
|  8> H          2.96768       -2.32291       -0.95631
|  9> H          1.54987       -1.49063       -0.24988
| 10> H          2.74307        1.64947       -0.41280
| 11> H          1.44036        0.50278        0.03703
| 12> H          4.48784        0.93300       -1.61157
| 13> H          5.16967       -0.41443       -0.72982
| 14> H          5.46700       -0.73824       -3.15818
| 15> H          3.74074       -0.63528       -3.40821
| 16> H          4.41574       -1.97727       -2.51573
| 17> *
| 18>
| 19> %MaxCore 64000
| 20>
| 21> %pal nprocs 4
| 22> end
| 23>
| 24> %scf
| 25>   MaxIter 150
| 26> end
| 27>
| 28>
| 29>                          ****END OF INPUT****

CARTESIAN COORDINATES (ANGSTROEM)
---------------------------------
  C      4.366450   -0.133210   -1.416060
  C      4.508290   -0.931870   -2.724250
  C      3.056500   -0.320800   -0.707380
  C      2.389830    0.711290   -0.243910
  N      2.516000   -1.507720   -0.550230
  H      2.967680   -2.322910   -0.956310
  H      1.549870   -1.490630   -0.249880
  H      2.743070    1.649470   -0.412800
  H      1.440360    0.502780    0.037030
  H      4.487840    0.933000   -1.611570
  H      5.169670   -0.414430   -0.729820
  H      5.467000   -0.738240   -3.158180
  H      3.740740   -0.635280   -3.408210
  H      4.415740   -1.977270   -2.515730

 Total Charge           Charge          ....    0
 Multiplicity           Mult            ....    1
 Number of Electrons    NEL             ....   40
 Basis Dimension        Dim             ....  266

ORBITAL ENERGIES
----------------

  NO   OCC          E(Eh)            E(eV)
   0   2.0000     -14.005872      -381.1191
   1   2.0000      -9.917732      -269.8752
   2   2.0000      -9.905218      -269.5347
   3   2.0000      -9.895542      -269.2714
   4   2.0000      -9.835572      -267.6395
   5   2.0000      -0.846085       -23.0231
   6   2.0000      -0.699225       -19.0269
   7   2.0000      -0.646687       -17.5973
   8   2.0000      -0.568256       -15.4630
   9   2.0000      -0.502856       -13.6834
  10   2.0000      -0.478814       -13.0292
  11   2.0000      -0.416270       -11.3273
  12   2.0000      -0.389858       -10.6086
  13   2.0000      -0.379378       -10.3234
  14   2.0000      -0.344923        -9.3858
  15   2.0000      -0.332951        -9.0601
  16   2.0000      -0.313293        -8.5251
  17   2.0000      -0.298754        -8.1295
  18   2.0000      -0.280596        -7.6354
  19   2.0000      -0.154267        -4.1978
  20   0.0000      -0.016605        -0.4518
  21   0.0000       0.005614         0.1528
  22   0.0000       0.016997         0.4625
  23   0.0000       0.021603         0.5879
  24   0.0000       0.035965         0.9787

MULLIKEN ATOMIC CHARGES
-----------------------
   0 C :   -0.225107
   1 C :   -1.213107
   2 C :    0.665747
   3 C :   -1.148860
   4 N :   -0.301012
   5 H :    0.141271
   6 H :    0.123392
   7 H :    0.303152
   8 H :    0.280386
   9 H :    0.181619
  10 H :    0.228742
  11 H :    0.323084
  12 H :    0.324383
  13 H :    0.316311
Sum of atomic charges:   -0.0000000

LOEWDIN ATOMIC CHARGES
----------------------
   0 C :   -0.186236
   1 C :   -0.087030
   2 C :   -0.498427
   3 C :    0.020971
   4 N :    0.113580
   5 H :    0.098459
   6 H :    0.106317
   7 H :    0.020108
   8 H :    0.018571
   9 H :    0.104726
  10 H :    0.109991
  11 H :    0.061171
  12 H :    0.068882
  13 H :    0.048917

  Mayer bond orders larger than 0.100000
B(  0-C ,  1-C ) :   0.5470 B(  0-C ,  2-C ) :   0.7984 B(  0-C ,  9-H ) :   0.9951
B(  0-C , 10-H ) :   0.9097 B(  1-C , 11-H ) :   0.9675 B(  1-C , 12-H ) :   0.9680
B(  1-C , 13-H ) :   0.9438 B(  2-C ,  3-C ) :   1.1840 B(  2-C ,  4-N ) :   1.0166
B(  2-C ,  8-H ) :  -0.1530 B(  3-C ,  4-N ) :   0.1064 B(  3-C ,  7-H ) :   0.9251
B(  3-C ,  8-H ) :   1.0745 B(  4-N ,  5-H ) :   1.0154 B(  4-N ,  6-H ) :   1.0102

Dispersion correction           -0.021424965
FINAL SINGLE POINT ENERGY      -212.545849243297

DIPOLE MOMENT
-------------
                                X             Y             Z
Electronic contribution:     -1.49675      -0.43020       2.08171
Nuclear contribution   :      1.56827      -0.21459      -2.46657
                        -----------------------------------------
Total Dipole Moment    :      0.07151      -0.64479      -0.38486
                        -----------------------------------------
Magnitude (a.u.)       :      0.75431
Magnitude (Debye)      :      1.91730

Rotational constants in cm-1:     0.294070     0.127722     0.097792
Rotational constants in MHz :  8815.983970  3829.010547  2931.715816

                             ****ORCA TERMINATED NORMALLY****
TOTAL RUN TIME: 0 days 0 hours 0 minutes 14 seconds 642 msec
