                         Program Version 5.0.0 -  RELEASE  -
|  1> !BLYP D3BJ RIJCOSX def2-TZVPD def2/J TightSCF
|  2> *xyz 0 1
|  3> C          4.36645       -0.13321       -1.41606
|  4> C          4.50829       -0.93187       -2.72425
|  5> C          3.05650       -0.32080       -0.70738
|  6> N          2.38983        0.71129       -0.24391
|  7> C          2.51600       -1.50772       -0.55023
|  8> H          2.96768       -2.32291       -0.95631
|  9> H          1.54987       -1.49063       -0.24988
| 10> H          2.74307        1.64947       -0.41280
| 11> H          1.44036        0.50278        0.03703
| 12> H          4.48784        0.93300       -1.61157
| 13> H          5.16967       -0.41443       -0.72982
| 14> H          5.46700       -0.73824       -3.15818
| 15> H          3.74074       -0.63528       -3.40821
| 16> H          4.41574       -1.97727       -2.51573
| 17> *
| 18>
| 19> %MaxCore 64000
| 20>
| 21> %pal nprocs 4
| 22> end
| 23>
| 24> %scf
| 25>   MaxIter 150
| 26> end
| 27>
| 28>
| 29>                          ****END OF INPUT****

CARTESIAN COORDINATES (ANGSTROEM)
---------------------------------
  C      4.366450   -0.133210   -1.416060
  C      4.508290   -0.931870   -2.724250
  C      3.056500   -0.320800   -0.707380
  N      2.389830    0.711290   -0.243910
  C      2.516000   -1.507720   -0.550230
  H      2.967680   -2.322910   -0.956310
  H      1.549870   -1.490630   -0.249880
  H      2.743070    1.649470   -0.412800
  H      1.440360    0.502780    0.037030
  H      4.487840    0.933000   -1.611570
  H      5.169670   -0.414430   -0.729820
  H      5.467000   -0.738240   -3.158180
  H      3.740740   -0.635280   -3.408210
  H      4.415740   -1.977270   -2.515730

 Total Charge           Charge          ....    0
 Multiplicity           Mult            ....    1
 Number of Electrons    NEL             ....   40
 Basis Dimension        Dim             ....  266

ORBITAL ENERGIES
----------------

  NO   OCC          E(Eh)            E(eV)
   0   2.0000     -14.006731      -381.1425
   1   2.0000      -9.917829      -269.8778
   2   2.0000      -9.906720      -269.5756
   3   2.0000      -9.889406      -269.1044
   4   2.0000      -9.833923      -267.5947
   5   2.0000      -0.846400       -23.0317
   6   2.0000      -0.700466       -19.0606
   7   2.0000      -0.636636       -17.3237
   8   2.0000      -0.577103       -15.7038
   9   2.0000      -0.494221       -13.4484
  10   2.0000      -0.476498       -12.9662
  11   2.0000      -0.423741       -11.5306
  12   2.0000      -0.398427       -10.8418
  13   2.0000      -0.358030        -9.7425
  14   2.0000      -0.342763        -9.3271
  15   2.0000      -0.332875        -9.0580
  16   2.0000      -0.312804        -8.5118
  17   2.0000      -0.297975        -8.1083
  18   2.0000      -0.281819        -7.6687
  19   2.0000      -0.152702        -4.1552
  20   0.0000      -0.013568        -0.3692
  21   0.0000       0.002639         0.0718
  22   0.0000       0.016893         0.4597
  23   0.0000       0.021138         0.5752
  24   0.0000       0.038619         1.0509

MULLIKEN ATOMIC CHARGES
-----------------------
   0 C :   -0.267431
   1 C :   -1.155802
   2 C :    0.699659
   3 N :   -0.287452
   4 C :   -1.204406
   5 H :    0.272756
   6 H :    0.279934
   7 H :    0.156094
   8 H :    0.127628
   9 H :    0.212415
  10 H :    0.237635
  11 H :    0.318167
  12 H :    0.320048
  13 H :    0.290755
Sum of atomic charges:    0.0000000

LOEWDIN ATOMIC CHARGES
----------------------
   0 C :   -0.186122
   1 C :   -0.084445
   2 C :   -0.495137
   3 N :    0.107884
   4 C :    0.020495
   5 H :    0.017229
   6 H :    0.020252
   7 H :    0.102008
   8 H :    0.104640
   9 H :    0.097003
  10 H :    0.112210
  11 H :    0.059407
  12 H :    0.069191
  13 H :    0.055387

  Mayer bond orders larger than 0.100000
B(  0-C ,  1-C ) :   0.5687 B(  0-C ,  2-C ) :   0.6085 B(  0-C ,  9-H ) :   1.0542
B(  0-C , 10-H ) :   0.9394 B(  1-C , 11-H ) :   0.9549 B(  1-C , 12-H ) :   0.9557
B(  1-C , 13-H ) :   0.9816 B(  2-C ,  3-N ) :   1.0810 B(  2-C ,  4-C ) :   1.1091
B(  2-C ,  6-H ) :  -0.1602 B(  2-C ,  9-H ) :  -0.1354 B(  3-N ,  4-C ) :   0.1265
B(  3-N ,  7-H ) :   1.0222 B(  3-N ,  8-H ) :   0.9979 B(  4-C ,  5-H ) :   0.9621
B(  4-C ,  6-H ) :   1.0753

Dispersion correction           -0.021511839
FINAL SINGLE POINT ENERGY      -212.544779690009

DIPOLE MOMENT
-------------
                                X             Y             Z
Electronic contribution:     -1.60897       1.45207       2.35911
Nuclear contribution   :      1.59749      -0.72853      -2.53752
                        -----------------------------------------
Total Dipole Moment    :     -0.01148       0.72354      -0.17841
                        -----------------------------------------
Magnitude (a.u.)       :      0.74529
Magnitude (Debye)      :      1.89439

Rotational constants in cm-1:     0.304597     0.124127     0.096828
Rotational constants in MHz :  9131.600925  3721.227051  2902.830760

                             ****ORCA TERMINATED NORMALLY****
TOTAL RUN TIME: 0 days 0 hours 0 minutes 15 seconds 499 msec
