                         Program Version 5.0.0 -  RELEASE  -
|  1> !BLYP D3BJ RIJCOSX def2-TZVPD def2/J TightSCF xyzfile
|  2>
|  3> *xyzfile 0 1 D1.xyz
|  4>
|  5> %MaxCore 64000
|  6>
|  7> %pal nprocs 4
|  8> end
|  9>
| 10> %scf
| 11>   MaxIter 150
| 12> end
| 13>
| 14>
| 15>                          ****END OF INPUT****

CARTESIAN COORDINATES (ANGSTROEM)
---------------------------------
  C      4.366454   -0.133215   -1.416062
  C      4.508292   -0.931872   -2.724249
  H      4.753716   -1.972051   -2.488408
  C      3.294164   -0.918214   -3.656570
  H      5.385637   -0.536236   -3.242640
  H      2.483463   -1.477378   -3.185764
  H      3.553092   -1.478495   -4.560331
  C      2.772335    0.460100   -4.051448
  H      2.608762    1.065107   -3.155194
  C      1.465354    0.410537   -4.853644
  H      3.532940    0.988848   -4.635671
  C      0.326171   -0.375613   -4.192580
  H      1.666704   -0.022269   -5.839323
  H      1.138198    1.439246   -5.035449
  C     -0.017405    0.080588   -2.778406
  H      0.585573   -1.439385   -4.168057
  H     -0.560005   -0.311425   -4.831461
  H      0.902090    0.201296   -2.206729
  C     -0.903495   -0.873945   -1.987388
  H     -0.479549    1.074657   -2.811915
  H     -0.502554   -1.892096   -2.081204
  H     -1.917039   -0.895427   -2.406277
  C     -0.960148   -0.522365   -0.489867
  H     -1.690392   -1.208130   -0.021677
  H     -1.414490    0.486329   -0.406677
  F      0.261703   -0.580307    0.138611
  C      3.056503   -0.320797   -0.707384
  C      2.389825    0.711285   -0.243909
  N      2.515999   -1.507721   -0.550229
  H      2.967683   -2.322915   -0.956305
  H      1.549872   -1.490634   -0.249876
  H      2.743071    1.649471   -0.412802
  H      1.440364    0.502778    0.037031
  H      4.487835    0.932997   -1.611569
  H      5.169672   -0.414432   -0.729817

 Total Charge           Charge          ....    0
 Multiplicity           Mult            ....    1
 Number of Electrons    NEL             ....  104
 Basis Dimension        Dim             ....  682

ORBITAL ENERGIES
----------------

  NO   OCC          E(Eh)            E(eV)
   0   2.0000     -24.302834      -661.3137
   1   2.0000     -13.982342      -380.4789
   2   2.0000      -9.993203      -271.9289
   3   2.0000      -9.915824      -269.8233
   4   2.0000      -9.901645      -269.4375
   5   2.0000      -9.896499      -269.2974
   6   2.0000      -9.896457      -269.2963
   7   2.0000      -9.894305      -269.2377
   8   2.0000      -9.894158      -269.2337
   9   2.0000      -9.891985      -269.1746
  10   2.0000      -9.889889      -269.1176
  11   2.0000      -9.887948      -269.0647
  12   2.0000      -9.811642      -266.9884
  13   2.0000      -1.130012       -30.7492
  14   2.0000      -0.829639       -22.5756
  15   2.0000      -0.736384       -20.0380
  16   2.0000      -0.715932       -19.4815
  17   2.0000      -0.691544       -18.8179
  18   2.0000      -0.656662       -17.8687
  19   2.0000      -0.631153       -17.1745
  20   2.0000      -0.612760       -16.6740
  21   2.0000      -0.569084       -15.4856
  22   2.0000      -0.549691       -14.9579
  23   2.0000      -0.521497       -14.1907
  24   2.0000      -0.496437       -13.5087
  25   2.0000      -0.482002       -13.1160
  26   2.0000      -0.475511       -12.9393
  27   2.0000      -0.468179       -12.7398
  28   2.0000      -0.452856       -12.3228
  29   2.0000      -0.430578       -11.7166
  30   2.0000      -0.415193       -11.2980
  31   2.0000      -0.405753       -11.0411
  32   2.0000      -0.390880       -10.6364
  33   2.0000      -0.386364       -10.5135
  34   2.0000      -0.376443       -10.2435
  35   2.0000      -0.371246       -10.1021
  36   2.0000      -0.346509        -9.4290
  37   2.0000      -0.340038        -9.2529
  38   2.0000      -0.332670        -9.0524
  39   2.0000      -0.325330        -8.8527
  40   2.0000      -0.318693        -8.6721
  41   2.0000      -0.309007        -8.4085
  42   2.0000      -0.302478        -8.2308
  43   2.0000      -0.297812        -8.1039
  44   2.0000      -0.293565        -7.9883
  45   2.0000      -0.287736        -7.8297
  46   2.0000      -0.270997        -7.3742
  47   2.0000      -0.267429        -7.2771
  48   2.0000      -0.263859        -7.1800
  49   2.0000      -0.260878        -7.0989
  50   2.0000      -0.255522        -6.9531
  51   2.0000      -0.138693        -3.7740
  52   0.0000      -0.013949        -0.3796
  53   0.0000      -0.006094        -0.1658
  54   0.0000       0.000967         0.0263
  55   0.0000       0.004601         0.1252
  56   0.0000       0.016831         0.4580

MULLIKEN ATOMIC CHARGES
-----------------------
   0 C :   -0.458891
   1 C :   -0.830925
   2 H :    0.295378
   3 C :   -0.231770
   4 H :    0.252909
   5 H :    0.218417
   6 H :    0.277701
   7 C :   -0.593626
   8 H :    0.345934
   9 C :   -0.683153
  10 H :    0.288155
  11 C :   -0.622659
  12 H :    0.287074
  13 H :    0.282584
  14 C :    0.199214
  15 H :    0.231487
  16 H :    0.322225
  17 H :   -0.127244
  18 C :   -0.615223
  19 H :    0.353068
  20 H :    0.234151
  21 H :    0.292695
  22 C :   -0.356768
  23 H :    0.281997
  24 H :    0.294740
  25 F :   -0.449425
  26 C :    0.325134
  27 C :   -1.541449
  28 N :   -0.320039
  29 H :    0.085751
  30 H :    0.468942
  31 H :    0.350440
  32 H :    0.701673
  33 H :    0.205361
  34 H :    0.236144
Sum of atomic charges:    0.0000000

LOEWDIN ATOMIC CHARGES
----------------------
   0 C :   -0.138338
   1 C :   -0.193032
   2 H :    0.098285
   3 C :   -0.207867
   4 H :    0.104294
   5 H :    0.085455
   6 H :    0.113019
   7 C :   -0.202456
   8 H :    0.097070
   9 C :   -0.198771
  10 H :    0.112304
  11 C :   -0.210215
  12 H :    0.104562
  13 H :    0.105449
  14 C :   -0.210713
  15 H :    0.100089
  16 H :    0.107804
  17 H :    0.074675
  18 C :   -0.174668
  19 H :    0.124337
  20 H :    0.111320
  21 H :    0.116900
  22 C :   -0.193665
  23 H :    0.116551
  24 H :    0.125077
  25 F :   -0.065551
  26 C :   -0.484122
  27 C :    0.018723
  28 N :    0.133288
  29 H :    0.108288
  30 H :    0.071269
  31 H :    0.031635
  32 H :   -0.000470
  33 H :    0.107052
  34 H :    0.112423

  Mayer bond orders larger than 0.100000
B(  0-C ,  1-C ) :   0.7955 B(  0-C ,  3-C ) :  -0.1536 B(  0-C ,  7-C ) :   0.1640
B(  0-C , 26-C ) :   0.6622 B(  0-C , 33-H ) :   1.0140 B(  0-C , 34-H ) :   0.9191
B(  1-C ,  2-H ) :   0.9295 B(  1-C ,  3-C ) :   0.7819 B(  1-C ,  4-H ) :   0.9329
B(  1-C ,  7-C ) :   0.1888 B(  3-C ,  5-H ) :   1.0196 B(  3-C ,  6-H ) :   0.9036
B(  3-C ,  7-C ) :   0.3245 B(  3-C ,  8-H ) :  -0.1014 B(  3-C ,  9-C ) :   0.1127
B(  3-C , 11-C ) :   0.1625 B(  5-H ,  7-C ) :  -0.1287 B(  7-C ,  8-H ) :   1.0137
B(  7-C ,  9-C ) :   0.8067 B(  7-C , 10-H ) :   0.8901 B(  9-C , 11-C ) :   0.8509
B(  9-C , 12-H ) :   0.9362 B(  9-C , 13-H ) :   0.9531 B( 11-C , 14-C ) :   0.3600
B( 11-C , 15-H ) :   0.9877 B( 11-C , 16-H ) :   0.8947 B( 11-C , 17-H ) :  -0.1771
B( 11-C , 18-C ) :   0.3855 B( 14-C , 17-H ) :   1.6844 B( 14-C , 18-C ) :   0.4694
B( 14-C , 19-H ) :   0.7686 B( 14-C , 22-C ) :   0.1503 B( 14-C , 26-C ) :  -0.1303
B( 17-H , 19-H ) :   0.1038 B( 18-C , 20-H ) :   0.9369 B( 18-C , 21-H ) :   0.9761
B( 18-C , 22-C ) :   0.7776 B( 22-C , 23-H ) :   0.9381 B( 22-C , 24-H ) :   0.9232
B( 22-C , 25-F ) :   0.8085 B( 25-F , 27-C ) :   0.1045 B( 26-C , 27-C ) :   1.6275
B( 26-C , 28-N ) :   0.9146 B( 27-C , 31-H ) :   0.9169 B( 27-C , 32-H ) :   0.7455
B( 28-N , 29-H ) :   0.9816 B( 28-N , 30-H ) :   0.7251

Dispersion correction           -0.078386322
FINAL SINGLE POINT ENERGY      -586.947351563759

DIPOLE MOMENT
-------------
                                X             Y             Z
Electronic contribution:     -2.67577      -1.59655      10.48755
Nuclear contribution   :      1.82572       1.04089     -11.09065
                        -----------------------------------------
Total Dipole Moment    :     -0.85006      -0.55566      -0.60310
                        -----------------------------------------
Magnitude (a.u.)       :      1.18114
Magnitude (Debye)      :      3.00221

Rotational constants in cm-1:     0.028436     0.022359     0.014416
Rotational constants in MHz :   852.496561   670.291843   432.183951

                             ****ORCA TERMINATED NORMALLY****
TOTAL RUN TIME: 0 days 0 hours 1 minutes 37 seconds 76 msec
