                         Program Version 5.0.0 -  RELEASE  -
|  1> !BLYP D3BJ RIJCOSX def2-TZVPD def2/J TightSCF xyzfile
|  2>
|  3> *xyzfile 0 1 D2.xyz
|  4>
|  5> %MaxCore 64000
|  6>
|  7> %pal nprocs 4
|  8> end
|  9>
| 10> %scf
| 11>   MaxIter 150
| 12> end
| 13>
| 14>
| 15>                          ****END OF INPUT****

CARTESIAN COORDINATES (ANGSTROEM)
---------------------------------
  C      4.366454   -0.133215   -1.416062
  C      4.508292   -0.931872   -2.724249
  H      4.753716   -1.972051   -2.488408
  C      3.294164   -0.918214   -3.656570
  H      5.385637   -0.536236   -3.242640
  H      2.483463   -1.477378   -3.185764
  H      3.553092   -1.478495   -4.560331
  C      2.772335    0.460100   -4.051448
  H      2.608762    1.065107   -3.155194
  C      1.465354    0.410537   -4.853644
  H      3.532940    0.988848   -4.635671
  C      0.326171   -0.375613   -4.192580
  H      1.666704   -0.022269   -5.839323
  H      1.138198    1.439246   -5.035449
  C     -0.017405    0.080588   -2.778406
  H      0.585573   -1.439385   -4.168057
  H     -0.560005   -0.311425   -4.831461
  H      0.902090    0.201296   -2.206729
  C     -0.903495   -0.873945   -1.987388
  H     -0.479549    1.074657   -2.811915
  H     -0.502554   -1.892096   -2.081204
  H     -1.917039   -0.895427   -2.406277
  C     -0.960148   -0.522365   -0.489867
  H     -1.690392   -1.208130   -0.021677
  H     -1.414490    0.486329   -0.406677
  F      0.261703   -0.580307    0.138611
  C      3.056503   -0.320797   -0.707384
  N      2.389825    0.711285   -0.243909
  C      2.515999   -1.507721   -0.550229
  H      2.967683   -2.322915   -0.956305
  H      1.549872   -1.490634   -0.249876
  H      2.743071    1.649471   -0.412802
  H      1.440364    0.502778    0.037031
  H      4.487835    0.932997   -1.611569
  H      5.169672   -0.414432   -0.729817

 Total Charge           Charge          ....    0
 Multiplicity           Mult            ....    1
 Number of Electrons    NEL             ....  104
 Basis Dimension        Dim             ....  682

ORBITAL ENERGIES
----------------

  NO   OCC          E(Eh)            E(eV)
   0   2.0000     -24.302939      -661.3166
   1   2.0000     -13.982296      -380.4776
   2   2.0000      -9.993448      -271.9356
   3   2.0000      -9.914299      -269.7818
   4   2.0000      -9.901006      -269.4201
   5   2.0000      -9.896798      -269.3056
   6   2.0000      -9.896317      -269.2925
   7   2.0000      -9.894654      -269.2472
   8   2.0000      -9.893494      -269.2156
   9   2.0000      -9.892128      -269.1785
  10   2.0000      -9.889597      -269.1096
  11   2.0000      -9.883972      -268.9565
  12   2.0000      -9.809819      -266.9387
  13   2.0000      -1.130115       -30.7520
  14   2.0000      -0.829399       -22.5691
  15   2.0000      -0.736245       -20.0342
  16   2.0000      -0.715312       -19.4646
  17   2.0000      -0.692152       -18.8344
  18   2.0000      -0.653602       -17.7854
  19   2.0000      -0.624752       -17.0004
  20   2.0000      -0.613789       -16.7020
  21   2.0000      -0.572297       -15.5730
  22   2.0000      -0.550982       -14.9930
  23   2.0000      -0.522885       -14.2284
  24   2.0000      -0.494226       -13.4486
  25   2.0000      -0.483724       -13.1628
  26   2.0000      -0.473203       -12.8765
  27   2.0000      -0.462674       -12.5900
  28   2.0000      -0.449061       -12.2196
  29   2.0000      -0.427733       -11.6392
  30   2.0000      -0.420325       -11.4376
  31   2.0000      -0.408236       -11.1087
  32   2.0000      -0.395076       -10.7506
  33   2.0000      -0.384550       -10.4641
  34   2.0000      -0.376567       -10.2469
  35   2.0000      -0.363844        -9.9007
  36   2.0000      -0.346328        -9.4241
  37   2.0000      -0.339312        -9.2331
  38   2.0000      -0.332370        -9.0442
  39   2.0000      -0.320599        -8.7239
  40   2.0000      -0.317040        -8.6271
  41   2.0000      -0.310640        -8.4529
  42   2.0000      -0.305815        -8.3216
  43   2.0000      -0.301159        -8.1950
  44   2.0000      -0.288411        -7.8481
  45   2.0000      -0.283279        -7.7084
  46   2.0000      -0.272133        -7.4051
  47   2.0000      -0.266096        -7.2408
  48   2.0000      -0.264533        -7.1983
  49   2.0000      -0.258409        -7.0317
  50   2.0000      -0.256890        -6.9903
  51   2.0000      -0.136790        -3.7222
  52   0.0000      -0.012746        -0.3468
  53   0.0000      -0.004482        -0.1219
  54   0.0000       0.000570         0.0155
  55   0.0000       0.004312         0.1173
  56   0.0000       0.013848         0.3768

MULLIKEN ATOMIC CHARGES
-----------------------
   0 C :   -0.643116
   1 C :   -0.646167
   2 H :    0.290337
   3 C :   -0.334847
   4 H :    0.281269
   5 H :    0.276915
   6 H :    0.299212
   7 C :   -0.661006
   8 H :    0.344024
   9 C :   -0.700076
  10 H :    0.280553
  11 C :   -0.660453
  12 H :    0.283155
  13 H :    0.273646
  14 C :    0.325281
  15 H :    0.265728
  16 H :    0.322480
  17 H :   -0.237093
  18 C :   -0.572385
  19 H :    0.370310
  20 H :    0.258273
  21 H :    0.317852
  22 C :   -0.399041
  23 H :    0.262835
  24 H :    0.309392
  25 F :   -0.465611
  26 C :    0.169546
  27 N :   -0.335341
  28 C :   -1.501057
  29 H :    0.400051
  30 H :    0.765353
  31 H :    0.103965
  32 H :    0.431286
  33 H :    0.285288
  34 H :    0.239441
Sum of atomic charges:   -0.0000000

LOEWDIN ATOMIC CHARGES
----------------------
   0 C :   -0.138501
   1 C :   -0.188575
   2 H :    0.103753
   3 C :   -0.207062
   4 H :    0.103569
   5 H :    0.086678
   6 H :    0.113644
   7 C :   -0.204942
   8 H :    0.092904
   9 C :   -0.199231
  10 H :    0.111642
  11 C :   -0.208295
  12 H :    0.105333
  13 H :    0.104432
  14 C :   -0.213266
  15 H :    0.102601
  16 H :    0.108213
  17 H :    0.075585
  18 C :   -0.172535
  19 H :    0.121860
  20 H :    0.115031
  21 H :    0.117324
  22 C :   -0.193772
  23 H :    0.118061
  24 H :    0.121893
  25 F :   -0.065002
  26 C :   -0.482376
  27 N :    0.117929
  28 C :    0.027595
  29 H :    0.033896
  30 H :    0.003233
  31 H :    0.107008
  32 H :    0.066683
  33 H :    0.099961
  34 H :    0.114728

  Mayer bond orders larger than 0.100000
B(  0-C ,  1-C ) :   0.8173 B(  0-C ,  3-C ) :  -0.1109 B(  0-C ,  7-C ) :   0.1676
B(  0-C , 26-C ) :   0.6259 B(  0-C , 33-H ) :   0.9852 B(  0-C , 34-H ) :   0.9537
B(  1-C ,  2-H ) :   0.8966 B(  1-C ,  3-C ) :   0.8608 B(  1-C ,  4-H ) :   0.9210
B(  1-C ,  7-C ) :   0.1772 B(  1-C , 28-C ) :   0.1221 B(  3-C ,  5-H ) :   1.0345
B(  3-C ,  6-H ) :   0.8657 B(  3-C ,  7-C ) :   0.3751 B(  3-C , 11-C ) :   0.1646
B(  3-C , 26-C ) :   0.1040 B(  7-C ,  8-H ) :   0.9467 B(  7-C ,  9-C ) :   0.8457
B(  7-C , 10-H ) :   0.9219 B(  9-C , 11-C ) :   0.8195 B(  9-C , 12-H ) :   0.9472
B(  9-C , 13-H ) :   0.9653 B(  9-C , 14-C ) :   0.1023 B( 11-C , 14-C ) :   0.3672
B( 11-C , 15-H ) :   0.9719 B( 11-C , 16-H ) :   0.8989 B( 11-C , 17-H ) :  -0.1858
B( 11-C , 18-C ) :   0.3969 B( 14-C , 17-H ) :   1.6271 B( 14-C , 18-C ) :   0.5042
B( 14-C , 19-H ) :   0.7617 B( 14-C , 22-C ) :   0.1478 B( 14-C , 27-N ) :  -0.1923
B( 18-C , 20-H ) :   0.9127 B( 18-C , 21-H ) :   0.9650 B( 18-C , 22-C ) :   0.7366
B( 22-C , 23-H ) :   0.9601 B( 22-C , 24-H ) :   0.9086 B( 22-C , 25-F ) :   0.8376
B( 25-F , 30-H ) :  -0.1184 B( 26-C , 27-N ) :   1.0892 B( 26-C , 28-C ) :   1.4893
B( 26-C , 30-H ) :  -0.1247 B( 26-C , 33-H ) :  -0.1454 B( 27-N , 31-H ) :   0.9944
B( 27-N , 32-H ) :   0.7527 B( 28-C , 29-H ) :   0.8779 B( 28-C , 30-H ) :   0.6661

Dispersion correction           -0.078505244
FINAL SINGLE POINT ENERGY      -586.946685128550

DIPOLE MOMENT
-------------
                                X             Y             Z
Electronic contribution:     -2.77368      -0.00194      10.71437
Nuclear contribution   :      1.85154       0.58682     -11.15333
                        -----------------------------------------
Total Dipole Moment    :     -0.92214       0.58489      -0.43895
                        -----------------------------------------
Magnitude (a.u.)       :      1.17691
Magnitude (Debye)      :      2.99147

Rotational constants in cm-1:     0.028379     0.022321     0.014415
Rotational constants in MHz :   850.785777   669.176075   432.155504

                             ****ORCA TERMINATED NORMALLY****
TOTAL RUN TIME: 0 days 0 hours 1 minutes 35 seconds 531 msec
