                         Program Version 5.0.0 -  RELEASE  -
|  1> !BLYP D3BJ RIJCOSX def2-SVP def2/J TightSCF
|  2> *xyz -1 1
|  3> C          0.84888        2.66797       -4.30235
|  4> C          2.09343        1.86104       -4.65684
|  5> H          2.44481        2.04157       -5.67499
|  6> H          2.90175        2.13786       -3.98034
|  7> S          1.87964        0.07859       -4.46297
|  8> O          3.20757       -0.46611       -4.42026
|  9> O          1.07506       -0.05616       -3.26876
| 10> O          1.13166       -0.31996       -5.67903
| 11> H          0.05064        2.40112       -4.96303
| 12> H          1.06043        3.71210       -4.40203
| 13> H          0.56237        2.45684       -3.29327
| 14> *
| 15>
| 16> %MaxCore 64000
| 17>
| 18> %pal nprocs 4
| 19> end
| 20>
| 21> %scf
| 22>   MaxIter 150
| 23> end
| 24>
| 25>
| 26>                          ****END OF INPUT****

CARTESIAN COORDINATES (ANGSTROEM)
---------------------------------
  C      0.848880    2.667970   -4.302350
  C      2.093430    1.861040   -4.656840
  H      2.444810    2.041570   -5.674990
  H      2.901750    2.137860   -3.980340
  S      1.879640    0.078590   -4.462970
  O      3.207570   -0.466110   -4.420260
  O      1.075060   -0.056160   -3.268760
  O      1.131660   -0.319960   -5.679030
  H      0.050640    2.401120   -4.963030
  H      1.060430    3.712100   -4.402030
  H      0.562370    2.456840   -3.293270

 Total Charge           Charge          ....   -1
 Multiplicity           Mult            ....    1
 Number of Electrons    NEL             ....   58
 Basis Dimension        Dim             ....  113

ORBITAL ENERGIES
----------------

  NO   OCC          E(Eh)            E(eV)
   0   2.0000     -88.080070     -2396.7806
   1   2.0000     -18.528541      -504.1872
   2   2.0000     -18.526261      -504.1252
   3   2.0000     -18.510995      -503.7098
   4   2.0000      -9.764543      -265.7067
   5   2.0000      -9.756327      -265.4831
   6   2.0000      -7.623755      -207.4529
   7   2.0000      -5.658397      -153.9728
   8   2.0000      -5.658150      -153.9661
   9   2.0000      -5.657918      -153.9598
  10   2.0000      -0.798487       -21.7279
  11   2.0000      -0.665358       -18.1053
  12   2.0000      -0.638139       -17.3647
  13   2.0000      -0.528033       -14.3685
  14   2.0000      -0.410518       -11.1708
  15   2.0000      -0.289579        -7.8798
  16   2.0000      -0.245050        -6.6682
  17   2.0000      -0.230421        -6.2701
  18   2.0000      -0.196905        -5.3580
  19   2.0000      -0.176948        -4.8150
  20   2.0000      -0.173337        -4.7167
  21   2.0000      -0.154840        -4.2134
  22   2.0000      -0.143898        -3.9157
  23   2.0000      -0.060484        -1.6459
  24   2.0000      -0.059622        -1.6224
  25   2.0000      -0.031388        -0.8541
  26   2.0000      -0.027929        -0.7600
  27   2.0000      -0.011786        -0.3207
  28   2.0000       0.022446         0.6108
  29   0.0000       0.186869         5.0850
  30   0.0000       0.235441         6.4067
  31   0.0000       0.241039         6.5590
  32   0.0000       0.248480         6.7615
  33   0.0000       0.276447         7.5225

MULLIKEN ATOMIC CHARGES
-----------------------
   0 C :    0.118093
   1 C :   -0.018886
   2 H :   -0.044316
   3 H :   -0.054808
   4 S :    0.756585
   5 O :   -0.519359
   6 O :   -0.528354
   7 O :   -0.573560
   8 H :   -0.033487
   9 H :   -0.074210
  10 H :   -0.027698
Sum of atomic charges:   -1.0000000

LOEWDIN ATOMIC CHARGES
----------------------
   0 C :   -0.063055
   1 C :   -0.182465
   2 H :   -0.003908
   3 H :   -0.008668
   4 S :    1.053459
   5 O :   -0.580467
   6 O :   -0.587023
   7 O :   -0.632636
   8 H :    0.006311
   9 H :   -0.008698
  10 H :    0.007150

  Mayer bond orders larger than 0.100000
B(  0-C ,  1-C ) :   1.0895 B(  0-C ,  8-H ) :   0.9566 B(  0-C ,  9-H ) :   0.9415
B(  0-C , 10-H ) :   0.9532 B(  1-C ,  2-H ) :   0.9296 B(  1-C ,  3-H ) :   0.9220
B(  1-C ,  4-S ) :   0.8677 B(  4-S ,  5-O ) :   1.6596 B(  4-S ,  6-O ) :   1.6306
B(  4-S ,  7-O ) :   1.5985

Dispersion correction           -0.020613157
FINAL SINGLE POINT ENERGY      -702.640008928171

DIPOLE MOMENT
-------------
                                X             Y             Z
Electronic contribution:      1.62366      -8.03822       0.06813
Nuclear contribution   :     -1.55288       9.51857       0.00420
                        -----------------------------------------
Total Dipole Moment    :      0.07078       1.48035       0.07233
                        -----------------------------------------
Magnitude (a.u.)       :      1.48381
Magnitude (Debye)      :      3.77154

Rotational constants in cm-1:     0.163401     0.083833     0.082462
Rotational constants in MHz :  4898.624208  2513.264548  2472.149188

                             ****ORCA TERMINATED NORMALLY****
TOTAL RUN TIME: 0 days 0 hours 0 minutes 8 seconds 683 msec
