                         Program Version 5.0.0 -  RELEASE  -
|  1> !BLYP D3BJ RIJCOSX def2-SVP def2/J TightSCF
|  2> *xyz 1 1
|  3> C         -0.46129        2.23469       -4.98962
|  4> C          0.84888        2.66797       -4.30235
|  5> C         -0.42384        2.39877       -6.47432
|  6> N         -0.95947        3.49265       -7.00740
|  7> N          0.14558        1.48689       -7.20399
|  8> H          0.56537        0.69681       -6.72386
|  9> H          0.22068        1.58177       -8.20752
| 10> H         -1.40624        4.18151       -6.40326
| 11> H         -0.93421        3.68160       -7.99947
| 12> H         -1.28888        2.82674       -4.59500
| 13> H         -0.65170        1.18634       -4.75655
| 14> H          1.66208        2.08894       -4.68750
| 15> H          0.76716        2.51042       -3.24717
| 16> H          1.02677        3.70527       -4.49537
| 17> *
| 18>
| 19> %MaxCore 64000
| 20>
| 21> %pal nprocs 4
| 22> end
| 23>
| 24> %scf
| 25>   MaxIter 150
| 26> end
| 27>
| 28>
| 29>                          ****END OF INPUT****

CARTESIAN COORDINATES (ANGSTROEM)
---------------------------------
  C     -0.461290    2.234690   -4.989620
  C      0.848880    2.667970   -4.302350
  C     -0.423840    2.398770   -6.474320
  N     -0.959470    3.492650   -7.007400
  N      0.145580    1.486890   -7.203990
  H      0.565370    0.696810   -6.723860
  H      0.220680    1.581770   -8.207520
  H     -1.406240    4.181510   -6.403260
  H     -0.934210    3.681600   -7.999470
  H     -1.288880    2.826740   -4.595000
  H     -0.651700    1.186340   -4.756550
  H      1.662080    2.088940   -4.687500
  H      0.767160    2.510420   -3.247170
  H      1.026770    3.705270   -4.495370

 Total Charge           Charge          ....    1
 Multiplicity           Mult            ....    1
 Number of Electrons    NEL             ....   40
 Basis Dimension        Dim             ....  115

ORBITAL ENERGIES
----------------

  NO   OCC          E(Eh)            E(eV)
   0   2.0000     -14.269191      -388.2844
   1   2.0000     -14.265247      -388.1771
   2   2.0000     -10.233131      -278.4576
   3   2.0000     -10.118149      -275.3288
   4   2.0000     -10.078542      -274.2511
   5   2.0000      -1.102722       -30.0066
   6   2.0000      -1.014400       -27.6032
   7   2.0000      -0.881827       -23.9957
   8   2.0000      -0.786060       -21.3898
   9   2.0000      -0.747029       -20.3277
  10   2.0000      -0.718100       -19.5405
  11   2.0000      -0.687354       -18.7038
  12   2.0000      -0.647567       -17.6212
  13   2.0000      -0.593711       -16.1557
  14   2.0000      -0.568686       -15.4747
  15   2.0000      -0.561131       -15.2691
  16   2.0000      -0.496071       -13.4988
  17   2.0000      -0.486583       -13.2406
  18   2.0000      -0.480052       -13.0629
  19   2.0000      -0.446208       -12.1419
  20   0.0000      -0.230913        -6.2835
  21   0.0000      -0.170776        -4.6470
  22   0.0000      -0.126191        -3.4338
  23   0.0000      -0.125752        -3.4219
  24   0.0000      -0.100610        -2.7377

MULLIKEN ATOMIC CHARGES
-----------------------
   0 C :    0.064343
   1 C :    0.095953
   2 C :   -0.182584
   3 N :    0.092695
   4 N :    0.140103
   5 H :    0.163245
   6 H :    0.153154
   7 H :    0.165162
   8 H :    0.149134
   9 H :    0.029587
  10 H :    0.043916
  11 H :    0.012362
  12 H :    0.054200
  13 H :    0.018728
Sum of atomic charges:    1.0000000

LOEWDIN ATOMIC CHARGES
----------------------
   0 C :   -0.020876
   1 C :   -0.007489
   2 C :    0.123238
   3 N :    0.110397
   4 N :    0.130290
   5 H :    0.119728
   6 H :    0.110012
   7 H :    0.119069
   8 H :    0.105505
   9 H :    0.049157
  10 H :    0.053287
  11 H :    0.027177
  12 H :    0.048915
  13 H :    0.031591

  Mayer bond orders larger than 0.100000
B(  0-C ,  1-C ) :   1.1018 B(  0-C ,  2-C ) :   1.0521 B(  0-C ,  9-H ) :   0.9061
B(  0-C , 10-H ) :   0.9072 B(  1-C , 11-H ) :   0.9658 B(  1-C , 12-H ) :   0.9561
B(  1-C , 13-H ) :   0.9638 B(  2-C ,  3-N ) :   1.5117 B(  2-C ,  4-N ) :   1.5447
B(  3-N ,  7-H ) :   0.9196 B(  3-N ,  8-H ) :   0.9297 B(  4-N ,  5-H ) :   0.9153
B(  4-N ,  6-H ) :   0.9254

Dispersion correction           -0.020511596
FINAL SINGLE POINT ENERGY      -228.769336241485

DIPOLE MOMENT
-------------
                                X             Y             Z
Electronic contribution:     -1.55880      -0.25642      -3.95061
Nuclear contribution   :      1.33202       0.27544       2.83701
                        -----------------------------------------
Total Dipole Moment    :     -0.22678       0.01902      -1.11360
                        -----------------------------------------
Magnitude (a.u.)       :      1.13662
Magnitude (Debye)      :      2.88905

Rotational constants in cm-1:     0.258570     0.126296     0.098869
Rotational constants in MHz :  7751.748523  3786.267300  2964.011691

                             ****ORCA TERMINATED NORMALLY****
TOTAL RUN TIME: 0 days 0 hours 0 minutes 9 seconds 694 msec
