                         Program Version 5.0.0 -  RELEASE  -
|  1> !BLYP D3BJ RIJCOSX def2-TZVP def2/J TightSCF xyzfile
|  2>
|  3> *xyzfile 0 1 B.xyz
|  4>
|  5> %MaxCore 64000
|  6>
|  7> %pal nprocs 18
|  8> end
|  9>
| 10> %scf
| 11>   MaxIter 150
| 12> end
| 13>
| 14>
| 15>                          ****END OF INPUT****

CARTESIAN COORDINATES (ANGSTROEM)
---------------------------------
  C     -0.461293    2.234686   -4.989619
  C      0.848883    2.667967   -4.302351
  C      2.093434    1.861037   -4.656845
  H      2.444814    2.041567   -5.674990
  H      2.901748    2.137864   -3.980338
  S      1.879644    0.078594   -4.462965
  C     -0.423841    2.398772   -6.474317
  N     -0.959467    3.492647   -7.007401
  N      0.145585    1.486891   -7.203987
  H      0.565371    0.696807   -6.723858
  H      0.220682    1.581768   -8.207520
  H     -1.406243    4.181507   -6.403261
  H     -0.934215    3.681601   -7.999468
  O      3.207574   -0.466111   -4.420259
  O      1.075064   -0.056160   -3.268758
  O      1.131661   -0.319960   -5.679031
  H      0.668432    2.559427   -3.232850
  H      1.034074    3.729426   -4.497081
  H     -1.288884    2.826737   -4.594997
  H     -0.651696    1.186343   -4.756552

 Total Charge           Charge          ....    0
 Multiplicity           Mult            ....    1
 Number of Electrons    NEL             ....   88
 Basis Dimension        Dim             ....  376

ORBITAL ENERGIES
----------------

  NO   OCC          E(Eh)            E(eV)
   0   2.0000     -88.226099     -2400.7542
   1   2.0000     -18.705949      -509.0147
   2   2.0000     -18.691830      -508.6305
   3   2.0000     -18.689830      -508.5761
   4   2.0000     -14.110418      -383.9640
   5   2.0000     -14.077852      -383.0778
   6   2.0000     -10.066709      -273.9291
   7   2.0000      -9.951735      -270.8005
   8   2.0000      -9.930765      -270.2299
   9   2.0000      -9.905776      -269.5499
  10   2.0000      -7.757073      -211.0807
  11   2.0000      -5.786038      -157.4461
  12   2.0000      -5.785098      -157.4205
  13   2.0000      -5.783748      -157.3838
  14   2.0000      -0.976928       -26.5836
  15   2.0000      -0.963007       -26.2048
  16   2.0000      -0.876888       -23.8613
  17   2.0000      -0.844525       -22.9807
  18   2.0000      -0.843147       -22.9432
  19   2.0000      -0.751364       -20.4457
  20   2.0000      -0.678468       -18.4621
  21   2.0000      -0.625089       -17.0095
  22   2.0000      -0.582385       -15.8475
  23   2.0000      -0.572593       -15.5810
  24   2.0000      -0.540991       -14.7211
  25   2.0000      -0.504197       -13.7199
  26   2.0000      -0.457987       -12.4625
  27   2.0000      -0.456319       -12.4171
  28   2.0000      -0.426752       -11.6125
  29   2.0000      -0.417581       -11.3630
  30   2.0000      -0.391612       -10.6563
  31   2.0000      -0.378458       -10.2984
  32   2.0000      -0.354445        -9.6449
  33   2.0000      -0.346524        -9.4294
  34   2.0000      -0.340901        -9.2764
  35   2.0000      -0.325167        -8.8482
  36   2.0000      -0.311782        -8.4840
  37   2.0000      -0.301197        -8.1960
  38   2.0000      -0.249944        -6.8013
  39   2.0000      -0.244121        -6.6429
  40   2.0000      -0.219186        -5.9644
  41   2.0000      -0.207450        -5.6450
  42   2.0000      -0.205266        -5.5856
  43   2.0000      -0.168028        -4.5723
  44   0.0000      -0.089033        -2.4227
  45   0.0000      -0.059335        -1.6146
  46   0.0000      -0.019773        -0.5380
  47   0.0000       0.001493         0.0406
  48   0.0000       0.029225         0.7952

MULLIKEN ATOMIC CHARGES
-----------------------
   0 C :   -0.223753
   1 C :   -0.114930
   2 C :   -0.274227
   3 H :    0.083354
   4 H :    0.111126
   5 S :    0.791526
   6 C :    0.250273
   7 N :   -0.326052
   8 N :   -0.258078
   9 H :    0.293312
  10 H :    0.208572
  11 H :    0.251159
  12 H :    0.229857
  13 O :   -0.458620
  14 O :   -0.473877
  15 O :   -0.548366
  16 H :    0.113660
  17 H :    0.071422
  18 H :    0.091043
  19 H :    0.182600
Sum of atomic charges:    0.0000000

LOEWDIN ATOMIC CHARGES
----------------------
   0 C :   -0.206360
   1 C :   -0.267671
   2 C :   -0.392716
   3 H :    0.118277
   4 H :    0.135841
   5 S :    0.410668
   6 C :   -0.314364
   7 N :    0.072078
   8 N :    0.138635
   9 H :    0.146294
  10 H :    0.174607
  11 H :    0.191344
  12 H :    0.175724
  13 O :   -0.300409
  14 O :   -0.318327
  15 O :   -0.357836
  16 H :    0.152237
  17 H :    0.129280
  18 H :    0.144071
  19 H :    0.168627

  Mayer bond orders larger than 0.100000
B(  0-C ,  1-C ) :   0.9244 B(  0-C ,  6-C ) :   0.9757 B(  0-C , 18-H ) :   0.9573
B(  0-C , 19-H ) :   0.9327 B(  1-C ,  2-C ) :   0.9740 B(  1-C , 16-H ) :   0.9404
B(  1-C , 17-H ) :   0.9416 B(  2-C ,  3-H ) :   0.9451 B(  2-C ,  4-H ) :   0.9539
B(  2-C ,  5-S ) :   0.8827 B(  5-S , 13-O ) :   1.9270 B(  5-S , 14-O ) :   1.7845
B(  5-S , 15-O ) :   1.4844 B(  6-C ,  7-N ) :   1.3341 B(  6-C ,  8-N ) :   1.5783
B(  7-N , 11-H ) :   0.9032 B(  7-N , 12-H ) :   0.9091 B(  8-N ,  9-H ) :   0.7347
B(  8-N , 10-H ) :   0.9117 B(  9-H , 15-O ) :   0.2331

Dispersion correction           -0.047115121
FINAL SINGLE POINT ENERGY      -891.926840122841

DIPOLE MOMENT
-------------
                                X             Y             Z
Electronic contribution:      3.16959      -7.82390       1.14293
Nuclear contribution   :     -5.91573      12.15027      -4.18945
                        -----------------------------------------
Total Dipole Moment    :     -2.74614       4.32637      -3.04653
                        -----------------------------------------
Magnitude (a.u.)       :      5.96155
Magnitude (Debye)      :     15.15306

Rotational constants in cm-1:     0.082044     0.024757     0.022371
Rotational constants in MHz :  2459.631375   742.181961   670.660570

                             ****ORCA TERMINATED NORMALLY****
TOTAL RUN TIME: 0 days 0 hours 0 minutes 12 seconds 190 msec
