                         Program Version 5.0.0 -  RELEASE  -
|  1> !BLYP D3BJ RIJCOSX def2-SVP def2/J TightSCF
|  2> *xyz 0 1
|  3> C          0.84888        2.66797       -4.30235
|  4> C          2.09343        1.86104       -4.65684
|  5> H          2.44481        2.04157       -5.67499
|  6> H          2.90175        2.13786       -3.98034
|  7> S          1.87964        0.07859       -4.46297
|  8> F          3.20757       -0.46611       -4.42026
|  9> O          1.07506       -0.05616       -3.26876
| 10> O          1.13166       -0.31996       -5.67903
| 11> H          0.05064        2.40112       -4.96303
| 12> H          1.06043        3.71210       -4.40203
| 13> H          0.56237        2.45684       -3.29327
| 14> *
| 15>
| 16> %MaxCore 64000
| 17>
| 18> %pal nprocs 4
| 19> end
| 20>
| 21> %scf
| 22>   MaxIter 150
| 23> end
| 24>
| 25>
| 26>                          ****END OF INPUT****

CARTESIAN COORDINATES (ANGSTROEM)
---------------------------------
  C      0.848880    2.667970   -4.302350
  C      2.093430    1.861040   -4.656840
  H      2.444810    2.041570   -5.674990
  H      2.901750    2.137860   -3.980340
  S      1.879640    0.078590   -4.462970
  F      3.207570   -0.466110   -4.420260
  O      1.075060   -0.056160   -3.268760
  O      1.131660   -0.319960   -5.679030
  H      0.050640    2.401120   -4.963030
  H      1.060430    3.712100   -4.402030
  H      0.562370    2.456840   -3.293270

 Total Charge           Charge          ....    0
 Multiplicity           Mult            ....    1
 Number of Electrons    NEL             ....   58
 Basis Dimension        Dim             ....  113

ORBITAL ENERGIES
----------------

  NO   OCC          E(Eh)            E(eV)
   0   2.0000     -88.352147     -2404.1841
   1   2.0000     -24.399436      -663.9424
   2   2.0000     -18.777239      -510.9547
   3   2.0000     -18.763705      -510.5864
   4   2.0000      -9.969375      -271.2805
   5   2.0000      -9.935445      -270.3572
   6   2.0000      -7.898343      -214.9248
   7   2.0000      -5.937170      -161.5586
   8   2.0000      -5.930583      -161.3794
   9   2.0000      -5.929075      -161.3383
  10   2.0000      -1.254902       -34.1476
  11   2.0000      -0.992832       -27.0163
  12   2.0000      -0.890924       -24.2433
  13   2.0000      -0.727266       -19.7899
  14   2.0000      -0.649876       -17.6840
  15   2.0000      -0.594444       -16.1756
  16   2.0000      -0.512297       -13.9403
  17   2.0000      -0.506991       -13.7959
  18   2.0000      -0.476797       -12.9743
  19   2.0000      -0.430549       -11.7158
  20   2.0000      -0.412347       -11.2205
  21   2.0000      -0.372889       -10.1468
  22   2.0000      -0.367552       -10.0016
  23   2.0000      -0.351387        -9.5617
  24   2.0000      -0.332887        -9.0583
  25   2.0000      -0.314684        -8.5630
  26   2.0000      -0.267284        -7.2732
  27   2.0000      -0.253032        -6.8854
  28   2.0000      -0.235151        -6.3988
  29   0.0000       0.008070         0.2196
  30   0.0000       0.027547         0.7496
  31   0.0000       0.050511         1.3745
  32   0.0000       0.063936         1.7398
  33   0.0000       0.075421         2.0523

MULLIKEN ATOMIC CHARGES
-----------------------
   0 C :    0.094961
   1 C :   -0.062164
   2 H :    0.033250
   3 H :    0.015191
   4 S :    0.835207
   5 F :   -0.129971
   6 O :   -0.395246
   7 O :   -0.434710
   8 H :    0.018687
   9 H :    0.005509
  10 H :    0.019284
Sum of atomic charges:   -0.0000000

LOEWDIN ATOMIC CHARGES
----------------------
   0 C :   -0.037111
   1 C :   -0.145950
   2 H :    0.028467
   3 H :    0.019824
   4 S :    1.105361
   5 F :   -0.097911
   6 O :   -0.458955
   7 O :   -0.499829
   8 H :    0.028868
   9 H :    0.029642
  10 H :    0.027594

  Mayer bond orders larger than 0.100000
B(  0-C ,  1-C ) :   1.1062 B(  0-C ,  8-H ) :   0.9672 B(  0-C ,  9-H ) :   0.9517
B(  0-C , 10-H ) :   0.9605 B(  1-C ,  2-H ) :   0.9267 B(  1-C ,  3-H ) :   0.9205
B(  1-C ,  4-S ) :   0.9059 B(  4-S ,  5-F ) :   1.0516 B(  4-S ,  6-O ) :   1.7813
B(  4-S ,  7-O ) :   1.7518

Dispersion correction           -0.019708302
FINAL SINGLE POINT ENERGY      -727.152387347053

DIPOLE MOMENT
-------------
                                X             Y             Z
Electronic contribution:      4.13707      -9.50007       0.11045
Nuclear contribution   :     -3.08754      10.54185      -0.04092
                        -----------------------------------------
Total Dipole Moment    :      1.04953       1.04178       0.06954
                        -----------------------------------------
Magnitude (a.u.)       :      1.48042
Magnitude (Debye)      :      3.76293

Rotational constants in cm-1:     0.158925     0.081210     0.079022
Rotational constants in MHz :  4764.450166  2434.603461  2369.014434

                             ****ORCA TERMINATED NORMALLY****
TOTAL RUN TIME: 0 days 0 hours 0 minutes 9 seconds 499 msec
