                         Program Version 5.0.0 -  RELEASE  -
|  1> !BLYP D3BJ RIJCOSX def2-SVP def2/J TightSCF
|  2> *xyz 0 1
|  3> C         -0.46129        2.23469       -4.98962
|  4> C          0.84888        2.66797       -4.30235
|  5> C         -0.42384        2.39877       -6.47432
|  6> C         -0.95947        3.49265       -7.00740
|  7> N          0.14558        1.48689       -7.20399
|  8> H          0.56537        0.69681       -6.72386
|  9> H          0.22068        1.58177       -8.20752
| 10> H         -1.40624        4.18151       -6.40326
| 11> H         -0.93421        3.68160       -7.99947
| 12> H         -1.28888        2.82674       -4.59500
| 13> H         -0.65170        1.18634       -4.75655
| 14> H          1.66208        2.08894       -4.68750
| 15> H          0.76716        2.51042       -3.24717
| 16> H          1.02677        3.70527       -4.49537
| 17> *
| 18>
| 19> %MaxCore 64000
| 20>
| 21> %pal nprocs 4
| 22> end
| 23>
| 24> %scf
| 25>   MaxIter 150
| 26> end
| 27>
| 28>
| 29>                          ****END OF INPUT****

CARTESIAN COORDINATES (ANGSTROEM)
---------------------------------
  C     -0.461290    2.234690   -4.989620
  C      0.848880    2.667970   -4.302350
  C     -0.423840    2.398770   -6.474320
  C     -0.959470    3.492650   -7.007400
  N      0.145580    1.486890   -7.203990
  H      0.565370    0.696810   -6.723860
  H      0.220680    1.581770   -8.207520
  H     -1.406240    4.181510   -6.403260
  H     -0.934210    3.681600   -7.999470
  H     -1.288880    2.826740   -4.595000
  H     -0.651700    1.186340   -4.756550
  H      1.662080    2.088940   -4.687500
  H      0.767160    2.510420   -3.247170
  H      1.026770    3.705270   -4.495370

 Total Charge           Charge          ....    0
 Multiplicity           Mult            ....    1
 Number of Electrons    NEL             ....   40
 Basis Dimension        Dim             ....  115

ORBITAL ENERGIES
----------------

  NO   OCC          E(Eh)            E(eV)
   0   2.0000     -14.019181      -381.4813
   1   2.0000      -9.928641      -270.1721
   2   2.0000      -9.916255      -269.8350
   3   2.0000      -9.906961      -269.5821
   4   2.0000      -9.848049      -267.9790
   5   2.0000      -0.830676       -22.6038
   6   2.0000      -0.686352       -18.6766
   7   2.0000      -0.623262       -16.9598
   8   2.0000      -0.556217       -15.1354
   9   2.0000      -0.499761       -13.5992
  10   2.0000      -0.466008       -12.6807
  11   2.0000      -0.416249       -11.3267
  12   2.0000      -0.380831       -10.3629
  13   2.0000      -0.361506        -9.8371
  14   2.0000      -0.334725        -9.1083
  15   2.0000      -0.325448        -8.8559
  16   2.0000      -0.301824        -8.2131
  17   2.0000      -0.283833        -7.7235
  18   2.0000      -0.276204        -7.5159
  19   2.0000      -0.139893        -3.8067
  20   0.0000       0.022145         0.6026
  21   0.0000       0.041023         1.1163
  22   0.0000       0.069783         1.8989
  23   0.0000       0.079461         2.1622
  24   0.0000       0.094708         2.5771

MULLIKEN ATOMIC CHARGES
-----------------------
   0 C :    0.113087
   1 C :    0.113248
   2 C :   -0.181605
   3 C :    0.016794
   4 N :    0.060630
   5 H :    0.082142
   6 H :    0.089424
   7 H :   -0.073847
   8 H :   -0.094040
   9 H :   -0.022511
  10 H :   -0.042783
  11 H :   -0.029784
  12 H :   -0.016214
  13 H :   -0.014542
Sum of atomic charges:   -0.0000000

LOEWDIN ATOMIC CHARGES
----------------------
   0 C :   -0.016412
   1 C :   -0.032559
   2 C :   -0.009856
   3 C :   -0.169553
   4 N :    0.027587
   5 H :    0.066363
   6 H :    0.073607
   7 H :   -0.006082
   8 H :   -0.016462
   9 H :    0.028365
  10 H :    0.010491
  11 H :    0.010053
  12 H :    0.015747
  13 H :    0.018711

  Mayer bond orders larger than 0.100000
B(  0-C ,  1-C ) :   1.1206 B(  0-C ,  2-C ) :   1.0534 B(  0-C ,  9-H ) :   0.9121
B(  0-C , 10-H ) :   0.9038 B(  1-C , 11-H ) :   0.9614 B(  1-C , 12-H ) :   0.9571
B(  1-C , 13-H ) :   0.9621 B(  2-C ,  3-C ) :   1.8441 B(  2-C ,  4-N ) :   1.3207
B(  3-C ,  7-H ) :   0.9167 B(  3-C ,  8-H ) :   0.9289 B(  4-N ,  5-H ) :   0.9408
B(  4-N ,  6-H ) :   0.9399

Dispersion correction           -0.021406550
FINAL SINGLE POINT ENERGY      -212.296941514346

DIPOLE MOMENT
-------------
                                X             Y             Z
Electronic contribution:     -0.68489      -1.24070      -2.65031
Nuclear contribution   :      1.14741       0.51394       2.60761
                        -----------------------------------------
Total Dipole Moment    :      0.46253      -0.72675      -0.04270
                        -----------------------------------------
Magnitude (a.u.)       :      0.86251
Magnitude (Debye)      :      2.19233

Rotational constants in cm-1:     0.269157     0.129188     0.102123
Rotational constants in MHz :  8069.118715  3872.945231  3061.580645

                             ****ORCA TERMINATED NORMALLY****
TOTAL RUN TIME: 0 days 0 hours 0 minutes 8 seconds 753 msec
