                         Program Version 5.0.0 -  RELEASE  -
|  1> !BLYP D3BJ RIJCOSX def2-SVP def2/J TightSCF
|  2> *xyz 0 1
|  3> C          0.84888        2.66797       -4.30235
|  4> C          2.09343        1.86104       -4.65684
|  5> H          2.44481        2.04157       -5.67499
|  6> H          2.90175        2.13786       -3.98034
|  7> S          1.87964        0.07859       -4.46297
|  8> O          3.20757       -0.46611       -4.42026
|  9> F          1.07506       -0.05616       -3.26876
| 10> O          1.13166       -0.31996       -5.67903
| 11> H          0.05064        2.40112       -4.96303
| 12> H          1.06043        3.71210       -4.40203
| 13> H          0.56237        2.45684       -3.29327
| 14> *
| 15>
| 16> %MaxCore 64000
| 17>
| 18> %pal nprocs 4
| 19> end
| 20>
| 21> %scf
| 22>   MaxIter 150
| 23> end
| 24>
| 25>
| 26>                          ****END OF INPUT****

CARTESIAN COORDINATES (ANGSTROEM)
---------------------------------
  C      0.848880    2.667970   -4.302350
  C      2.093430    1.861040   -4.656840
  H      2.444810    2.041570   -5.674990
  H      2.901750    2.137860   -3.980340
  S      1.879640    0.078590   -4.462970
  O      3.207570   -0.466110   -4.420260
  F      1.075060   -0.056160   -3.268760
  O      1.131660   -0.319960   -5.679030
  H      0.050640    2.401120   -4.963030
  H      1.060430    3.712100   -4.402030
  H      0.562370    2.456840   -3.293270

 Total Charge           Charge          ....    0
 Multiplicity           Mult            ....    1
 Number of Electrons    NEL             ....   58
 Basis Dimension        Dim             ....  113

ORBITAL ENERGIES
----------------

  NO   OCC          E(Eh)            E(eV)
   0   2.0000     -88.351509     -2404.1668
   1   2.0000     -24.394693      -663.8133
   2   2.0000     -18.780550      -511.0447
   3   2.0000     -18.764076      -510.5965
   4   2.0000      -9.969087      -271.2727
   5   2.0000      -9.942198      -270.5410
   6   2.0000      -7.897714      -214.9077
   7   2.0000      -5.936630      -161.5439
   8   2.0000      -5.929928      -161.3615
   9   2.0000      -5.928453      -161.3214
  10   2.0000      -1.246633       -33.9226
  11   2.0000      -0.996701       -27.1216
  12   2.0000      -0.894098       -24.3296
  13   2.0000      -0.732524       -19.9330
  14   2.0000      -0.643914       -17.5218
  15   2.0000      -0.597432       -16.2569
  16   2.0000      -0.520369       -14.1600
  17   2.0000      -0.500705       -13.6249
  18   2.0000      -0.467450       -12.7200
  19   2.0000      -0.432346       -11.7647
  20   2.0000      -0.408417       -11.1136
  21   2.0000      -0.386672       -10.5219
  22   2.0000      -0.369746       -10.0613
  23   2.0000      -0.356916        -9.7122
  24   2.0000      -0.340249        -9.2587
  25   2.0000      -0.316430        -8.6105
  26   2.0000      -0.269640        -7.3373
  27   2.0000      -0.253498        -6.8980
  28   2.0000      -0.238331        -6.4853
  29   0.0000       0.000907         0.0247
  30   0.0000       0.037134         1.0105
  31   0.0000       0.047038         1.2800
  32   0.0000       0.067361         1.8330
  33   0.0000       0.075723         2.0605

MULLIKEN ATOMIC CHARGES
-----------------------
   0 C :    0.074995
   1 C :   -0.063096
   2 H :    0.057068
   3 H :    0.026144
   4 S :    0.835925
   5 O :   -0.379484
   6 F :   -0.142712
   7 O :   -0.435190
   8 H :    0.016525
   9 H :    0.010574
  10 H :   -0.000749
Sum of atomic charges:    0.0000000

LOEWDIN ATOMIC CHARGES
----------------------
   0 C :   -0.052333
   1 C :   -0.142382
   2 H :    0.043922
   3 H :    0.024803
   4 S :    1.108284
   5 O :   -0.448659
   6 F :   -0.107140
   7 O :   -0.500776
   8 H :    0.025302
   9 H :    0.031027
  10 H :    0.017952

  Mayer bond orders larger than 0.100000
B(  0-C ,  1-C ) :   1.0814 B(  0-C ,  8-H ) :   0.9660 B(  0-C ,  9-H ) :   0.9526
B(  0-C , 10-H ) :   0.9662 B(  1-C ,  2-H ) :   0.9340 B(  1-C ,  3-H ) :   0.9264
B(  1-C ,  4-S ) :   0.9100 B(  4-S ,  5-O ) :   1.8050 B(  4-S ,  6-F ) :   1.0312
B(  4-S ,  7-O ) :   1.7522

Dispersion correction           -0.019569843
FINAL SINGLE POINT ENERGY      -727.156796572014

DIPOLE MOMENT
-------------
                                X             Y             Z
Electronic contribution:      0.58194      -8.79489       2.01040
Nuclear contribution   :     -0.86540      10.11467      -1.24082
                        -----------------------------------------
Total Dipole Moment    :     -0.28346       1.31978       0.76958
                        -----------------------------------------
Magnitude (a.u.)       :      1.55384
Magnitude (Debye)      :      3.94955

Rotational constants in cm-1:     0.154065     0.083345     0.080357
Rotational constants in MHz :  4618.752213  2498.631937  2409.037217

                             ****ORCA TERMINATED NORMALLY****
TOTAL RUN TIME: 0 days 0 hours 0 minutes 9 seconds 460 msec
