                         Program Version 5.0.0 -  RELEASE  -
|  1> !BLYP D3BJ RIJCOSX def2-SVP def2/J TightSCF
|  2> *xyz 0 1
|  3> C         -0.46129        2.23469       -4.98962
|  4> C          0.84888        2.66797       -4.30235
|  5> C         -0.42384        2.39877       -6.47432
|  6> N         -0.95947        3.49265       -7.00740
|  7> C          0.14558        1.48689       -7.20399
|  8> H          0.56537        0.69681       -6.72386
|  9> H          0.22068        1.58177       -8.20752
| 10> H         -1.40624        4.18151       -6.40326
| 11> H         -0.93421        3.68160       -7.99947
| 12> H         -1.28888        2.82674       -4.59500
| 13> H         -0.65170        1.18634       -4.75655
| 14> H          1.66208        2.08894       -4.68750
| 15> H          0.76716        2.51042       -3.24717
| 16> H          1.02677        3.70527       -4.49537
| 17> *
| 18>
| 19> %MaxCore 64000
| 20>
| 21> %pal nprocs 4
| 22> end
| 23>
| 24> %scf
| 25>   MaxIter 150
| 26> end
| 27>
| 28>
| 29>                          ****END OF INPUT****

CARTESIAN COORDINATES (ANGSTROEM)
---------------------------------
  C     -0.461290    2.234690   -4.989620
  C      0.848880    2.667970   -4.302350
  C     -0.423840    2.398770   -6.474320
  N     -0.959470    3.492650   -7.007400
  C      0.145580    1.486890   -7.203990
  H      0.565370    0.696810   -6.723860
  H      0.220680    1.581770   -8.207520
  H     -1.406240    4.181510   -6.403260
  H     -0.934210    3.681600   -7.999470
  H     -1.288880    2.826740   -4.595000
  H     -0.651700    1.186340   -4.756550
  H      1.662080    2.088940   -4.687500
  H      0.767160    2.510420   -3.247170
  H      1.026770    3.705270   -4.495370

 Total Charge           Charge          ....    0
 Multiplicity           Mult            ....    1
 Number of Electrons    NEL             ....   40
 Basis Dimension        Dim             ....  115

ORBITAL ENERGIES
----------------

  NO   OCC          E(Eh)            E(eV)
   0   2.0000     -14.015232      -381.3739
   1   2.0000      -9.926792      -270.1218
   2   2.0000      -9.916187      -269.8332
   3   2.0000      -9.905475      -269.5417
   4   2.0000      -9.846937      -267.9488
   5   2.0000      -0.818438       -22.2708
   6   2.0000      -0.687599       -18.7105
   7   2.0000      -0.626798       -17.0560
   8   2.0000      -0.556996       -15.1566
   9   2.0000      -0.494286       -13.4502
  10   2.0000      -0.456654       -12.4262
  11   2.0000      -0.418173       -11.3791
  12   2.0000      -0.381841       -10.3904
  13   2.0000      -0.357076        -9.7165
  14   2.0000      -0.335550        -9.1308
  15   2.0000      -0.326862        -8.8944
  16   2.0000      -0.299585        -8.1521
  17   2.0000      -0.286674        -7.8008
  18   2.0000      -0.271547        -7.3892
  19   2.0000      -0.142889        -3.8882
  20   0.0000       0.024485         0.6663
  21   0.0000       0.041847         1.1387
  22   0.0000       0.071230         1.9383
  23   0.0000       0.076863         2.0915
  24   0.0000       0.097859         2.6629

MULLIKEN ATOMIC CHARGES
-----------------------
   0 C :    0.114735
   1 C :    0.111102
   2 C :   -0.147604
   3 N :    0.012855
   4 C :    0.033843
   5 H :   -0.075817
   6 H :   -0.093704
   7 H :    0.082083
   8 H :    0.084798
   9 H :   -0.050478
  10 H :   -0.016395
  11 H :   -0.013353
  12 H :   -0.018352
  13 H :   -0.023712
Sum of atomic charges:    0.0000000

LOEWDIN ATOMIC CHARGES
----------------------
   0 C :   -0.016256
   1 C :   -0.030182
   2 C :   -0.003468
   3 N :    0.008160
   4 C :   -0.157733
   5 H :   -0.004676
   6 H :   -0.012984
   7 H :    0.064725
   8 H :    0.068741
   9 H :    0.009876
  10 H :    0.027898
  11 H :    0.017863
  12 H :    0.014440
  13 H :    0.013595

  Mayer bond orders larger than 0.100000
B(  0-C ,  1-C ) :   1.1253 B(  0-C ,  2-C ) :   1.0398 B(  0-C ,  9-H ) :   0.9052
B(  0-C , 10-H ) :   0.9149 B(  1-C , 11-H ) :   0.9652 B(  1-C , 12-H ) :   0.9566
B(  1-C , 13-H ) :   0.9603 B(  2-C ,  3-N ) :   1.2857 B(  2-C ,  4-C ) :   1.8828
B(  3-N ,  7-H ) :   0.9444 B(  3-N ,  8-H ) :   0.9454 B(  4-C ,  5-H ) :   0.9069
B(  4-C ,  6-H ) :   0.9263

Dispersion correction           -0.021425091
FINAL SINGLE POINT ENERGY      -212.296453700013

DIPOLE MOMENT
-------------
                                X             Y             Z
Electronic contribution:     -1.75254       0.66303      -2.45435
Nuclear contribution   :      1.40335       0.04939       2.56207
                        -----------------------------------------
Total Dipole Moment    :     -0.34919       0.71242       0.10773
                        -----------------------------------------
Magnitude (a.u.)       :      0.80068
Magnitude (Debye)      :      2.03516

Rotational constants in cm-1:     0.271383     0.128194     0.101873
Rotational constants in MHz :  8135.853259  3843.152748  3054.074278

                             ****ORCA TERMINATED NORMALLY****
TOTAL RUN TIME: 0 days 0 hours 0 minutes 10 seconds 115 msec
