                         Program Version 5.0.0 -  RELEASE  -
|  1> !BLYP D3BJ RIJCOSX def2-SVP def2/J TightSCF
|  2> *xyz 0 1
|  3> C          0.84888        2.66797       -4.30235
|  4> C          2.09343        1.86104       -4.65684
|  5> H          2.44481        2.04157       -5.67499
|  6> H          2.90175        2.13786       -3.98034
|  7> S          1.87964        0.07859       -4.46297
|  8> O          3.20757       -0.46611       -4.42026
|  9> O          1.07506       -0.05616       -3.26876
| 10> F          1.13166       -0.31996       -5.67903
| 11> H          0.05064        2.40112       -4.96303
| 12> H          1.06043        3.71210       -4.40203
| 13> H          0.56237        2.45684       -3.29327
| 14> *
| 15>
| 16> %MaxCore 64000
| 17>
| 18> %pal nprocs 4
| 19> end
| 20>
| 21> %scf
| 22>   MaxIter 150
| 23> end
| 24>
| 25>
| 26>                          ****END OF INPUT****

CARTESIAN COORDINATES (ANGSTROEM)
---------------------------------
  C      0.848880    2.667970   -4.302350
  C      2.093430    1.861040   -4.656840
  H      2.444810    2.041570   -5.674990
  H      2.901750    2.137860   -3.980340
  S      1.879640    0.078590   -4.462970
  O      3.207570   -0.466110   -4.420260
  O      1.075060   -0.056160   -3.268760
  F      1.131660   -0.319960   -5.679030
  H      0.050640    2.401120   -4.963030
  H      1.060430    3.712100   -4.402030
  H      0.562370    2.456840   -3.293270

 Total Charge           Charge          ....    0
 Multiplicity           Mult            ....    1
 Number of Electrons    NEL             ....   58
 Basis Dimension        Dim             ....  113

ORBITAL ENERGIES
----------------

  NO   OCC          E(Eh)            E(eV)
   0   2.0000     -88.350651     -2404.1434
   1   2.0000     -24.375813      -663.2996
   2   2.0000     -18.780858      -511.0531
   3   2.0000     -18.778387      -510.9859
   4   2.0000      -9.968408      -271.2542
   5   2.0000      -9.936698      -270.3913
   6   2.0000      -7.896789      -214.8826
   7   2.0000      -5.935388      -161.5101
   8   2.0000      -5.929299      -161.3444
   9   2.0000      -5.927742      -161.3021
  10   2.0000      -1.215811       -33.0839
  11   2.0000      -1.005417       -27.3588
  12   2.0000      -0.914392       -24.8819
  13   2.0000      -0.728715       -19.8294
  14   2.0000      -0.633801       -17.2466
  15   2.0000      -0.588619       -16.0171
  16   2.0000      -0.503485       -13.7005
  17   2.0000      -0.479055       -13.0358
  18   2.0000      -0.468039       -12.7360
  19   2.0000      -0.429654       -11.6915
  20   2.0000      -0.410856       -11.1800
  21   2.0000      -0.386082       -10.5058
  22   2.0000      -0.368791       -10.0353
  23   2.0000      -0.348776        -9.4907
  24   2.0000      -0.342452        -9.3186
  25   2.0000      -0.319833        -8.7031
  26   2.0000      -0.273588        -7.4447
  27   2.0000      -0.269143        -7.3238
  28   2.0000      -0.253449        -6.8967
  29   0.0000       0.005474         0.1489
  30   0.0000       0.034376         0.9354
  31   0.0000       0.050858         1.3839
  32   0.0000       0.065567         1.7842
  33   0.0000       0.075254         2.0478

MULLIKEN ATOMIC CHARGES
-----------------------
   0 C :    0.086310
   1 C :   -0.073037
   2 H :    0.027507
   3 H :    0.049105
   4 S :    0.845958
   5 O :   -0.384946
   6 O :   -0.399384
   7 F :   -0.179062
   8 H :   -0.000307
   9 H :    0.003741
  10 H :    0.024115
Sum of atomic charges:    0.0000000

LOEWDIN ATOMIC CHARGES
----------------------
   0 C :   -0.048477
   1 C :   -0.147311
   2 H :    0.024887
   3 H :    0.040649
   4 S :    1.113856
   5 O :   -0.452520
   6 O :   -0.461420
   7 F :   -0.146209
   8 H :    0.020440
   9 H :    0.028293
  10 H :    0.027813

  Mayer bond orders larger than 0.100000
B(  0-C ,  1-C ) :   1.0857 B(  0-C ,  8-H ) :   0.9682 B(  0-C ,  9-H ) :   0.9499
B(  0-C , 10-H ) :   0.9616 B(  1-C ,  2-H ) :   0.9287 B(  1-C ,  3-H ) :   0.9318
B(  1-C ,  4-S ) :   0.9020 B(  4-S ,  5-O ) :   1.8101 B(  4-S ,  6-O ) :   1.7872
B(  4-S ,  7-F ) :   0.9961

Dispersion correction           -0.019632730
FINAL SINGLE POINT ENERGY      -727.173457700344

DIPOLE MOMENT
-------------
                                X             Y             Z
Electronic contribution:      0.67047      -9.26083      -2.00667
Nuclear contribution   :     -0.92438      10.38956       1.27076
                        -----------------------------------------
Total Dipole Moment    :     -0.25391       1.12873      -0.73591
                        -----------------------------------------
Magnitude (a.u.)       :      1.37116
Magnitude (Debye)      :      3.48520

Rotational constants in cm-1:     0.154243     0.082247     0.080562
Rotational constants in MHz :  4624.087322  2465.703680  2415.175852

                             ****ORCA TERMINATED NORMALLY****
TOTAL RUN TIME: 0 days 0 hours 0 minutes 10 seconds 120 msec
