                         Program Version 5.0.0 -  RELEASE  -
|  1> !BLYP D3BJ RIJCOSX def2-TZVP def2/J TightSCF xyzfile
|  2>
|  3> *xyzfile 0 1 D1.xyz
|  4>
|  5> %MaxCore 64000
|  6>
|  7> %pal nprocs 18
|  8> end
|  9>
| 10> %scf
| 11>   MaxIter 150
| 12> end
| 13>
| 14>
| 15>                          ****END OF INPUT****

CARTESIAN COORDINATES (ANGSTROEM)
---------------------------------
  C     -0.461293    2.234686   -4.989619
  C      0.848883    2.667967   -4.302351
  C      2.093434    1.861037   -4.656845
  H      2.444814    2.041567   -5.674990
  H      2.901748    2.137864   -3.980338
  S      1.879644    0.078594   -4.462965
  C     -0.423841    2.398772   -6.474317
  C     -0.959467    3.492647   -7.007401
  N      0.145585    1.486891   -7.203987
  H      0.565371    0.696807   -6.723858
  H      0.220682    1.581768   -8.207520
  H     -1.406243    4.181507   -6.403261
  H     -0.934215    3.681601   -7.999468
  F      3.207574   -0.466111   -4.420259
  O      1.075064   -0.056160   -3.268758
  O      1.131661   -0.319960   -5.679031
  H      0.668432    2.559427   -3.232850
  H      1.034074    3.729426   -4.497081
  H     -1.288884    2.826737   -4.594997
  H     -0.651696    1.186343   -4.756552

 Total Charge           Charge          ....    0
 Multiplicity           Mult            ....    1
 Number of Electrons    NEL             ....   88
 Basis Dimension        Dim             ....  376

ORBITAL ENERGIES
----------------

  NO   OCC          E(Eh)            E(eV)
   0   2.0000     -88.353124     -2404.2107
   1   2.0000     -24.417535      -664.4349
   2   2.0000     -18.797031      -511.4932
   3   2.0000     -18.794031      -511.4116
   4   2.0000     -13.978604      -380.3772
   5   2.0000      -9.964641      -271.1517
   6   2.0000      -9.929069      -270.1837
   7   2.0000      -9.910228      -269.6710
   8   2.0000      -9.902932      -269.4725
   9   2.0000      -9.826168      -267.3836
  10   2.0000      -7.884732      -214.5545
  11   2.0000      -5.916710      -161.0019
  12   2.0000      -5.910564      -160.8346
  13   2.0000      -5.909862      -160.8155
  14   2.0000      -1.290270       -35.1100
  15   2.0000      -1.026604       -27.9353
  16   2.0000      -0.936439       -25.4818
  17   2.0000      -0.831103       -22.6155
  18   2.0000      -0.751429       -20.4474
  19   2.0000      -0.691639       -18.8205
  20   2.0000      -0.661642       -18.0042
  21   2.0000      -0.619234       -16.8502
  22   2.0000      -0.575350       -15.6561
  23   2.0000      -0.537716       -14.6320
  24   2.0000      -0.529944       -14.4205
  25   2.0000      -0.514516       -14.0007
  26   2.0000      -0.495636       -13.4870
  27   2.0000      -0.466834       -12.7032
  28   2.0000      -0.444574       -12.0975
  29   2.0000      -0.433203       -11.7881
  30   2.0000      -0.415478       -11.3057
  31   2.0000      -0.401717       -10.9313
  32   2.0000      -0.393921       -10.7191
  33   2.0000      -0.360542        -9.8109
  34   2.0000      -0.347766        -9.4632
  35   2.0000      -0.342763        -9.3271
  36   2.0000      -0.329922        -8.9776
  37   2.0000      -0.318495        -8.6667
  38   2.0000      -0.300830        -8.1860
  39   2.0000      -0.295623        -8.0443
  40   2.0000      -0.282477        -7.6866
  41   2.0000      -0.278675        -7.5831
  42   2.0000      -0.272207        -7.4071
  43   2.0000      -0.140705        -3.8288
  44   0.0000      -0.027668        -0.7529
  45   0.0000       0.002697         0.0734
  46   0.0000       0.019667         0.5352
  47   0.0000       0.023285         0.6336
  48   0.0000       0.029016         0.7896

MULLIKEN ATOMIC CHARGES
-----------------------
   0 C :   -0.241084
   1 C :   -0.110411
   2 C :   -0.264375
   3 H :    0.137368
   4 H :    0.121848
   5 S :    0.807851
   6 C :    0.213376
   7 C :   -0.412131
   8 N :   -0.390488
   9 H :    0.248515
  10 H :    0.187395
  11 H :    0.065021
  12 H :    0.066006
  13 F :   -0.073347
  14 O :   -0.362542
  15 O :   -0.423994
  16 H :    0.097285
  17 H :    0.101140
  18 H :    0.096305
  19 H :    0.136261
Sum of atomic charges:   -0.0000000

LOEWDIN ATOMIC CHARGES
----------------------
   0 C :   -0.210940
   1 C :   -0.258981
   2 C :   -0.368627
   3 H :    0.138468
   4 H :    0.134499
   5 S :    0.515193
   6 C :   -0.377404
   7 C :   -0.290088
   8 N :    0.026361
   9 H :    0.133478
  10 H :    0.163366
  11 H :    0.100034
  12 H :    0.090649
  13 F :    0.121055
  14 O :   -0.229759
  15 O :   -0.266700
  16 H :    0.142122
  17 H :    0.146221
  18 H :    0.149482
  19 H :    0.141571

  Mayer bond orders larger than 0.100000
B(  0-C ,  1-C ) :   0.9434 B(  0-C ,  6-C ) :   0.9333 B(  0-C , 18-H ) :   0.9701
B(  0-C , 19-H ) :   0.9792 B(  1-C ,  2-C ) :   0.9787 B(  1-C , 16-H ) :   0.9507
B(  1-C , 17-H ) :   0.9363 B(  2-C ,  3-H ) :   0.9227 B(  2-C ,  4-H ) :   0.9338
B(  2-C ,  5-S ) :   0.9220 B(  5-S , 13-F ) :   1.1679 B(  5-S , 14-O ) :   1.9336
B(  5-S , 15-O ) :   1.7598 B(  6-C ,  7-C ) :   1.6778 B(  6-C ,  8-N ) :   1.2429
B(  7-C ,  8-N ) :   0.1016 B(  7-C , 11-H ) :   0.9901 B(  7-C , 12-H ) :   0.9886
B(  8-N ,  9-H ) :   0.8427 B(  8-N , 10-H ) :   0.9270 B(  9-H , 15-O ) :   0.1228

Dispersion correction           -0.047125866
FINAL SINGLE POINT ENERGY      -899.818905585506

DIPOLE MOMENT
-------------
                                X             Y             Z
Electronic contribution:     10.13862     -14.02366       5.43961
Nuclear contribution   :     -8.53047      14.15581      -5.17613
                        -----------------------------------------
Total Dipole Moment    :      1.60815       0.13215       0.26348
                        -----------------------------------------
Magnitude (a.u.)       :      1.63494
Magnitude (Debye)      :      4.15568

Rotational constants in cm-1:     0.081196     0.024861     0.022477
Rotational constants in MHz :  2434.181666   745.320670   673.846846

                             ****ORCA TERMINATED NORMALLY****
TOTAL RUN TIME: 0 days 0 hours 0 minutes 11 seconds 845 msec
