                         Program Version 5.0.0 -  RELEASE  -
|  1> !BLYP D3BJ RIJCOSX def2-TZVP def2/J TightSCF xyzfile
|  2>
|  3> *xyzfile 0 1 D5.xyz
|  4>
|  5> %MaxCore 64000
|  6>
|  7> %pal nprocs 18
|  8> end
|  9>
| 10> %scf
| 11>   MaxIter 150
| 12> end
| 13>
| 14>
| 15>                          ****END OF INPUT****

CARTESIAN COORDINATES (ANGSTROEM)
---------------------------------
  C     -0.461293    2.234686   -4.989619
  C      0.848883    2.667967   -4.302351
  C      2.093434    1.861037   -4.656845
  H      2.444814    2.041567   -5.674990
  H      2.901748    2.137864   -3.980338
  S      1.879644    0.078594   -4.462965
  C     -0.423841    2.398772   -6.474317
  C     -0.959467    3.492647   -7.007401
  N      0.145585    1.486891   -7.203987
  H      0.565371    0.696807   -6.723858
  H      0.220682    1.581768   -8.207520
  H     -1.406243    4.181507   -6.403261
  H     -0.934215    3.681601   -7.999468
  O      3.207574   -0.466111   -4.420259
  O      1.075064   -0.056160   -3.268758
  F      1.131661   -0.319960   -5.679031
  H      0.668432    2.559427   -3.232850
  H      1.034074    3.729426   -4.497081
  H     -1.288884    2.826737   -4.594997
  H     -0.651696    1.186343   -4.756552

 Total Charge           Charge          ....    0
 Multiplicity           Mult            ....    1
 Number of Electrons    NEL             ....   88
 Basis Dimension        Dim             ....  376

ORBITAL ENERGIES
----------------

  NO   OCC          E(Eh)            E(eV)
   0   2.0000     -88.343189     -2403.9404
   1   2.0000     -24.404075      -664.0686
   2   2.0000     -18.795014      -511.4383
   3   2.0000     -18.791509      -511.3430
   4   2.0000     -14.008023      -381.1777
   5   2.0000      -9.961437      -271.0645
   6   2.0000      -9.929537      -270.1964
   7   2.0000      -9.927112      -270.1304
   8   2.0000      -9.916280      -269.8357
   9   2.0000      -9.842524      -267.8287
  10   2.0000      -7.875302      -214.2979
  11   2.0000      -5.907945      -160.7634
  12   2.0000      -5.900599      -160.5635
  13   2.0000      -5.900221      -160.5532
  14   2.0000      -1.266462       -34.4622
  15   2.0000      -1.029914       -28.0254
  16   2.0000      -0.942089       -25.6355
  17   2.0000      -0.856462       -23.3055
  18   2.0000      -0.753501       -20.5038
  19   2.0000      -0.692426       -18.8419
  20   2.0000      -0.672016       -18.2865
  21   2.0000      -0.625312       -17.0156
  22   2.0000      -0.587114       -15.9762
  23   2.0000      -0.538448       -14.6519
  24   2.0000      -0.519684       -14.1413
  25   2.0000      -0.510896       -13.9022
  26   2.0000      -0.494193       -13.4477
  27   2.0000      -0.475589       -12.9414
  28   2.0000      -0.444907       -12.1065
  29   2.0000      -0.433890       -11.8067
  30   2.0000      -0.418001       -11.3744
  31   2.0000      -0.410911       -11.1815
  32   2.0000      -0.395614       -10.7652
  33   2.0000      -0.370941       -10.0938
  34   2.0000      -0.354760        -9.6535
  35   2.0000      -0.346732        -9.4351
  36   2.0000      -0.338618        -9.2143
  37   2.0000      -0.330800        -9.0015
  38   2.0000      -0.303178        -8.2499
  39   2.0000      -0.301693        -8.2095
  40   2.0000      -0.294507        -8.0139
  41   2.0000      -0.288157        -7.8411
  42   2.0000      -0.280009        -7.6194
  43   2.0000      -0.159379        -4.3369
  44   0.0000      -0.024915        -0.6780
  45   0.0000       0.008869         0.2413
  46   0.0000       0.009615         0.2616
  47   0.0000       0.017024         0.4633
  48   0.0000       0.026629         0.7246

MULLIKEN ATOMIC CHARGES
-----------------------
   0 C :   -0.266949
   1 C :   -0.085579
   2 C :   -0.287333
   3 H :    0.135015
   4 H :    0.143079
   5 S :    0.799203
   6 C :    0.225977
   7 C :   -0.398609
   8 N :   -0.393824
   9 H :    0.224165
  10 H :    0.201076
  11 H :    0.072549
  12 H :    0.072138
  13 O :   -0.372500
  14 O :   -0.373724
  15 F :   -0.121467
  16 H :    0.102389
  17 H :    0.097456
  18 H :    0.104156
  19 H :    0.122781
Sum of atomic charges:   -0.0000000

LOEWDIN ATOMIC CHARGES
----------------------
   0 C :   -0.214302
   1 C :   -0.265282
   2 C :   -0.364939
   3 H :    0.135174
   4 H :    0.147783
   5 S :    0.510718
   6 C :   -0.378232
   7 C :   -0.273086
   8 N :    0.019762
   9 H :    0.137232
  10 H :    0.169074
  11 H :    0.103239
  12 H :    0.092657
  13 O :   -0.232842
  14 O :   -0.236334
  15 F :    0.075270
  16 H :    0.143176
  17 H :    0.143831
  18 H :    0.152150
  19 H :    0.134950

  Mayer bond orders larger than 0.100000
B(  0-C ,  1-C ) :   0.9325 B(  0-C ,  6-C ) :   0.9240 B(  0-C , 18-H ) :   0.9714
B(  0-C , 19-H ) :   0.9866 B(  1-C ,  2-C ) :   0.9620 B(  1-C , 16-H ) :   0.9510
B(  1-C , 17-H ) :   0.9352 B(  2-C ,  3-H ) :   0.9316 B(  2-C ,  4-H ) :   0.9425
B(  2-C ,  5-S ) :   0.9081 B(  5-S , 13-O ) :   1.9847 B(  5-S , 14-O ) :   1.9137
B(  5-S , 15-F ) :   1.0257 B(  6-C ,  7-C ) :   1.6964 B(  6-C ,  8-N ) :   1.2069
B(  7-C , 11-H ) :   0.9902 B(  7-C , 12-H ) :   0.9888 B(  8-N ,  9-H ) :   0.8903
B(  8-N , 10-H ) :   0.9223

Dispersion correction           -0.046605108
FINAL SINGLE POINT ENERGY      -899.825681032666

DIPOLE MOMENT
-------------
                                X             Y             Z
Electronic contribution:      6.45222     -13.53257       3.17111
Nuclear contribution   :     -6.26130      13.99605      -3.80018
                        -----------------------------------------
Total Dipole Moment    :      0.19092       0.46348      -0.62906
                        -----------------------------------------
Magnitude (a.u.)       :      0.80436
Magnitude (Debye)      :      2.04451

Rotational constants in cm-1:     0.079895     0.025630     0.022948
Rotational constants in MHz :  2395.188639   768.373696   687.955250

                             ****ORCA TERMINATED NORMALLY****
TOTAL RUN TIME: 0 days 0 hours 0 minutes 11 seconds 518 msec
