                         Program Version 5.0.0 -  RELEASE  -
|  1> !B3LYP D3BJ RIJCOSX def2-SVPD def2/J TightSCF
|  2> *xyz -1 1
|  3> C          0.61188        1.65763       -4.50029
|  4> C          1.69499        1.54179       -5.57045
|  5> H          2.69733        1.73466       -5.18400
|  6> H          1.50666        2.27224       -6.35808
|  7> S          1.78029       -0.03313       -6.42874
|  8> O          2.56929        0.21366       -7.60736
|  9> O          0.41688       -0.46297       -6.61859
| 10> O          2.50513       -0.93326       -5.48257
| 11> H         -0.34424        1.45871       -4.93752
| 12> H          0.61845        2.64655       -4.09174
| 13> H          0.80247        0.94882       -3.72173
| 14> *
| 15> %MaxCore 64000
| 16>
| 17> %pal nprocs 4
| 18> end
| 19>
| 20> %scf
| 21>   MaxIter 150
| 22> end
| 23>
| 24>
| 25>                          ****END OF INPUT****

CARTESIAN COORDINATES (ANGSTROEM)
---------------------------------
  C      0.611880    1.657630   -4.500290
  C      1.694990    1.541790   -5.570450
  H      2.697330    1.734660   -5.184000
  H      1.506660    2.272240   -6.358080
  S      1.780290   -0.033130   -6.428740
  O      2.569290    0.213660   -7.607360
  O      0.416880   -0.462970   -6.618590
  O      2.505130   -0.933260   -5.482570
  H     -0.344240    1.458710   -4.937520
  H      0.618450    2.646550   -4.091740
  H      0.802470    0.948820   -3.721730

 Total Charge           Charge          ....   -1
 Multiplicity           Mult            ....    1
 Number of Electrons    NEL             ....   58
 Basis Dimension        Dim             ....  176

ORBITAL ENERGIES
----------------

  NO   OCC          E(Eh)            E(eV)
   0   2.0000     -88.880191     -2418.5529
   1   2.0000     -18.921925      -514.8918
   2   2.0000     -18.921169      -514.8712
   3   2.0000     -18.902680      -514.3681
   4   2.0000     -10.046680      -273.3841
   5   2.0000     -10.042687      -273.2754
   6   2.0000      -7.934135      -215.8988
   7   2.0000      -5.903133      -160.6324
   8   2.0000      -5.902901      -160.6261
   9   2.0000      -5.902358      -160.6113
  10   2.0000      -0.931425       -25.3454
  11   2.0000      -0.796590       -21.6763
  12   2.0000      -0.761898       -20.7323
  13   2.0000      -0.628909       -17.1135
  14   2.0000      -0.506087       -13.7713
  15   2.0000      -0.381223       -10.3736
  16   2.0000      -0.320494        -8.7211
  17   2.0000      -0.317172        -8.6307
  18   2.0000      -0.279442        -7.6040
  19   2.0000      -0.263957        -7.1826
  20   2.0000      -0.258999        -7.0477
  21   2.0000      -0.233357        -6.3500
  22   2.0000      -0.218015        -5.9325
  23   2.0000      -0.152445        -4.1482
  24   2.0000      -0.151993        -4.1359
  25   2.0000      -0.119598        -3.2544
  26   2.0000      -0.111711        -3.0398
  27   2.0000      -0.095958        -2.6112
  28   2.0000      -0.064170        -1.7462
  29   0.0000       0.140205         3.8152
  30   0.0000       0.168880         4.5955
  31   0.0000       0.178296         4.8517
  32   0.0000       0.184411         5.0181
  33   0.0000       0.205589         5.5944

MULLIKEN ATOMIC CHARGES
-----------------------
   0 C :    0.991356
   1 C :   -0.194731
   2 H :   -0.149583
   3 H :   -0.106024
   4 S :    1.343346
   5 O :   -0.786968
   6 O :   -0.801540
   7 O :   -0.851062
   8 H :   -0.121144
   9 H :   -0.192581
  10 H :   -0.131068
Sum of atomic charges:   -1.0000000

LOEWDIN ATOMIC CHARGES
----------------------
   0 C :    0.111234
   1 C :   -0.129717
   2 H :    0.002162
   3 H :   -0.005555
   4 S :    0.859062
   5 O :   -0.575648
   6 O :   -0.571203
   7 O :   -0.606980
   8 H :   -0.027190
   9 H :   -0.037625
  10 H :   -0.018541

  Mayer bond orders larger than 0.100000
B(  0-C ,  1-C ) :   1.2724 B(  0-C ,  3-H ) :   0.1072 B(  0-C ,  8-H ) :   0.7728
B(  0-C ,  9-H ) :   0.6793 B(  0-C , 10-H ) :   0.7671 B(  1-C ,  2-H ) :   0.9538
B(  1-C ,  3-H ) :   0.9575 B(  1-C ,  4-S ) :   0.9088 B(  1-C ,  8-H ) :   0.2299
B(  1-C ,  9-H ) :   0.2552 B(  1-C , 10-H ) :   0.2137 B(  4-S ,  5-O ) :   1.3330
B(  4-S ,  6-O ) :   1.2928 B(  4-S ,  7-O ) :   1.2500

Dispersion correction           -0.016673731
FINAL SINGLE POINT ENERGY      -702.587060571454

DIPOLE MOMENT
-------------
                                X             Y             Z
Electronic contribution:      2.21831      -5.56668      -4.96477
Nuclear contribution   :     -2.69163       7.29476       5.86550
                        -----------------------------------------
Total Dipole Moment    :     -0.47332       1.72808       0.90073
                        -----------------------------------------
Magnitude (a.u.)       :      2.00539
Magnitude (Debye)      :      5.09730

Rotational constants in cm-1:     0.163060     0.082831     0.081111
Rotational constants in MHz :  4888.419330  2483.225008  2431.646841

                             ****ORCA TERMINATED NORMALLY****
TOTAL RUN TIME: 0 days 0 hours 0 minutes 15 seconds 887 msec
