                         Program Version 5.0.0 -  RELEASE  -
|  1> !B3LYP D3BJ RIJCOSX def2-SVPD def2/J TightSCF
|  2> *xyz 1 1
|  3> C          1.96337       -1.74915       -1.89689
|  4> N          2.73849       -2.01517       -3.09711
|  5> C          4.04974       -2.15472       -3.15204
|  6> N          4.65821       -1.98629       -4.31866
|  7> N          4.76423       -2.45444       -2.05049
|  8> H          4.28736       -2.77626       -1.21750
|  9> H          5.75082       -2.65835       -2.12599
| 10> H          2.34518       -1.69027       -3.97145
| 11> H          4.10900       -1.59268       -5.07176
| 12> H          5.64910       -2.15646       -4.42724
| 13> C          2.08852       -0.30091       -1.41520
| 14> H          2.23127       -2.45162       -1.10264
| 15> H          0.93025       -1.97780       -2.15544
| 16> H          1.82118        0.36368       -2.21003
| 17> H          3.09792       -0.11068       -1.11551
| 18> H          1.43391       -0.14382       -0.58352
| 19> *
| 20> %MaxCore 64000
| 21>
| 22> %pal nprocs 4
| 23> end
| 24>
| 25> %scf
| 26>   MaxIter 150
| 27> end
| 28>
| 29>
| 30>                          ****END OF INPUT****

CARTESIAN COORDINATES (ANGSTROEM)
---------------------------------
  C      1.963370   -1.749150   -1.896890
  N      2.738490   -2.015170   -3.097110
  C      4.049740   -2.154720   -3.152040
  N      4.658210   -1.986290   -4.318660
  N      4.764230   -2.454440   -2.050490
  H      4.287360   -2.776260   -1.217500
  H      5.750820   -2.658350   -2.125990
  H      2.345180   -1.690270   -3.971450
  H      4.109000   -1.592680   -5.071760
  H      5.649100   -2.156460   -4.427240
  C      2.088520   -0.300910   -1.415200
  H      2.231270   -2.451620   -1.102640
  H      0.930250   -1.977800   -2.155440
  H      1.821180    0.363680   -2.210030
  H      3.097920   -0.110680   -1.115510
  H      1.433910   -0.143820   -0.583520

 Total Charge           Charge          ....    1
 Multiplicity           Mult            ....    1
 Number of Electrons    NEL             ....   48
 Basis Dimension        Dim             ....  200

ORBITAL ENERGIES
----------------

  NO   OCC          E(Eh)            E(eV)
   0   2.0000     -14.555861      -396.0851
   1   2.0000     -14.553662      -396.0253
   2   2.0000     -14.553613      -396.0240
   3   2.0000     -10.518357      -286.2191
   4   2.0000     -10.391245      -282.7602
   5   2.0000     -10.320530      -280.8359
   6   2.0000      -1.209621       -32.9155
   7   2.0000      -1.098623       -29.8951
   8   2.0000      -1.085795       -29.5460
   9   2.0000      -0.925121       -25.1738
  10   2.0000      -0.838885       -22.8272
  11   2.0000      -0.803283       -21.8585
  12   2.0000      -0.785422       -21.3724
  13   2.0000      -0.745444       -20.2846
  14   2.0000      -0.697326       -18.9752
  15   2.0000      -0.689275       -18.7561
  16   2.0000      -0.658542       -17.9198
  17   2.0000      -0.628328       -17.0977
  18   2.0000      -0.601604       -16.3705
  19   2.0000      -0.564851       -15.3704
  20   2.0000      -0.533363       -14.5135
  21   2.0000      -0.514191       -13.9919
  22   2.0000      -0.479450       -13.0465
  23   2.0000      -0.452691       -12.3184
  24   0.0000      -0.173190        -4.7127
  25   0.0000      -0.159022        -4.3272
  26   0.0000      -0.125900        -3.4259
  27   0.0000      -0.116420        -3.1680
  28   0.0000      -0.091166        -2.4808

MULLIKEN ATOMIC CHARGES
-----------------------
   0 C :    0.475280
   1 N :   -0.307120
   2 C :    1.256189
   3 N :    0.047634
   4 N :    0.118059
   5 H :   -0.071868
   6 H :   -0.192017
   7 H :   -0.205943
   8 H :   -0.048470
   9 H :   -0.110353
  10 C :    0.898047
  11 H :   -0.173079
  12 H :   -0.378162
  13 H :   -0.114458
  14 H :   -0.127768
  15 H :   -0.065970
Sum of atomic charges:    1.0000000

LOEWDIN ATOMIC CHARGES
----------------------
   0 C :    0.046094
   1 N :    0.045630
   2 C :   -0.040866
   3 N :    0.270602
   4 N :    0.286680
   5 H :    0.020049
   6 H :    0.034590
   7 H :    0.054437
   8 H :    0.036343
   9 H :    0.041648
  10 C :    0.171739
  11 H :    0.024077
  12 H :    0.037951
  13 H :   -0.009700
  14 H :   -0.019277
  15 H :    0.000002

  Mayer bond orders larger than 0.100000
B(  0-C ,  1-N ) :   0.9635 B(  0-C ,  7-H ) :  -0.1287 B(  0-C , 10-C ) :   1.2330
B(  0-C , 11-H ) :   0.8701 B(  0-C , 12-H ) :   0.7926 B(  0-C , 13-H ) :   0.2546
B(  0-C , 14-H ) :   0.2004 B(  0-C , 15-H ) :   0.1829 B(  1-N ,  2-C ) :   1.0595
B(  1-N ,  3-N ) :   0.2871 B(  1-N ,  4-N ) :   0.2033 B(  1-N ,  7-H ) :   1.2289
B(  1-N , 11-H ) :   0.1388 B(  1-N , 12-H ) :   0.2299 B(  2-C ,  3-N ) :   0.8733
B(  2-C ,  4-N ) :   0.9664 B(  2-C ,  5-H ) :  -0.1339 B(  2-C ,  6-H ) :  -0.1727
B(  2-C ,  7-H ) :  -0.2290 B(  2-C ,  8-H ) :  -0.1506 B(  2-C ,  9-H ) :  -0.1483
B(  3-N ,  4-N ) :   0.1522 B(  3-N ,  8-H ) :   1.1676 B(  3-N ,  9-H ) :   1.2600
B(  4-N ,  5-H ) :   1.1052 B(  4-N ,  6-H ) :   1.2809 B(  5-H ,  6-H ) :  -0.2167
B(  8-H ,  9-H ) :  -0.1836 B( 10-C , 13-H ) :   0.7601 B( 10-C , 14-H ) :   0.8013
B( 10-C , 15-H ) :   0.7647

Dispersion correction           -0.020346086
FINAL SINGLE POINT ENERGY      -284.056870353813

DIPOLE MOMENT
-------------
                                X             Y             Z
Electronic contribution:      3.01100      -2.71066      -3.08762
Nuclear contribution   :     -2.17768       2.37118       2.44574
                        -----------------------------------------
Total Dipole Moment    :      0.83332      -0.33948      -0.64188
                        -----------------------------------------
Magnitude (a.u.)       :      1.10530
Magnitude (Debye)      :      2.80944

Rotational constants in cm-1:     0.215650     0.075183     0.066454
Rotational constants in MHz :  6465.033740  2253.919004  1992.232519

                             ****ORCA TERMINATED NORMALLY****
TOTAL RUN TIME: 0 days 0 hours 0 minutes 20 seconds 920 msec
