                         Program Version 5.0.0 -  RELEASE  -
|  1> !B3LYP D3BJ RIJCOSX def2-SVPD def2/J TightSCF
|  2> *xyz 0 1
|  3> C          0.61188        1.65763       -4.50029
|  4> C          1.69499        1.54179       -5.57045
|  5> H          2.69733        1.73466       -5.18400
|  6> H          1.50666        2.27224       -6.35808
|  7> S          1.78029       -0.03313       -6.42874
|  8> F          2.56929        0.21366       -7.60736
|  9> O          0.41688       -0.46297       -6.61859
| 10> O          2.50513       -0.93326       -5.48257
| 11> H         -0.34424        1.45871       -4.93752
| 12> H          0.61845        2.64655       -4.09174
| 13> H          0.80247        0.94882       -3.72173
| 14> *
| 15> %MaxCore 64000
| 16>
| 17> %pal nprocs 4
| 18> end
| 19>
| 20> %scf
| 21>   MaxIter 150
| 22> end
| 23>
| 24>
| 25>                          ****END OF INPUT****

CARTESIAN COORDINATES (ANGSTROEM)
---------------------------------
  C      0.611880    1.657630   -4.500290
  C      1.694990    1.541790   -5.570450
  H      2.697330    1.734660   -5.184000
  H      1.506660    2.272240   -6.358080
  S      1.780290   -0.033130   -6.428740
  F      2.569290    0.213660   -7.607360
  O      0.416880   -0.462970   -6.618590
  O      2.505130   -0.933260   -5.482570
  H     -0.344240    1.458710   -4.937520
  H      0.618450    2.646550   -4.091740
  H      0.802470    0.948820   -3.721730

 Total Charge           Charge          ....    0
 Multiplicity           Mult            ....    1
 Number of Electrons    NEL             ....   58
 Basis Dimension        Dim             ....  176

ORBITAL ENERGIES
----------------

  NO   OCC          E(Eh)            E(eV)
   0   2.0000     -89.139563     -2425.6108
   1   2.0000     -24.818545      -675.3469
   2   2.0000     -19.155930      -521.2594
   3   2.0000     -19.136370      -520.7271
   4   2.0000     -10.249383      -278.8999
   5   2.0000     -10.206194      -277.7246
   6   2.0000      -8.194411      -222.9812
   7   2.0000      -6.167393      -167.8233
   8   2.0000      -6.161011      -167.6496
   9   2.0000      -6.159578      -167.6106
  10   2.0000      -1.381282       -37.5866
  11   2.0000      -1.108064       -30.1519
  12   2.0000      -0.998733       -27.1769
  13   2.0000      -0.821673       -22.3589
  14   2.0000      -0.741015       -20.1640
  15   2.0000      -0.679136       -18.4802
  16   2.0000      -0.593401       -16.1473
  17   2.0000      -0.592125       -16.1125
  18   2.0000      -0.559202       -15.2167
  19   2.0000      -0.498456       -13.5637
  20   2.0000      -0.487150       -13.2560
  21   2.0000      -0.446497       -12.1498
  22   2.0000      -0.436543       -11.8789
  23   2.0000      -0.413419       -11.2497
  24   2.0000      -0.393865       -10.7176
  25   2.0000      -0.386597       -10.5198
  26   2.0000      -0.339028        -9.2254
  27   2.0000      -0.320316        -8.7162
  28   2.0000      -0.304992        -8.2993
  29   0.0000      -0.007259        -0.1975
  30   0.0000       0.015491         0.4215
  31   0.0000       0.033295         0.9060
  32   0.0000       0.038214         1.0399
  33   0.0000       0.047575         1.2946

MULLIKEN ATOMIC CHARGES
-----------------------
   0 C :    0.981598
   1 C :   -0.231662
   2 H :   -0.094635
   3 H :   -0.051582
   4 S :    1.514828
   5 F :   -0.404225
   6 O :   -0.655228
   7 O :   -0.703108
   8 H :   -0.095492
   9 H :   -0.152114
  10 H :   -0.108380
Sum of atomic charges:   -0.0000000

LOEWDIN ATOMIC CHARGES
----------------------
   0 C :    0.155789
   1 C :   -0.094124
   2 H :    0.022113
   3 H :    0.012538
   4 S :    1.125743
   5 F :   -0.256054
   6 O :   -0.460396
   7 O :   -0.490309
   8 H :   -0.009083
   9 H :   -0.005768
  10 H :   -0.000449

  Mayer bond orders larger than 0.100000
B(  0-C ,  1-C ) :   1.3407 B(  0-C ,  3-H ) :   0.1106 B(  0-C ,  8-H ) :   0.7712
B(  0-C ,  9-H ) :   0.6913 B(  0-C , 10-H ) :   0.7711 B(  1-C ,  2-H ) :   0.9503
B(  1-C ,  3-H ) :   0.9318 B(  1-C ,  4-S ) :   0.9516 B(  1-C ,  8-H ) :   0.2229
B(  1-C ,  9-H ) :   0.2437 B(  1-C , 10-H ) :   0.2069 B(  4-S ,  5-F ) :   0.6876
B(  4-S ,  6-O ) :   1.5103 B(  4-S ,  7-O ) :   1.4590

Dispersion correction           -0.015930762
FINAL SINGLE POINT ENERGY      -727.070018271100

DIPOLE MOMENT
-------------
                                X             Y             Z
Electronic contribution:      3.85126      -5.59298      -7.50995
Nuclear contribution   :     -3.66946       7.33549       7.42434
                        -----------------------------------------
Total Dipole Moment    :      0.18180       1.74251      -0.08561
                        -----------------------------------------
Magnitude (a.u.)       :      1.75406
Magnitude (Debye)      :      4.45845

Rotational constants in cm-1:     0.158379     0.080294     0.077843
Rotational constants in MHz :  4748.076444  2407.152850  2333.668303

                             ****ORCA TERMINATED NORMALLY****
TOTAL RUN TIME: 0 days 0 hours 0 minutes 15 seconds 643 msec
