                         Program Version 5.0.0 -  RELEASE  -
|  1> !B3LYP D3BJ RIJCOSX def2-SVPD def2/J TightSCF
|  2> *xyz 0 1
|  3> C          1.96337       -1.74915       -1.89689
|  4> C          2.73849       -2.01517       -3.09711
|  5> C          4.04974       -2.15472       -3.15204
|  6> N          4.65821       -1.98629       -4.31866
|  7> N          4.76423       -2.45444       -2.05049
|  8> H          4.28736       -2.77626       -1.21750
|  9> H          5.75082       -2.65835       -2.12599
| 10> H          2.34518       -1.69027       -3.97145
| 11> H          4.10900       -1.59268       -5.07176
| 12> H          5.64910       -2.15646       -4.42724
| 13> C          2.08852       -0.30091       -1.41520
| 14> H          2.23127       -2.45162       -1.10264
| 15> H          0.93025       -1.97780       -2.15544
| 16> H          1.82118        0.36368       -2.21003
| 17> H          3.09792       -0.11068       -1.11551
| 18> H          1.43391       -0.14382       -0.58352
| 19> *
| 20> %MaxCore 64000
| 21>
| 22> %pal nprocs 4
| 23> end
| 24>
| 25> %scf
| 26>   MaxIter 150
| 27> end
| 28>
| 29>
| 30>                          ****END OF INPUT****

CARTESIAN COORDINATES (ANGSTROEM)
---------------------------------
  C      1.963370   -1.749150   -1.896890
  C      2.738490   -2.015170   -3.097110
  C      4.049740   -2.154720   -3.152040
  N      4.658210   -1.986290   -4.318660
  N      4.764230   -2.454440   -2.050490
  H      4.287360   -2.776260   -1.217500
  H      5.750820   -2.658350   -2.125990
  H      2.345180   -1.690270   -3.971450
  H      4.109000   -1.592680   -5.071760
  H      5.649100   -2.156460   -4.427240
  C      2.088520   -0.300910   -1.415200
  H      2.231270   -2.451620   -1.102640
  H      0.930250   -1.977800   -2.155440
  H      1.821180    0.363680   -2.210030
  H      3.097920   -0.110680   -1.115510
  H      1.433910   -0.143820   -0.583520

 Total Charge           Charge          ....    0
 Multiplicity           Mult            ....    1
 Number of Electrons    NEL             ....   48
 Basis Dimension        Dim             ....  200

ORBITAL ENERGIES
----------------

  NO   OCC          E(Eh)            E(eV)
   0   2.0000     -14.332407      -390.0046
   1   2.0000     -14.329704      -389.9311
   2   2.0000     -10.225243      -278.2430
   3   2.0000     -10.157082      -276.3883
   4   2.0000     -10.147436      -276.1258
   5   2.0000     -10.102758      -274.9100
   6   2.0000      -0.951244       -25.8847
   7   2.0000      -0.862608       -23.4728
   8   2.0000      -0.765539       -20.8314
   9   2.0000      -0.687306       -18.7025
  10   2.0000      -0.612109       -16.6563
  11   2.0000      -0.577892       -15.7252
  12   2.0000      -0.542949       -14.7744
  13   2.0000      -0.508699       -13.8424
  14   2.0000      -0.475243       -12.9320
  15   2.0000      -0.438772       -11.9396
  16   2.0000      -0.419165       -11.4060
  17   2.0000      -0.384968       -10.4755
  18   2.0000      -0.381103       -10.3703
  19   2.0000      -0.355493        -9.6735
  20   2.0000      -0.328852        -8.9485
  21   2.0000      -0.318693        -8.6721
  22   2.0000      -0.266105        -7.2411
  23   2.0000      -0.160014        -4.3542
  24   0.0000       0.011004         0.2994
  25   0.0000       0.038539         1.0487
  26   0.0000       0.045554         1.2396
  27   0.0000       0.057243         1.5577
  28   0.0000       0.075895         2.0652

MULLIKEN ATOMIC CHARGES
-----------------------
   0 C :    0.038328
   1 C :   -0.265564
   2 C :    0.754326
   3 N :    0.101125
   4 N :    0.047497
   5 H :   -0.051978
   6 H :   -0.322242
   7 H :   -0.220483
   8 H :   -0.045193
   9 H :   -0.223177
  10 C :    0.910527
  11 H :   -0.167223
  12 H :   -0.194213
  13 H :   -0.125018
  14 H :   -0.134015
  15 H :   -0.102696
Sum of atomic charges:   -0.0000000

LOEWDIN ATOMIC CHARGES
----------------------
   0 C :   -0.095258
   1 C :   -0.040932
   2 C :   -0.223151
   3 N :    0.184273
   4 N :    0.206501
   5 H :   -0.009934
   6 H :   -0.015508
   7 H :   -0.053878
   8 H :    0.003818
   9 H :   -0.009816
  10 C :    0.130427
  11 H :   -0.001292
  12 H :    0.008175
  13 H :   -0.022719
  14 H :   -0.029459
  15 H :   -0.031247

  Mayer bond orders larger than 0.100000
B(  0-C ,  1-C ) :   1.2343 B(  0-C ,  7-H ) :   0.3328 B(  0-C , 10-C ) :   1.2071
B(  0-C , 11-H ) :   0.8231 B(  0-C , 12-H ) :   0.7350 B(  0-C , 13-H ) :   0.2593
B(  0-C , 14-H ) :   0.2212 B(  0-C , 15-H ) :   0.1988 B(  1-C ,  2-C ) :   1.7080
B(  1-C ,  3-N ) :   0.3174 B(  1-C ,  4-N ) :   0.2303 B(  1-C ,  7-H ) :   0.7026
B(  1-C , 11-H ) :   0.2458 B(  1-C , 12-H ) :   0.3124 B(  2-C ,  3-N ) :   0.9115
B(  2-C ,  4-N ) :   0.9248 B(  2-C ,  6-H ) :  -0.2162 B(  2-C ,  7-H ) :   0.3204
B(  3-N ,  4-N ) :   0.1096 B(  3-N ,  8-H ) :   1.1503 B(  3-N ,  9-H ) :   1.2605
B(  4-N ,  5-H ) :   1.0655 B(  4-N ,  6-H ) :   1.3726 B(  5-H ,  6-H ) :  -0.2202
B(  8-H ,  9-H ) :  -0.1782 B( 10-C , 13-H ) :   0.7777 B( 10-C , 14-H ) :   0.7940
B( 10-C , 15-H ) :   0.7543

Dispersion correction           -0.021273183
FINAL SINGLE POINT ENERGY      -267.585533653666

DIPOLE MOMENT
-------------
                                X             Y             Z
Electronic contribution:      3.29294      -2.43682      -2.53098
Nuclear contribution   :     -2.31778       2.31977       2.35294
                        -----------------------------------------
Total Dipole Moment    :      0.97516      -0.11705      -0.17804
                        -----------------------------------------
Magnitude (a.u.)       :      0.99817
Magnitude (Debye)      :      2.53714

Rotational constants in cm-1:     0.219415     0.075373     0.066689
Rotational constants in MHz :  6577.897266  2259.621393  1999.290981

                             ****ORCA TERMINATED NORMALLY****
TOTAL RUN TIME: 0 days 0 hours 0 minutes 23 seconds 386 msec
