                         Program Version 5.0.0 -  RELEASE  -
|  1> !B3LYP D3BJ RIJCOSX def2-SVPD def2/J TightSCF
|  2> *xyz 0 1
|  3> C          0.61188        1.65763       -4.50029
|  4> C          1.69499        1.54179       -5.57045
|  5> H          2.69733        1.73466       -5.18400
|  6> H          1.50666        2.27224       -6.35808
|  7> S          1.78029       -0.03313       -6.42874
|  8> O          2.56929        0.21366       -7.60736
|  9> F          0.41688       -0.46297       -6.61859
| 10> O          2.50513       -0.93326       -5.48257
| 11> H         -0.34424        1.45871       -4.93752
| 12> H          0.61845        2.64655       -4.09174
| 13> H          0.80247        0.94882       -3.72173
| 14> *
| 15> %MaxCore 64000
| 16>
| 17> %pal nprocs 4
| 18> end
| 19>
| 20> %scf
| 21>   MaxIter 150
| 22> end
| 23>
| 24>
| 25>                          ****END OF INPUT****

CARTESIAN COORDINATES (ANGSTROEM)
---------------------------------
  C      0.611880    1.657630   -4.500290
  C      1.694990    1.541790   -5.570450
  H      2.697330    1.734660   -5.184000
  H      1.506660    2.272240   -6.358080
  S      1.780290   -0.033130   -6.428740
  O      2.569290    0.213660   -7.607360
  F      0.416880   -0.462970   -6.618590
  O      2.505130   -0.933260   -5.482570
  H     -0.344240    1.458710   -4.937520
  H      0.618450    2.646550   -4.091740
  H      0.802470    0.948820   -3.721730

 Total Charge           Charge          ....    0
 Multiplicity           Mult            ....    1
 Number of Electrons    NEL             ....   58
 Basis Dimension        Dim             ....  176

ORBITAL ENERGIES
----------------

  NO   OCC          E(Eh)            E(eV)
   0   2.0000     -89.139314     -2425.6040
   1   2.0000     -24.818209      -675.3378
   2   2.0000     -19.155513      -521.2480
   3   2.0000     -19.136554      -520.7321
   4   2.0000     -10.249199      -278.8949
   5   2.0000     -10.211724      -277.8751
   6   2.0000      -8.194179      -222.9750
   7   2.0000      -6.167299      -167.8207
   8   2.0000      -6.160719      -167.6417
   9   2.0000      -6.159286      -167.6027
  10   2.0000      -1.379845       -37.5475
  11   2.0000      -1.109124       -30.1808
  12   2.0000      -0.998549       -27.1719
  13   2.0000      -0.825373       -22.4595
  14   2.0000      -0.737492       -20.0682
  15   2.0000      -0.683492       -18.5988
  16   2.0000      -0.603801       -16.4303
  17   2.0000      -0.591891       -16.1062
  18   2.0000      -0.549702       -14.9582
  19   2.0000      -0.499678       -13.5969
  20   2.0000      -0.482180       -13.1208
  21   2.0000      -0.455772       -12.4022
  22   2.0000      -0.442407       -12.0385
  23   2.0000      -0.417260       -11.3542
  24   2.0000      -0.400877       -10.9084
  25   2.0000      -0.384791       -10.4707
  26   2.0000      -0.338240        -9.2040
  27   2.0000      -0.320277        -8.7152
  28   2.0000      -0.305143        -8.3034
  29   0.0000      -0.013276        -0.3613
  30   0.0000       0.023610         0.6425
  31   0.0000       0.033774         0.9190
  32   0.0000       0.036670         0.9978
  33   0.0000       0.044673         1.2156

MULLIKEN ATOMIC CHARGES
-----------------------
   0 C :    0.995706
   1 C :   -0.200415
   2 H :   -0.099249
   3 H :   -0.057696
   4 S :    1.482693
   5 O :   -0.636300
   6 F :   -0.409653
   7 O :   -0.701177
   8 H :   -0.112610
   9 H :   -0.153879
  10 H :   -0.107421
Sum of atomic charges:    0.0000000

LOEWDIN ATOMIC CHARGES
----------------------
   0 C :    0.140909
   1 C :   -0.081935
   2 H :    0.034684
   3 H :    0.016584
   4 S :    1.122607
   5 O :   -0.460390
   6 F :   -0.255874
   7 O :   -0.489401
   8 H :   -0.015268
   9 H :   -0.007350
  10 H :   -0.004566

  Mayer bond orders larger than 0.100000
B(  0-C ,  1-C ) :   1.2923 B(  0-C ,  8-H ) :   0.7700 B(  0-C ,  9-H ) :   0.6871
B(  0-C , 10-H ) :   0.7797 B(  1-C ,  2-H ) :   0.9551 B(  1-C ,  3-H ) :   0.9599
B(  1-C ,  4-S ) :   0.9755 B(  1-C ,  8-H ) :   0.2119 B(  1-C ,  9-H ) :   0.2473
B(  1-C , 10-H ) :   0.2046 B(  4-S ,  5-O ) :   1.5505 B(  4-S ,  6-F ) :   0.6733
B(  4-S ,  7-O ) :   1.4709

Dispersion correction           -0.015832068
FINAL SINGLE POINT ENERGY      -727.069816159276

DIPOLE MOMENT
-------------
                                X             Y             Z
Electronic contribution:      0.23732      -6.71718      -5.82481
Nuclear contribution   :     -1.42658       8.04056       6.39401
                        -----------------------------------------
Total Dipole Moment    :     -1.18926       1.32338       0.56921
                        -----------------------------------------
Magnitude (a.u.)       :      1.86807
Magnitude (Debye)      :      4.74825

Rotational constants in cm-1:     0.153659     0.082363     0.078978
Rotational constants in MHz :  4606.587369  2469.179541  2367.702074

                             ****ORCA TERMINATED NORMALLY****
TOTAL RUN TIME: 0 days 0 hours 0 minutes 15 seconds 654 msec
