                         Program Version 5.0.0 -  RELEASE  -
|  1> !B3LYP D3BJ RIJCOSX def2-SVPD def2/J TightSCF
|  2> *xyz 0 1
|  3> C          1.96337       -1.74915       -1.89689
|  4> N          2.73849       -2.01517       -3.09711
|  5> C          4.04974       -2.15472       -3.15204
|  6> C          4.65821       -1.98629       -4.31866
|  7> N          4.76423       -2.45444       -2.05049
|  8> H          4.28736       -2.77626       -1.21750
|  9> H          5.75082       -2.65835       -2.12599
| 10> H          2.34518       -1.69027       -3.97145
| 11> H          4.10900       -1.59268       -5.07176
| 12> H          5.64910       -2.15646       -4.42724
| 13> C          2.08852       -0.30091       -1.41520
| 14> H          2.23127       -2.45162       -1.10264
| 15> H          0.93025       -1.97780       -2.15544
| 16> H          1.82118        0.36368       -2.21003
| 17> H          3.09792       -0.11068       -1.11551
| 18> H          1.43391       -0.14382       -0.58352
| 19> *
| 20> %MaxCore 64000
| 21>
| 22> %pal nprocs 4
| 23> end
| 24>
| 25> %scf
| 26>   MaxIter 150
| 27> end
| 28>
| 29>
| 30>                          ****END OF INPUT****

CARTESIAN COORDINATES (ANGSTROEM)
---------------------------------
  C      1.963370   -1.749150   -1.896890
  N      2.738490   -2.015170   -3.097110
  C      4.049740   -2.154720   -3.152040
  C      4.658210   -1.986290   -4.318660
  N      4.764230   -2.454440   -2.050490
  H      4.287360   -2.776260   -1.217500
  H      5.750820   -2.658350   -2.125990
  H      2.345180   -1.690270   -3.971450
  H      4.109000   -1.592680   -5.071760
  H      5.649100   -2.156460   -4.427240
  C      2.088520   -0.300910   -1.415200
  H      2.231270   -2.451620   -1.102640
  H      0.930250   -1.977800   -2.155440
  H      1.821180    0.363680   -2.210030
  H      3.097920   -0.110680   -1.115510
  H      1.433910   -0.143820   -0.583520

 Total Charge           Charge          ....    0
 Multiplicity           Mult            ....    1
 Number of Electrons    NEL             ....   48
 Basis Dimension        Dim             ....  200

ORBITAL ENERGIES
----------------

  NO   OCC          E(Eh)            E(eV)
   0   2.0000     -14.330395      -389.9499
   1   2.0000     -14.327836      -389.8803
   2   2.0000     -10.226088      -278.2660
   3   2.0000     -10.223045      -278.1832
   4   2.0000     -10.172560      -276.8094
   5   2.0000     -10.095497      -274.7125
   6   2.0000      -0.959574       -26.1113
   7   2.0000      -0.874644       -23.8003
   8   2.0000      -0.763870       -20.7859
   9   2.0000      -0.694828       -18.9072
  10   2.0000      -0.624993       -17.0069
  11   2.0000      -0.596924       -16.2431
  12   2.0000      -0.535606       -14.5746
  13   2.0000      -0.495585       -13.4855
  14   2.0000      -0.480400       -13.0724
  15   2.0000      -0.437678       -11.9098
  16   2.0000      -0.432384       -11.7658
  17   2.0000      -0.402345       -10.9484
  18   2.0000      -0.383445       -10.4341
  19   2.0000      -0.376075       -10.2335
  20   2.0000      -0.359876        -9.7927
  21   2.0000      -0.357603        -9.7309
  22   2.0000      -0.254616        -6.9285
  23   2.0000      -0.162912        -4.4331
  24   0.0000       0.010109         0.2751
  25   0.0000       0.038348         1.0435
  26   0.0000       0.043519         1.1842
  27   0.0000       0.048737         1.3262
  28   0.0000       0.075973         2.0673

MULLIKEN ATOMIC CHARGES
-----------------------
   0 C :    0.487610
   1 N :   -0.254134
   2 C :    0.623370
   3 C :    0.503055
   4 N :    0.235322
   5 H :   -0.172350
   6 H :   -0.223016
   7 H :   -0.242042
   8 H :   -0.312763
   9 H :   -0.506110
  10 C :    0.879647
  11 H :   -0.209344
  12 H :   -0.424279
  13 H :   -0.141330
  14 H :   -0.128959
  15 H :   -0.114677
Sum of atomic charges:   -0.0000000

LOEWDIN ATOMIC CHARGES
----------------------
   0 C :    0.015042
   1 N :   -0.015403
   2 C :   -0.243839
   3 C :    0.151936
   4 N :    0.204842
   5 H :   -0.026168
   6 H :    0.002218
   7 H :    0.029055
   8 H :   -0.104959
   9 H :   -0.104071
  10 C :    0.143843
  11 H :    0.005725
  12 H :    0.014284
  13 H :   -0.021183
  14 H :   -0.026287
  15 H :   -0.025035

  Mayer bond orders larger than 0.100000
B(  0-C ,  1-N ) :   0.9283 B(  0-C ,  7-H ) :  -0.1326 B(  0-C , 10-C ) :   1.2065
B(  0-C , 11-H ) :   0.8645 B(  0-C , 12-H ) :   0.7868 B(  0-C , 13-H ) :   0.2662
B(  0-C , 14-H ) :   0.2035 B(  0-C , 15-H ) :   0.1919 B(  1-N ,  2-C ) :   1.0951
B(  1-N ,  3-C ) :   0.2652 B(  1-N ,  4-N ) :   0.1365 B(  1-N ,  7-H ) :   1.1686
B(  1-N , 11-H ) :   0.1570 B(  1-N , 12-H ) :   0.2269 B(  2-C ,  3-C ) :   1.3321
B(  2-C ,  4-N ) :   0.9887 B(  2-C ,  6-H ) :  -0.1158 B(  2-C ,  7-H ) :  -0.1609
B(  2-C ,  8-H ) :   0.1167 B(  2-C ,  9-H ) :   0.1479 B(  3-C ,  4-N ) :   0.2057
B(  3-C ,  8-H ) :   0.8170 B(  3-C ,  9-H ) :   0.7411 B(  4-N ,  5-H ) :   1.0675
B(  4-N ,  6-H ) :   1.2398 B(  5-H ,  6-H ) :  -0.2112 B( 10-C , 13-H ) :   0.7564
B( 10-C , 14-H ) :   0.7997 B( 10-C , 15-H ) :   0.7813

Dispersion correction           -0.021038298
FINAL SINGLE POINT ENERGY      -267.580586255617

DIPOLE MOMENT
-------------
                                X             Y             Z
Electronic contribution:      1.40854      -2.33977      -1.21801
Nuclear contribution   :     -1.91052       2.32590       2.09379
                        -----------------------------------------
Total Dipole Moment    :     -0.50198      -0.01388       0.87578
                        -----------------------------------------
Magnitude (a.u.)       :      1.00954
Magnitude (Debye)      :      2.56605

Rotational constants in cm-1:     0.219448     0.077923     0.068804
Rotational constants in MHz :  6578.886179  2336.083179  2062.700476

                             ****ORCA TERMINATED NORMALLY****
TOTAL RUN TIME: 0 days 0 hours 0 minutes 20 seconds 843 msec
