                         Program Version 5.0.0 -  RELEASE  -
|  1> !B3LYP D3BJ RIJCOSX def2-SVPD def2/J TightSCF
|  2> *xyz 0 1
|  3> C          0.61188        1.65763       -4.50029
|  4> C          1.69499        1.54179       -5.57045
|  5> H          2.69733        1.73466       -5.18400
|  6> H          1.50666        2.27224       -6.35808
|  7> S          1.78029       -0.03313       -6.42874
|  8> O          2.56929        0.21366       -7.60736
|  9> O          0.41688       -0.46297       -6.61859
| 10> F          2.50513       -0.93326       -5.48257
| 11> H         -0.34424        1.45871       -4.93752
| 12> H          0.61845        2.64655       -4.09174
| 13> H          0.80247        0.94882       -3.72173
| 14> *
| 15> %MaxCore 64000
| 16>
| 17> %pal nprocs 4
| 18> end
| 19>
| 20> %scf
| 21>   MaxIter 150
| 22> end
| 23>
| 24>
| 25>                          ****END OF INPUT****

CARTESIAN COORDINATES (ANGSTROEM)
---------------------------------
  C      0.611880    1.657630   -4.500290
  C      1.694990    1.541790   -5.570450
  H      2.697330    1.734660   -5.184000
  H      1.506660    2.272240   -6.358080
  S      1.780290   -0.033130   -6.428740
  O      2.569290    0.213660   -7.607360
  O      0.416880   -0.462970   -6.618590
  F      2.505130   -0.933260   -5.482570
  H     -0.344240    1.458710   -4.937520
  H      0.618450    2.646550   -4.091740
  H      0.802470    0.948820   -3.721730

 Total Charge           Charge          ....    0
 Multiplicity           Mult            ....    1
 Number of Electrons    NEL             ....   58
 Basis Dimension        Dim             ....  176

ORBITAL ENERGIES
----------------

  NO   OCC          E(Eh)            E(eV)
   0   2.0000     -89.137094     -2425.5436
   1   2.0000     -24.791075      -674.5994
   2   2.0000     -19.155677      -521.2525
   3   2.0000     -19.154870      -521.2305
   4   2.0000     -10.247948      -278.8608
   5   2.0000     -10.206684      -277.7380
   6   2.0000      -8.191796      -222.9101
   7   2.0000      -6.164563      -167.7463
   8   2.0000      -6.158685      -167.5864
   9   2.0000      -6.157197      -167.5459
  10   2.0000      -1.335576       -36.3429
  11   2.0000      -1.120419       -30.4882
  12   2.0000      -1.027227       -27.9523
  13   2.0000      -0.821643       -22.3580
  14   2.0000      -0.721552       -19.6344
  15   2.0000      -0.671521       -18.2730
  16   2.0000      -0.578656       -15.7460
  17   2.0000      -0.561104       -15.2684
  18   2.0000      -0.550494       -14.9797
  19   2.0000      -0.497867       -13.5476
  20   2.0000      -0.483124       -13.1465
  21   2.0000      -0.462329       -12.5806
  22   2.0000      -0.438547       -11.9335
  23   2.0000      -0.410243       -11.1633
  24   2.0000      -0.406572       -11.0634
  25   2.0000      -0.386550       -10.5186
  26   2.0000      -0.345395        -9.3987
  27   2.0000      -0.337767        -9.1911
  28   2.0000      -0.325900        -8.8682
  29   0.0000      -0.008096        -0.2203
  30   0.0000       0.024323         0.6618
  31   0.0000       0.032698         0.8897
  32   0.0000       0.037485         1.0200
  33   0.0000       0.045749         1.2449

MULLIKEN ATOMIC CHARGES
-----------------------
   0 C :    1.015215
   1 C :   -0.227354
   2 H :   -0.102556
   3 H :   -0.051362
   4 S :    1.499607
   5 O :   -0.654239
   6 O :   -0.671613
   7 F :   -0.431659
   8 H :   -0.093374
   9 H :   -0.153426
  10 H :   -0.129239
Sum of atomic charges:   -0.0000000

LOEWDIN ATOMIC CHARGES
----------------------
   0 C :    0.142980
   1 C :   -0.084645
   2 H :    0.020489
   3 H :    0.027473
   4 S :    1.121002
   5 O :   -0.461873
   6 O :   -0.458831
   7 F :   -0.279974
   8 H :   -0.010246
   9 H :   -0.008151
  10 H :   -0.008222

  Mayer bond orders larger than 0.100000
B(  0-C ,  1-C ) :   1.3074 B(  0-C ,  8-H ) :   0.7771 B(  0-C ,  9-H ) :   0.6842
B(  0-C , 10-H ) :   0.7605 B(  1-C ,  2-H ) :   0.9472 B(  1-C ,  3-H ) :   0.9553
B(  1-C ,  4-S ) :   0.9758 B(  1-C ,  8-H ) :   0.2253 B(  1-C ,  9-H ) :   0.2432
B(  1-C , 10-H ) :   0.2087 B(  4-S ,  5-O ) :   1.5447 B(  4-S ,  6-O ) :   1.5140
B(  4-S ,  7-F ) :   0.6086 B(  5-O ,  6-O ) :   0.1016

Dispersion correction           -0.015877426
FINAL SINGLE POINT ENERGY      -727.093852331917

DIPOLE MOMENT
-------------
                                X             Y             Z
Electronic contribution:      3.76479      -7.54966      -3.89798
Nuclear contribution   :     -3.60260       8.53062       5.21025
                        -----------------------------------------
Total Dipole Moment    :      0.16219       0.98095       1.31226
                        -----------------------------------------
Magnitude (a.u.)       :      1.64639
Magnitude (Debye)      :      4.18480

Rotational constants in cm-1:     0.154011     0.080858     0.079602
Rotational constants in MHz :  4617.134198  2424.070332  2386.404775

                             ****ORCA TERMINATED NORMALLY****
TOTAL RUN TIME: 0 days 0 hours 0 minutes 15 seconds 715 msec
