                         Program Version 5.0.0 -  RELEASE  -
|  1> !B3LYP D3BJ RIJCOSX def2-SVPD def2/J TightSCF
|  2> *xyz 0 1
|  3> C          1.96337       -1.74915       -1.89689
|  4> N          2.73849       -2.01517       -3.09711
|  5> C          4.04974       -2.15472       -3.15204
|  6> N          4.65821       -1.98629       -4.31866
|  7> C          4.76423       -2.45444       -2.05049
|  8> H          4.28736       -2.77626       -1.21750
|  9> H          5.75082       -2.65835       -2.12599
| 10> H          2.34518       -1.69027       -3.97145
| 11> H          4.10900       -1.59268       -5.07176
| 12> H          5.64910       -2.15646       -4.42724
| 13> C          2.08852       -0.30091       -1.41520
| 14> H          2.23127       -2.45162       -1.10264
| 15> H          0.93025       -1.97780       -2.15544
| 16> H          1.82118        0.36368       -2.21003
| 17> H          3.09792       -0.11068       -1.11551
| 18> H          1.43391       -0.14382       -0.58352
| 19> *
| 20> %MaxCore 64000
| 21>
| 22> %pal nprocs 4
| 23> end
| 24>
| 25> %scf
| 26>   MaxIter 150
| 27> end
| 28>
| 29>
| 30>                          ****END OF INPUT****

CARTESIAN COORDINATES (ANGSTROEM)
---------------------------------
  C      1.963370   -1.749150   -1.896890
  N      2.738490   -2.015170   -3.097110
  C      4.049740   -2.154720   -3.152040
  N      4.658210   -1.986290   -4.318660
  C      4.764230   -2.454440   -2.050490
  H      4.287360   -2.776260   -1.217500
  H      5.750820   -2.658350   -2.125990
  H      2.345180   -1.690270   -3.971450
  H      4.109000   -1.592680   -5.071760
  H      5.649100   -2.156460   -4.427240
  C      2.088520   -0.300910   -1.415200
  H      2.231270   -2.451620   -1.102640
  H      0.930250   -1.977800   -2.155440
  H      1.821180    0.363680   -2.210030
  H      3.097920   -0.110680   -1.115510
  H      1.433910   -0.143820   -0.583520

 Total Charge           Charge          ....    0
 Multiplicity           Mult            ....    1
 Number of Electrons    NEL             ....   48
 Basis Dimension        Dim             ....  200

ORBITAL ENERGIES
----------------

  NO   OCC          E(Eh)            E(eV)
   0   2.0000     -14.332390      -390.0042
   1   2.0000     -14.332274      -390.0010
   2   2.0000     -10.228021      -278.3186
   3   2.0000     -10.216629      -278.0086
   4   2.0000     -10.165971      -276.6301
   5   2.0000     -10.095944      -274.7246
   6   2.0000      -0.965516       -26.2730
   7   2.0000      -0.878760       -23.9123
   8   2.0000      -0.747153       -20.3311
   9   2.0000      -0.700529       -19.0624
  10   2.0000      -0.638470       -17.3737
  11   2.0000      -0.559726       -15.2309
  12   2.0000      -0.547689       -14.9034
  13   2.0000      -0.523935       -14.2570
  14   2.0000      -0.468553       -12.7500
  15   2.0000      -0.439791       -11.9673
  16   2.0000      -0.417659       -11.3651
  17   2.0000      -0.399287       -10.8651
  18   2.0000      -0.381571       -10.3831
  19   2.0000      -0.368737       -10.0339
  20   2.0000      -0.362705        -9.8697
  21   2.0000      -0.348210        -9.4753
  22   2.0000      -0.252234        -6.8636
  23   2.0000      -0.164610        -4.4793
  24   0.0000       0.009835         0.2676
  25   0.0000       0.034997         0.9523
  26   0.0000       0.047182         1.2839
  27   0.0000       0.051071         1.3897
  28   0.0000       0.078531         2.1369

MULLIKEN ATOMIC CHARGES
-----------------------
   0 C :    0.453425
   1 N :   -0.247999
   2 C :    0.656705
   3 N :    0.165604
   4 C :    0.491517
   5 H :   -0.159931
   6 H :   -0.667226
   7 H :   -0.332924
   8 H :   -0.186981
   9 H :   -0.137552
  10 C :    0.904508
  11 H :   -0.078857
  12 H :   -0.440194
  13 H :   -0.152595
  14 H :   -0.149954
  15 H :   -0.117547
Sum of atomic charges:   -0.0000000

LOEWDIN ATOMIC CHARGES
----------------------
   0 C :    0.023350
   1 N :   -0.018042
   2 C :   -0.243886
   3 N :    0.190428
   4 C :    0.165883
   5 H :   -0.116335
   6 H :   -0.110420
   7 H :    0.014667
   8 H :   -0.013115
   9 H :    0.009424
  10 C :    0.146439
  11 H :    0.014301
  12 H :    0.014031
  13 H :   -0.025613
  14 H :   -0.027279
  15 H :   -0.023835

  Mayer bond orders larger than 0.100000
B(  0-C ,  1-N ) :   0.9263 B(  0-C ,  4-C ) :   0.1068 B(  0-C ,  7-H ) :  -0.1186
B(  0-C , 10-C ) :   1.1913 B(  0-C , 11-H ) :   0.8600 B(  0-C , 12-H ) :   0.8338
B(  0-C , 13-H ) :   0.2546 B(  0-C , 14-H ) :   0.2108 B(  0-C , 15-H ) :   0.1968
B(  1-N ,  2-C ) :   0.9710 B(  1-N ,  3-N ) :   0.1822 B(  1-N ,  4-C ) :   0.3505
B(  1-N ,  7-H ) :   1.2310 B(  1-N , 11-H ) :   0.1063 B(  1-N , 12-H ) :   0.1945
B(  2-C ,  3-N ) :   0.9159 B(  2-C ,  4-C ) :   1.5889 B(  2-C ,  5-H ) :   0.2948
B(  2-C ,  6-H ) :   0.1297 B(  2-C ,  7-H ) :  -0.2164 B(  3-N ,  4-C ) :   0.2249
B(  3-N ,  8-H ) :   1.1738 B(  3-N ,  9-H ) :   1.2423 B(  4-C ,  5-H ) :   0.5803
B(  4-C ,  6-H ) :   0.8540 B(  8-H ,  9-H ) :  -0.1753 B( 10-C , 13-H ) :   0.7630
B( 10-C , 14-H ) :   0.8113 B( 10-C , 15-H ) :   0.7742 B( 11-H , 12-H ) :  -0.1070

Dispersion correction           -0.021175432
FINAL SINGLE POINT ENERGY      -267.580207523622

DIPOLE MOMENT
-------------
                                X             Y             Z
Electronic contribution:      1.34505      -1.83431      -3.41617
Nuclear contribution   :     -1.88803       2.22658       2.57497
                        -----------------------------------------
Total Dipole Moment    :     -0.54298       0.39227      -0.84119
                        -----------------------------------------
Magnitude (a.u.)       :      1.07532
Magnitude (Debye)      :      2.73324

Rotational constants in cm-1:     0.226509     0.075782     0.067928
Rotational constants in MHz :  6790.555051  2271.890226  2036.439218

                             ****ORCA TERMINATED NORMALLY****
TOTAL RUN TIME: 0 days 0 hours 0 minutes 22 seconds 497 msec
