                         Program Version 5.0.0 -  RELEASE  -
|  1> !B3LYP D3BJ RIJCOSX def2-SVPD def2/J TightSCF xyzfile
|  2>
|  3> *xyzfile 0 1 D1.xyz
|  4>
|  5> %MaxCore 64000
|  6>
|  7> %pal nprocs 4
|  8> end
|  9>
| 10> %scf
| 11>   MaxIter 150
| 12> end
| 13>
| 14>
| 15>                          ****END OF INPUT****

CARTESIAN COORDINATES (ANGSTROEM)
---------------------------------
  C      1.963365   -1.749150   -1.896887
  C      2.738490   -2.015170   -3.097113
  C      0.611877    1.657634   -4.500288
  C      1.694991    1.541794   -5.570447
  H      2.697326    1.734659   -5.183996
  H      1.506656    2.272239   -6.358076
  S      1.780287   -0.033128   -6.428739
  C      4.049736   -2.154717   -3.152044
  N      4.658206   -1.986293   -4.318655
  N      4.764231   -2.454435   -2.050491
  H      4.287363   -2.776259   -1.217496
  H      5.750825   -2.658351   -2.125988
  H      2.345176   -1.690274   -3.971447
  H      4.109004   -1.592677   -5.071760
  H      5.649095   -2.156462   -4.427237
  F      2.569287    0.213657   -7.607360
  O      0.416880   -0.462969   -6.618595
  C      2.088520   -0.300912   -1.415204
  H      2.231272   -2.451616   -1.102643
  H      0.930249   -1.977801   -2.155438
  C      0.680356    0.655418   -3.348038
  H     -0.356865    1.549231   -4.991128
  H      0.650228    2.675438   -4.096000
  C      1.968993    0.733582   -2.535654
  H      3.051356   -0.168602   -0.911868
  H      1.316501   -0.136231   -0.657252
  O      2.505129   -0.933263   -5.482570
  H      2.824195    0.624726   -3.208464
  H      2.058919    1.730331   -2.093112
  H      0.542252   -0.344731   -3.766662
  H     -0.174219    0.829692   -2.685182

 Total Charge           Charge          ....    0
 Multiplicity           Mult            ....    1
 Number of Electrons    NEL             ....  120
 Basis Dimension        Dim             ....  432

ORBITAL ENERGIES
----------------

  NO   OCC          E(Eh)            E(eV)
   0   2.0000     -89.149656     -2425.8855
   1   2.0000     -24.825864      -675.5461
   2   2.0000     -19.164207      -521.4846
   3   2.0000     -19.150274      -521.1054
   4   2.0000     -14.314657      -389.5216
   5   2.0000     -14.299136      -389.0993
   6   2.0000     -10.248997      -278.8894
   7   2.0000     -10.208854      -277.7970
   8   2.0000     -10.202425      -277.6221
   9   2.0000     -10.176896      -276.9274
  10   2.0000     -10.165417      -276.6151
  11   2.0000     -10.154655      -276.3222
  12   2.0000     -10.143111      -276.0081
  13   2.0000     -10.071773      -274.0669
  14   2.0000      -8.203407      -223.2261
  15   2.0000      -6.176455      -168.0699
  16   2.0000      -6.170224      -167.9003
  17   2.0000      -6.168508      -167.8536
  18   2.0000      -1.388245       -37.7761
  19   2.0000      -1.118689       -30.4411
  20   2.0000      -1.015397       -27.6303
  21   2.0000      -0.928913       -25.2770
  22   2.0000      -0.840947       -22.8833
  23   2.0000      -0.832684       -22.6585
  24   2.0000      -0.786431       -21.3999
  25   2.0000      -0.752748       -20.4833
  26   2.0000      -0.723319       -19.6825
  27   2.0000      -0.688319       -18.7301
  28   2.0000      -0.649517       -17.6743
  29   2.0000      -0.618441       -16.8286
  30   2.0000      -0.605570       -16.4784
  31   2.0000      -0.587597       -15.9893
  32   2.0000      -0.586671       -15.9641
  33   2.0000      -0.550862       -14.9897
  34   2.0000      -0.546957       -14.8835
  35   2.0000      -0.525008       -14.2862
  36   2.0000      -0.501316       -13.6415
  37   2.0000      -0.494871       -13.4661
  38   2.0000      -0.485052       -13.1989
  39   2.0000      -0.469515       -12.7762
  40   2.0000      -0.465858       -12.6766
  41   2.0000      -0.445454       -12.1214
  42   2.0000      -0.434686       -11.8284
  43   2.0000      -0.426607       -11.6086
  44   2.0000      -0.415053       -11.2942
  45   2.0000      -0.401267       -10.9190
  46   2.0000      -0.385534       -10.4909
  47   2.0000      -0.379629       -10.3302
  48   2.0000      -0.369082       -10.0432
  49   2.0000      -0.361091        -9.8258
  50   2.0000      -0.351218        -9.5571
  51   2.0000      -0.337816        -9.1925
  52   2.0000      -0.331828        -9.0295
  53   2.0000      -0.326240        -8.8774
  54   2.0000      -0.321727        -8.7546
  55   2.0000      -0.313961        -8.5433
  56   2.0000      -0.300270        -8.1708
  57   2.0000      -0.286607        -7.7990
  58   2.0000      -0.244243        -6.6462
  59   2.0000      -0.138302        -3.7634
  60   0.0000      -0.009761        -0.2656
  61   0.0000       0.010853         0.2953
  62   0.0000       0.021468         0.5842
  63   0.0000       0.028058         0.7635
  64   0.0000       0.039377         1.0715

MULLIKEN ATOMIC CHARGES
-----------------------
   0 C :    0.483460
   1 C :    0.181886
   2 C :    0.591571
   3 C :    0.255547
   4 H :    0.041899
   5 H :   -0.174458
   6 S :    1.649797
   7 C :    0.619285
   8 N :    0.298594
   9 N :    0.097981
  10 H :   -0.075586
  11 H :   -0.322362
  12 H :   -0.523112
  13 H :   -0.226586
  14 H :   -0.328750
  15 F :   -0.478715
  16 O :   -0.697242
  17 C :    0.756409
  18 H :   -0.467129
  19 H :    0.041955
  20 C :    0.174931
  21 H :   -0.093916
  22 H :   -0.127049
  23 C :    0.043639
  24 H :   -0.116177
  25 H :   -0.050071
  26 O :   -0.766907
  27 H :   -0.058074
  28 H :   -0.301391
  29 H :   -0.150353
  30 H :   -0.279074
Sum of atomic charges:   -0.0000000

LOEWDIN ATOMIC CHARGES
----------------------
   0 C :   -0.042740
   1 C :   -0.020737
   2 C :   -0.014105
   3 C :   -0.040322
   4 H :    0.019284
   5 H :    0.015386
   6 S :    1.192998
   7 C :   -0.199248
   8 N :    0.206404
   9 N :    0.202024
  10 H :   -0.014467
  11 H :   -0.020311
  12 H :   -0.130873
  13 H :   -0.082436
  14 H :   -0.014169
  15 F :   -0.247698
  16 O :   -0.439143
  17 C :   -0.015598
  18 H :   -0.004064
  19 H :    0.006955
  20 C :   -0.010391
  21 H :    0.026077
  22 H :    0.034801
  23 C :   -0.022994
  24 H :    0.013653
  25 H :    0.010747
  26 O :   -0.474237
  27 H :    0.005500
  28 H :    0.017995
  29 H :    0.010334
  30 H :    0.031373

  Mayer bond orders larger than 0.100000
B(  0-C ,  1-C ) :   1.0056 B(  0-C ,  7-C ) :   0.1908 B(  0-C , 12-H ) :   0.4820
B(  0-C , 17-C ) :   1.0833 B(  0-C , 18-H ) :   0.7177 B(  0-C , 19-H ) :   0.6179
B(  0-C , 23-C ) :   0.1738 B(  0-C , 24-H ) :   0.1439 B(  0-C , 25-H ) :   0.2189
B(  1-C ,  7-C ) :   1.6446 B(  1-C ,  8-N ) :   0.2593 B(  1-C ,  9-N ) :   0.2728
B(  1-C , 10-H ) :  -0.1143 B(  1-C , 17-C ) :   0.1105 B(  1-C , 18-H ) :   0.2829
B(  1-C , 19-H ) :   0.3245 B(  1-C , 26-O ) :  -0.1181 B(  1-C , 28-H ) :   0.1122
B(  2-C ,  3-C ) :   1.2707 B(  2-C ,  4-H ) :   0.1264 B(  2-C ,  5-H ) :   0.2234
B(  2-C , 20-C ) :   1.2284 B(  2-C , 21-H ) :   0.6023 B(  2-C , 22-H ) :   0.7135
B(  3-C ,  4-H ) :   0.8579 B(  3-C ,  5-H ) :   0.7328 B(  3-C ,  6-S ) :   1.0193
B(  3-C , 21-H ) :   0.1281 B(  3-C , 22-H ) :   0.1637 B(  6-S , 15-F ) :   0.5911
B(  6-S , 16-O ) :   1.4455 B(  6-S , 26-O ) :   1.3169 B(  7-C ,  8-N ) :   0.8166
B(  7-C ,  9-N ) :   0.9168 B(  7-C , 11-H ) :  -0.1903 B(  7-C , 12-H ) :   0.6533
B(  7-C , 13-H ) :  -0.1285 B(  7-C , 14-H ) :  -0.2533 B(  8-N ,  9-N ) :   0.1023
B(  8-N , 13-H ) :   1.1869 B(  8-N , 14-H ) :   1.3611 B(  9-N , 10-H ) :   1.0872
B(  9-N , 11-H ) :   1.3638 B( 10-H , 11-H ) :  -0.2255 B( 12-H , 23-C ) :   0.1181
B( 12-H , 26-O ) :   0.1478 B( 12-H , 27-H ) :   0.1046 B( 12-H , 28-H ) :  -0.1458
B( 13-H , 14-H ) :  -0.2120 B( 13-H , 26-O ) :   0.1358 B( 16-O , 26-O ) :   0.1583
B( 17-C , 19-H ) :   0.1087 B( 17-C , 23-C ) :   1.1992 B( 17-C , 24-H ) :   0.6712
B( 17-C , 25-H ) :   0.6133 B( 17-C , 27-H ) :   0.1163 B( 17-C , 28-H ) :   0.1036
B( 20-C , 21-H ) :   0.3145 B( 20-C , 22-H ) :   0.1036 B( 20-C , 23-C ) :   1.1803
B( 20-C , 27-H ) :   0.1264 B( 20-C , 28-H ) :   0.1756 B( 20-C , 29-H ) :   0.9139
B( 20-C , 30-H ) :   0.7556 B( 21-H , 22-H ) :  -0.1116 B( 23-C , 24-H ) :   0.2930
B( 23-C , 25-H ) :   0.1716 B( 23-C , 27-H ) :   0.8637 B( 23-C , 28-H ) :   0.8048
B( 23-C , 29-H ) :   0.1214 B( 23-C , 30-H ) :   0.1676 B( 24-H , 25-H ) :  -0.1219

Dispersion correction           -0.062346797
FINAL SINGLE POINT ENERGY     -1071.986508812226

DIPOLE MOMENT
-------------
                                X             Y             Z
Electronic contribution:      0.71773      -0.97178     -23.50161
Nuclear contribution   :      0.18720       2.58739      22.98820
                        -----------------------------------------
Total Dipole Moment    :      0.90493       1.61561      -0.51341
                        -----------------------------------------
Magnitude (a.u.)       :      1.92164
Magnitude (Debye)      :      4.88441

Rotational constants in cm-1:     0.028798     0.014448     0.010940
Rotational constants in MHz :   863.355869   433.126694   327.985023

                             ****ORCA TERMINATED NORMALLY****
TOTAL RUN TIME: 0 days 0 hours 3 minutes 10 seconds 87 msec
