                         Program Version 5.0.0 -  RELEASE  -
|  1> !B3LYP D3BJ RIJCOSX def2-SVPD def2/J TightSCF xyzfile
|  2>
|  3> *xyzfile 0 1 D3.xyz
|  4>
|  5> %MaxCore 64000
|  6>
|  7> %pal nprocs 4
|  8> end
|  9>
| 10> %scf
| 11>   MaxIter 150
| 12> end
| 13>
| 14>
| 15>                          ****END OF INPUT****

CARTESIAN COORDINATES (ANGSTROEM)
---------------------------------
  C      1.963365   -1.749150   -1.896887
  N      2.738490   -2.015170   -3.097113
  C      0.611877    1.657634   -4.500288
  C      1.694991    1.541794   -5.570447
  H      2.697326    1.734659   -5.183996
  H      1.506656    2.272239   -6.358076
  S      1.780287   -0.033128   -6.428739
  C      4.049736   -2.154717   -3.152044
  N      4.658206   -1.986293   -4.318655
  C      4.764231   -2.454435   -2.050491
  H      4.287363   -2.776259   -1.217496
  H      5.750825   -2.658351   -2.125988
  H      2.345176   -1.690274   -3.971447
  H      4.109004   -1.592677   -5.071760
  H      5.649095   -2.156462   -4.427237
  F      2.569287    0.213657   -7.607360
  O      0.416880   -0.462969   -6.618595
  C      2.088520   -0.300912   -1.415204
  H      2.231272   -2.451616   -1.102643
  H      0.930249   -1.977801   -2.155438
  C      0.680356    0.655418   -3.348038
  H     -0.356865    1.549231   -4.991128
  H      0.650228    2.675438   -4.096000
  C      1.968993    0.733582   -2.535654
  H      3.051356   -0.168602   -0.911868
  H      1.316501   -0.136231   -0.657252
  O      2.505129   -0.933263   -5.482570
  H      2.824195    0.624726   -3.208464
  H      2.058919    1.730331   -2.093112
  H      0.542252   -0.344731   -3.766662
  H     -0.174219    0.829692   -2.685182

 Total Charge           Charge          ....    0
 Multiplicity           Mult            ....    1
 Number of Electrons    NEL             ....  120
 Basis Dimension        Dim             ....  432

ORBITAL ENERGIES
----------------

  NO   OCC          E(Eh)            E(eV)
   0   2.0000     -89.168832     -2426.4073
   1   2.0000     -24.842166      -675.9897
   2   2.0000     -19.180417      -521.9257
   3   2.0000     -19.171305      -521.6777
   4   2.0000     -14.297909      -389.0659
   5   2.0000     -14.296541      -389.0286
   6   2.0000     -10.263174      -279.2752
   7   2.0000     -10.222787      -278.1762
   8   2.0000     -10.203748      -277.6581
   9   2.0000     -10.198734      -277.5217
  10   2.0000     -10.193650      -277.3833
  11   2.0000     -10.181384      -277.0495
  12   2.0000     -10.169669      -276.7308
  13   2.0000     -10.073519      -274.1144
  14   2.0000      -8.222306      -223.7403
  15   2.0000      -6.195254      -168.5814
  16   2.0000      -6.189343      -168.4206
  17   2.0000      -6.187357      -168.3666
  18   2.0000      -1.404308       -38.2132
  19   2.0000      -1.136573       -30.9277
  20   2.0000      -1.034957       -28.1626
  21   2.0000      -0.937802       -25.5189
  22   2.0000      -0.854548       -23.2534
  23   2.0000      -0.846332       -23.0299
  24   2.0000      -0.793492       -21.5920
  25   2.0000      -0.759543       -20.6682
  26   2.0000      -0.723456       -19.6862
  27   2.0000      -0.684690       -18.6314
  28   2.0000      -0.674950       -18.3663
  29   2.0000      -0.638482       -17.3740
  30   2.0000      -0.619053       -16.8453
  31   2.0000      -0.605139       -16.4667
  32   2.0000      -0.590746       -16.0750
  33   2.0000      -0.569603       -15.4997
  34   2.0000      -0.539261       -14.6740
  35   2.0000      -0.524642       -14.2762
  36   2.0000      -0.517756       -14.0889
  37   2.0000      -0.509524       -13.8648
  38   2.0000      -0.497702       -13.5431
  39   2.0000      -0.482392       -13.1266
  40   2.0000      -0.464363       -12.6360
  41   2.0000      -0.457205       -12.4412
  42   2.0000      -0.441847       -12.0233
  43   2.0000      -0.427946       -11.6450
  44   2.0000      -0.423552       -11.5254
  45   2.0000      -0.416815       -11.3421
  46   2.0000      -0.392372       -10.6770
  47   2.0000      -0.387751       -10.5512
  48   2.0000      -0.371767       -10.1163
  49   2.0000      -0.369147       -10.0450
  50   2.0000      -0.365019        -9.9327
  51   2.0000      -0.353276        -9.6131
  52   2.0000      -0.350953        -9.5499
  53   2.0000      -0.343411        -9.3447
  54   2.0000      -0.336460        -9.1555
  55   2.0000      -0.331415        -9.0183
  56   2.0000      -0.328759        -8.9460
  57   2.0000      -0.317458        -8.6385
  58   2.0000      -0.224932        -6.1207
  59   2.0000      -0.141740        -3.8570
  60   0.0000      -0.021689        -0.5902
  61   0.0000      -0.001029        -0.0280
  62   0.0000       0.015633         0.4254
  63   0.0000       0.025730         0.7002
  64   0.0000       0.029111         0.7922

MULLIKEN ATOMIC CHARGES
-----------------------
   0 C :    1.118230
   1 N :    0.238862
   2 C :    0.595707
   3 C :    0.254208
   4 H :    0.051966
   5 H :   -0.174922
   6 S :    1.670011
   7 C :    0.654857
   8 N :    0.551079
   9 C :    0.552167
  10 H :   -0.074312
  11 H :   -0.782252
  12 H :   -0.876948
  13 H :   -0.370055
  14 H :   -0.295995
  15 F :   -0.470237
  16 O :   -0.690214
  17 C :    0.630910
  18 H :   -0.424279
  19 H :   -0.270826
  20 C :    0.160401
  21 H :   -0.082847
  22 H :   -0.120983
  23 C :    0.180335
  24 H :   -0.194290
  25 H :   -0.125028
  26 O :   -0.846324
  27 H :   -0.029650
  28 H :   -0.410671
  29 H :   -0.139604
  30 H :   -0.279295
Sum of atomic charges:    0.0000000

LOEWDIN ATOMIC CHARGES
----------------------
   0 C :    0.071924
   1 N :    0.014291
   2 C :   -0.011681
   3 C :   -0.037399
   4 H :    0.021172
   5 H :    0.017994
   6 S :    1.197927
   7 C :   -0.225042
   8 N :    0.211366
   9 C :    0.157052
  10 H :   -0.123403
  11 H :   -0.117247
  12 H :   -0.084520
  13 H :   -0.095555
  14 H :    0.005197
  15 F :   -0.238767
  16 O :   -0.434686
  17 C :   -0.003099
  18 H :    0.011361
  19 H :    0.013110
  20 C :   -0.015367
  21 H :    0.027540
  22 H :    0.037555
  23 C :   -0.022237
  24 H :    0.014866
  25 H :    0.016417
  26 O :   -0.473863
  27 H :    0.005460
  28 H :    0.021286
  29 H :    0.005296
  30 H :    0.033050

  Mayer bond orders larger than 0.100000
B(  0-C ,  1-N ) :   0.9680 B(  0-C ,  7-C ) :  -0.1065 B(  0-C , 12-H ) :  -0.3764
B(  0-C , 17-C ) :   1.0089 B(  0-C , 18-H ) :   0.8196 B(  0-C , 19-H ) :   0.6358
B(  0-C , 23-C ) :   0.1263 B(  0-C , 25-H ) :   0.1211 B(  1-N ,  7-C ) :   0.9269
B(  1-N ,  9-C ) :   0.4882 B(  1-N , 12-H ) :   0.8672 B(  1-N , 13-H ) :   0.1083
B(  1-N , 19-H ) :   0.1651 B(  2-C ,  3-C ) :   1.2705 B(  2-C ,  4-H ) :   0.1215
B(  2-C ,  5-H ) :   0.2190 B(  2-C , 20-C ) :   1.2308 B(  2-C , 21-H ) :   0.5961
B(  2-C , 22-H ) :   0.7216 B(  3-C ,  4-H ) :   0.8613 B(  3-C ,  5-H ) :   0.7370
B(  3-C ,  6-S ) :   1.0107 B(  3-C , 21-H ) :   0.1279 B(  3-C , 22-H ) :   0.1639
B(  6-S , 15-F ) :   0.5990 B(  6-S , 16-O ) :   1.4564 B(  6-S , 26-O ) :   1.3009
B(  7-C ,  8-N ) :   0.8616 B(  7-C ,  9-C ) :   1.3941 B(  7-C , 10-H ) :   0.3449
B(  7-C , 11-H ) :   0.2748 B(  7-C , 12-H ) :  -0.3440 B(  7-C , 14-H ) :  -0.1895
B(  8-N ,  9-C ) :   0.2430 B(  8-N , 13-H ) :   1.0156 B(  8-N , 14-H ) :   1.3060
B(  9-C , 10-H ) :   0.5406 B(  9-C , 11-H ) :   0.6383 B(  9-C , 12-H ) :  -0.1271
B( 10-H , 18-H ) :   0.1530 B( 10-H , 19-H ) :  -0.1107 B( 12-H , 19-H ) :   0.1247
B( 12-H , 26-O ) :   0.1285 B( 12-H , 27-H ) :   0.1314 B( 12-H , 28-H ) :  -0.1197
B( 13-H , 14-H ) :  -0.2045 B( 13-H , 26-O ) :   0.2323 B( 16-O , 26-O ) :   0.1588
B( 17-C , 18-H ) :   0.1084 B( 17-C , 19-H ) :   0.1104 B( 17-C , 23-C ) :   1.2230
B( 17-C , 24-H ) :   0.7227 B( 17-C , 25-H ) :   0.7702 B( 17-C , 27-H ) :   0.1124
B( 18-H , 19-H ) :  -0.2297 B( 20-C , 21-H ) :   0.3148 B( 20-C , 22-H ) :   0.1017
B( 20-C , 23-C ) :   1.1712 B( 20-C , 27-H ) :   0.1281 B( 20-C , 28-H ) :   0.1681
B( 20-C , 29-H ) :   0.9270 B( 20-C , 30-H ) :   0.7615 B( 21-H , 22-H ) :  -0.1083
B( 23-C , 24-H ) :   0.2593 B( 23-C , 25-H ) :   0.1447 B( 23-C , 27-H ) :   0.8241
B( 23-C , 28-H ) :   0.8040 B( 23-C , 29-H ) :   0.1028 B( 23-C , 30-H ) :   0.1453
B( 24-H , 25-H ) :  -0.1175

Dispersion correction           -0.061861517
FINAL SINGLE POINT ENERGY     -1071.994014643937

DIPOLE MOMENT
-------------
                                X             Y             Z
Electronic contribution:     -1.13075      -0.19898     -24.49749
Nuclear contribution   :      0.44707       2.53104      23.12246
                        -----------------------------------------
Total Dipole Moment    :     -0.68368       2.33206      -1.37502
                        -----------------------------------------
Magnitude (a.u.)       :      2.79224
Magnitude (Debye)      :      7.09732

Rotational constants in cm-1:     0.028906     0.014696     0.011110
Rotational constants in MHz :   866.591909   440.585554   333.081943

                             ****ORCA TERMINATED NORMALLY****
TOTAL RUN TIME: 0 days 0 hours 3 minutes 7 seconds 125 msec
