                         Program Version 5.0.0 -  RELEASE  -
|  1> !B3LYP D3BJ RIJCOSX def2-SVPD def2/J TightSCF xyzfile
|  2>
|  3> *xyzfile 0 1 D4.xyz
|  4>
|  5> %MaxCore 64000
|  6>
|  7> %pal nprocs 4
|  8> end
|  9>
| 10> %scf
| 11>   MaxIter 150
| 12> end
| 13>
| 14>
| 15>                          ****END OF INPUT****

CARTESIAN COORDINATES (ANGSTROEM)
---------------------------------
  C      1.963365   -1.749150   -1.896887
  C      2.738490   -2.015170   -3.097113
  C      0.611877    1.657634   -4.500288
  C      1.694991    1.541794   -5.570447
  H      2.697326    1.734659   -5.183996
  H      1.506656    2.272239   -6.358076
  S      1.780287   -0.033128   -6.428739
  C      4.049736   -2.154717   -3.152044
  N      4.658206   -1.986293   -4.318655
  N      4.764231   -2.454435   -2.050491
  H      4.287363   -2.776259   -1.217496
  H      5.750825   -2.658351   -2.125988
  H      2.345176   -1.690274   -3.971447
  H      4.109004   -1.592677   -5.071760
  H      5.649095   -2.156462   -4.427237
  O      2.569287    0.213657   -7.607360
  F      0.416880   -0.462969   -6.618595
  C      2.088520   -0.300912   -1.415204
  H      2.231272   -2.451616   -1.102643
  H      0.930249   -1.977801   -2.155438
  C      0.680356    0.655418   -3.348038
  H     -0.356865    1.549231   -4.991128
  H      0.650228    2.675438   -4.096000
  C      1.968993    0.733582   -2.535654
  H      3.051356   -0.168602   -0.911868
  H      1.316501   -0.136231   -0.657252
  O      2.505129   -0.933263   -5.482570
  H      2.824195    0.624726   -3.208464
  H      2.058919    1.730331   -2.093112
  H      0.542252   -0.344731   -3.766662
  H     -0.174219    0.829692   -2.685182

 Total Charge           Charge          ....    0
 Multiplicity           Mult            ....    1
 Number of Electrons    NEL             ....  120
 Basis Dimension        Dim             ....  432

ORBITAL ENERGIES
----------------

  NO   OCC          E(Eh)            E(eV)
   0   2.0000     -89.150535     -2425.9094
   1   2.0000     -24.826159      -675.5541
   2   2.0000     -19.163593      -521.4679
   3   2.0000     -19.148338      -521.0528
   4   2.0000     -14.315113      -389.5340
   5   2.0000     -14.298583      -389.0842
   6   2.0000     -10.249041      -278.8906
   7   2.0000     -10.213671      -277.9281
   8   2.0000     -10.203019      -277.6383
   9   2.0000     -10.185281      -277.1556
  10   2.0000     -10.169770      -276.7335
  11   2.0000     -10.157631      -276.4032
  12   2.0000     -10.145691      -276.0783
  13   2.0000     -10.071387      -274.0564
  14   2.0000      -8.204095      -223.2448
  15   2.0000      -6.177185      -168.0898
  16   2.0000      -6.171018      -167.9219
  17   2.0000      -6.169070      -167.8689
  18   2.0000      -1.386923       -37.7401
  19   2.0000      -1.119680       -30.4680
  20   2.0000      -1.014716       -27.6118
  21   2.0000      -0.928925       -25.2773
  22   2.0000      -0.841310       -22.8932
  23   2.0000      -0.837166       -22.7805
  24   2.0000      -0.788177       -21.4474
  25   2.0000      -0.751476       -20.4487
  26   2.0000      -0.725660       -19.7462
  27   2.0000      -0.692057       -18.8318
  28   2.0000      -0.650565       -17.7028
  29   2.0000      -0.622116       -16.9286
  30   2.0000      -0.605037       -16.4639
  31   2.0000      -0.598802       -16.2942
  32   2.0000      -0.583665       -15.8823
  33   2.0000      -0.551574       -15.0091
  34   2.0000      -0.545674       -14.8485
  35   2.0000      -0.523324       -14.2404
  36   2.0000      -0.499325       -13.5873
  37   2.0000      -0.496336       -13.5060
  38   2.0000      -0.479392       -13.0449
  39   2.0000      -0.476470       -12.9654
  40   2.0000      -0.469719       -12.7817
  41   2.0000      -0.446712       -12.1557
  42   2.0000      -0.438674       -11.9369
  43   2.0000      -0.432555       -11.7704
  44   2.0000      -0.421000       -11.4560
  45   2.0000      -0.396728       -10.7955
  46   2.0000      -0.388613       -10.5747
  47   2.0000      -0.382363       -10.4046
  48   2.0000      -0.374269       -10.1844
  49   2.0000      -0.364385        -9.9154
  50   2.0000      -0.353734        -9.6256
  51   2.0000      -0.341373        -9.2892
  52   2.0000      -0.339364        -9.2346
  53   2.0000      -0.331698        -9.0259
  54   2.0000      -0.320910        -8.7324
  55   2.0000      -0.316159        -8.6031
  56   2.0000      -0.303545        -8.2599
  57   2.0000      -0.281775        -7.6675
  58   2.0000      -0.244087        -6.6419
  59   2.0000      -0.138837        -3.7779
  60   0.0000      -0.013646        -0.3713
  61   0.0000       0.017770         0.4835
  62   0.0000       0.021029         0.5722
  63   0.0000       0.025582         0.6961
  64   0.0000       0.035593         0.9685

MULLIKEN ATOMIC CHARGES
-----------------------
   0 C :    0.488565
   1 C :    0.152924
   2 C :    0.636547
   3 C :    0.276108
   4 H :    0.011364
   5 H :   -0.184728
   6 S :    1.559263
   7 C :    0.618215
   8 N :    0.302971
   9 N :    0.100597
  10 H :   -0.074219
  11 H :   -0.322893
  12 H :   -0.497870
  13 H :   -0.221490
  14 H :   -0.327380
  15 O :   -0.662069
  16 F :   -0.467246
  17 C :    0.756905
  18 H :   -0.461138
  19 H :    0.029774
  20 C :    0.200628
  21 H :   -0.115968
  22 H :   -0.133099
  23 C :    0.026677
  24 H :   -0.115441
  25 H :   -0.048008
  26 O :   -0.753947
  27 H :   -0.047555
  28 H :   -0.299200
  29 H :   -0.148127
  30 H :   -0.280161
Sum of atomic charges:    0.0000000

LOEWDIN ATOMIC CHARGES
----------------------
   0 C :   -0.044828
   1 C :   -0.025421
   2 C :   -0.029493
   3 C :   -0.027690
   4 H :    0.031678
   5 H :    0.019504
   6 S :    1.188846
   7 C :   -0.198883
   8 N :    0.210706
   9 N :    0.202245
  10 H :   -0.014682
  11 H :   -0.019606
  12 H :   -0.137063
  13 H :   -0.074824
  14 H :   -0.011675
  15 O :   -0.445677
  16 F :   -0.239516
  17 C :   -0.015340
  18 H :   -0.004230
  19 H :    0.004490
  20 C :   -0.016488
  21 H :    0.020337
  22 H :    0.032966
  23 C :   -0.020470
  24 H :    0.014615
  25 H :    0.010535
  26 O :   -0.472597
  27 H :    0.007473
  28 H :    0.019482
  29 H :    0.004797
  30 H :    0.030809

  Mayer bond orders larger than 0.100000
B(  0-C ,  1-C ) :   0.9958 B(  0-C ,  7-C ) :   0.1922 B(  0-C , 12-H ) :   0.4825
B(  0-C , 17-C ) :   1.0818 B(  0-C , 18-H ) :   0.7166 B(  0-C , 19-H ) :   0.6172
B(  0-C , 23-C ) :   0.1722 B(  0-C , 24-H ) :   0.1447 B(  0-C , 25-H ) :   0.2215
B(  1-C ,  7-C ) :   1.6526 B(  1-C ,  8-N ) :   0.2613 B(  1-C ,  9-N ) :   0.2712
B(  1-C , 10-H ) :  -0.1150 B(  1-C , 17-C ) :   0.1065 B(  1-C , 18-H ) :   0.2792
B(  1-C , 19-H ) :   0.3316 B(  1-C , 26-O ) :  -0.1145 B(  1-C , 28-H ) :   0.1200
B(  2-C ,  3-C ) :   1.2257 B(  2-C ,  4-H ) :   0.1199 B(  2-C ,  5-H ) :   0.1993
B(  2-C , 20-C ) :   1.2300 B(  2-C , 21-H ) :   0.5867 B(  2-C , 22-H ) :   0.7144
B(  3-C ,  4-H ) :   0.8738 B(  3-C ,  5-H ) :   0.7990 B(  3-C ,  6-S ) :   1.0361
B(  3-C , 21-H ) :   0.1253 B(  3-C , 22-H ) :   0.1566 B(  6-S , 15-O ) :   1.5627
B(  6-S , 16-F ) :   0.5469 B(  6-S , 26-O ) :   1.3490 B(  7-C ,  8-N ) :   0.8159
B(  7-C ,  9-N ) :   0.9254 B(  7-C , 11-H ) :  -0.1895 B(  7-C , 12-H ) :   0.6550
B(  7-C , 13-H ) :  -0.1311 B(  7-C , 14-H ) :  -0.2560 B(  8-N ,  9-N ) :   0.1023
B(  8-N , 13-H ) :   1.1870 B(  8-N , 14-H ) :   1.3617 B(  9-N , 10-H ) :   1.0838
B(  9-N , 11-H ) :   1.3637 B( 10-H , 11-H ) :  -0.2253 B( 12-H , 23-C ) :   0.1183
B( 12-H , 26-O ) :   0.1355 B( 12-H , 27-H ) :   0.1060 B( 12-H , 28-H ) :  -0.1526
B( 13-H , 14-H ) :  -0.2135 B( 13-H , 26-O ) :   0.1207 B( 16-F , 26-O ) :   0.1543
B( 17-C , 19-H ) :   0.1083 B( 17-C , 23-C ) :   1.1998 B( 17-C , 24-H ) :   0.6705
B( 17-C , 25-H ) :   0.6127 B( 17-C , 27-H ) :   0.1170 B( 17-C , 28-H ) :   0.1069
B( 20-C , 21-H ) :   0.3121 B( 20-C , 22-H ) :   0.1030 B( 20-C , 23-C ) :   1.1920
B( 20-C , 27-H ) :   0.1285 B( 20-C , 28-H ) :   0.1720 B( 20-C , 29-H ) :   0.8935
B( 20-C , 30-H ) :   0.7560 B( 21-H , 22-H ) :  -0.1262 B( 23-C , 24-H ) :   0.2906
B( 23-C , 25-H ) :   0.1711 B( 23-C , 27-H ) :   0.8587 B( 23-C , 28-H ) :   0.8083
B( 23-C , 29-H ) :   0.1361 B( 23-C , 30-H ) :   0.1653 B( 24-H , 25-H ) :  -0.1216

Dispersion correction           -0.062156023
FINAL SINGLE POINT ENERGY     -1071.985903643046

DIPOLE MOMENT
-------------
                                X             Y             Z
Electronic contribution:     -3.01200      -2.13267     -21.72004
Nuclear contribution   :      2.64598       3.36033      21.85869
                        -----------------------------------------
Total Dipole Moment    :     -0.36601       1.22767       0.13866
                        -----------------------------------------
Magnitude (a.u.)       :      1.28855
Magnitude (Debye)      :      3.27523

Rotational constants in cm-1:     0.028973     0.014435     0.011026
Rotational constants in MHz :   868.588266   432.748309   330.548534

                             ****ORCA TERMINATED NORMALLY****
TOTAL RUN TIME: 0 days 0 hours 3 minutes 17 seconds 447 msec
