                         Program Version 5.0.0 -  RELEASE  -
|  1> !B3LYP D3BJ RIJCOSX def2-SVPD def2/J TightSCF xyzfile
|  2>
|  3> *xyzfile 0 1 D7.xyz
|  4>
|  5> %MaxCore 64000
|  6>
|  7> %pal nprocs 4
|  8> end
|  9>
| 10> %scf
| 11>   MaxIter 150
| 12> end
| 13>
| 14>
| 15>                          ****END OF INPUT****

CARTESIAN COORDINATES (ANGSTROEM)
---------------------------------
  C      1.963365   -1.749150   -1.896887
  C      2.738490   -2.015170   -3.097113
  C      0.611877    1.657634   -4.500288
  C      1.694991    1.541794   -5.570447
  H      2.697326    1.734659   -5.183996
  H      1.506656    2.272239   -6.358076
  S      1.780287   -0.033128   -6.428739
  C      4.049736   -2.154717   -3.152044
  N      4.658206   -1.986293   -4.318655
  N      4.764231   -2.454435   -2.050491
  H      4.287363   -2.776259   -1.217496
  H      5.750825   -2.658351   -2.125988
  H      2.345176   -1.690274   -3.971447
  H      4.109004   -1.592677   -5.071760
  H      5.649095   -2.156462   -4.427237
  O      2.569287    0.213657   -7.607360
  O      0.416880   -0.462969   -6.618595
  C      2.088520   -0.300912   -1.415204
  H      2.231272   -2.451616   -1.102643
  H      0.930249   -1.977801   -2.155438
  C      0.680356    0.655418   -3.348038
  H     -0.356865    1.549231   -4.991128
  H      0.650228    2.675438   -4.096000
  C      1.968993    0.733582   -2.535654
  H      3.051356   -0.168602   -0.911868
  H      1.316501   -0.136231   -0.657252
  F      2.505129   -0.933263   -5.482570
  H      2.824195    0.624726   -3.208464
  H      2.058919    1.730331   -2.093112
  H      0.542252   -0.344731   -3.766662
  H     -0.174219    0.829692   -2.685182

 Total Charge           Charge          ....    0
 Multiplicity           Mult            ....    1
 Number of Electrons    NEL             ....  120
 Basis Dimension        Dim             ....  432

ORBITAL ENERGIES
----------------

  NO   OCC          E(Eh)            E(eV)
   0   2.0000     -89.140545     -2425.6375
   1   2.0000     -24.801523      -674.8838
   2   2.0000     -19.157979      -521.3151
   3   2.0000     -19.157489      -521.3018
   4   2.0000     -14.334197      -390.0533
   5   2.0000     -14.328781      -389.9060
   6   2.0000     -10.243276      -278.7337
   7   2.0000     -10.227046      -278.2921
   8   2.0000     -10.206468      -277.7321
   9   2.0000     -10.186419      -277.1865
  10   2.0000     -10.177917      -276.9552
  11   2.0000     -10.168020      -276.6859
  12   2.0000     -10.160275      -276.4751
  13   2.0000     -10.099765      -274.8286
  14   2.0000      -8.194195      -222.9754
  15   2.0000      -6.167246      -167.8193
  16   2.0000      -6.161029      -167.6501
  17   2.0000      -6.159468      -167.6077
  18   2.0000      -1.349602       -36.7245
  19   2.0000      -1.124019       -30.5861
  20   2.0000      -1.029217       -28.0064
  21   2.0000      -0.953230       -25.9387
  22   2.0000      -0.865111       -23.5409
  23   2.0000      -0.833078       -22.6692
  24   2.0000      -0.795448       -21.6452
  25   2.0000      -0.751898       -20.4602
  26   2.0000      -0.732891       -19.9430
  27   2.0000      -0.694513       -18.8987
  28   2.0000      -0.663019       -18.0417
  29   2.0000      -0.624949       -17.0057
  30   2.0000      -0.591275       -16.0894
  31   2.0000      -0.581740       -15.8299
  32   2.0000      -0.575990       -15.6735
  33   2.0000      -0.566066       -15.4034
  34   2.0000      -0.545985       -14.8570
  35   2.0000      -0.543137       -14.7795
  36   2.0000      -0.506607       -13.7855
  37   2.0000      -0.496153       -13.5010
  38   2.0000      -0.490366       -13.3435
  39   2.0000      -0.474413       -12.9094
  40   2.0000      -0.471766       -12.8374
  41   2.0000      -0.459817       -12.5122
  42   2.0000      -0.446848       -12.1594
  43   2.0000      -0.434151       -11.8138
  44   2.0000      -0.423350       -11.5199
  45   2.0000      -0.399560       -10.8726
  46   2.0000      -0.398568       -10.8456
  47   2.0000      -0.395288       -10.7563
  48   2.0000      -0.385339       -10.4856
  49   2.0000      -0.368979       -10.0404
  50   2.0000      -0.358509        -9.7555
  51   2.0000      -0.347221        -9.4484
  52   2.0000      -0.343439        -9.3454
  53   2.0000      -0.335598        -9.1321
  54   2.0000      -0.328685        -8.9440
  55   2.0000      -0.325293        -8.8517
  56   2.0000      -0.315619        -8.5884
  57   2.0000      -0.311035        -8.4637
  58   2.0000      -0.267471        -7.2783
  59   2.0000      -0.162415        -4.4195
  60   0.0000      -0.001754        -0.0477
  61   0.0000       0.012212         0.3323
  62   0.0000       0.021083         0.5737
  63   0.0000       0.023997         0.6530
  64   0.0000       0.034227         0.9314

MULLIKEN ATOMIC CHARGES
-----------------------
   0 C :    0.494332
   1 C :    0.193948
   2 C :    0.665799
   3 C :    0.267936
   4 H :    0.051941
   5 H :   -0.252118
   6 S :    1.561619
   7 C :    0.641397
   8 N :    0.344698
   9 N :    0.097965
  10 H :   -0.064353
  11 H :   -0.318068
  12 H :   -0.544276
  13 H :   -0.276367
  14 H :   -0.315010
  15 O :   -0.686527
  16 O :   -0.719614
  17 C :    0.737404
  18 H :   -0.456761
  19 H :    0.034564
  20 C :    0.173135
  21 H :   -0.103879
  22 H :   -0.125038
  23 C :    0.040694
  24 H :   -0.120368
  25 H :   -0.046055
  26 F :   -0.501829
  27 H :   -0.062218
  28 H :   -0.279838
  29 H :   -0.187830
  30 H :   -0.245281
Sum of atomic charges:   -0.0000000

LOEWDIN ATOMIC CHARGES
----------------------
   0 C :   -0.040951
   1 C :   -0.023889
   2 C :   -0.024253
   3 C :   -0.033627
   4 H :    0.017259
   5 H :    0.029061
   6 S :    1.142521
   7 C :   -0.197923
   8 N :    0.207908
   9 N :    0.209045
  10 H :   -0.009960
  11 H :   -0.014754
  12 H :   -0.109148
  13 H :   -0.051780
  14 H :   -0.004246
  15 O :   -0.452098
  16 O :   -0.443278
  17 C :   -0.013994
  18 H :   -0.000462
  19 H :    0.009290
  20 C :   -0.014871
  21 H :    0.026162
  22 H :    0.032256
  23 C :   -0.025257
  24 H :    0.014742
  25 H :    0.013855
  26 F :   -0.303504
  27 H :    0.002143
  28 H :    0.021444
  29 H :    0.005545
  30 H :    0.032762

  Mayer bond orders larger than 0.100000
B(  0-C ,  1-C ) :   1.0223 B(  0-C ,  7-C ) :   0.1905 B(  0-C , 12-H ) :   0.4826
B(  0-C , 17-C ) :   1.0958 B(  0-C , 18-H ) :   0.6979 B(  0-C , 19-H ) :   0.6218
B(  0-C , 23-C ) :   0.1746 B(  0-C , 24-H ) :   0.1332 B(  0-C , 25-H ) :   0.2045
B(  1-C ,  7-C ) :   1.5827 B(  1-C ,  8-N ) :   0.2725 B(  1-C ,  9-N ) :   0.2545
B(  1-C , 10-H ) :  -0.1125 B(  1-C , 12-H ) :  -0.1894 B(  1-C , 17-C ) :   0.1021
B(  1-C , 18-H ) :   0.3010 B(  1-C , 19-H ) :   0.3395 B(  2-C ,  3-C ) :   1.2180
B(  2-C ,  4-H ) :   0.1402 B(  2-C ,  5-H ) :   0.1976 B(  2-C , 20-C ) :   1.2369
B(  2-C , 21-H ) :   0.6014 B(  2-C , 22-H ) :   0.6942 B(  3-C ,  4-H ) :   0.8637
B(  3-C ,  5-H ) :   0.7397 B(  3-C ,  6-S ) :   1.0353 B(  3-C , 21-H ) :   0.1409
B(  3-C , 22-H ) :   0.1530 B(  5-H ,  6-S ) :   0.1162 B(  6-S , 15-O ) :   1.5092
B(  6-S , 16-O ) :   1.4356 B(  6-S , 26-F ) :   0.5984 B(  7-C ,  8-N ) :   0.8416
B(  7-C ,  9-N ) :   0.9499 B(  7-C , 11-H ) :  -0.1977 B(  7-C , 12-H ) :   0.6723
B(  7-C , 13-H ) :  -0.1089 B(  7-C , 14-H ) :  -0.2459 B(  8-N , 13-H ) :   1.1928
B(  8-N , 14-H ) :   1.3413 B(  9-N , 10-H ) :   1.0734 B(  9-N , 11-H ) :   1.3672
B( 10-H , 11-H ) :  -0.2250 B( 12-H , 23-C ) :   0.1282 B( 12-H , 28-H ) :  -0.1106
B( 13-H , 14-H ) :  -0.1917 B( 13-H , 26-F ) :   0.1493 B( 16-O , 26-F ) :   0.1060
B( 17-C , 19-H ) :   0.1094 B( 17-C , 23-C ) :   1.1987 B( 17-C , 24-H ) :   0.6852
B( 17-C , 25-H ) :   0.6200 B( 17-C , 27-H ) :   0.1268 B( 17-C , 28-H ) :   0.1142
B( 20-C , 21-H ) :   0.3142 B( 20-C , 22-H ) :   0.1065 B( 20-C , 23-C ) :   1.1861
B( 20-C , 27-H ) :   0.1140 B( 20-C , 28-H ) :   0.1728 B( 20-C , 29-H ) :   0.9121
B( 20-C , 30-H ) :   0.7499 B( 21-H , 22-H ) :  -0.1136 B( 23-C , 24-H ) :   0.2945
B( 23-C , 25-H ) :   0.1703 B( 23-C , 27-H ) :   0.8588 B( 23-C , 28-H ) :   0.8168
B( 23-C , 29-H ) :   0.1112 B( 23-C , 30-H ) :   0.1779 B( 24-H , 25-H ) :  -0.1199

Dispersion correction           -0.061570486
FINAL SINGLE POINT ENERGY     -1072.004236899759

DIPOLE MOMENT
-------------
                                X             Y             Z
Electronic contribution:      0.76618      -3.09829     -19.37664
Nuclear contribution   :      0.26049       3.89757      20.56096
                        -----------------------------------------
Total Dipole Moment    :      1.02667       0.79928       1.18433
                        -----------------------------------------
Magnitude (a.u.)       :      1.75942
Magnitude (Debye)      :      4.47208

Rotational constants in cm-1:     0.029090     0.014735     0.011139
Rotational constants in MHz :   872.086433   441.731892   333.928051

                             ****ORCA TERMINATED NORMALLY****
TOTAL RUN TIME: 0 days 0 hours 2 minutes 49 seconds 855 msec
