                         Program Version 5.0.0 -  RELEASE  -
|  1> !M062X D3Zero RIJCOSX def2-TZVP def2/J TightSCF
|  2> *xyz -1 1
|  3> C          0.13297        2.38587       -4.02462
|  4> C         -1.36646        2.47911       -4.31393
|  5> C         -2.35773        2.30686       -3.13675
|  6> H         -1.63680        1.72709       -5.06399
|  7> H         -1.58235        3.44561       -4.76869
|  8> O         -3.44376        2.84652       -3.25274
|  9> O         -1.97092        1.58304       -2.15123
| 10> H          0.68084        2.52514       -4.93310
| 11> H          0.35823        1.42282       -3.61633
| 12> H          0.40851        3.14443       -3.32208
| 13> *
| 14> %MaxCore 64000
| 15>
| 16> %pal nprocs 4
| 17> end
| 18>
| 19> %scf
| 20>   MaxIter 150
| 21> end
| 22>
| 23>
| 24>                          ****END OF INPUT****

CARTESIAN COORDINATES (ANGSTROEM)
---------------------------------
  C      0.132970    2.385870   -4.024620
  C     -1.366460    2.479110   -4.313930
  C     -2.357730    2.306860   -3.136750
  H     -1.636800    1.727090   -5.063990
  H     -1.582350    3.445610   -4.768690
  O     -3.443760    2.846520   -3.252740
  O     -1.970920    1.583040   -2.151230
  H      0.680840    2.525140   -4.933100
  H      0.358230    1.422820   -3.616330
  H      0.408510    3.144430   -3.322080

 Total Charge           Charge          ....   -1
 Multiplicity           Mult            ....    1
 Number of Electrons    NEL             ....   40
 Basis Dimension        Dim             ....  185

ORBITAL ENERGIES
----------------

  NO   OCC          E(Eh)            E(eV)
   0   2.0000     -19.356523      -526.7178
   1   2.0000     -19.345993      -526.4312
   2   2.0000     -10.415523      -283.4208
   3   2.0000     -10.365167      -282.0505
   4   2.0000     -10.355463      -281.7865
   5   2.0000      -0.943497       -25.6739
   6   2.0000      -0.836841       -22.7716
   7   2.0000      -0.696448       -18.9513
   8   2.0000      -0.557315       -15.1653
   9   2.0000      -0.389881       -10.6092
  10   2.0000      -0.360392        -9.8068
  11   2.0000      -0.334123        -9.0919
  12   2.0000      -0.296975        -8.0811
  13   2.0000      -0.281148        -7.6504
  14   2.0000      -0.276975        -7.5369
  15   2.0000      -0.241516        -6.5720
  16   2.0000      -0.224756        -6.1159
  17   2.0000      -0.107324        -2.9204
  18   2.0000      -0.105073        -2.8592
  19   2.0000      -0.098351        -2.6763
  20   0.0000       0.214929         5.8485
  21   0.0000       0.259016         7.0482
  22   0.0000       0.274190         7.4611
  23   0.0000       0.279408         7.6031
  24   0.0000       0.297705         8.1010

MULLIKEN ATOMIC CHARGES
-----------------------
   0 C :   -0.377898
   1 C :   -0.274779
   2 C :    0.274169
   3 H :    0.084594
   4 H :    0.085556
   5 O :   -0.505781
   6 O :   -0.595162
   7 H :    0.080927
   8 H :    0.119638
   9 H :    0.108737
Sum of atomic charges:   -1.0000000

LOEWDIN ATOMIC CHARGES
----------------------
   0 C :   -0.333648
   1 C :   -0.298017
   2 C :   -0.698641
   3 H :    0.126350
   4 H :    0.122433
   5 O :   -0.064016
   6 O :   -0.168978
   7 H :    0.094322
   8 H :    0.111628
   9 H :    0.108568

  Mayer bond orders larger than 0.100000
B(  0-C ,  1-C ) :   0.9133 B(  0-C ,  7-H ) :   0.9740 B(  0-C ,  8-H ) :   0.9763
B(  0-C ,  9-H ) :   0.9804 B(  1-C ,  2-C ) :   0.9344 B(  1-C ,  3-H ) :   0.9705
B(  1-C ,  4-H ) :   0.9738 B(  2-C ,  5-O ) :   1.8955 B(  2-C ,  6-O ) :   1.7917

Dispersion correction           -0.000092436
FINAL SINGLE POINT ENERGY      -267.825653119432

DIPOLE MOMENT
-------------
                                X             Y             Z
Electronic contribution:     -5.28707      -0.37519       3.21305
Nuclear contribution   :      6.75610       0.63068      -4.53972
                        -----------------------------------------
Total Dipole Moment    :      1.46902       0.25549      -1.32668
                        -----------------------------------------
Magnitude (a.u.)       :      1.99584
Magnitude (Debye)      :      5.07302

Rotational constants in cm-1:     0.335096     0.130241     0.099025
Rotational constants in MHz : 10045.924902  3904.536250  2968.708333

                             ****ORCA TERMINATED NORMALLY****
TOTAL RUN TIME: 0 days 0 hours 0 minutes 20 seconds 788 msec
