                         Program Version 5.0.0 -  RELEASE  -
|  1> !M062X D3Zero RIJCOSX def2-TZVP def2/J TightSCF
|  2> *xyz 1 1
|  3> C          0.64866        1.00359       -3.64560
|  4> N          0.28128        0.67645       -2.24018
|  5> C          0.13297        2.38587       -4.02462
|  6> H          0.39079       -0.31925       -2.02649
|  7> H         -0.69269        0.99010       -2.13812
|  8> H          0.85421        1.21221       -1.57528
|  9> H          0.19099        0.23965       -4.27575
| 10> H          1.73157        0.93173       -3.75075
| 11> H          0.40589        2.60338       -5.03610
| 12> H          0.56342        3.11797       -3.37374
| 13> H         -0.93265        2.40724       -3.93025
| 14> *
| 15> %MaxCore 64000
| 16>
| 17> %pal nprocs 4
| 18> end
| 19>
| 20> %scf
| 21>   MaxIter 150
| 22> end
| 23>
| 24>
| 25>                          ****END OF INPUT****

CARTESIAN COORDINATES (ANGSTROEM)
---------------------------------
  C      0.648660    1.003590   -3.645600
  N      0.281280    0.676450   -2.240180
  C      0.132970    2.385870   -4.024620
  H      0.390790   -0.319250   -2.026490
  H     -0.692690    0.990100   -2.138120
  H      0.854210    1.212210   -1.575280
  H      0.190990    0.239650   -4.275750
  H      1.731570    0.931730   -3.750750
  H      0.405890    2.603380   -5.036100
  H      0.563420    3.117970   -3.373740
  H     -0.932650    2.407240   -3.930250

 Total Charge           Charge          ....    1
 Multiplicity           Mult            ....    1
 Number of Electrons    NEL             ....   26
 Basis Dimension        Dim             ....  141

ORBITAL ENERGIES
----------------

  NO   OCC          E(Eh)            E(eV)
   0   2.0000     -15.081422      -410.3864
   1   2.0000     -10.790990      -293.6378
   2   2.0000     -10.711798      -291.4828
   3   2.0000      -1.326411       -36.0935
   4   2.0000      -1.062616       -28.9153
   5   2.0000      -0.931578       -25.3495
   6   2.0000      -0.876077       -23.8393
   7   2.0000      -0.868940       -23.6451
   8   2.0000      -0.764176       -20.7943
   9   2.0000      -0.711711       -19.3666
  10   2.0000      -0.648933       -17.6584
  11   2.0000      -0.634165       -17.2565
  12   2.0000      -0.617210       -16.7951
  13   0.0000      -0.163158        -4.4398
  14   0.0000      -0.102125        -2.7790
  15   0.0000      -0.098559        -2.6819
  16   0.0000      -0.078950        -2.1483
  17   0.0000      -0.041099        -1.1184

MULLIKEN ATOMIC CHARGES
-----------------------
   0 C :   -0.229619
   1 N :   -0.324102
   2 C :   -0.413099
   3 H :    0.345510
   4 H :    0.333677
   5 H :    0.340878
   6 H :    0.205722
   7 H :    0.209531
   8 H :    0.195768
   9 H :    0.168722
  10 H :    0.167011
Sum of atomic charges:    1.0000000

LOEWDIN ATOMIC CHARGES
----------------------
   0 C :   -0.278549
   1 N :    0.166124
   2 C :   -0.277667
   3 H :    0.222774
   4 H :    0.226807
   5 H :    0.224475
   6 H :    0.153715
   7 H :    0.152725
   8 H :    0.148286
   9 H :    0.131308
  10 H :    0.130003

  Mayer bond orders larger than 0.100000
B(  0-C ,  1-N ) :   0.8345 B(  0-C ,  2-C ) :   0.9663 B(  0-C ,  6-H ) :   0.9533
B(  0-C ,  7-H ) :   0.9557 B(  1-N ,  3-H ) :   0.8700 B(  1-N ,  4-H ) :   0.8723
B(  1-N ,  5-H ) :   0.8715 B(  2-C ,  8-H ) :   0.9587 B(  2-C ,  9-H ) :   0.9563
B(  2-C , 10-H ) :   0.9549

Dispersion correction           -0.000050982
FINAL SINGLE POINT ENERGY      -135.507771824418

DIPOLE MOMENT
-------------
                                X             Y             Z
Electronic contribution:      0.17335      -1.30556       1.31858
Nuclear contribution   :     -0.22655       0.48066      -0.09136
                        -----------------------------------------
Total Dipole Moment    :     -0.05319      -0.82490       1.22723
                        -----------------------------------------
Magnitude (a.u.)       :      1.47965
Magnitude (Debye)      :      3.76098

Rotational constants in cm-1:     0.998155     0.284845     0.251232
Rotational constants in MHz : 29923.943568  8539.431565  7531.732866

                             ****ORCA TERMINATED NORMALLY****
TOTAL RUN TIME: 0 days 0 hours 0 minutes 15 seconds 436 msec
