                         Program Version 5.0.0 -  RELEASE  -
|  1> !M062X D3Zero RIJCOSX def2-TZVP def2/J TightSCF xyzfile
|  2>
|  3> *xyzfile 0 1 B.xyz
|  4>
|  5> %MaxCore 64000
|  6>
|  7> %pal nprocs 18
|  8> end
|  9>
| 10> %scf
| 11>   MaxIter 150
| 12> end
| 13>
| 14>
| 15>                          ****END OF INPUT****

CARTESIAN COORDINATES (ANGSTROEM)
---------------------------------
  C      0.648656    1.003595   -3.645601
  N      0.281280    0.676454   -2.240179
  C      0.132968    2.385869   -4.024618
  C     -1.366462    2.479106   -4.313932
  C     -2.357732    2.306858   -3.136753
  H     -1.636802    1.727095   -5.063993
  H     -1.582347    3.445605   -4.768687
  H      0.390790   -0.319253   -2.026495
  H     -0.692686    0.990104   -2.138123
  H      0.854206    1.212214   -1.575279
  O     -3.443763    2.846518   -3.252744
  O     -1.970922    1.583042   -2.151229
  H      0.190993    0.239655   -4.275752
  H      1.731572    0.931729   -3.750751
  H      0.414839    3.102847   -3.245165
  H      0.683167    2.687560   -4.919721

 Total Charge           Charge          ....    0
 Multiplicity           Mult            ....    1
 Number of Electrons    NEL             ....   56
 Basis Dimension        Dim             ....  271

ORBITAL ENERGIES
----------------

  NO   OCC          E(Eh)            E(eV)
   0   2.0000     -19.549084      -531.9576
   1   2.0000     -19.529215      -531.4170
   2   2.0000     -14.856449      -404.2645
   3   2.0000     -10.625691      -289.1397
   4   2.0000     -10.599078      -288.4156
   5   2.0000     -10.563990      -287.4608
   6   2.0000     -10.525238      -286.4063
   7   2.0000      -1.138058       -30.9681
   8   2.0000      -1.116289       -30.3758
   9   2.0000      -1.035300       -28.1719
  10   2.0000      -0.910564       -24.7777
  11   2.0000      -0.808927       -22.0120
  12   2.0000      -0.722835       -19.6693
  13   2.0000      -0.683544       -18.6002
  14   2.0000      -0.669906       -18.2291
  15   2.0000      -0.596093       -16.2205
  16   2.0000      -0.559949       -15.2370
  17   2.0000      -0.550607       -14.9828
  18   2.0000      -0.504936       -13.7400
  19   2.0000      -0.497593       -13.5402
  20   2.0000      -0.461163       -12.5489
  21   2.0000      -0.456297       -12.4165
  22   2.0000      -0.447342       -12.1728
  23   2.0000      -0.424489       -11.5509
  24   2.0000      -0.402688       -10.9577
  25   2.0000      -0.304191        -8.2774
  26   2.0000      -0.298811        -8.1311
  27   2.0000      -0.275475        -7.4961
  28   0.0000       0.003476         0.0946
  29   0.0000       0.048783         1.3275
  30   0.0000       0.057998         1.5782
  31   0.0000       0.087618         2.3842
  32   0.0000       0.096867         2.6359

MULLIKEN ATOMIC CHARGES
-----------------------
   0 C :   -0.220228
   1 N :   -0.370857
   2 C :   -0.306381
   3 C :   -0.352035
   4 C :    0.353446
   5 H :    0.141893
   6 H :    0.154488
   7 H :    0.287601
   8 H :    0.353098
   9 H :    0.288343
  10 O :   -0.410088
  11 O :   -0.586966
  12 H :    0.183498
  13 H :    0.166911
  14 H :    0.161372
  15 H :    0.155906
Sum of atomic charges:    0.0000000

LOEWDIN ATOMIC CHARGES
----------------------
   0 C :   -0.273833
   1 N :    0.134160
   2 C :   -0.277072
   3 C :   -0.252894
   4 C :   -0.636996
   5 H :    0.146077
   6 H :    0.150480
   7 H :    0.191878
   8 H :    0.117053
   9 H :    0.197623
  10 O :    0.019137
  11 O :   -0.087189
  12 H :    0.144824
  13 H :    0.133300
  14 H :    0.144891
  15 H :    0.148561

  Mayer bond orders larger than 0.100000
B(  0-C ,  1-N ) :   0.8602 B(  0-C ,  2-C ) :   0.9268 B(  0-C , 12-H ) :   0.9680
B(  0-C , 13-H ) :   0.9801 B(  1-N ,  7-H ) :   0.9003 B(  1-N ,  8-H ) :   0.6423
B(  1-N ,  9-H ) :   0.8982 B(  2-C ,  3-C ) :   0.8909 B(  2-C , 14-H ) :   0.9670
B(  2-C , 15-H ) :   0.9742 B(  3-C ,  4-C ) :   0.9447 B(  3-C ,  5-H ) :   0.9654
B(  3-C ,  6-H ) :   0.9683 B(  4-C , 10-O ) :   1.9961 B(  4-C , 11-O ) :   1.4354
B(  8-H , 11-O ) :   0.3192

Dispersion correction           -0.000327361
FINAL SINGLE POINT ENERGY      -363.020848049169

DIPOLE MOMENT
-------------
                                X             Y             Z
Electronic contribution:     -5.80287       0.94273       2.51438
Nuclear contribution   :      9.92875      -2.62114      -2.63866
                        -----------------------------------------
Total Dipole Moment    :      4.12588      -1.67841      -0.12428
                        -----------------------------------------
Magnitude (a.u.)       :      4.45594
Magnitude (Debye)      :     11.32610

Rotational constants in cm-1:     0.159108     0.062474     0.047603
Rotational constants in MHz :  4769.938632  1872.932224  1427.103830

                             ****ORCA TERMINATED NORMALLY****
TOTAL RUN TIME: 0 days 0 hours 0 minutes 20 seconds 176 msec
