                         Program Version 5.0.0 -  RELEASE  -
|  1> !M062X D3Zero RIJCOSX def2-TZVP def2/J TightSCF
|  2> *xyz 0 1
|  3> C          0.13297        2.38587       -4.02462
|  4> C         -1.36646        2.47911       -4.31393
|  5> C         -2.35773        2.30686       -3.13675
|  6> H         -1.63680        1.72709       -5.06399
|  7> H         -1.58235        3.44561       -4.76869
|  8> F         -3.44376        2.84652       -3.25274
|  9> O         -1.97092        1.58304       -2.15123
| 10> H          0.68084        2.52514       -4.93310
| 11> H          0.35823        1.42282       -3.61633
| 12> H          0.40851        3.14443       -3.32208
| 13> *
| 14> %MaxCore 64000
| 15>
| 16> %pal nprocs 4
| 17> end
| 18>
| 19> %scf
| 20>   MaxIter 150
| 21> end
| 22>
| 23>
| 24>                          ****END OF INPUT****

CARTESIAN COORDINATES (ANGSTROEM)
---------------------------------
  C      0.132970    2.385870   -4.024620
  C     -1.366460    2.479110   -4.313930
  C     -2.357730    2.306860   -3.136750
  H     -1.636800    1.727090   -5.063990
  H     -1.582350    3.445610   -4.768690
  F     -3.443760    2.846520   -3.252740
  O     -1.970920    1.583040   -2.151230
  H      0.680840    2.525140   -4.933100
  H      0.358230    1.422820   -3.616330
  H      0.408510    3.144430   -3.322080

 Total Charge           Charge          ....    0
 Multiplicity           Mult            ....    1
 Number of Electrons    NEL             ....   40
 Basis Dimension        Dim             ....  185

ORBITAL ENERGIES
----------------

  NO   OCC          E(Eh)            E(eV)
   0   2.0000     -25.328949      -689.2357
   1   2.0000     -19.629305      -534.1405
   2   2.0000     -10.724040      -291.8160
   3   2.0000     -10.568841      -287.5928
   4   2.0000     -10.535405      -286.6830
   5   2.0000      -1.493950       -40.6524
   6   2.0000      -1.137783       -30.9607
   7   2.0000      -0.896329       -24.3904
   8   2.0000      -0.799293       -21.7499
   9   2.0000      -0.738397       -20.0928
  10   2.0000      -0.661944       -18.0124
  11   2.0000      -0.644896       -17.5485
  12   2.0000      -0.590747       -16.0750
  13   2.0000      -0.538594       -14.6559
  14   2.0000      -0.504475       -13.7275
  15   2.0000      -0.457662       -12.4536
  16   2.0000      -0.441765       -12.0210
  17   2.0000      -0.437779       -11.9126
  18   2.0000      -0.408796       -11.1239
  19   2.0000      -0.364244        -9.9116
  20   0.0000       0.017716         0.4821
  21   0.0000       0.062593         1.7032
  22   0.0000       0.103815         2.8250
  23   0.0000       0.122220         3.3258
  24   0.0000       0.130946         3.5632

MULLIKEN ATOMIC CHARGES
-----------------------
   0 C :   -0.388548
   1 C :   -0.310065
   2 C :    0.418410
   3 H :    0.157348
   4 H :    0.145321
   5 F :   -0.083389
   6 O :   -0.375218
   7 H :    0.139825
   8 H :    0.154519
   9 H :    0.141797
Sum of atomic charges:    0.0000000

LOEWDIN ATOMIC CHARGES
----------------------
   0 C :   -0.290407
   1 C :   -0.265888
   2 C :   -0.503412
   3 H :    0.155404
   4 H :    0.143006
   5 F :    0.376684
   6 O :    0.017144
   7 H :    0.119909
   8 H :    0.125453
   9 H :    0.122107

  Mayer bond orders larger than 0.100000
B(  0-C ,  1-C ) :   0.9534 B(  0-C ,  7-H ) :   0.9694 B(  0-C ,  8-H ) :   0.9664
B(  0-C ,  9-H ) :   0.9745 B(  1-C ,  2-C ) :   0.9926 B(  1-C ,  3-H ) :   0.9359
B(  1-C ,  4-H ) :   0.9630 B(  2-C ,  5-F ) :   1.1815 B(  2-C ,  6-O ) :   2.0127

Dispersion correction           -0.000090785
FINAL SINGLE POINT ENERGY      -292.380575566538

DIPOLE MOMENT
-------------
                                X             Y             Z
Electronic contribution:     -8.36874       0.47740       3.56358
Nuclear contribution   :      8.54799       0.05434      -4.66633
                        -----------------------------------------
Total Dipole Moment    :      0.17925       0.53174      -1.10274
                        -----------------------------------------
Magnitude (a.u.)       :      1.23731
Magnitude (Debye)      :      3.14498

Rotational constants in cm-1:     0.325803     0.123345     0.094275
Rotational constants in MHz :  9767.324172  3697.779805  2826.305733

                             ****ORCA TERMINATED NORMALLY****
TOTAL RUN TIME: 0 days 0 hours 0 minutes 25 seconds 724 msec
