                         Program Version 5.0.0 -  RELEASE  -
|  1> !M062X D3Zero RIJCOSX def2-TZVP def2/J TightSCF
|  2> *xyz 0 1
|  3> C          0.64866        1.00359       -3.64560
|  4> C          0.28128        0.67645       -2.24018
|  5> C          0.13297        2.38587       -4.02462
|  6> H          0.39079       -0.31925       -2.02649
|  7> H         -0.69269        0.99010       -2.13812
|  8> H          0.85421        1.21221       -1.57528
|  9> H          0.19099        0.23965       -4.27575
| 10> H          1.73157        0.93173       -3.75075
| 11> H          0.40589        2.60338       -5.03610
| 12> H          0.56342        3.11797       -3.37374
| 13> H         -0.93265        2.40724       -3.93025
| 14> *
| 15> %MaxCore 64000
| 16>
| 17> %pal nprocs 4
| 18> end
| 19>
| 20> %scf
| 21>   MaxIter 150
| 22> end
| 23>
| 24>
| 25>                          ****END OF INPUT****

CARTESIAN COORDINATES (ANGSTROEM)
---------------------------------
  C      0.648660    1.003590   -3.645600
  C      0.281280    0.676450   -2.240180
  C      0.132970    2.385870   -4.024620
  H      0.390790   -0.319250   -2.026490
  H     -0.692690    0.990100   -2.138120
  H      0.854210    1.212210   -1.575280
  H      0.190990    0.239650   -4.275750
  H      1.731570    0.931730   -3.750750
  H      0.405890    2.603380   -5.036100
  H      0.563420    3.117970   -3.373740
  H     -0.932650    2.407240   -3.930250

 Total Charge           Charge          ....    0
 Multiplicity           Mult            ....    1
 Number of Electrons    NEL             ....   26
 Basis Dimension        Dim             ....  141

ORBITAL ENERGIES
----------------

  NO   OCC          E(Eh)            E(eV)
   0   2.0000     -10.519167      -286.2411
   1   2.0000     -10.511206      -286.0245
   2   2.0000     -10.492302      -285.5100
   3   2.0000      -0.892236       -24.2790
   4   2.0000      -0.781033       -21.2530
   5   2.0000      -0.669130       -18.2079
   6   2.0000      -0.539285       -14.6747
   7   2.0000      -0.519038       -14.1237
   8   2.0000      -0.467979       -12.7344
   9   2.0000      -0.451956       -12.2983
  10   2.0000      -0.397162       -10.8073
  11   2.0000      -0.393936       -10.7196
  12   2.0000      -0.387822       -10.5532
  13   0.0000       0.073606         2.0029
  14   0.0000       0.116942         3.1821
  15   0.0000       0.122514         3.3338
  16   0.0000       0.128698         3.5021
  17   0.0000       0.145513         3.9596

MULLIKEN ATOMIC CHARGES
-----------------------
   0 C :   -0.211310
   1 C :   -0.377019
   2 C :   -0.403862
   3 H :    0.125651
   4 H :    0.115196
   5 H :    0.130799
   6 H :    0.115527
   7 H :    0.115003
   8 H :    0.131014
   9 H :    0.129330
  10 H :    0.129671
Sum of atomic charges:    0.0000000

LOEWDIN ATOMIC CHARGES
----------------------
   0 C :   -0.325119
   1 C :   -0.303542
   2 C :   -0.308075
   3 H :    0.105616
   4 H :    0.112799
   5 H :    0.108564
   6 H :    0.132641
   7 H :    0.130059
   8 H :    0.114985
   9 H :    0.116576
  10 H :    0.115497

  Mayer bond orders larger than 0.100000
B(  0-C ,  1-C ) :   0.9338 B(  0-C ,  2-C ) :   0.9503 B(  0-C ,  6-H ) :   0.9803
B(  0-C ,  7-H ) :   0.9785 B(  1-C ,  3-H ) :   0.9847 B(  1-C ,  4-H ) :   0.9781
B(  1-C ,  5-H ) :   0.9817 B(  2-C ,  8-H ) :   0.9816 B(  2-C ,  9-H ) :   0.9742
B(  2-C , 10-H ) :   0.9757

Dispersion correction           -0.000049624
FINAL SINGLE POINT ENERGY      -119.098491904976

DIPOLE MOMENT
-------------
                                X             Y             Z
Electronic contribution:      0.26274      -0.28335      -0.24807
Nuclear contribution   :     -0.24754       0.26111       0.24628
                        -----------------------------------------
Total Dipole Moment    :      0.01521      -0.02224      -0.00179
                        -----------------------------------------
Magnitude (a.u.)       :      0.02700
Magnitude (Debye)      :      0.06863

Rotational constants in cm-1:     1.006509     0.299509     0.263145
Rotational constants in MHz : 30174.379724  8979.049324  7888.875355

                             ****ORCA TERMINATED NORMALLY****
TOTAL RUN TIME: 0 days 0 hours 0 minutes 17 seconds 472 msec
