                         Program Version 5.0.0 -  RELEASE  -
|  1> !M062X D3Zero RIJCOSX def2-TZVP def2/J TightSCF
|  2> *xyz 0 1
|  3> C          0.13297        2.38587       -4.02462
|  4> C         -1.36646        2.47911       -4.31393
|  5> C         -2.35773        2.30686       -3.13675
|  6> H         -1.63680        1.72709       -5.06399
|  7> H         -1.58235        3.44561       -4.76869
|  8> O         -3.44376        2.84652       -3.25274
|  9> F         -1.97092        1.58304       -2.15123
| 10> H          0.68084        2.52514       -4.93310
| 11> H          0.35823        1.42282       -3.61633
| 12> H          0.40851        3.14443       -3.32208
| 13> *
| 14> %MaxCore 64000
| 15>
| 16> %pal nprocs 4
| 17> end
| 18>
| 19> %scf
| 20>   MaxIter 150
| 21> end
| 22>
| 23>
| 24>                          ****END OF INPUT****

CARTESIAN COORDINATES (ANGSTROEM)
---------------------------------
  C      0.132970    2.385870   -4.024620
  C     -1.366460    2.479110   -4.313930
  C     -2.357730    2.306860   -3.136750
  H     -1.636800    1.727090   -5.063990
  H     -1.582350    3.445610   -4.768690
  O     -3.443760    2.846520   -3.252740
  F     -1.970920    1.583040   -2.151230
  H      0.680840    2.525140   -4.933100
  H      0.358230    1.422820   -3.616330
  H      0.408510    3.144430   -3.322080

 Total Charge           Charge          ....    0
 Multiplicity           Mult            ....    1
 Number of Electrons    NEL             ....   40
 Basis Dimension        Dim             ....  185

ORBITAL ENERGIES
----------------

  NO   OCC          E(Eh)            E(eV)
   0   2.0000     -25.305461      -688.5966
   1   2.0000     -19.638121      -534.3804
   2   2.0000     -10.717816      -291.6466
   3   2.0000     -10.567280      -287.5503
   4   2.0000     -10.540191      -286.8132
   5   2.0000      -1.445000       -39.3204
   6   2.0000      -1.179898       -32.1066
   7   2.0000      -0.898332       -24.4448
   8   2.0000      -0.776786       -21.1374
   9   2.0000      -0.730241       -19.8709
  10   2.0000      -0.633905       -17.2494
  11   2.0000      -0.629687       -17.1347
  12   2.0000      -0.583887       -15.8884
  13   2.0000      -0.539699       -14.6859
  14   2.0000      -0.508497       -13.8369
  15   2.0000      -0.478496       -13.0205
  16   2.0000      -0.461114       -12.5475
  17   2.0000      -0.439809       -11.9678
  18   2.0000      -0.420446       -11.4409
  19   2.0000      -0.372252       -10.1295
  20   0.0000       0.022735         0.6187
  21   0.0000       0.057766         1.5719
  22   0.0000       0.105557         2.8724
  23   0.0000       0.124737         3.3943
  24   0.0000       0.129226         3.5164

MULLIKEN ATOMIC CHARGES
-----------------------
   0 C :   -0.393775
   1 C :   -0.310243
   2 C :    0.392244
   3 H :    0.156847
   4 H :    0.161823
   5 O :   -0.301104
   6 F :   -0.133673
   7 H :    0.144028
   8 H :    0.140875
   9 H :    0.142978
Sum of atomic charges:   -0.0000000

LOEWDIN ATOMIC CHARGES
----------------------
   0 C :   -0.301869
   1 C :   -0.261230
   2 C :   -0.489822
   3 H :    0.155266
   4 H :    0.154045
   5 O :    0.107789
   6 F :    0.273829
   7 H :    0.121688
   8 H :    0.119844
   9 H :    0.120459

  Mayer bond orders larger than 0.100000
B(  0-C ,  1-C ) :   0.9363 B(  0-C ,  7-H ) :   0.9708 B(  0-C ,  8-H ) :   0.9674
B(  0-C ,  9-H ) :   0.9724 B(  1-C ,  2-C ) :   0.9946 B(  1-C ,  3-H ) :   0.9455
B(  1-C ,  4-H ) :   0.9666 B(  2-C ,  5-O ) :   2.0981 B(  2-C ,  6-F ) :   1.1121

Dispersion correction           -0.000098456
FINAL SINGLE POINT ENERGY      -292.398373435272

DIPOLE MOMENT
-------------
                                X             Y             Z
Electronic contribution:     -5.89345      -1.62186       5.37974
Nuclear contribution   :      6.94213       1.43193      -5.86732
                        -----------------------------------------
Total Dipole Moment    :      1.04869      -0.18994      -0.48757
                        -----------------------------------------
Magnitude (a.u.)       :      1.17198
Magnitude (Debye)      :      2.97895

Rotational constants in cm-1:     0.306336     0.129048     0.095707
Rotational constants in MHz :  9183.725605  3868.769583  2869.236577

                             ****ORCA TERMINATED NORMALLY****
TOTAL RUN TIME: 0 days 0 hours 0 minutes 22 seconds 421 msec
