                         Program Version 5.0.0 -  RELEASE  -
|  1> !M062X D3Zero RIJCOSX def2-TZVP def2/J TightSCF xyzfile
|  2>
|  3> *xyzfile 0 1 D2.xyz
|  4>
|  5> %MaxCore 64000
|  6>
|  7> %pal nprocs 18
|  8> end
|  9>
| 10> %scf
| 11>   MaxIter 150
| 12> end
| 13>
| 14>
| 15>                          ****END OF INPUT****

CARTESIAN COORDINATES (ANGSTROEM)
---------------------------------
  C      0.648656    1.003595   -3.645601
  C      0.281280    0.676454   -2.240179
  C      0.132968    2.385869   -4.024618
  C     -1.366462    2.479106   -4.313932
  C     -2.357732    2.306858   -3.136753
  H     -1.636802    1.727095   -5.063993
  H     -1.582347    3.445605   -4.768687
  H      0.390790   -0.319253   -2.026495
  H     -0.692686    0.990104   -2.138123
  H      0.854206    1.212214   -1.575279
  O     -3.443763    2.846518   -3.252744
  F     -1.970922    1.583042   -2.151229
  H      0.190993    0.239655   -4.275752
  H      1.731572    0.931729   -3.750751
  H      0.414839    3.102847   -3.245165
  H      0.683167    2.687560   -4.919721

 Total Charge           Charge          ....    0
 Multiplicity           Mult            ....    1
 Number of Electrons    NEL             ....   56
 Basis Dimension        Dim             ....  271

ORBITAL ENERGIES
----------------

  NO   OCC          E(Eh)            E(eV)
   0   2.0000     -25.317157      -688.9149
   1   2.0000     -19.645670      -534.5859
   2   2.0000     -10.725568      -291.8575
   3   2.0000     -10.570151      -287.6284
   4   2.0000     -10.546831      -286.9939
   5   2.0000     -10.527573      -286.4698
   6   2.0000     -10.474410      -285.0232
   7   2.0000      -1.468220       -39.9523
   8   2.0000      -1.187872       -32.3236
   9   2.0000      -0.925147       -25.1745
  10   2.0000      -0.862587       -23.4722
  11   2.0000      -0.776168       -21.1206
  12   2.0000      -0.769135       -20.9292
  13   2.0000      -0.670626       -18.2487
  14   2.0000      -0.656758       -17.8713
  15   2.0000      -0.645942       -17.5770
  16   2.0000      -0.592853       -16.1323
  17   2.0000      -0.547133       -14.8883
  18   2.0000      -0.527610       -14.3570
  19   2.0000      -0.518517       -14.1096
  20   2.0000      -0.493132       -13.4188
  21   2.0000      -0.460435       -12.5291
  22   2.0000      -0.452635       -12.3168
  23   2.0000      -0.431024       -11.7288
  24   2.0000      -0.401727       -10.9316
  25   2.0000      -0.395098       -10.7512
  26   2.0000      -0.387761       -10.5515
  27   2.0000      -0.361391        -9.8340
  28   0.0000       0.015114         0.4113
  29   0.0000       0.058122         1.5816
  30   0.0000       0.091061         2.4779
  31   0.0000       0.097379         2.6498
  32   0.0000       0.107604         2.9281

MULLIKEN ATOMIC CHARGES
-----------------------
   0 C :   -0.235263
   1 C :   -0.460345
   2 C :   -0.296902
   3 C :   -0.353657
   4 C :    0.400417
   5 H :    0.173172
   6 H :    0.175207
   7 H :    0.128713
   8 H :    0.160446
   9 H :    0.138723
  10 O :   -0.290410
  11 F :   -0.102037
  12 H :    0.127441
  13 H :    0.127456
  14 H :    0.160413
  15 H :    0.146626
Sum of atomic charges:   -0.0000000

LOEWDIN ATOMIC CHARGES
----------------------
   0 C :   -0.303906
   1 C :   -0.315208
   2 C :   -0.271788
   3 C :   -0.231459
   4 C :   -0.476429
   5 H :    0.159810
   6 H :    0.159216
   7 H :    0.103818
   8 H :    0.082449
   9 H :    0.107228
  10 O :    0.115298
  11 F :    0.313027
  12 H :    0.136575
  13 H :    0.134403
  14 H :    0.143594
  15 H :    0.143373

  Mayer bond orders larger than 0.100000
B(  0-C ,  1-C ) :   0.8980 B(  0-C ,  2-C ) :   0.9066 B(  0-C , 12-H ) :   0.9833
B(  0-C , 13-H ) :   0.9784 B(  1-C ,  7-H ) :   0.9891 B(  1-C ,  8-H ) :   0.9757
B(  1-C ,  9-H ) :   0.9870 B(  2-C ,  3-C ) :   0.9055 B(  2-C , 14-H ) :   0.9769
B(  2-C , 15-H ) :   0.9746 B(  3-C ,  4-C ) :   0.9899 B(  3-C ,  5-H ) :   0.9500
B(  3-C ,  6-H ) :   0.9683 B(  4-C , 10-O ) :   2.1144 B(  4-C , 11-F ) :   1.0769

Dispersion correction           -0.000327543
FINAL SINGLE POINT ENERGY      -370.956430444499

DIPOLE MOMENT
-------------
                                X             Y             Z
Electronic contribution:    -10.26367       2.34181       3.28532
Nuclear contribution   :     11.08738      -2.45618      -3.73478
                        -----------------------------------------
Total Dipole Moment    :      0.82371      -0.11437      -0.44946
                        -----------------------------------------
Magnitude (a.u.)       :      0.94530
Magnitude (Debye)      :      2.40277

Rotational constants in cm-1:     0.156244     0.063730     0.048063
Rotational constants in MHz :  4684.071402  1910.571278  1440.877811

                             ****ORCA TERMINATED NORMALLY****
TOTAL RUN TIME: 0 days 0 hours 0 minutes 16 seconds 265 msec
