                         Program Version 5.0.0 -  RELEASE  -
|  1> !LC-BLYP RIJCOSX def2-SVPD def2/J TightSCF
|  2>
|  3> *xyz -1 1
|  4> C          2.95263        1.86308       -3.57485
|  5> C          4.12921        0.89839       -3.41895
|  6> H          3.73369       -0.10060       -3.23763
|  7> H          4.71910        0.86256       -4.33901
|  8> C          5.01734        1.31521       -2.22130
|  9> O          4.73706        0.85411       -1.12283
| 10> O          5.92815        2.16811       -2.49136
| 11> H          2.35067        1.56005       -4.40594
| 12> H          3.32277        2.85258       -3.74453
| 13> H          2.36134        1.85149       -2.68315
| 14> *
| 15> %MaxCore 64000
| 16>
| 17> %pal nprocs 4
| 18> end
| 19>
| 20> %scf
| 21>   MaxIter 150
| 22> end
| 23>
| 24>
| 25>                          ****END OF INPUT****

CARTESIAN COORDINATES (ANGSTROEM)
---------------------------------
  C      2.952630    1.863080   -3.574850
  C      4.129210    0.898390   -3.418950
  H      3.733690   -0.100600   -3.237630
  H      4.719100    0.862560   -4.339010
  C      5.017340    1.315210   -2.221300
  O      4.737060    0.854110   -1.122830
  O      5.928150    2.168110   -2.491360
  H      2.350670    1.560050   -4.405940
  H      3.322770    2.852580   -3.744530
  H      2.361340    1.851490   -2.683150

 Total Charge           Charge          ....   -1
 Multiplicity           Mult            ....    1
 Number of Electrons    NEL             ....   40
 Basis Dimension        Dim             ....  146

ORBITAL ENERGIES
----------------

  NO   OCC          E(Eh)            E(eV)
   0   2.0000     -18.703878      -508.9584
   1   2.0000     -18.692655      -508.6530
   2   2.0000      -9.975699      -271.4526
   3   2.0000      -9.925682      -270.0915
   4   2.0000      -9.911187      -269.6971
   5   2.0000      -0.913984       -24.8708
   6   2.0000      -0.815239       -22.1838
   7   2.0000      -0.711487       -19.3605
   8   2.0000      -0.574841       -15.6422
   9   2.0000      -0.427889       -11.6435
  10   2.0000      -0.398540       -10.8448
  11   2.0000      -0.363141        -9.8816
  12   2.0000      -0.339718        -9.2442
  13   2.0000      -0.316049        -8.6001
  14   2.0000      -0.314290        -8.5523
  15   2.0000      -0.279725        -7.6117
  16   2.0000      -0.275757        -7.5037
  17   2.0000      -0.152964        -4.1624
  18   2.0000      -0.142623        -3.8810
  19   2.0000      -0.131874        -3.5885
  20   0.0000       0.206047         5.6068
  21   0.0000       0.238059         6.4779
  22   0.0000       0.249748         6.7960
  23   0.0000       0.277247         7.5443
  24   0.0000       0.297970         8.1082

MULLIKEN ATOMIC CHARGES
-----------------------
   0 C :    0.721476
   1 C :   -0.113728
   2 H :   -0.081061
   3 H :   -0.101829
   4 C :    0.130772
   5 O :   -0.497808
   6 O :   -0.608294
   7 H :   -0.167372
   8 H :   -0.143228
   9 H :   -0.138928
Sum of atomic charges:   -1.0000000

LOEWDIN ATOMIC CHARGES
----------------------
   0 C :    0.090603
   1 C :   -0.054491
   2 H :    0.002871
   3 H :    0.007434
   4 C :   -0.350797
   5 O :   -0.286613
   6 O :   -0.332545
   7 H :   -0.038410
   8 H :   -0.019291
   9 H :   -0.018761

  Mayer bond orders larger than 0.100000
B(  0-C ,  1-C ) :   1.3130 B(  0-C ,  2-H ) :   0.1238 B(  0-C ,  3-H ) :   0.1125
B(  0-C ,  7-H ) :   0.8117 B(  0-C ,  8-H ) :   0.7969 B(  0-C ,  9-H ) :   0.7861
B(  1-C ,  2-H ) :   0.9002 B(  1-C ,  3-H ) :   0.9177 B(  1-C ,  4-C ) :   1.0283
B(  1-C ,  7-H ) :   0.1737 B(  1-C ,  8-H ) :   0.2062 B(  1-C ,  9-H ) :   0.2140
B(  2-H ,  4-C ) :   0.1139 B(  4-C ,  5-O ) :   1.6853 B(  4-C ,  6-O ) :   1.5975

FINAL SINGLE POINT ENERGY      -267.060831299184

DIPOLE MOMENT
-------------
                                X             Y             Z
Electronic contribution:      4.36228      -0.22903       3.83889
Nuclear contribution   :     -5.85873      -0.10793      -5.24103
                        -----------------------------------------
Total Dipole Moment    :     -1.49645      -0.33696      -1.40214
                        -----------------------------------------
Magnitude (a.u.)       :      2.07819
Magnitude (Debye)      :      5.28235

Rotational constants in cm-1:     0.292505     0.135951     0.110253
Rotational constants in MHz :  8769.065873  4075.717001  3305.311891

                             ****ORCA TERMINATED NORMALLY****
TOTAL RUN TIME: 0 days 0 hours 0 minutes 18 seconds 954 msec
