                         Program Version 5.0.0 -  RELEASE  -
|  1> !LC-BLYP RIJCOSX def2-SVPD def2/J TightSCF
|  2>
|  3> *xyz 1 1
|  4> C          3.34350        3.35457       -3.59200
|  5> C          2.95263        1.86308       -3.57485
|  6> C          4.25587        3.70385       -4.72605
|  7> N          3.73403        4.29378       -5.80077
|  8> N          5.51504        3.40725       -4.63718
|  9> H          6.14919        3.60120       -5.39905
| 10> H          5.81358        2.89950       -3.80879
| 11> H          2.74138        4.51311       -5.82470
| 12> H          4.28755        4.52126       -6.61434
| 13> H          3.86125        3.59725       -2.66298
| 14> H          2.44649        3.97346       -3.65656
| 15> H          2.44395        1.61721       -4.48352
| 16> H          2.30781        1.67290       -2.74242
| 17> H          3.83491        1.26414       -3.48670
| 18> *
| 19> %MaxCore 64000
| 20>
| 21> %pal nprocs 4
| 22> end
| 23>
| 24> %scf
| 25>   MaxIter 150
| 26> end
| 27>
| 28>
| 29>                          ****END OF INPUT****

CARTESIAN COORDINATES (ANGSTROEM)
---------------------------------
  C      3.343500    3.354570   -3.592000
  C      2.952630    1.863080   -3.574850
  C      4.255870    3.703850   -4.726050
  N      3.734030    4.293780   -5.800770
  N      5.515040    3.407250   -4.637180
  H      6.149190    3.601200   -5.399050
  H      5.813580    2.899500   -3.808790
  H      2.741380    4.513110   -5.824700
  H      4.287550    4.521260   -6.614340
  H      3.861250    3.597250   -2.662980
  H      2.446490    3.973460   -3.656560
  H      2.443950    1.617210   -4.483520
  H      2.307810    1.672900   -2.742420
  H      3.834910    1.264140   -3.486700

 Total Charge           Charge          ....    1
 Multiplicity           Mult            ....    1
 Number of Electrons    NEL             ....   40
 Basis Dimension        Dim             ....  172

ORBITAL ENERGIES
----------------

  NO   OCC          E(Eh)            E(eV)
   0   2.0000     -14.438418      -392.8893
   1   2.0000     -14.433473      -392.7548
   2   2.0000     -10.411296      -283.3058
   3   2.0000     -10.284395      -279.8526
   4   2.0000     -10.241764      -278.6926
   5   2.0000      -1.300393       -35.3855
   6   2.0000      -1.203958       -32.7614
   7   2.0000      -1.073483       -29.2110
   8   2.0000      -0.963907       -26.2293
   9   2.0000      -0.922418       -25.1003
  10   2.0000      -0.885364       -24.0920
  11   2.0000      -0.855310       -23.2742
  12   2.0000      -0.805132       -21.9087
  13   2.0000      -0.760340       -20.6899
  14   2.0000      -0.729088       -19.8395
  15   2.0000      -0.719252       -19.5718
  16   2.0000      -0.645793       -17.5729
  17   2.0000      -0.636348       -17.3159
  18   2.0000      -0.627300       -17.0697
  19   2.0000      -0.593447       -16.1485
  20   0.0000      -0.131177        -3.5695
  21   0.0000      -0.100989        -2.7480
  22   0.0000      -0.058276        -1.5858
  23   0.0000      -0.055608        -1.5132
  24   0.0000      -0.029903        -0.8137

MULLIKEN ATOMIC CHARGES
-----------------------
   0 C :   -0.142496
   1 C :    0.879991
   2 C :    0.360541
   3 N :    0.202778
   4 N :    0.379197
   5 H :   -0.191788
   6 H :    0.048291
   7 H :    0.022498
   8 H :   -0.164111
   9 H :   -0.042165
  10 H :   -0.076288
  11 H :   -0.119363
  12 H :   -0.055861
  13 H :   -0.101223
Sum of atomic charges:    1.0000000

LOEWDIN ATOMIC CHARGES
----------------------
   0 C :   -0.001970
   1 C :    0.162763
   2 C :   -0.069369
   3 N :    0.293574
   4 N :    0.297838
   5 H :    0.055442
   6 H :    0.061533
   7 H :    0.052867
   8 H :    0.045005
   9 H :    0.050051
  10 H :    0.043974
  11 H :    0.002021
  12 H :    0.012097
  13 H :   -0.005827

  Mayer bond orders larger than 0.100000
B(  0-C ,  1-C ) :   1.2665 B(  0-C ,  2-C ) :   1.1702 B(  0-C ,  3-N ) :   0.1136
B(  0-C ,  4-N ) :   0.1062 B(  0-C ,  9-H ) :   0.8544 B(  0-C , 10-H ) :   0.8532
B(  0-C , 11-H ) :   0.1817 B(  0-C , 12-H ) :   0.1832 B(  0-C , 13-H ) :   0.2197
B(  1-C , 11-H ) :   0.7952 B(  1-C , 12-H ) :   0.7982 B(  1-C , 13-H ) :   0.7318
B(  2-C ,  3-N ) :   1.1350 B(  2-C ,  4-N ) :   1.3371 B(  2-C ,  5-H ) :  -0.1381
B(  2-C ,  8-H ) :  -0.2001 B(  2-C ,  9-H ) :   0.1131 B(  2-C , 10-H ) :   0.1673
B(  3-N ,  4-N ) :   0.1475 B(  3-N ,  7-H ) :   1.0950 B(  3-N ,  8-H ) :   1.3110
B(  4-N ,  5-H ) :   1.2665 B(  4-N ,  6-H ) :   1.0591 B(  5-H ,  6-H ) :  -0.1696
B(  7-H ,  8-H ) :  -0.1888 B( 11-H , 13-H ) :   0.1038

FINAL SINGLE POINT ENERGY      -228.266112307003

DIPOLE MOMENT
-------------
                                X             Y             Z
Electronic contribution:      2.38506       2.58578      -2.28861
Nuclear contribution   :     -1.74195      -2.09431       1.58516
                        -----------------------------------------
Total Dipole Moment    :      0.64312       0.49148      -0.70345
                        -----------------------------------------
Magnitude (a.u.)       :      1.07237
Magnitude (Debye)      :      2.72576

Rotational constants in cm-1:     0.258965     0.126500     0.098780
Rotational constants in MHz :  7763.584551  3792.383135  2961.336502

                             ****ORCA TERMINATED NORMALLY****
TOTAL RUN TIME: 0 days 0 hours 0 minutes 23 seconds 828 msec
