                         Program Version 5.0.0 -  RELEASE  -
|  1> !LC-BLYP RIJCOSX def2-SVPD def2/J TightSCF
|  2>
|  3> *xyz 0 1
|  4> C          2.95263        1.86308       -3.57485
|  5> C          4.12921        0.89839       -3.41895
|  6> H          3.73369       -0.10060       -3.23763
|  7> H          4.71910        0.86256       -4.33901
|  8> C          5.01734        1.31521       -2.22130
|  9> F          4.73706        0.85411       -1.12283
| 10> O          5.92815        2.16811       -2.49136
| 11> H          2.35067        1.56005       -4.40594
| 12> H          3.32277        2.85258       -3.74453
| 13> H          2.36134        1.85149       -2.68315
| 14> *
| 15> %MaxCore 64000
| 16>
| 17> %pal nprocs 4
| 18> end
| 19>
| 20> %scf
| 21>   MaxIter 150
| 22> end
| 23>
| 24>
| 25>                          ****END OF INPUT****

CARTESIAN COORDINATES (ANGSTROEM)
---------------------------------
  C      2.952630    1.863080   -3.574850
  C      4.129210    0.898390   -3.418950
  H      3.733690   -0.100600   -3.237630
  H      4.719100    0.862560   -4.339010
  C      5.017340    1.315210   -2.221300
  F      4.737060    0.854110   -1.122830
  O      5.928150    2.168110   -2.491360
  H      2.350670    1.560050   -4.405940
  H      3.322770    2.852580   -3.744530
  H      2.361340    1.851490   -2.683150

 Total Charge           Charge          ....    0
 Multiplicity           Mult            ....    1
 Number of Electrons    NEL             ....   40
 Basis Dimension        Dim             ....  146

ORBITAL ENERGIES
----------------

  NO   OCC          E(Eh)            E(eV)
   0   2.0000     -24.562910      -668.3908
   1   2.0000     -18.966025      -516.0918
   2   2.0000     -10.274866      -279.5933
   3   2.0000     -10.118898      -275.3492
   4   2.0000     -10.095362      -274.7088
   5   2.0000      -1.415082       -38.5063
   6   2.0000      -1.109333       -30.1865
   7   2.0000      -0.907945       -24.7064
   8   2.0000      -0.796582       -21.6761
   9   2.0000      -0.755494       -20.5580
  10   2.0000      -0.676709       -18.4142
  11   2.0000      -0.657492       -17.8913
  12   2.0000      -0.612012       -16.6537
  13   2.0000      -0.572634       -15.5822
  14   2.0000      -0.540342       -14.7035
  15   2.0000      -0.506040       -13.7700
  16   2.0000      -0.481459       -13.1012
  17   2.0000      -0.472758       -12.8644
  18   2.0000      -0.451096       -12.2750
  19   2.0000      -0.390008       -10.6127
  20   0.0000       0.046159         1.2561
  21   0.0000       0.064200         1.7470
  22   0.0000       0.095989         2.6120
  23   0.0000       0.105112         2.8603
  24   0.0000       0.130028         3.5383

MULLIKEN ATOMIC CHARGES
-----------------------
   0 C :    0.761770
   1 C :   -0.121548
   2 H :   -0.061249
   3 H :   -0.069621
   4 C :    0.488593
   5 F :   -0.237419
   6 O :   -0.379134
   7 H :   -0.126707
   8 H :   -0.124990
   9 H :   -0.129695
Sum of atomic charges:   -0.0000000

LOEWDIN ATOMIC CHARGES
----------------------
   0 C :    0.127103
   1 C :   -0.006519
   2 H :    0.026390
   3 H :    0.040788
   4 C :   -0.057603
   5 F :    0.015406
   6 O :   -0.129601
   7 H :   -0.007345
   8 H :   -0.002175
   9 H :   -0.006444

  Mayer bond orders larger than 0.100000
B(  0-C ,  1-C ) :   1.3225 B(  0-C ,  2-H ) :   0.1177 B(  0-C ,  3-H ) :   0.1055
B(  0-C ,  7-H ) :   0.8196 B(  0-C ,  8-H ) :   0.7969 B(  0-C ,  9-H ) :   0.7781
B(  1-C ,  2-H ) :   0.8965 B(  1-C ,  3-H ) :   0.9169 B(  1-C ,  4-C ) :   1.0617
B(  1-C ,  7-H ) :   0.1657 B(  1-C ,  8-H ) :   0.1879 B(  1-C ,  9-H ) :   0.1922
B(  4-C ,  5-F ) :   0.9072 B(  4-C ,  6-O ) :   1.9204 B(  5-F ,  6-O ) :   0.1245

FINAL SINGLE POINT ENERGY      -291.567426131663

DIPOLE MOMENT
-------------
                                X             Y             Z
Electronic contribution:      5.02905      -1.20069       6.50356
Nuclear contribution   :     -6.06116       0.51860      -6.80802
                        -----------------------------------------
Total Dipole Moment    :     -1.03210      -0.68210      -0.30446
                        -----------------------------------------
Magnitude (a.u.)       :      1.27404
Magnitude (Debye)      :      3.23836

Rotational constants in cm-1:     0.276196     0.132056     0.105465
Rotational constants in MHz :  8280.156449  3958.940601  3161.775929

                             ****ORCA TERMINATED NORMALLY****
TOTAL RUN TIME: 0 days 0 hours 0 minutes 17 seconds 908 msec
