                         Program Version 5.0.0 -  RELEASE  -
|  1> !LC-BLYP RIJCOSX def2-SVPD def2/J TightSCF
|  2>
|  3> *xyz 0 1
|  4> C          3.34350        3.35457       -3.59200
|  5> C          2.95263        1.86308       -3.57485
|  6> C          4.25587        3.70385       -4.72605
|  7> C          3.73403        4.29378       -5.80077
|  8> N          5.51504        3.40725       -4.63718
|  9> H          6.14919        3.60120       -5.39905
| 10> H          5.81358        2.89950       -3.80879
| 11> H          2.74138        4.51311       -5.82470
| 12> H          4.28755        4.52126       -6.61434
| 13> H          3.86125        3.59725       -2.66298
| 14> H          2.44649        3.97346       -3.65656
| 15> H          2.44395        1.61721       -4.48352
| 16> H          2.30781        1.67290       -2.74242
| 17> H          3.83491        1.26414       -3.48670
| 18> *
| 19> %MaxCore 64000
| 20>
| 21> %pal nprocs 4
| 22> end
| 23>
| 24> %scf
| 25>   MaxIter 150
| 26> end
| 27>
| 28>
| 29>                          ****END OF INPUT****

CARTESIAN COORDINATES (ANGSTROEM)
---------------------------------
  C      3.343500    3.354570   -3.592000
  C      2.952630    1.863080   -3.574850
  C      4.255870    3.703850   -4.726050
  C      3.734030    4.293780   -5.800770
  N      5.515040    3.407250   -4.637180
  H      6.149190    3.601200   -5.399050
  H      5.813580    2.899500   -3.808790
  H      2.741380    4.513110   -5.824700
  H      4.287550    4.521260   -6.614340
  H      3.861250    3.597250   -2.662980
  H      2.446490    3.973460   -3.656560
  H      2.443950    1.617210   -4.483520
  H      2.307810    1.672900   -2.742420
  H      3.834910    1.264140   -3.486700

 Total Charge           Charge          ....    0
 Multiplicity           Mult            ....    1
 Number of Electrons    NEL             ....   40
 Basis Dimension        Dim             ....  172

ORBITAL ENERGIES
----------------

  NO   OCC          E(Eh)            E(eV)
   0   2.0000     -14.192132      -386.1875
   1   2.0000     -10.107063      -275.0272
   2   2.0000     -10.084807      -274.4215
   3   2.0000     -10.072370      -274.0831
   4   2.0000     -10.017586      -272.5924
   5   2.0000      -1.032100       -28.0849
   6   2.0000      -0.881485       -23.9864
   7   2.0000      -0.815929       -22.2026
   8   2.0000      -0.740205       -20.1420
   9   2.0000      -0.673979       -18.3399
  10   2.0000      -0.636472       -17.3193
  11   2.0000      -0.585468       -15.9314
  12   2.0000      -0.542364       -14.7585
  13   2.0000      -0.526510       -14.3271
  14   2.0000      -0.496397       -13.5077
  15   2.0000      -0.484314       -13.1789
  16   2.0000      -0.452573       -12.3152
  17   2.0000      -0.435687       -11.8557
  18   2.0000      -0.430907       -11.7256
  19   2.0000      -0.283532        -7.7153
  20   0.0000       0.069456         1.8900
  21   0.0000       0.100424         2.7327
  22   0.0000       0.108537         2.9534
  23   0.0000       0.111139         3.0242
  24   0.0000       0.128914         3.5079

MULLIKEN ATOMIC CHARGES
-----------------------
   0 C :    0.021701
   1 C :    0.886456
   2 C :   -0.277422
   3 C :    0.613905
   4 N :    0.499517
   5 H :   -0.232254
   6 H :   -0.129068
   7 H :   -0.245141
   8 H :   -0.614470
   9 H :   -0.140185
  10 H :   -0.007613
  11 H :   -0.155000
  12 H :   -0.093060
  13 H :   -0.127365
Sum of atomic charges:    0.0000000

LOEWDIN ATOMIC CHARGES
----------------------
   0 C :   -0.043416
   1 C :    0.124776
   2 C :   -0.285991
   3 C :    0.172171
   4 N :    0.183198
   5 H :    0.013769
   6 H :    0.007316
   7 H :   -0.082434
   8 H :   -0.089153
   9 H :    0.022462
  10 H :    0.026900
  11 H :   -0.011111
  12 H :   -0.016156
  13 H :   -0.022332

  Mayer bond orders larger than 0.100000
B(  0-C ,  1-C ) :   1.2327 B(  0-C ,  2-C ) :   1.2052 B(  0-C ,  3-C ) :   0.2080
B(  0-C ,  4-N ) :   0.1059 B(  0-C ,  9-H ) :   0.7883 B(  0-C , 10-H ) :   0.8089
B(  0-C , 11-H ) :   0.1949 B(  0-C , 12-H ) :   0.2015 B(  0-C , 13-H ) :   0.2370
B(  1-C , 10-H ) :   0.1033 B(  1-C , 11-H ) :   0.8057 B(  1-C , 12-H ) :   0.7711
B(  1-C , 13-H ) :   0.7386 B(  2-C ,  3-C ) :   1.5988 B(  2-C ,  4-N ) :   1.3784
B(  2-C ,  8-H ) :   0.1746 B(  2-C ,  9-H ) :   0.2015 B(  2-C , 10-H ) :   0.2024
B(  3-C ,  4-N ) :   0.2600 B(  3-C ,  7-H ) :   0.9260 B(  3-C ,  8-H ) :   0.5810
B(  4-N ,  5-H ) :   1.2112 B(  4-N ,  6-H ) :   1.0742 B(  5-H ,  6-H ) :  -0.1384

FINAL SINGLE POINT ENERGY      -211.813166110905

DIPOLE MOMENT
-------------
                                X             Y             Z
Electronic contribution:      2.32819       1.48118      -0.85618
Nuclear contribution   :     -1.79713      -1.86925       1.28073
                        -----------------------------------------
Total Dipole Moment    :      0.53107      -0.38807       0.42455
                        -----------------------------------------
Magnitude (a.u.)       :      0.78287
Magnitude (Debye)      :      1.98989

Rotational constants in cm-1:     0.269040     0.129645     0.102087
Rotational constants in MHz :  8065.609820  3886.645139  3060.489045

                             ****ORCA TERMINATED NORMALLY****
TOTAL RUN TIME: 0 days 0 hours 0 minutes 23 seconds 929 msec
