                         Program Version 5.0.0 -  RELEASE  -
|  1> !LC-BLYP RIJCOSX def2-SVPD def2/J TightSCF
|  2>
|  3> *xyz 0 1
|  4> C          2.95263        1.86308       -3.57485
|  5> C          4.12921        0.89839       -3.41895
|  6> H          3.73369       -0.10060       -3.23763
|  7> H          4.71910        0.86256       -4.33901
|  8> C          5.01734        1.31521       -2.22130
|  9> O          4.73706        0.85411       -1.12283
| 10> F          5.92815        2.16811       -2.49136
| 11> H          2.35067        1.56005       -4.40594
| 12> H          3.32277        2.85258       -3.74453
| 13> H          2.36134        1.85149       -2.68315
| 14> *
| 15> %MaxCore 64000
| 16>
| 17> %pal nprocs 4
| 18> end
| 19>
| 20> %scf
| 21>   MaxIter 150
| 22> end
| 23>
| 24>
| 25>                          ****END OF INPUT****

CARTESIAN COORDINATES (ANGSTROEM)
---------------------------------
  C      2.952630    1.863080   -3.574850
  C      4.129210    0.898390   -3.418950
  H      3.733690   -0.100600   -3.237630
  H      4.719100    0.862560   -4.339010
  C      5.017340    1.315210   -2.221300
  O      4.737060    0.854110   -1.122830
  F      5.928150    2.168110   -2.491360
  H      2.350670    1.560050   -4.405940
  H      3.322770    2.852580   -3.744530
  H      2.361340    1.851490   -2.683150

 Total Charge           Charge          ....    0
 Multiplicity           Mult            ....    1
 Number of Electrons    NEL             ....   40
 Basis Dimension        Dim             ....  146

ORBITAL ENERGIES
----------------

  NO   OCC          E(Eh)            E(eV)
   0   2.0000     -24.542087      -667.8241
   1   2.0000     -18.975921      -516.3611
   2   2.0000     -10.270677      -279.4793
   3   2.0000     -10.118346      -275.3342
   4   2.0000     -10.095574      -274.7145
   5   2.0000      -1.374848       -37.4115
   6   2.0000      -1.141732       -31.0681
   7   2.0000      -0.907689       -24.6995
   8   2.0000      -0.786334       -21.3972
   9   2.0000      -0.742327       -20.1998
  10   2.0000      -0.656647       -17.8683
  11   2.0000      -0.639182       -17.3930
  12   2.0000      -0.611223       -16.6322
  13   2.0000      -0.571710       -15.5570
  14   2.0000      -0.543577       -14.7915
  15   2.0000      -0.510584       -13.8937
  16   2.0000      -0.489036       -13.3073
  17   2.0000      -0.473975       -12.8975
  18   2.0000      -0.465243       -12.6599
  19   2.0000      -0.400634       -10.9018
  20   0.0000       0.050841         1.3835
  21   0.0000       0.065822         1.7911
  22   0.0000       0.096528         2.6267
  23   0.0000       0.106048         2.8857
  24   0.0000       0.129745         3.5306

MULLIKEN ATOMIC CHARGES
-----------------------
   0 C :    0.760554
   1 C :   -0.115771
   2 H :   -0.050669
   3 H :   -0.082519
   4 C :    0.474251
   5 O :   -0.297075
   6 F :   -0.307102
   7 H :   -0.127160
   8 H :   -0.136642
   9 H :   -0.117866
Sum of atomic charges:   -0.0000000

LOEWDIN ATOMIC CHARGES
----------------------
   0 C :    0.126899
   1 C :   -0.004969
   2 H :    0.036268
   3 H :    0.031553
   4 C :   -0.055799
   5 O :   -0.092436
   6 F :   -0.025538
   7 H :   -0.007386
   8 H :   -0.006917
   9 H :   -0.001675

  Mayer bond orders larger than 0.100000
B(  0-C ,  1-C ) :   1.3224 B(  0-C ,  2-H ) :   0.1132 B(  0-C ,  3-H ) :   0.1082
B(  0-C ,  7-H ) :   0.8210 B(  0-C ,  8-H ) :   0.7867 B(  0-C ,  9-H ) :   0.7879
B(  1-C ,  2-H ) :   0.9034 B(  1-C ,  3-H ) :   0.9128 B(  1-C ,  4-C ) :   1.0469
B(  1-C ,  7-H ) :   0.1653 B(  1-C ,  8-H ) :   0.1833 B(  1-C ,  9-H ) :   0.1962
B(  4-C ,  5-O ) :   1.9936 B(  4-C ,  6-F ) :   0.8294 B(  5-O ,  6-F ) :   0.1246

FINAL SINGLE POINT ENERGY      -291.583655702781

DIPOLE MOMENT
-------------
                                X             Y             Z
Electronic contribution:      7.02406       0.99992       4.20700
Nuclear contribution   :     -7.35982      -0.91407      -5.31589
                        -----------------------------------------
Total Dipole Moment    :     -0.33576       0.08584      -1.10890
                        -----------------------------------------
Magnitude (a.u.)       :      1.16179
Magnitude (Debye)      :      2.95303

Rotational constants in cm-1:     0.275433     0.132201     0.105422
Rotational constants in MHz :  8257.268192  3963.279062  3160.465566

                             ****ORCA TERMINATED NORMALLY****
TOTAL RUN TIME: 0 days 0 hours 0 minutes 17 seconds 696 msec
