                         Program Version 5.0.0 -  RELEASE  -
|  1> !LC-BLYP RIJCOSX def2-SVPD def2/J TightSCF
|  2>
|  3> *xyz 0 1
|  4> C          3.34350        3.35457       -3.59200
|  5> C          2.95263        1.86308       -3.57485
|  6> C          4.25587        3.70385       -4.72605
|  7> N          3.73403        4.29378       -5.80077
|  8> C          5.51504        3.40725       -4.63718
|  9> H          6.14919        3.60120       -5.39905
| 10> H          5.81358        2.89950       -3.80879
| 11> H          2.74138        4.51311       -5.82470
| 12> H          4.28755        4.52126       -6.61434
| 13> H          3.86125        3.59725       -2.66298
| 14> H          2.44649        3.97346       -3.65656
| 15> H          2.44395        1.61721       -4.48352
| 16> H          2.30781        1.67290       -2.74242
| 17> H          3.83491        1.26414       -3.48670
| 18> *
| 19> %MaxCore 64000
| 20>
| 21> %pal nprocs 4
| 22> end
| 23>
| 24> %scf
| 25>   MaxIter 150
| 26> end
| 27>
| 28>
| 29>                          ****END OF INPUT****

CARTESIAN COORDINATES (ANGSTROEM)
---------------------------------
  C      3.343500    3.354570   -3.592000
  C      2.952630    1.863080   -3.574850
  C      4.255870    3.703850   -4.726050
  N      3.734030    4.293780   -5.800770
  C      5.515040    3.407250   -4.637180
  H      6.149190    3.601200   -5.399050
  H      5.813580    2.899500   -3.808790
  H      2.741380    4.513110   -5.824700
  H      4.287550    4.521260   -6.614340
  H      3.861250    3.597250   -2.662980
  H      2.446490    3.973460   -3.656560
  H      2.443950    1.617210   -4.483520
  H      2.307810    1.672900   -2.742420
  H      3.834910    1.264140   -3.486700

 Total Charge           Charge          ....    0
 Multiplicity           Mult            ....    1
 Number of Electrons    NEL             ....   40
 Basis Dimension        Dim             ....  172

ORBITAL ENERGIES
----------------

  NO   OCC          E(Eh)            E(eV)
   0   2.0000     -14.188158      -386.0794
   1   2.0000     -10.104524      -274.9581
   2   2.0000     -10.084298      -274.4077
   3   2.0000     -10.070187      -274.0237
   4   2.0000     -10.016938      -272.5747
   5   2.0000      -1.018008       -27.7014
   6   2.0000      -0.883658       -24.0456
   7   2.0000      -0.819234       -22.2925
   8   2.0000      -0.741356       -20.1733
   9   2.0000      -0.667777       -18.1711
  10   2.0000      -0.624813       -17.0020
  11   2.0000      -0.588870       -16.0240
  12   2.0000      -0.545089       -14.8326
  13   2.0000      -0.518263       -14.1026
  14   2.0000      -0.495896       -13.4940
  15   2.0000      -0.485918       -13.2225
  16   2.0000      -0.447552       -12.1785
  17   2.0000      -0.436431       -11.8759
  18   2.0000      -0.431301       -11.7363
  19   2.0000      -0.288664        -7.8550
  20   0.0000       0.071390         1.9426
  21   0.0000       0.099771         2.7149
  22   0.0000       0.107408         2.9227
  23   0.0000       0.113398         3.0857
  24   0.0000       0.129825         3.5327

MULLIKEN ATOMIC CHARGES
-----------------------
   0 C :    0.026153
   1 C :    0.842590
   2 C :   -0.077455
   3 N :    0.311979
   4 C :    0.575680
   5 H :   -0.568185
   6 H :   -0.224948
   7 H :   -0.121977
   8 H :   -0.211827
   9 H :    0.008770
  10 H :   -0.186270
  11 H :   -0.150068
  12 H :   -0.084176
  13 H :   -0.140266
Sum of atomic charges:   -0.0000000

LOEWDIN ATOMIC CHARGES
----------------------
   0 C :   -0.043769
   1 C :    0.125741
   2 C :   -0.276770
   3 N :    0.182458
   4 C :    0.162845
   5 H :   -0.077799
   6 H :   -0.068946
   7 H :   -0.004091
   8 H :    0.001878
   9 H :    0.029289
  10 H :    0.016945
  11 H :   -0.013760
  12 H :   -0.016924
  13 H :   -0.017097

  Mayer bond orders larger than 0.100000
B(  0-C ,  1-C ) :   1.2538 B(  0-C ,  2-C ) :   1.1219 B(  0-C ,  3-N ) :   0.1314
B(  0-C ,  4-C ) :   0.2276 B(  0-C ,  9-H ) :   0.7982 B(  0-C , 10-H ) :   0.7938
B(  0-C , 11-H ) :   0.2029 B(  0-C , 12-H ) :   0.1810 B(  0-C , 13-H ) :   0.2162
B(  1-C , 10-H ) :   0.1150 B(  1-C , 11-H ) :   0.7896 B(  1-C , 12-H ) :   0.7724
B(  1-C , 13-H ) :   0.7837 B(  2-C ,  3-N ) :   1.2064 B(  2-C ,  4-C ) :   1.7486
B(  2-C ,  5-H ) :   0.2455 B(  2-C ,  6-H ) :   0.1399 B(  2-C ,  8-H ) :  -0.1275
B(  2-C ,  9-H ) :   0.1484 B(  2-C , 10-H ) :   0.1819 B(  3-N ,  4-C ) :   0.2654
B(  3-N ,  7-H ) :   1.0959 B(  3-N ,  8-H ) :   1.2769 B(  4-C ,  5-H ) :   0.5917
B(  4-C ,  6-H ) :   0.7365 B(  7-H ,  8-H ) :  -0.1765

FINAL SINGLE POINT ENERGY      -211.813656268969

DIPOLE MOMENT
-------------
                                X             Y             Z
Electronic contribution:      0.78815       2.26872      -1.85797
Nuclear contribution   :     -1.38463      -2.07457       1.55023
                        -----------------------------------------
Total Dipole Moment    :     -0.59648       0.19415      -0.30774
                        -----------------------------------------
Magnitude (a.u.)       :      0.69870
Magnitude (Debye)      :      1.77597

Rotational constants in cm-1:     0.272312     0.128195     0.101724
Rotational constants in MHz :  8163.717141  3843.180148  3049.598073

                             ****ORCA TERMINATED NORMALLY****
TOTAL RUN TIME: 0 days 0 hours 0 minutes 24 seconds 597 msec
