                         Program Version 5.0.0 -  RELEASE  -
|  1> !LC-BLYP RIJCOSX def2-SVPD def2/J TightSCF xyzfile
|  2>
|  3> *xyzfile 0 1 D1.xyz
|  4>
|  5> %MaxCore 64000
|  6>
|  7> %pal nprocs 4
|  8> end
|  9>
| 10> %scf
| 11>   MaxIter 150
| 12> end
| 13>
| 14>
| 15>                          ****END OF INPUT****

CARTESIAN COORDINATES (ANGSTROEM)
---------------------------------
  C      3.343500    3.354571   -3.591998
  C      2.952633    1.863077   -3.574849
  C      4.129209    0.898394   -3.418950
  H      3.733687   -0.100605   -3.237633
  H      4.719095    0.862556   -4.339005
  C      5.017344    1.315212   -2.221305
  C      4.255868    3.703851   -4.726054
  C      3.734032    4.293783   -5.800770
  N      5.515039    3.407255   -4.637185
  H      6.149187    3.601203   -5.399053
  H      5.813584    2.899504   -3.808785
  H      2.741380    4.513109   -5.824701
  H      4.287548    4.521260   -6.614341
  H      2.278938    1.735250   -2.725496
  H      2.377466    1.625787   -4.475869
  F      4.737055    0.854112   -1.122825
  O      5.928146    2.168108   -2.491365
  H      3.861246    3.597252   -2.662979
  H      2.446493    3.973461   -3.656556

 Total Charge           Charge          ....    0
 Multiplicity           Mult            ....    1
 Number of Electrons    NEL             ....   70
 Basis Dimension        Dim             ....  266

ORBITAL ENERGIES
----------------

  NO   OCC          E(Eh)            E(eV)
   0   2.0000     -24.585464      -669.0045
   1   2.0000     -18.993806      -516.8477
   2   2.0000     -14.154033      -385.1508
   3   2.0000     -10.303013      -280.3592
   4   2.0000     -10.127533      -275.5842
   5   2.0000     -10.109653      -275.0977
   6   2.0000     -10.097782      -274.7746
   7   2.0000     -10.087550      -274.4962
   8   2.0000     -10.007380      -272.3147
   9   2.0000      -1.436530       -39.0900
  10   2.0000      -1.147606       -31.2279
  11   2.0000      -1.011615       -27.5274
  12   2.0000      -0.929377       -25.2896
  13   2.0000      -0.855490       -23.2791
  14   2.0000      -0.813434       -22.1347
  15   2.0000      -0.784234       -21.3401
  16   2.0000      -0.739373       -20.1194
  17   2.0000      -0.698620       -19.0104
  18   2.0000      -0.684190       -18.6178
  19   2.0000      -0.655994       -17.8505
  20   2.0000      -0.650382       -17.6978
  21   2.0000      -0.612372       -16.6635
  22   2.0000      -0.592932       -16.1345
  23   2.0000      -0.565348       -15.3839
  24   2.0000      -0.548662       -14.9299
  25   2.0000      -0.537037       -14.6135
  26   2.0000      -0.499683       -13.5971
  27   2.0000      -0.488090       -13.2816
  28   2.0000      -0.479438       -13.0462
  29   2.0000      -0.474582       -12.9140
  30   2.0000      -0.458363       -12.4727
  31   2.0000      -0.430378       -11.7112
  32   2.0000      -0.425170       -11.5695
  33   2.0000      -0.407136       -11.0787
  34   2.0000      -0.268972        -7.3191
  35   0.0000       0.021197         0.5768
  36   0.0000       0.057534         1.5656
  37   0.0000       0.088802         2.4164
  38   0.0000       0.091507         2.4900
  39   0.0000       0.098598         2.6830

MULLIKEN ATOMIC CHARGES
-----------------------
   0 C :    0.624824
   1 C :    0.137749
   2 C :    0.391763
   3 H :   -0.230743
   4 H :    0.065494
   5 C :    0.544361
   6 C :   -0.241413
   7 C :    0.457533
   8 N :    0.961021
   9 H :   -0.245821
  10 H :   -0.652832
  11 H :   -0.262438
  12 H :   -0.522413
  13 H :   -0.044108
  14 H :   -0.246047
  15 F :   -0.239200
  16 O :   -0.349018
  17 H :   -0.055739
  18 H :   -0.092975
Sum of atomic charges:   -0.0000000

LOEWDIN ATOMIC CHARGES
----------------------
   0 C :    0.009818
   1 C :   -0.009440
   2 C :    0.052650
   3 H :    0.030283
   4 H :    0.040292
   5 C :    0.009080
   6 C :   -0.259171
   7 C :    0.164379
   8 N :    0.213040
   9 H :    0.017526
  10 H :   -0.151900
  11 H :   -0.089265
  12 H :   -0.090389
  13 H :    0.028936
  14 H :    0.039250
  15 F :    0.040239
  16 O :   -0.100635
  17 H :    0.023009
  18 H :    0.032298

  Mayer bond orders larger than 0.100000
B(  0-C ,  1-C ) :   1.1078 B(  0-C ,  6-C ) :   1.1397 B(  0-C ,  8-N ) :   0.1171
B(  0-C , 13-H ) :   0.1232 B(  0-C , 14-H ) :   0.1574 B(  0-C , 17-H ) :   0.5429
B(  0-C , 18-H ) :   0.7728 B(  1-C ,  2-C ) :   1.2489 B(  1-C ,  3-H ) :   0.2193
B(  1-C ,  4-H ) :   0.1902 B(  1-C ,  5-C ) :   0.1024 B(  1-C , 13-H ) :   0.8052
B(  1-C , 14-H ) :   0.9143 B(  1-C , 17-H ) :   0.2005 B(  1-C , 18-H ) :   0.1661
B(  2-C ,  3-H ) :   0.7564 B(  2-C ,  4-H ) :   0.8113 B(  2-C ,  5-C ) :   1.0528
B(  2-C , 13-H ) :   0.1302 B(  3-H ,  5-C ) :   0.1161 B(  5-C , 15-F ) :   0.8930
B(  5-C , 16-O ) :   1.7222 B(  6-C ,  7-C ) :   1.4901 B(  6-C ,  8-N ) :   1.2054
B(  6-C , 10-H ) :   0.1170 B(  6-C , 12-H ) :   0.1649 B(  6-C , 17-H ) :   0.2570
B(  6-C , 18-H ) :   0.2061 B(  7-C ,  8-N ) :   0.1749 B(  7-C , 11-H ) :   0.9509
B(  7-C , 12-H ) :   0.5563 B(  8-N ,  9-H ) :   1.1635 B(  8-N , 10-H ) :   0.8423
B(  9-H , 10-H ) :  -0.2193 B( 10-H , 16-O ) :   0.2624 B( 15-F , 16-O ) :   0.1142

FINAL SINGLE POINT ENERGY      -463.047476693411

DIPOLE MOMENT
-------------
                                X             Y             Z
Electronic contribution:      5.51248      -5.96570      10.53921
Nuclear contribution   :     -5.86483       4.68058     -10.07545
                        -----------------------------------------
Total Dipole Moment    :     -0.35236      -1.28512       0.46376
                        -----------------------------------------
Magnitude (a.u.)       :      1.41094
Magnitude (Debye)      :      3.58633

Rotational constants in cm-1:     0.107256     0.035474     0.030113
Rotational constants in MHz :  3215.453922  1063.481574   902.777619

                             ****ORCA TERMINATED NORMALLY****
TOTAL RUN TIME: 0 days 0 hours 1 minutes 3 seconds 186 msec
