                         Program Version 5.0.0 -  RELEASE  -
|  1> !CAM-B3LYP RIJCOSX def2-SVPD def2/J TightSCF
|  2> *xyz -1 1
|  3> C          4.12921        0.89839       -3.41895
|  4> C          5.01734        1.31521       -2.22130
|  5> O          4.73706        0.85411       -1.12283
|  6> O          5.92815        2.16811       -2.49136
|  7> H          4.48610        1.37210       -4.30953
|  8> H          3.11885        1.19903       -3.23540
|  9> H          4.16886       -0.16404       -3.53966
| 10> *
| 11> %MaxCore 64000
| 12>
| 13> %pal nprocs 4
| 14> end
| 15>
| 16> %scf
| 17>   MaxIter 150
| 18> end
| 19>
| 20>
| 21>                          ****END OF INPUT****

CARTESIAN COORDINATES (ANGSTROEM)
---------------------------------
  C      4.129210    0.898390   -3.418950
  C      5.017340    1.315210   -2.221300
  O      4.737060    0.854110   -1.122830
  O      5.928150    2.168110   -2.491360
  H      4.486100    1.372100   -4.309530
  H      3.118850    1.199030   -3.235400
  H      4.168860   -0.164040   -3.539660

 Total Charge           Charge          ....   -1
 Multiplicity           Mult            ....    1
 Number of Electrons    NEL             ....   32
 Basis Dimension        Dim             ....  110

ORBITAL ENERGIES
----------------

  NO   OCC          E(Eh)            E(eV)
   0   2.0000     -18.955890      -515.8160
   1   2.0000     -18.945636      -515.5370
   2   2.0000     -10.148656      -276.1590
   3   2.0000     -10.070217      -274.0245
   4   2.0000      -0.898283       -24.4435
   5   2.0000      -0.799421       -21.7533
   6   2.0000      -0.615544       -16.7498
   7   2.0000      -0.372115       -10.1258
   8   2.0000      -0.329669        -8.9708
   9   2.0000      -0.313505        -8.5309
  10   2.0000      -0.299328        -8.1451
  11   2.0000      -0.258199        -7.0259
  12   2.0000      -0.239109        -6.5065
  13   2.0000      -0.114379        -3.1124
  14   2.0000      -0.107833        -2.9343
  15   2.0000      -0.095985        -2.6119
  16   0.0000       0.200061         5.4439
  17   0.0000       0.238422         6.4878
  18   0.0000       0.258219         7.0265
  19   0.0000       0.269918         7.3448
  20   0.0000       0.294319         8.0088

MULLIKEN ATOMIC CHARGES
-----------------------
   0 C :    0.656617
   1 C :   -0.002198
   2 O :   -0.581788
   3 O :   -0.670023
   4 H :   -0.148435
   5 H :   -0.128271
   6 H :   -0.125902
Sum of atomic charges:   -1.0000000

LOEWDIN ATOMIC CHARGES
----------------------
   0 C :    0.145763
   1 C :   -0.341615
   2 O :   -0.315498
   3 O :   -0.359687
   4 H :   -0.047061
   5 H :   -0.039853
   6 H :   -0.042049

  Mayer bond orders larger than 0.100000
B(  0-C ,  1-C ) :   1.1737 B(  0-C ,  4-H ) :   0.8461 B(  0-C ,  5-H ) :   0.8022
B(  0-C ,  6-H ) :   0.7929 B(  1-C ,  2-O ) :   1.5829 B(  1-C ,  3-O ) :   1.4773
B(  1-C ,  4-H ) :   0.2591 B(  1-C ,  5-H ) :   0.1681 B(  1-C ,  6-H ) :   0.1757

FINAL SINGLE POINT ENERGY      -228.281782329891

DIPOLE MOMENT
-------------
                                X             Y             Z
Electronic contribution:      2.01134       0.92675       2.86141
Nuclear contribution   :     -2.87913      -1.42371      -3.86600
                        -----------------------------------------
Total Dipole Moment    :     -0.86779      -0.49696      -1.00459
                        -----------------------------------------
Magnitude (a.u.)       :      1.41747
Magnitude (Debye)      :      3.60292

Rotational constants in cm-1:     0.390018     0.334370     0.186171
Rotational constants in MHz : 11692.450907 10024.149143  5581.251544

                             ****ORCA TERMINATED NORMALLY****
TOTAL RUN TIME: 0 days 0 hours 0 minutes 10 seconds 944 msec
