                         Program Version 5.0.0 -  RELEASE  -
|  1> !CAM-B3LYP RIJCOSX def2-SVPD def2/J TightSCF
|  2> *xyz 1 1
|  3> C          3.34350        3.35457       -3.59200
|  4> C          4.25587        3.70385       -4.72605
|  5> N          3.73403        4.29378       -5.80077
|  6> N          5.51504        3.40725       -4.63718
|  7> H          6.14919        3.60120       -5.39905
|  8> H          5.81358        2.89950       -3.80879
|  9> H          2.74138        4.51311       -5.82470
| 10> H          4.28755        4.52126       -6.61434
| 11> H          2.34726        3.66659       -3.82664
| 12> H          3.67283        3.85124       -2.70331
| 13> H          3.35820        2.29620       -3.43538
| 14> *
| 15> %MaxCore 64000
| 16>
| 17> %pal nprocs 4
| 18> end
| 19>
| 20> %scf
| 21>   MaxIter 150
| 22> end
| 23>
| 24>
| 25>                          ****END OF INPUT****

CARTESIAN COORDINATES (ANGSTROEM)
---------------------------------
  C      3.343500    3.354570   -3.592000
  C      4.255870    3.703850   -4.726050
  N      3.734030    4.293780   -5.800770
  N      5.515040    3.407250   -4.637180
  H      6.149190    3.601200   -5.399050
  H      5.813580    2.899500   -3.808790
  H      2.741380    4.513110   -5.824700
  H      4.287550    4.521260   -6.614340
  H      2.347260    3.666590   -3.826640
  H      3.672830    3.851240   -2.703310
  H      3.358200    2.296200   -3.435380

 Total Charge           Charge          ....    1
 Multiplicity           Mult            ....    1
 Number of Electrons    NEL             ....   32
 Basis Dimension        Dim             ....  136

ORBITAL ENERGIES
----------------

  NO   OCC          E(Eh)            E(eV)
   0   2.0000     -14.660839      -398.9417
   1   2.0000     -14.656930      -398.8353
   2   2.0000     -10.595880      -288.3286
   3   2.0000     -10.459112      -284.6069
   4   2.0000      -1.288680       -35.0668
   5   2.0000      -1.190825       -32.4040
   6   2.0000      -1.033002       -28.1094
   7   2.0000      -0.917739       -24.9729
   8   2.0000      -0.859602       -23.3910
   9   2.0000      -0.844783       -22.9877
  10   2.0000      -0.779978       -21.2243
  11   2.0000      -0.736854       -20.0508
  12   2.0000      -0.688029       -18.7222
  13   2.0000      -0.671964       -18.2851
  14   2.0000      -0.646849       -17.6017
  15   2.0000      -0.566044       -15.4028
  16   0.0000      -0.168310        -4.5800
  17   0.0000      -0.130646        -3.5550
  18   0.0000      -0.084090        -2.2882
  19   0.0000      -0.082745        -2.2516
  20   0.0000      -0.058932        -1.6036

MULLIKEN ATOMIC CHARGES
-----------------------
   0 C :    0.777942
   1 C :    0.264401
   2 N :    0.080263
   3 N :    0.302019
   4 H :   -0.188746
   5 H :    0.028991
   6 H :    0.032372
   7 H :   -0.162638
   8 H :   -0.049644
   9 H :   -0.037504
  10 H :   -0.047456
Sum of atomic charges:    1.0000000

LOEWDIN ATOMIC CHARGES
----------------------
   0 C :    0.233189
   1 C :   -0.066677
   2 N :    0.282313
   3 N :    0.282996
   4 H :    0.053856
   5 H :    0.064532
   6 H :    0.051277
   7 H :    0.044872
   8 H :    0.006146
   9 H :    0.023789
  10 H :    0.023707

  Mayer bond orders larger than 0.100000
B(  0-C ,  1-C ) :   1.2583 B(  0-C ,  8-H ) :   0.7444 B(  0-C ,  9-H ) :   0.7174
B(  0-C , 10-H ) :   0.7430 B(  1-C ,  2-N ) :   1.0379 B(  1-C ,  3-N ) :   1.2892
B(  1-C ,  4-H ) :  -0.1495 B(  1-C ,  7-H ) :  -0.2500 B(  1-C ,  8-H ) :   0.2843
B(  1-C ,  9-H ) :   0.1948 B(  1-C , 10-H ) :   0.1707 B(  2-N ,  3-N ) :   0.1395
B(  2-N ,  6-H ) :   1.0842 B(  2-N ,  7-H ) :   1.3568 B(  3-N ,  4-H ) :   1.2495
B(  3-N ,  5-H ) :   1.0871 B(  4-H ,  5-H ) :  -0.1538 B(  6-H ,  7-H ) :  -0.1850
B(  9-H , 10-H ) :   0.1070

FINAL SINGLE POINT ENERGY      -189.492430639569

DIPOLE MOMENT
-------------
                                X             Y             Z
Electronic contribution:      1.41762       0.50266      -1.59920
Nuclear contribution   :     -1.09951      -0.46604       1.22975
                        -----------------------------------------
Total Dipole Moment    :      0.31811       0.03663      -0.36944
                        -----------------------------------------
Magnitude (a.u.)       :      0.48890
Magnitude (Debye)      :      1.24270

Rotational constants in cm-1:     0.329035     0.303839     0.162676
Rotational constants in MHz :  9864.215808  9108.853745  4876.907929

                             ****ORCA TERMINATED NORMALLY****
TOTAL RUN TIME: 0 days 0 hours 0 minutes 15 seconds 669 msec
