                         Program Version 5.0.0 -  RELEASE  -
|  1> !CAM-B3LYP RIJCOSX def2-SVPD def2/J TightSCF xyzfile
|  2>
|  3> *xyzfile 0 1 B.xyz
|  4>
|  5> %MaxCore 64000
|  6>
|  7> %pal nprocs 4
|  8> end
|  9>
| 10> %scf
| 11>   MaxIter 150
| 12> end
| 13>
| 14>
| 15>                          ****END OF INPUT****

CARTESIAN COORDINATES (ANGSTROEM)
---------------------------------
  C      3.343500    3.354571   -3.591998
  C      2.952633    1.863077   -3.574849
  C      4.129209    0.898394   -3.418950
  H      3.733687   -0.100605   -3.237633
  H      4.719095    0.862556   -4.339005
  C      5.017344    1.315212   -2.221305
  C      4.255868    3.703851   -4.726054
  N      3.734032    4.293783   -5.800770
  N      5.515039    3.407255   -4.637185
  H      6.149187    3.601203   -5.399053
  H      5.813584    2.899504   -3.808785
  H      2.741380    4.513109   -5.824701
  H      4.287548    4.521260   -6.614341
  H      2.278938    1.735250   -2.725496
  H      2.377466    1.625787   -4.475869
  O      4.737055    0.854112   -1.122825
  O      5.928146    2.168108   -2.491365
  H      3.861246    3.597252   -2.662979
  H      2.446493    3.973461   -3.656556

 Total Charge           Charge          ....    0
 Multiplicity           Mult            ....    1
 Number of Electrons    NEL             ....   70
 Basis Dimension        Dim             ....  266

ORBITAL ENERGIES
----------------

  NO   OCC          E(Eh)            E(eV)
   0   2.0000     -19.125552      -520.4327
   1   2.0000     -19.114671      -520.1367
   2   2.0000     -14.507039      -394.7566
   3   2.0000     -14.466736      -393.6599
   4   2.0000     -10.426748      -283.7262
   5   2.0000     -10.313743      -280.6512
   6   2.0000     -10.304462      -280.3987
   7   2.0000     -10.280299      -279.7412
   8   2.0000     -10.239437      -278.6292
   9   2.0000      -1.124559       -30.6008
  10   2.0000      -1.068567       -29.0772
  11   2.0000      -1.026433       -27.9307
  12   2.0000      -0.976921       -26.5834
  13   2.0000      -0.903061       -24.5735
  14   2.0000      -0.815713       -22.1967
  15   2.0000      -0.753173       -20.4949
  16   2.0000      -0.709142       -19.2967
  17   2.0000      -0.696037       -18.9401
  18   2.0000      -0.661274       -17.9942
  19   2.0000      -0.618872       -16.8404
  20   2.0000      -0.576886       -15.6979
  21   2.0000      -0.558051       -15.1853
  22   2.0000      -0.535290       -14.5660
  23   2.0000      -0.518897       -14.1199
  24   2.0000      -0.496075       -13.4989
  25   2.0000      -0.469705       -12.7813
  26   2.0000      -0.450246       -12.2518
  27   2.0000      -0.442914       -12.0523
  28   2.0000      -0.437830       -11.9140
  29   2.0000      -0.408398       -11.1131
  30   2.0000      -0.398956       -10.8561
  31   2.0000      -0.397298       -10.8110
  32   2.0000      -0.287225        -7.8158
  33   2.0000      -0.282968        -7.7000
  34   2.0000      -0.262093        -7.1319
  35   0.0000      -0.010268        -0.2794
  36   0.0000      -0.000462        -0.0126
  37   0.0000       0.037468         1.0195
  38   0.0000       0.058441         1.5903
  39   0.0000       0.067622         1.8401

MULLIKEN ATOMIC CHARGES
-----------------------
   0 C :    0.246856
   1 C :    0.124560
   2 C :    0.400242
   3 H :   -0.238964
   4 H :    0.019342
   5 C :    0.399782
   6 C :    0.571028
   7 N :    0.122276
   8 N :    0.574523
   9 H :   -0.209468
  10 H :   -0.314156
  11 H :   -0.053040
  12 H :   -0.196869
  13 H :   -0.020646
  14 H :   -0.238439
  15 O :   -0.530811
  16 O :   -0.609036
  17 H :    0.164726
  18 H :   -0.211907
Sum of atomic charges:    0.0000000

LOEWDIN ATOMIC CHARGES
----------------------
   0 C :    0.050903
   1 C :    0.000857
   2 C :    0.031110
   3 H :    0.022846
   4 H :    0.008027
   5 C :   -0.233340
   6 C :   -0.041459
   7 N :    0.247962
   8 N :    0.312040
   9 H :    0.040460
  10 H :   -0.136348
  11 H :    0.029587
  12 H :    0.023110
  13 H :    0.036782
  14 H :    0.018420
  15 O :   -0.217085
  16 O :   -0.261275
  17 H :    0.043199
  18 H :    0.024204

  Mayer bond orders larger than 0.100000
B(  0-C ,  1-C ) :   1.1870 B(  0-C ,  6-C ) :   1.0838 B(  0-C , 13-H ) :   0.1319
B(  0-C , 14-H ) :   0.1413 B(  0-C , 17-H ) :   0.7011 B(  0-C , 18-H ) :   0.8532
B(  1-C ,  2-C ) :   1.2457 B(  1-C ,  3-H ) :   0.1978 B(  1-C ,  4-H ) :   0.1816
B(  1-C , 13-H ) :   0.8282 B(  1-C , 14-H ) :   0.9020 B(  1-C , 17-H ) :   0.1482
B(  1-C , 18-H ) :   0.1719 B(  2-C ,  3-H ) :   0.7629 B(  2-C ,  4-H ) :   0.8065
B(  2-C ,  5-C ) :   0.9719 B(  2-C , 13-H ) :   0.1495 B(  3-H ,  5-C ) :   0.1770
B(  5-C , 15-O ) :   1.6481 B(  5-C , 16-O ) :   1.2702 B(  6-C ,  7-N ) :   1.0144
B(  6-C ,  8-N ) :   1.1965 B(  6-C ,  9-H ) :  -0.2156 B(  6-C , 11-H ) :  -0.1318
B(  6-C , 12-H ) :  -0.1574 B(  6-C , 17-H ) :   0.1343 B(  6-C , 18-H ) :   0.1198
B(  7-N ,  8-N ) :   0.1429 B(  7-N , 11-H ) :   1.1875 B(  7-N , 12-H ) :   1.3101
B(  8-N ,  9-H ) :   1.2785 B(  8-N , 10-H ) :   1.0795 B(  9-H , 10-H ) :  -0.2410
B( 10-H , 16-O ) :   0.2909 B( 11-H , 12-H ) :  -0.1868 B( 15-O , 16-O ) :   0.1345

FINAL SINGLE POINT ENERGY      -456.008111631277

DIPOLE MOMENT
-------------
                                X             Y             Z
Electronic contribution:      3.85909       0.04482       2.52124
Nuclear contribution   :     -5.42217       2.65262      -7.07590
                        -----------------------------------------
Total Dipole Moment    :     -1.56308       2.69744      -4.55466
                        -----------------------------------------
Magnitude (a.u.)       :      5.51945
Magnitude (Debye)      :     14.02933

Rotational constants in cm-1:     0.107541     0.035862     0.030371
Rotational constants in MHz :  3223.996852  1075.120464   910.508313

                             ****ORCA TERMINATED NORMALLY****
TOTAL RUN TIME: 0 days 0 hours 1 minutes 26 seconds 745 msec
