                         Program Version 5.0.0 -  RELEASE  -
|  1> !CAM-B3LYP RIJCOSX def2-SVPD def2/J TightSCF
|  2> *xyz 0 1
|  3> C          4.12921        0.89839       -3.41895
|  4> C          5.01734        1.31521       -2.22130
|  5> F          4.73706        0.85411       -1.12283
|  6> O          5.92815        2.16811       -2.49136
|  7> H          4.48610        1.37210       -4.30953
|  8> H          3.11885        1.19903       -3.23540
|  9> H          4.16886       -0.16404       -3.53966
| 10> *
| 11> %MaxCore 64000
| 12>
| 13> %pal nprocs 4
| 14> end
| 15>
| 16> %scf
| 17>   MaxIter 150
| 18> end
| 19>
| 20>
| 21>                          ****END OF INPUT****

CARTESIAN COORDINATES (ANGSTROEM)
---------------------------------
  C      4.129210    0.898390   -3.418950
  C      5.017340    1.315210   -2.221300
  F      4.737060    0.854110   -1.122830
  O      5.928150    2.168110   -2.491360
  H      4.486100    1.372100   -4.309530
  H      3.118850    1.199030   -3.235400
  H      4.168860   -0.164040   -3.539660

 Total Charge           Charge          ....    0
 Multiplicity           Mult            ....    1
 Number of Electrons    NEL             ....   32
 Basis Dimension        Dim             ....  110

ORBITAL ENERGIES
----------------

  NO   OCC          E(Eh)            E(eV)
   0   2.0000     -24.864176      -676.5886
   1   2.0000     -19.225401      -523.1498
   2   2.0000     -10.456172      -284.5269
   3   2.0000     -10.287827      -279.9460
   4   2.0000      -1.420556       -38.6553
   5   2.0000      -1.099741       -29.9255
   6   2.0000      -0.848291       -23.0832
   7   2.0000      -0.754052       -20.5188
   8   2.0000      -0.647895       -17.6301
   9   2.0000      -0.639163       -17.3925
  10   2.0000      -0.577579       -15.7167
  11   2.0000      -0.516429       -14.0527
  12   2.0000      -0.504692       -13.7334
  13   2.0000      -0.472745       -12.8641
  14   2.0000      -0.421652       -11.4737
  15   2.0000      -0.362352        -9.8601
  16   0.0000       0.015933         0.4336
  17   0.0000       0.039680         1.0797
  18   0.0000       0.082448         2.2435
  19   0.0000       0.111991         3.0474
  20   0.0000       0.121445         3.3047

MULLIKEN ATOMIC CHARGES
-----------------------
   0 C :    0.604540
   1 C :    0.376861
   2 F :   -0.309556
   3 O :   -0.449734
   4 H :   -0.121590
   5 H :   -0.048908
   6 H :   -0.051613
Sum of atomic charges:   -0.0000000

LOEWDIN ATOMIC CHARGES
----------------------
   0 C :    0.217713
   1 C :   -0.041164
   2 F :   -0.008883
   3 O :   -0.153121
   4 H :   -0.003607
   5 H :   -0.004233
   6 H :   -0.006704

  Mayer bond orders larger than 0.100000
B(  0-C ,  1-C ) :   1.1971 B(  0-C ,  4-H ) :   0.8665 B(  0-C ,  5-H ) :   0.7971
B(  0-C ,  6-H ) :   0.7913 B(  1-C ,  2-F ) :   0.8446 B(  1-C ,  3-O ) :   1.8485
B(  1-C ,  4-H ) :   0.2225 B(  1-C ,  5-H ) :   0.1287 B(  1-C ,  6-H ) :   0.1333

FINAL SINGLE POINT ENERGY      -252.805289893830

DIPOLE MOMENT
-------------
                                X             Y             Z
Electronic contribution:      1.69706       0.20340       4.83322
Nuclear contribution   :     -2.65749      -0.95231      -5.09883
                        -----------------------------------------
Total Dipole Moment    :     -0.96043      -0.74892      -0.26561
                        -----------------------------------------
Magnitude (a.u.)       :      1.24653
Magnitude (Debye)      :      3.16843

Rotational constants in cm-1:     0.365278     0.322469     0.176821
Rotational constants in MHz : 10950.755781  9667.377070  5300.957073

                             ****ORCA TERMINATED NORMALLY****
TOTAL RUN TIME: 0 days 0 hours 0 minutes 10 seconds 776 msec
