                         Program Version 5.0.0 -  RELEASE  -
|  1> !CAM-B3LYP RIJCOSX def2-SVPD def2/J TightSCF
|  2> *xyz 0 1
|  3> C          3.34350        3.35457       -3.59200
|  4> C          4.25587        3.70385       -4.72605
|  5> C          3.73403        4.29378       -5.80077
|  6> N          5.51504        3.40725       -4.63718
|  7> H          6.14919        3.60120       -5.39905
|  8> H          5.81358        2.89950       -3.80879
|  9> H          2.74138        4.51311       -5.82470
| 10> H          4.28755        4.52126       -6.61434
| 11> H          2.34726        3.66659       -3.82664
| 12> H          3.67283        3.85124       -2.70331
| 13> H          3.35820        2.29620       -3.43538
| 14> *
| 15> %MaxCore 64000
| 16>
| 17> %pal nprocs 4
| 18> end
| 19>
| 20> %scf
| 21>   MaxIter 150
| 22> end
| 23>
| 24>
| 25>                          ****END OF INPUT****

CARTESIAN COORDINATES (ANGSTROEM)
---------------------------------
  C      3.343500    3.354570   -3.592000
  C      4.255870    3.703850   -4.726050
  C      3.734030    4.293780   -5.800770
  N      5.515040    3.407250   -4.637180
  H      6.149190    3.601200   -5.399050
  H      5.813580    2.899500   -3.808790
  H      2.741380    4.513110   -5.824700
  H      4.287550    4.521260   -6.614340
  H      2.347260    3.666590   -3.826640
  H      3.672830    3.851240   -2.703310
  H      3.358200    2.296200   -3.435380

 Total Charge           Charge          ....    0
 Multiplicity           Mult            ....    1
 Number of Electrons    NEL             ....   32
 Basis Dimension        Dim             ....  136

ORBITAL ENERGIES
----------------

  NO   OCC          E(Eh)            E(eV)
   0   2.0000     -14.409098      -392.0915
   1   2.0000     -10.282492      -279.8008
   2   2.0000     -10.249192      -278.8947
   3   2.0000     -10.190569      -277.2995
   4   2.0000      -1.012923       -27.5630
   5   2.0000      -0.831777       -22.6338
   6   2.0000      -0.761462       -20.7204
   7   2.0000      -0.648061       -17.6346
   8   2.0000      -0.604473       -16.4485
   9   2.0000      -0.544857       -14.8263
  10   2.0000      -0.504833       -13.7372
  11   2.0000      -0.465351       -12.6628
  12   2.0000      -0.460025       -12.5179
  13   2.0000      -0.418084       -11.3767
  14   2.0000      -0.407628       -11.0921
  15   2.0000      -0.247622        -6.7381
  16   0.0000       0.048737         1.3262
  17   0.0000       0.084434         2.2976
  18   0.0000       0.091548         2.4912
  19   0.0000       0.092354         2.5131
  20   0.0000       0.122087         3.3222

MULLIKEN ATOMIC CHARGES
-----------------------
   0 C :    1.050388
   1 C :   -0.580368
   2 C :    0.574006
   3 N :    0.448013
   4 H :   -0.238691
   5 H :   -0.168120
   6 H :   -0.218238
   7 H :   -0.578019
   8 H :   -0.052344
   9 H :   -0.116792
  10 H :   -0.119833
Sum of atomic charges:    0.0000000

LOEWDIN ATOMIC CHARGES
----------------------
   0 C :    0.162970
   1 C :   -0.300253
   2 C :    0.172110
   3 N :    0.165846
   4 H :    0.012115
   5 H :    0.008094
   6 H :   -0.088794
   7 H :   -0.093563
   8 H :   -0.014847
   9 H :   -0.012033
  10 H :   -0.011645

  Mayer bond orders larger than 0.100000
B(  0-C ,  1-C ) :   1.2448 B(  0-C ,  8-H ) :   0.7546 B(  0-C ,  9-H ) :   0.5972
B(  0-C , 10-H ) :   0.6180 B(  1-C ,  2-C ) :   1.6711 B(  1-C ,  3-N ) :   1.2770
B(  1-C ,  7-H ) :   0.1316 B(  1-C ,  8-H ) :   0.2707 B(  1-C ,  9-H ) :   0.3087
B(  1-C , 10-H ) :   0.2924 B(  2-C ,  3-N ) :   0.2437 B(  2-C ,  6-H ) :   0.9490
B(  2-C ,  7-H ) :   0.7059 B(  3-N ,  4-H ) :   1.1985 B(  3-N ,  5-H ) :   1.1094
B(  4-H ,  5-H ) :  -0.1239 B(  8-H , 10-H ) :   0.1032

FINAL SINGLE POINT ENERGY      -173.036477817510

DIPOLE MOMENT
-------------
                                X             Y             Z
Electronic contribution:      1.76890      -0.04550      -0.55277
Nuclear contribution   :     -1.20871      -0.33119       0.98382
                        -----------------------------------------
Total Dipole Moment    :      0.56019      -0.37669       0.43104
                        -----------------------------------------
Magnitude (a.u.)       :      0.80094
Magnitude (Debye)      :      2.03583

Rotational constants in cm-1:     0.348453     0.308655     0.168735
Rotational constants in MHz : 10446.369928  9253.232733  5058.539653

                             ****ORCA TERMINATED NORMALLY****
TOTAL RUN TIME: 0 days 0 hours 0 minutes 16 seconds 537 msec
