                         Program Version 5.0.0 -  RELEASE  -
|  1> !CAM-B3LYP RIJCOSX def2-SVPD def2/J TightSCF
|  2> *xyz 0 1
|  3> C          4.12921        0.89839       -3.41895
|  4> C          5.01734        1.31521       -2.22130
|  5> O          4.73706        0.85411       -1.12283
|  6> F          5.92815        2.16811       -2.49136
|  7> H          4.48610        1.37210       -4.30953
|  8> H          3.11885        1.19903       -3.23540
|  9> H          4.16886       -0.16404       -3.53966
| 10> *
| 11> %MaxCore 64000
| 12>
| 13> %pal nprocs 4
| 14> end
| 15>
| 16> %scf
| 17>   MaxIter 150
| 18> end
| 19>
| 20>
| 21>                          ****END OF INPUT****

CARTESIAN COORDINATES (ANGSTROEM)
---------------------------------
  C      4.129210    0.898390   -3.418950
  C      5.017340    1.315210   -2.221300
  O      4.737060    0.854110   -1.122830
  F      5.928150    2.168110   -2.491360
  H      4.486100    1.372100   -4.309530
  H      3.118850    1.199030   -3.235400
  H      4.168860   -0.164040   -3.539660

 Total Charge           Charge          ....    0
 Multiplicity           Mult            ....    1
 Number of Electrons    NEL             ....   32
 Basis Dimension        Dim             ....  110

ORBITAL ENERGIES
----------------

  NO   OCC          E(Eh)            E(eV)
   0   2.0000     -24.843157      -676.0167
   1   2.0000     -19.235015      -523.4114
   2   2.0000     -10.452136      -284.4171
   3   2.0000     -10.287794      -279.9451
   4   2.0000      -1.379624       -37.5415
   5   2.0000      -1.133466       -30.8432
   6   2.0000      -0.846729       -23.0407
   7   2.0000      -0.731883       -19.9156
   8   2.0000      -0.623569       -16.9682
   9   2.0000      -0.620041       -16.8722
  10   2.0000      -0.580637       -15.7999
  11   2.0000      -0.516622       -14.0580
  12   2.0000      -0.506962       -13.7951
  13   2.0000      -0.480527       -13.0758
  14   2.0000      -0.438528       -11.9329
  15   2.0000      -0.375472       -10.2171
  16   0.0000       0.018011         0.4901
  17   0.0000       0.040466         1.1011
  18   0.0000       0.083893         2.2828
  19   0.0000       0.115415         3.1406
  20   0.0000       0.117710         3.2030

MULLIKEN ATOMIC CHARGES
-----------------------
   0 C :    0.588937
   1 C :    0.345554
   2 O :   -0.387745
   3 F :   -0.350611
   4 H :   -0.105153
   5 H :   -0.043758
   6 H :   -0.047225
Sum of atomic charges:   -0.0000000

LOEWDIN ATOMIC CHARGES
----------------------
   0 C :    0.220126
   1 C :   -0.037932
   2 O :   -0.116206
   3 F :   -0.051313
   4 H :   -0.016399
   5 H :    0.001457
   6 H :    0.000267

  Mayer bond orders larger than 0.100000
B(  0-C ,  1-C ) :   1.2101 B(  0-C ,  4-H ) :   0.8623 B(  0-C ,  5-H ) :   0.8003
B(  0-C ,  6-H ) :   0.7906 B(  1-C ,  2-O ) :   1.9018 B(  1-C ,  3-F ) :   0.8062
B(  1-C ,  4-H ) :   0.1665 B(  1-C ,  5-H ) :   0.1423 B(  1-C ,  6-H ) :   0.1532

FINAL SINGLE POINT ENERGY      -252.821139779150

DIPOLE MOMENT
-------------
                                X             Y             Z
Electronic contribution:      3.64268       2.34827       2.59449
Nuclear contribution   :     -3.88824      -2.31007      -3.68473
                        -----------------------------------------
Total Dipole Moment    :     -0.24555       0.03820      -1.09024
                        -----------------------------------------
Magnitude (a.u.)       :      1.11820
Magnitude (Debye)      :      2.84224

Rotational constants in cm-1:     0.367620     0.319924     0.176595
Rotational constants in MHz : 11020.955969  9591.092757  5294.190719

                             ****ORCA TERMINATED NORMALLY****
TOTAL RUN TIME: 0 days 0 hours 0 minutes 10 seconds 763 msec
