                         Program Version 5.0.0 -  RELEASE  -
|  1> !CAM-B3LYP RIJCOSX def2-SVPD def2/J TightSCF
|  2> *xyz 0 1
|  3> C          3.34350        3.35457       -3.59200
|  4> C          4.25587        3.70385       -4.72605
|  5> N          3.73403        4.29378       -5.80077
|  6> C          5.51504        3.40725       -4.63718
|  7> H          6.14919        3.60120       -5.39905
|  8> H          5.81358        2.89950       -3.80879
|  9> H          2.74138        4.51311       -5.82470
| 10> H          4.28755        4.52126       -6.61434
| 11> H          2.34726        3.66659       -3.82664
| 12> H          3.67283        3.85124       -2.70331
| 13> H          3.35820        2.29620       -3.43538
| 14> *
| 15> %MaxCore 64000
| 16>
| 17> %pal nprocs 4
| 18> end
| 19>
| 20> %scf
| 21>   MaxIter 150
| 22> end
| 23>
| 24>
| 25>                          ****END OF INPUT****

CARTESIAN COORDINATES (ANGSTROEM)
---------------------------------
  C      3.343500    3.354570   -3.592000
  C      4.255870    3.703850   -4.726050
  N      3.734030    4.293780   -5.800770
  C      5.515040    3.407250   -4.637180
  H      6.149190    3.601200   -5.399050
  H      5.813580    2.899500   -3.808790
  H      2.741380    4.513110   -5.824700
  H      4.287550    4.521260   -6.614340
  H      2.347260    3.666590   -3.826640
  H      3.672830    3.851240   -2.703310
  H      3.358200    2.296200   -3.435380

 Total Charge           Charge          ....    0
 Multiplicity           Mult            ....    1
 Number of Electrons    NEL             ....   32
 Basis Dimension        Dim             ....  136

ORBITAL ENERGIES
----------------

  NO   OCC          E(Eh)            E(eV)
   0   2.0000     -14.405657      -391.9979
   1   2.0000     -10.279524      -279.7201
   2   2.0000     -10.248973      -278.8887
   3   2.0000     -10.187618      -277.2192
   4   2.0000      -0.998569       -27.1724
   5   2.0000      -0.836440       -22.7607
   6   2.0000      -0.765163       -20.8211
   7   2.0000      -0.642606       -17.4862
   8   2.0000      -0.594111       -16.1666
   9   2.0000      -0.546338       -14.8666
  10   2.0000      -0.501217       -13.6388
  11   2.0000      -0.465562       -12.6686
  12   2.0000      -0.461409       -12.5556
  13   2.0000      -0.421846       -11.4790
  14   2.0000      -0.402508       -10.9528
  15   2.0000      -0.251280        -6.8377
  16   0.0000       0.049642         1.3508
  17   0.0000       0.084369         2.2958
  18   0.0000       0.090755         2.4696
  19   0.0000       0.091394         2.4870
  20   0.0000       0.121407         3.3037

MULLIKEN ATOMIC CHARGES
-----------------------
   0 C :    0.989535
   1 C :   -0.314403
   2 N :    0.219894
   3 C :    0.496459
   4 H :   -0.481796
   5 H :   -0.234598
   6 H :   -0.126932
   7 H :   -0.220615
   8 H :   -0.211620
   9 H :   -0.053541
  10 H :   -0.062383
Sum of atomic charges:   -0.0000000

LOEWDIN ATOMIC CHARGES
----------------------
   0 C :    0.164646
   1 C :   -0.288090
   2 N :    0.167678
   3 C :    0.156431
   4 H :   -0.083645
   5 H :   -0.072340
   6 H :   -0.006565
   7 H :    0.001722
   8 H :   -0.028504
   9 H :   -0.005625
  10 H :   -0.005708

  Mayer bond orders larger than 0.100000
B(  0-C ,  1-C ) :   1.0627 B(  0-C ,  2-N ) :   0.1129 B(  0-C ,  3-C ) :   0.1211
B(  0-C ,  8-H ) :   0.6600 B(  0-C ,  9-H ) :   0.6925 B(  0-C , 10-H ) :   0.7044
B(  1-C ,  2-N ) :   1.0529 B(  1-C ,  3-C ) :   1.8302 B(  1-C ,  4-H ) :   0.2396
B(  1-C ,  5-H ) :   0.1552 B(  1-C ,  7-H ) :  -0.1626 B(  1-C ,  8-H ) :   0.3088
B(  1-C ,  9-H ) :   0.2061 B(  1-C , 10-H ) :   0.1911 B(  2-N ,  3-C ) :   0.2434
B(  2-N ,  6-H ) :   1.1183 B(  2-N ,  7-H ) :   1.3128 B(  3-C ,  4-H ) :   0.6817
B(  3-C ,  5-H ) :   0.7507 B(  6-H ,  7-H ) :  -0.1688

FINAL SINGLE POINT ENERGY      -173.035528057104

DIPOLE MOMENT
-------------
                                X             Y             Z
Electronic contribution:      0.19316       0.74233      -1.55101
Nuclear contribution   :     -0.80929      -0.53001       1.24477
                        -----------------------------------------
Total Dipole Moment    :     -0.61612       0.21232      -0.30624
                        -----------------------------------------
Magnitude (a.u.)       :      0.72005
Magnitude (Debye)      :      1.83022

Rotational constants in cm-1:     0.352070     0.305406     0.168593
Rotational constants in MHz : 10554.792117  9155.853997  5054.288053

                             ****ORCA TERMINATED NORMALLY****
TOTAL RUN TIME: 0 days 0 hours 0 minutes 16 seconds 552 msec
