                         Program Version 5.0.0 -  RELEASE  -
|  1> !CAM-B3LYP RIJCOSX def2-SVPD def2/J TightSCF xyzfile
|  2>
|  3> *xyzfile 0 1 D1.xyz
|  4>
|  5> %MaxCore 64000
|  6>
|  7> %pal nprocs 4
|  8> end
|  9>
| 10> %scf
| 11>   MaxIter 150
| 12> end
| 13>
| 14>
| 15>                          ****END OF INPUT****

CARTESIAN COORDINATES (ANGSTROEM)
---------------------------------
  C      3.343500    3.354571   -3.591998
  C      2.952633    1.863077   -3.574849
  C      4.129209    0.898394   -3.418950
  H      3.733687   -0.100605   -3.237633
  H      4.719095    0.862556   -4.339005
  C      5.017344    1.315212   -2.221305
  C      4.255868    3.703851   -4.726054
  C      3.734032    4.293783   -5.800770
  N      5.515039    3.407255   -4.637185
  H      6.149187    3.601203   -5.399053
  H      5.813584    2.899504   -3.808785
  H      2.741380    4.513109   -5.824701
  H      4.287548    4.521260   -6.614341
  H      2.278938    1.735250   -2.725496
  H      2.377466    1.625787   -4.475869
  F      4.737055    0.854112   -1.122825
  O      5.928146    2.168108   -2.491365
  H      3.861246    3.597252   -2.662979
  H      2.446493    3.973461   -3.656556

 Total Charge           Charge          ....    0
 Multiplicity           Mult            ....    1
 Number of Electrons    NEL             ....   70
 Basis Dimension        Dim             ....  266

ORBITAL ENERGIES
----------------

  NO   OCC          E(Eh)            E(eV)
   0   2.0000     -24.884681      -677.1466
   1   2.0000     -19.250796      -523.8408
   2   2.0000     -14.370513      -391.0415
   3   2.0000     -10.478642      -285.1383
   4   2.0000     -10.301318      -280.3131
   5   2.0000     -10.283230      -279.8209
   6   2.0000     -10.270082      -279.4631
   7   2.0000     -10.260968      -279.2151
   8   2.0000     -10.179966      -277.0110
   9   2.0000      -1.439616       -39.1739
  10   2.0000      -1.135955       -30.9109
  11   2.0000      -0.992283       -27.0014
  12   2.0000      -0.902927       -24.5699
  13   2.0000      -0.828671       -22.5493
  14   2.0000      -0.788274       -21.4500
  15   2.0000      -0.757463       -20.6116
  16   2.0000      -0.708462       -19.2782
  17   2.0000      -0.667520       -18.1641
  18   2.0000      -0.655415       -17.8347
  19   2.0000      -0.624040       -16.9810
  20   2.0000      -0.620340       -16.8803
  21   2.0000      -0.579810       -15.7774
  22   2.0000      -0.558233       -15.1903
  23   2.0000      -0.531871       -14.4730
  24   2.0000      -0.515839       -14.0367
  25   2.0000      -0.504476       -13.7275
  26   2.0000      -0.464994       -12.6531
  27   2.0000      -0.454760       -12.3746
  28   2.0000      -0.445227       -12.1153
  29   2.0000      -0.442311       -12.0359
  30   2.0000      -0.426002       -11.5921
  31   2.0000      -0.396965       -10.8020
  32   2.0000      -0.390908       -10.6371
  33   2.0000      -0.375407       -10.2153
  34   2.0000      -0.232262        -6.3202
  35   0.0000      -0.011725        -0.3191
  36   0.0000       0.036255         0.9866
  37   0.0000       0.066307         1.8043
  38   0.0000       0.069994         1.9046
  39   0.0000       0.076260         2.0751

MULLIKEN ATOMIC CHARGES
-----------------------
   0 C :    0.578294
   1 C :    0.120826
   2 C :    0.322105
   3 H :   -0.219036
   4 H :    0.081416
   5 C :    0.762095
   6 C :   -0.135331
   7 C :    0.459876
   8 N :    0.800473
   9 H :   -0.261477
  10 H :   -0.552333
  11 H :   -0.243096
  12 H :   -0.507542
  13 H :   -0.035545
  14 H :   -0.228525
  15 F :   -0.335329
  16 O :   -0.473304
  17 H :   -0.032564
  18 H :   -0.101004
Sum of atomic charges:   -0.0000000

LOEWDIN ATOMIC CHARGES
----------------------
   0 C :    0.020994
   1 C :    0.001343
   2 C :    0.064326
   3 H :    0.024758
   4 H :    0.035626
   5 C :    0.045273
   6 C :   -0.248169
   7 C :    0.170330
   8 N :    0.203504
   9 H :    0.016337
  10 H :   -0.145971
  11 H :   -0.093348
  12 H :   -0.094561
  13 H :    0.023371
  14 H :    0.033942
  15 F :    0.019222
  16 O :   -0.121829
  17 H :    0.017857
  18 H :    0.026995

  Mayer bond orders larger than 0.100000
B(  0-C ,  1-C ) :   1.1187 B(  0-C ,  6-C ) :   1.1322 B(  0-C ,  8-N ) :   0.1096
B(  0-C , 13-H ) :   0.1170 B(  0-C , 14-H ) :   0.1556 B(  0-C , 17-H ) :   0.5907
B(  0-C , 18-H ) :   0.7930 B(  1-C ,  2-C ) :   1.2477 B(  1-C ,  3-H ) :   0.2102
B(  1-C ,  4-H ) :   0.1758 B(  1-C , 13-H ) :   0.8163 B(  1-C , 14-H ) :   0.9299
B(  1-C , 17-H ) :   0.1800 B(  1-C , 18-H ) :   0.1629 B(  2-C ,  3-H ) :   0.7786
B(  2-C ,  4-H ) :   0.8277 B(  2-C ,  5-C ) :   1.0564 B(  2-C , 13-H ) :   0.1301
B(  3-H ,  5-C ) :   0.1106 B(  5-C , 15-F ) :   0.7677 B(  5-C , 16-O ) :   1.6323
B(  6-C ,  7-C ) :   1.5609 B(  6-C ,  8-N ) :   1.1612 B(  6-C ,  9-H ) :  -0.1016
B(  6-C , 12-H ) :   0.1720 B(  6-C , 17-H ) :   0.2317 B(  6-C , 18-H ) :   0.1779
B(  7-C ,  8-N ) :   0.1890 B(  7-C , 11-H ) :   0.9501 B(  7-C , 12-H ) :   0.5918
B(  8-N ,  9-H ) :   1.1920 B(  8-N , 10-H ) :   0.8929 B(  8-N , 16-O ) :  -0.1035
B(  9-H , 10-H ) :  -0.2161 B( 10-H , 16-O ) :   0.2185 B( 15-F , 16-O ) :   0.1087

FINAL SINGLE POINT ENERGY      -463.905848202060

DIPOLE MOMENT
-------------
                                X             Y             Z
Electronic contribution:      5.51082      -5.96642      10.53689
Nuclear contribution   :     -5.86483       4.68058     -10.07545
                        -----------------------------------------
Total Dipole Moment    :     -0.35401      -1.28584       0.46144
                        -----------------------------------------
Magnitude (a.u.)       :      1.41125
Magnitude (Debye)      :      3.58712

Rotational constants in cm-1:     0.107256     0.035474     0.030113
Rotational constants in MHz :  3215.453922  1063.481574   902.777619

                             ****ORCA TERMINATED NORMALLY****
TOTAL RUN TIME: 0 days 0 hours 1 minutes 26 seconds 549 msec
