                         Program Version 5.0.0 -  RELEASE  -
|  1> !wB97X-D3 RIJCOSX def2-SVP def2/J TightSCF
|  2> *xyz -1 1
|  3> C          4.93020       -7.37532       -2.64962
|  4> C          3.84189       -6.95161       -3.63283
|  5> H          3.45814       -5.95442       -3.40712
|  6> H          2.98848       -7.64361       -3.56708
|  7> S          4.31812       -6.91593       -5.36869
|  8> O          5.40615       -5.89948       -5.51297
|  9> O          3.11191       -6.44508       -6.04379
| 10> O          4.76340       -8.23942       -5.69863
| 11> H          5.27901       -8.35440       -2.90385
| 12> H          4.53000       -7.38577       -1.65734
| 13> H          5.74437       -6.68276       -2.69856
| 14> *
| 15>
| 16> %MaxCore 64000
| 17>
| 18> %pal nprocs 4
| 19> end
| 20>
| 21> %scf
| 22>   MaxIter 150
| 23> end
| 24>
| 25>
| 26>                          ****END OF INPUT****

CARTESIAN COORDINATES (ANGSTROEM)
---------------------------------
  C      4.930200   -7.375320   -2.649620
  C      3.841890   -6.951610   -3.632830
  H      3.458140   -5.954420   -3.407120
  H      2.988480   -7.643610   -3.567080
  S      4.318120   -6.915930   -5.368690
  O      5.406150   -5.899480   -5.512970
  O      3.111910   -6.445080   -6.043790
  O      4.763400   -8.239420   -5.698630
  H      5.279010   -8.354400   -2.903850
  H      4.530000   -7.385770   -1.657340
  H      5.744370   -6.682760   -2.698560

 Total Charge           Charge          ....   -1
 Multiplicity           Mult            ....    1
 Number of Electrons    NEL             ....   58
 Basis Dimension        Dim             ....  113

ORBITAL ENERGIES
----------------

  NO   OCC          E(Eh)            E(eV)
   0   2.0000     -88.938470     -2420.1388
   1   2.0000     -18.995084      -516.8825
   2   2.0000     -18.983972      -516.5801
   3   2.0000     -18.975010      -516.3363
   4   2.0000     -10.143636      -276.0224
   5   2.0000     -10.140683      -275.9420
   6   2.0000      -8.018943      -218.2065
   7   2.0000      -5.978004      -162.6697
   8   2.0000      -5.977723      -162.6621
   9   2.0000      -5.977691      -162.6612
  10   2.0000      -1.017678       -27.6924
  11   2.0000      -0.876725       -23.8569
  12   2.0000      -0.844660       -22.9844
  13   2.0000      -0.737659       -20.0727
  14   2.0000      -0.607089       -16.5197
  15   2.0000      -0.471498       -12.8301
  16   2.0000      -0.413386       -11.2488
  17   2.0000      -0.400730       -10.9044
  18   2.0000      -0.363754        -9.8983
  19   2.0000      -0.342563        -9.3216
  20   2.0000      -0.338423        -9.2090
  21   2.0000      -0.316068        -8.6006
  22   2.0000      -0.298768        -8.1299
  23   2.0000      -0.219437        -5.9712
  24   2.0000      -0.217125        -5.9083
  25   2.0000      -0.184359        -5.0167
  26   2.0000      -0.174429        -4.7465
  27   2.0000      -0.164679        -4.4811
  28   2.0000      -0.127424        -3.4674
  29   0.0000       0.284674         7.7464
  30   0.0000       0.338271         9.2048
  31   0.0000       0.344031         9.3616
  32   0.0000       0.351266         9.5584
  33   0.0000       0.377748        10.2790

MULLIKEN ATOMIC CHARGES
-----------------------
   0 C :   -0.007218
   1 C :   -0.140528
   2 H :    0.021341
   3 H :    0.017057
   4 S :    0.884823
   5 O :   -0.632512
   6 O :   -0.600176
   7 O :   -0.571998
   8 H :    0.021785
   9 H :   -0.014940
  10 H :    0.022366
Sum of atomic charges:   -1.0000000

LOEWDIN ATOMIC CHARGES
----------------------
   0 C :   -0.076289
   1 C :   -0.190712
   2 H :    0.012073
   3 H :    0.011102
   4 S :    1.108532
   5 O :   -0.668542
   6 O :   -0.633092
   7 O :   -0.605453
   8 H :    0.018661
   9 H :    0.004838
  10 H :    0.018882

  Mayer bond orders larger than 0.100000
B(  0-C ,  1-C ) :   1.0420 B(  0-C ,  8-H ) :   0.9707 B(  0-C ,  9-H ) :   0.9691
B(  0-C , 10-H ) :   0.9707 B(  1-C ,  2-H ) :   0.9500 B(  1-C ,  3-H ) :   0.9470
B(  1-C ,  4-S ) :   0.8917 B(  4-S ,  5-O ) :   1.5751 B(  4-S ,  6-O ) :   1.6165
B(  4-S ,  7-O ) :   1.6391

Dispersion correction           -0.002914003
FINAL SINGLE POINT ENERGY      -702.636844544030

DIPOLE MOMENT
-------------
                                X             Y             Z
Electronic contribution:     -0.35839       0.80944      -7.88177
Nuclear contribution   :      0.07504      -1.14369       9.75001
                        -----------------------------------------
Total Dipole Moment    :     -0.28335      -0.33425       1.86823
                        -----------------------------------------
Magnitude (a.u.)       :      1.91893
Magnitude (Debye)      :      4.87754

Rotational constants in cm-1:     0.160553     0.082191     0.080550
Rotational constants in MHz :  4813.250478  2464.013016  2414.833054

                             ****ORCA TERMINATED NORMALLY****
TOTAL RUN TIME: 0 days 0 hours 0 minutes 17 seconds 358 msec
