                         Program Version 5.0.0 -  RELEASE  -
|  1> !wB97X-D3 RIJCOSX def2-SVP def2/J TightSCF
|  2> *xyz 1 1
|  3> C          5.55821       -1.99291       -6.21505
|  4> C          4.18188       -2.58967       -6.29891
|  5> N          3.14587       -1.76843       -6.48675
|  6> N          4.01910       -3.86431       -6.22743
|  7> H          4.76849       -4.59115       -5.99077
|  8> H          3.12241       -4.33339       -6.31462
|  9> H          3.28164       -0.77779       -6.56655
| 10> H          2.21255       -2.13419       -6.56225
| 11> C          6.41926       -2.54294       -5.07763
| 12> H          6.03683       -2.19819       -7.17685
| 13> H          5.46761       -0.90737       -6.12797
| 14> H          6.50056       -3.60553       -5.17358
| 15> H          5.96544       -2.30329       -4.13874
| 16> H          7.39438       -2.10494       -5.12457
| 17> *
| 18>
| 19> %MaxCore 64000
| 20>
| 21> %pal nprocs 4
| 22> end
| 23>
| 24> %scf
| 25>   MaxIter 150
| 26> end
| 27>
| 28>
| 29>                          ****END OF INPUT****

CARTESIAN COORDINATES (ANGSTROEM)
---------------------------------
  C      5.558210   -1.992910   -6.215050
  C      4.181880   -2.589670   -6.298910
  N      3.145870   -1.768430   -6.486750
  N      4.019100   -3.864310   -6.227430
  H      4.768490   -4.591150   -5.990770
  H      3.122410   -4.333390   -6.314620
  H      3.281640   -0.777790   -6.566550
  H      2.212550   -2.134190   -6.562250
  C      6.419260   -2.542940   -5.077630
  H      6.036830   -2.198190   -7.176850
  H      5.467610   -0.907370   -6.127970
  H      6.500560   -3.605530   -5.173580
  H      5.965440   -2.303290   -4.138740
  H      7.394380   -2.104940   -5.124570

 Total Charge           Charge          ....    1
 Multiplicity           Mult            ....    1
 Number of Electrons    NEL             ....   40
 Basis Dimension        Dim             ....  115

ORBITAL ENERGIES
----------------

  NO   OCC          E(Eh)            E(eV)
   0   2.0000     -14.689340      -399.7173
   1   2.0000     -14.676927      -399.3795
   2   2.0000     -10.615659      -288.8668
   3   2.0000     -10.486642      -285.3560
   4   2.0000     -10.444582      -284.2115
   5   2.0000      -1.314419       -35.7672
   6   2.0000      -1.212834       -33.0029
   7   2.0000      -1.079447       -29.3732
   8   2.0000      -0.972495       -26.4629
   9   2.0000      -0.921529       -25.0761
  10   2.0000      -0.878267       -23.8989
  11   2.0000      -0.848994       -23.1023
  12   2.0000      -0.797689       -21.7062
  13   2.0000      -0.757587       -20.6150
  14   2.0000      -0.722457       -19.6591
  15   2.0000      -0.702669       -19.1206
  16   2.0000      -0.645072       -17.5533
  17   2.0000      -0.634715       -17.2715
  18   2.0000      -0.618235       -16.8230
  19   2.0000      -0.585272       -15.9261
  20   0.0000      -0.117348        -3.1932
  21   0.0000      -0.055570        -1.5121
  22   0.0000      -0.019535        -0.5316
  23   0.0000      -0.007827        -0.2130
  24   0.0000       0.013645         0.3713

MULLIKEN ATOMIC CHARGES
-----------------------
   0 C :   -0.051648
   1 C :   -0.018072
   2 N :   -0.031417
   3 N :   -0.041852
   4 H :    0.225397
   5 H :    0.187271
   6 H :    0.190638
   7 H :    0.177846
   8 C :   -0.038803
   9 H :    0.121446
  10 H :    0.073057
  11 H :    0.041585
  12 H :    0.072031
  13 H :    0.092522
Sum of atomic charges:    1.0000000

LOEWDIN ATOMIC CHARGES
----------------------
   0 C :   -0.036223
   1 C :    0.157680
   2 N :    0.084471
   3 N :    0.081230
   4 H :    0.151997
   5 H :    0.116329
   6 H :    0.116216
   7 H :    0.108227
   8 C :   -0.030309
   9 H :    0.073085
  10 H :    0.053807
  11 H :    0.026140
  12 H :    0.041853
  13 H :    0.055496

  Mayer bond orders larger than 0.100000
B(  0-C ,  1-C ) :   1.0060 B(  0-C ,  8-C ) :   1.0726 B(  0-C ,  9-H ) :   0.9174
B(  0-C , 10-H ) :   0.9328 B(  1-C ,  2-N ) :   1.4951 B(  1-C ,  3-N ) :   1.5198
B(  2-N ,  6-H ) :   0.9206 B(  2-N ,  7-H ) :   0.9333 B(  3-N ,  4-H ) :   0.9082
B(  3-N ,  5-H ) :   0.9296 B(  8-C , 11-H ) :   0.9721 B(  8-C , 12-H ) :   0.9766
B(  8-C , 13-H ) :   0.9618

Dispersion correction           -0.002912194
FINAL SINGLE POINT ENERGY      -228.803161093244

DIPOLE MOMENT
-------------
                                X             Y             Z
Electronic contribution:     -3.81612      -0.49653      -1.58209
Nuclear contribution   :      2.76041       0.12669       1.26265
                        -----------------------------------------
Total Dipole Moment    :     -1.05571      -0.36984      -0.31944
                        -----------------------------------------
Magnitude (a.u.)       :      1.16333
Magnitude (Debye)      :      2.95696

Rotational constants in cm-1:     0.280918     0.124524     0.094121
Rotational constants in MHz :  8421.697738  3733.133254  2821.684112

                             ****ORCA TERMINATED NORMALLY****
TOTAL RUN TIME: 0 days 0 hours 0 minutes 18 seconds 691 msec
