                         Program Version 5.0.0 -  RELEASE  -
|  1> !wB97X-D3 RIJCOSX def2-SVP def2/J TightSCF
|  2> *xyz 0 1
|  3> C          4.93020       -7.37532       -2.64962
|  4> C          3.84189       -6.95161       -3.63283
|  5> H          3.45814       -5.95442       -3.40712
|  6> H          2.98848       -7.64361       -3.56708
|  7> S          4.31812       -6.91593       -5.36869
|  8> F          5.40615       -5.89948       -5.51297
|  9> O          3.11191       -6.44508       -6.04379
| 10> O          4.76340       -8.23942       -5.69863
| 11> H          5.27901       -8.35440       -2.90385
| 12> H          4.53000       -7.38577       -1.65734
| 13> H          5.74437       -6.68276       -2.69856
| 14> *
| 15>
| 16> %MaxCore 64000
| 17>
| 18> %pal nprocs 4
| 19> end
| 20>
| 21> %scf
| 22>   MaxIter 150
| 23> end
| 24>
| 25>
| 26>                          ****END OF INPUT****

CARTESIAN COORDINATES (ANGSTROEM)
---------------------------------
  C      4.930200   -7.375320   -2.649620
  C      3.841890   -6.951610   -3.632830
  H      3.458140   -5.954420   -3.407120
  H      2.988480   -7.643610   -3.567080
  S      4.318120   -6.915930   -5.368690
  F      5.406150   -5.899480   -5.512970
  O      3.111910   -6.445080   -6.043790
  O      4.763400   -8.239420   -5.698630
  H      5.279010   -8.354400   -2.903850
  H      4.530000   -7.385770   -1.657340
  H      5.744370   -6.682760   -2.698560

 Total Charge           Charge          ....    0
 Multiplicity           Mult            ....    1
 Number of Electrons    NEL             ....   58
 Basis Dimension        Dim             ....  113

ORBITAL ENERGIES
----------------

  NO   OCC          E(Eh)            E(eV)
   0   2.0000     -89.211556     -2427.5699
   1   2.0000     -24.883681      -677.1194
   2   2.0000     -19.248086      -523.7670
   3   2.0000     -19.236816      -523.4604
   4   2.0000     -10.351610      -281.6816
   5   2.0000     -10.313440      -280.6430
   6   2.0000      -8.294282      -225.6989
   7   2.0000      -6.257194      -170.2669
   8   2.0000      -6.250960      -170.0973
   9   2.0000      -6.249942      -170.0696
  10   2.0000      -1.444388       -39.3038
  11   2.0000      -1.224132       -33.3103
  12   2.0000      -1.124462       -30.5982
  13   2.0000      -0.937049       -25.4984
  14   2.0000      -0.825478       -22.4624
  15   2.0000      -0.777278       -21.1508
  16   2.0000      -0.681378       -18.5412
  17   2.0000      -0.658181       -17.9100
  18   2.0000      -0.643081       -17.4991
  19   2.0000      -0.595144       -16.1947
  20   2.0000      -0.577559       -15.7162
  21   2.0000      -0.550776       -14.9874
  22   2.0000      -0.530588       -14.4380
  23   2.0000      -0.505354       -13.7514
  24   2.0000      -0.499189       -13.5836
  25   2.0000      -0.472428       -12.8554
  26   2.0000      -0.428464       -11.6591
  27   2.0000      -0.415615       -11.3095
  28   2.0000      -0.404582       -11.0092
  29   0.0000       0.104177         2.8348
  30   0.0000       0.142588         3.8800
  31   0.0000       0.169229         4.6050
  32   0.0000       0.177476         4.8294
  33   0.0000       0.182194         4.9577

MULLIKEN ATOMIC CHARGES
-----------------------
   0 C :   -0.033701
   1 C :   -0.182268
   2 H :    0.087376
   3 H :    0.114795
   4 S :    0.969789
   5 F :   -0.223445
   6 O :   -0.463915
   7 O :   -0.437472
   8 H :    0.064691
   9 H :    0.057455
  10 H :    0.046695
Sum of atomic charges:    0.0000000

LOEWDIN ATOMIC CHARGES
----------------------
   0 C :   -0.063564
   1 C :   -0.152871
   2 H :    0.038947
   3 H :    0.058479
   4 S :    1.173936
   5 F :   -0.170743
   6 O :   -0.507250
   7 O :   -0.479737
   8 H :    0.035354
   9 H :    0.038706
  10 H :    0.028742

  Mayer bond orders larger than 0.100000
B(  0-C ,  1-C ) :   1.0355 B(  0-C ,  8-H ) :   0.9716 B(  0-C ,  9-H ) :   0.9667
B(  0-C , 10-H ) :   0.9763 B(  1-C ,  2-H ) :   0.9390 B(  1-C ,  3-H ) :   0.9374
B(  1-C ,  4-S ) :   0.9187 B(  4-S ,  5-F ) :   0.9636 B(  4-S ,  6-O ) :   1.7704
B(  4-S ,  7-O ) :   1.7948

Dispersion correction           -0.002870941
FINAL SINGLE POINT ENERGY      -727.156017902963

DIPOLE MOMENT
-------------
                                X             Y             Z
Electronic contribution:      1.30600       2.63633      -8.77205
Nuclear contribution   :     -0.98922      -2.24849      10.35711
                        -----------------------------------------
Total Dipole Moment    :      0.31678       0.38783       1.58506
                        -----------------------------------------
Magnitude (a.u.)       :      1.66228
Magnitude (Debye)      :      4.22518

Rotational constants in cm-1:     0.151436     0.080885     0.078670
Rotational constants in MHz :  4539.936009  2424.868817  2358.476812

                             ****ORCA TERMINATED NORMALLY****
TOTAL RUN TIME: 0 days 0 hours 0 minutes 17 seconds 978 msec
