                         Program Version 5.0.0 -  RELEASE  -
|  1> !wB97X-D3 RIJCOSX def2-SVP def2/J TightSCF
|  2> *xyz 0 1
|  3> C          5.55821       -1.99291       -6.21505
|  4> C          4.18188       -2.58967       -6.29891
|  5> C          3.14587       -1.76843       -6.48675
|  6> N          4.01910       -3.86431       -6.22743
|  7> H          4.76849       -4.59115       -5.99077
|  8> H          3.12241       -4.33339       -6.31462
|  9> H          3.28164       -0.77779       -6.56655
| 10> H          2.21255       -2.13419       -6.56225
| 11> C          6.41926       -2.54294       -5.07763
| 12> H          6.03683       -2.19819       -7.17685
| 13> H          5.46761       -0.90737       -6.12797
| 14> H          6.50056       -3.60553       -5.17358
| 15> H          5.96544       -2.30329       -4.13874
| 16> H          7.39438       -2.10494       -5.12457
| 17> *
| 18>
| 19> %MaxCore 64000
| 20>
| 21> %pal nprocs 4
| 22> end
| 23>
| 24> %scf
| 25>   MaxIter 150
| 26> end
| 27>
| 28>
| 29>                          ****END OF INPUT****

CARTESIAN COORDINATES (ANGSTROEM)
---------------------------------
  C      5.558210   -1.992910   -6.215050
  C      4.181880   -2.589670   -6.298910
  C      3.145870   -1.768430   -6.486750
  N      4.019100   -3.864310   -6.227430
  H      4.768490   -4.591150   -5.990770
  H      3.122410   -4.333390   -6.314620
  H      3.281640   -0.777790   -6.566550
  H      2.212550   -2.134190   -6.562250
  C      6.419260   -2.542940   -5.077630
  H      6.036830   -2.198190   -7.176850
  H      5.467610   -0.907370   -6.127970
  H      6.500560   -3.605530   -5.173580
  H      5.965440   -2.303290   -4.138740
  H      7.394380   -2.104940   -5.124570

 Total Charge           Charge          ....    0
 Multiplicity           Mult            ....    1
 Number of Electrons    NEL             ....   40
 Basis Dimension        Dim             ....  115

ORBITAL ENERGIES
----------------

  NO   OCC          E(Eh)            E(eV)
   0   2.0000     -14.438098      -392.8806
   1   2.0000     -10.306426      -280.4521
   2   2.0000     -10.285081      -279.8713
   3   2.0000     -10.277649      -279.6691
   4   2.0000     -10.211175      -277.8602
   5   2.0000      -1.036587       -28.2070
   6   2.0000      -0.884674       -24.0732
   7   2.0000      -0.820614       -22.3301
   8   2.0000      -0.733346       -19.9554
   9   2.0000      -0.681360       -18.5408
  10   2.0000      -0.614761       -16.7285
  11   2.0000      -0.570089       -15.5129
  12   2.0000      -0.540374       -14.7043
  13   2.0000      -0.518731       -14.1154
  14   2.0000      -0.484761       -13.1910
  15   2.0000      -0.475662       -12.9434
  16   2.0000      -0.450951       -12.2710
  17   2.0000      -0.425459       -11.5773
  18   2.0000      -0.419386       -11.4121
  19   2.0000      -0.265039        -7.2121
  20   0.0000       0.128646         3.5006
  21   0.0000       0.146860         3.9963
  22   0.0000       0.178951         4.8695
  23   0.0000       0.182794         4.9741
  24   0.0000       0.208538         5.6746

MULLIKEN ATOMIC CHARGES
-----------------------
   0 C :    0.008185
   1 C :   -0.122372
   2 C :   -0.073586
   3 N :   -0.115839
   4 H :    0.136298
   5 H :    0.127640
   6 H :   -0.030517
   7 H :   -0.041057
   8 C :   -0.028308
   9 H :    0.038427
  10 H :    0.026321
  11 H :    0.007255
  12 H :    0.036230
  13 H :    0.031324
Sum of atomic charges:   -0.0000000

LOEWDIN ATOMIC CHARGES
----------------------
   0 C :   -0.030665
   1 C :    0.001271
   2 C :   -0.188361
   3 N :   -0.017052
   4 H :    0.091765
   5 H :    0.079328
   6 H :   -0.004218
   7 H :   -0.010190
   8 C :   -0.053996
   9 H :    0.031346
  10 H :    0.035153
  11 H :    0.012633
  12 H :    0.026797
  13 H :    0.026189

  Mayer bond orders larger than 0.100000
B(  0-C ,  1-C ) :   1.0135 B(  0-C ,  8-C ) :   1.0780 B(  0-C ,  9-H ) :   0.9402
B(  0-C , 10-H ) :   0.9420 B(  1-C ,  2-C ) :   1.8479 B(  1-C ,  3-N ) :   1.2559
B(  2-C ,  6-H ) :   0.9500 B(  2-C ,  7-H ) :   0.9612 B(  3-N ,  4-H ) :   0.9477
B(  3-N ,  5-H ) :   0.9509 B(  8-C , 11-H ) :   0.9730 B(  8-C , 12-H ) :   0.9760
B(  8-C , 13-H ) :   0.9712

Dispersion correction           -0.002924704
FINAL SINGLE POINT ENERGY      -212.338981789084

DIPOLE MOMENT
-------------
                                X             Y             Z
Electronic contribution:     -2.00250      -1.13672      -1.01593
Nuclear contribution   :      2.41345       0.31141       1.16343
                        -----------------------------------------
Total Dipole Moment    :      0.41095      -0.82531       0.14751
                        -----------------------------------------
Magnitude (a.u.)       :      0.93369
Magnitude (Debye)      :      2.37325

Rotational constants in cm-1:     0.287957     0.129204     0.097498
Rotational constants in MHz :  8632.737925  3873.424745  2922.919500

                             ****ORCA TERMINATED NORMALLY****
TOTAL RUN TIME: 0 days 0 hours 0 minutes 19 seconds 398 msec
