                         Program Version 5.0.0 -  RELEASE  -
|  1> !wB97X-D3 RIJCOSX def2-SVP def2/J TightSCF
|  2> *xyz 0 1
|  3> C          5.55821       -1.99291       -6.21505
|  4> C          4.18188       -2.58967       -6.29891
|  5> N          3.14587       -1.76843       -6.48675
|  6> C          4.01910       -3.86431       -6.22743
|  7> H          4.76849       -4.59115       -5.99077
|  8> H          3.12241       -4.33339       -6.31462
|  9> H          3.28164       -0.77779       -6.56655
| 10> H          2.21255       -2.13419       -6.56225
| 11> C          6.41926       -2.54294       -5.07763
| 12> H          6.03683       -2.19819       -7.17685
| 13> H          5.46761       -0.90737       -6.12797
| 14> H          6.50056       -3.60553       -5.17358
| 15> H          5.96544       -2.30329       -4.13874
| 16> H          7.39438       -2.10494       -5.12457
| 17> *
| 18>
| 19> %MaxCore 64000
| 20>
| 21> %pal nprocs 4
| 22> end
| 23>
| 24> %scf
| 25>   MaxIter 150
| 26> end
| 27>
| 28>
| 29>                          ****END OF INPUT****

CARTESIAN COORDINATES (ANGSTROEM)
---------------------------------
  C      5.558210   -1.992910   -6.215050
  C      4.181880   -2.589670   -6.298910
  N      3.145870   -1.768430   -6.486750
  C      4.019100   -3.864310   -6.227430
  H      4.768490   -4.591150   -5.990770
  H      3.122410   -4.333390   -6.314620
  H      3.281640   -0.777790   -6.566550
  H      2.212550   -2.134190   -6.562250
  C      6.419260   -2.542940   -5.077630
  H      6.036830   -2.198190   -7.176850
  H      5.467610   -0.907370   -6.127970
  H      6.500560   -3.605530   -5.173580
  H      5.965440   -2.303290   -4.138740
  H      7.394380   -2.104940   -5.124570

 Total Charge           Charge          ....    0
 Multiplicity           Mult            ....    1
 Number of Electrons    NEL             ....   40
 Basis Dimension        Dim             ....  115

ORBITAL ENERGIES
----------------

  NO   OCC          E(Eh)            E(eV)
   0   2.0000     -14.425953      -392.5501
   1   2.0000     -10.303929      -280.3842
   2   2.0000     -10.286165      -279.9008
   3   2.0000     -10.270962      -279.4871
   4   2.0000     -10.219143      -278.0770
   5   2.0000      -1.025557       -27.9068
   6   2.0000      -0.887654       -24.1543
   7   2.0000      -0.816263       -22.2117
   8   2.0000      -0.744257       -20.2523
   9   2.0000      -0.655214       -17.8293
  10   2.0000      -0.619014       -16.8442
  11   2.0000      -0.583762       -15.8850
  12   2.0000      -0.545886       -14.8543
  13   2.0000      -0.513342       -13.9688
  14   2.0000      -0.479461       -13.0468
  15   2.0000      -0.464624       -12.6431
  16   2.0000      -0.443044       -12.0558
  17   2.0000      -0.426020       -11.5926
  18   2.0000      -0.416736       -11.3400
  19   2.0000      -0.273946        -7.4544
  20   0.0000       0.140669         3.8278
  21   0.0000       0.149468         4.0672
  22   0.0000       0.181265         4.9325
  23   0.0000       0.188489         5.1290
  24   0.0000       0.209637         5.7045

MULLIKEN ATOMIC CHARGES
-----------------------
   0 C :    0.005917
   1 C :   -0.062888
   2 N :   -0.120723
   3 C :   -0.147783
   4 H :    0.002020
   5 H :   -0.030983
   6 H :    0.114115
   7 H :    0.120023
   8 C :   -0.020171
   9 H :    0.050078
  10 H :    0.001312
  11 H :    0.034502
  12 H :    0.031281
  13 H :    0.023298
Sum of atomic charges:    0.0000000

LOEWDIN ATOMIC CHARGES
----------------------
   0 C :   -0.033487
   1 C :    0.008254
   2 N :   -0.019657
   3 C :   -0.186494
   4 H :    0.013592
   5 H :   -0.004665
   6 H :    0.065328
   7 H :    0.074245
   8 C :   -0.043851
   9 H :    0.038440
  10 H :    0.016976
  11 H :    0.024277
  12 H :    0.025228
  13 H :    0.021813

  Mayer bond orders larger than 0.100000
B(  0-C ,  1-C ) :   0.9829 B(  0-C ,  8-C ) :   1.0970 B(  0-C ,  9-H ) :   0.9400
B(  0-C , 10-H ) :   0.9444 B(  1-C ,  2-N ) :   1.2432 B(  1-C ,  3-C ) :   1.8775
B(  2-N ,  6-H ) :   0.9549 B(  2-N ,  7-H ) :   0.9539 B(  3-C ,  4-H ) :   0.9660
B(  3-C ,  5-H ) :   0.9613 B(  8-C , 11-H ) :   0.9737 B(  8-C , 12-H ) :   0.9775
B(  8-C , 13-H ) :   0.9707

Dispersion correction           -0.002898264
FINAL SINGLE POINT ENERGY      -212.349209404954

DIPOLE MOMENT
-------------
                                X             Y             Z
Electronic contribution:     -2.82143       0.85880      -1.29877
Nuclear contribution   :      2.61570      -0.17401       1.22349
                        -----------------------------------------
Total Dipole Moment    :     -0.20572       0.68478      -0.07528
                        -----------------------------------------
Magnitude (a.u.)       :      0.71897
Magnitude (Debye)      :      1.82747

Rotational constants in cm-1:     0.298189     0.125314     0.096441
Rotational constants in MHz :  8939.495008  3756.825352  2891.223400

                             ****ORCA TERMINATED NORMALLY****
TOTAL RUN TIME: 0 days 0 hours 0 minutes 19 seconds 728 msec
