                         Program Version 5.0.0 -  RELEASE  -
|  1> !wB97X-D3 RIJCOSX def2-SVP def2/J TightSCF
|  2> *xyz 0 1
|  3> C          4.93020       -7.37532       -2.64962
|  4> C          3.84189       -6.95161       -3.63283
|  5> H          3.45814       -5.95442       -3.40712
|  6> H          2.98848       -7.64361       -3.56708
|  7> S          4.31812       -6.91593       -5.36869
|  8> O          5.40615       -5.89948       -5.51297
|  9> O          3.11191       -6.44508       -6.04379
| 10> F          4.76340       -8.23942       -5.69863
| 11> H          5.27901       -8.35440       -2.90385
| 12> H          4.53000       -7.38577       -1.65734
| 13> H          5.74437       -6.68276       -2.69856
| 14> *
| 15>
| 16> %MaxCore 64000
| 17>
| 18> %pal nprocs 4
| 19> end
| 20>
| 21> %scf
| 22>   MaxIter 150
| 23> end
| 24>
| 25>
| 26>                          ****END OF INPUT****

CARTESIAN COORDINATES (ANGSTROEM)
---------------------------------
  C      4.930200   -7.375320   -2.649620
  C      3.841890   -6.951610   -3.632830
  H      3.458140   -5.954420   -3.407120
  H      2.988480   -7.643610   -3.567080
  S      4.318120   -6.915930   -5.368690
  O      5.406150   -5.899480   -5.512970
  O      3.111910   -6.445080   -6.043790
  F      4.763400   -8.239420   -5.698630
  H      5.279010   -8.354400   -2.903850
  H      4.530000   -7.385770   -1.657340
  H      5.744370   -6.682760   -2.698560

 Total Charge           Charge          ....    0
 Multiplicity           Mult            ....    1
 Number of Electrons    NEL             ....   58
 Basis Dimension        Dim             ....  113

ORBITAL ENERGIES
----------------

  NO   OCC          E(Eh)            E(eV)
   0   2.0000     -89.213583     -2427.6250
   1   2.0000     -24.912995      -677.9171
   2   2.0000     -19.236469      -523.4509
   3   2.0000     -19.228631      -523.2377
   4   2.0000     -10.352575      -281.7079
   5   2.0000     -10.314420      -280.6696
   6   2.0000      -8.296521      -225.7598
   7   2.0000      -6.259817      -170.3383
   8   2.0000      -6.252859      -170.1489
   9   2.0000      -6.251812      -170.1204
  10   2.0000      -1.495586       -40.6970
  11   2.0000      -1.205394       -32.8004
  12   2.0000      -1.096347       -29.8331
  13   2.0000      -0.939291       -25.5594
  14   2.0000      -0.842504       -22.9257
  15   2.0000      -0.789399       -21.4807
  16   2.0000      -0.705432       -19.1958
  17   2.0000      -0.693476       -18.8704
  18   2.0000      -0.647274       -17.6132
  19   2.0000      -0.595702       -16.2099
  20   2.0000      -0.576255       -15.6807
  21   2.0000      -0.547519       -14.8988
  22   2.0000      -0.523628       -14.2486
  23   2.0000      -0.505986       -13.7686
  24   2.0000      -0.493130       -13.4188
  25   2.0000      -0.465320       -12.6620
  26   2.0000      -0.413791       -11.2598
  27   2.0000      -0.406429       -11.0595
  28   2.0000      -0.384109       -10.4521
  29   0.0000       0.110939         3.0188
  30   0.0000       0.139641         3.7998
  31   0.0000       0.162886         4.4324
  32   0.0000       0.176728         4.8090
  33   0.0000       0.178761         4.8643

MULLIKEN ATOMIC CHARGES
-----------------------
   0 C :   -0.033745
   1 C :   -0.180193
   2 H :    0.114509
   3 H :    0.086940
   4 S :    0.956696
   5 O :   -0.489722
   6 O :   -0.456864
   7 F :   -0.166151
   8 H :    0.043169
   9 H :    0.058213
  10 H :    0.067147
Sum of atomic charges:    0.0000000

LOEWDIN ATOMIC CHARGES
----------------------
   0 C :   -0.063796
   1 C :   -0.152745
   2 H :    0.056869
   3 H :    0.040070
   4 S :    1.166456
   5 O :   -0.536837
   6 O :   -0.501909
   7 F :   -0.110738
   8 H :    0.027299
   9 H :    0.038994
  10 H :    0.036338

  Mayer bond orders larger than 0.100000
B(  0-C ,  1-C ) :   1.0345 B(  0-C ,  8-H ) :   0.9756 B(  0-C ,  9-H ) :   0.9666
B(  0-C , 10-H ) :   0.9719 B(  1-C ,  2-H ) :   0.9385 B(  1-C ,  3-H ) :   0.9365
B(  1-C ,  4-S ) :   0.9154 B(  4-S ,  5-O ) :   1.7273 B(  4-S ,  6-O ) :   1.7652
B(  4-S ,  7-F ) :   1.0288

Dispersion correction           -0.002878280
FINAL SINGLE POINT ENERGY      -727.130895100781

DIPOLE MOMENT
-------------
                                X             Y             Z
Electronic contribution:      0.20367      -1.34271      -9.09625
Nuclear contribution   :     -0.31946       0.18980      10.55057
                        -----------------------------------------
Total Dipole Moment    :     -0.11579      -1.15292       1.45432
                        -----------------------------------------
Magnitude (a.u.)       :      1.85948
Magnitude (Debye)      :      4.72643

Rotational constants in cm-1:     0.151421     0.081183     0.078684
Rotational constants in MHz :  4539.489207  2433.790160  2358.892966

                             ****ORCA TERMINATED NORMALLY****
TOTAL RUN TIME: 0 days 0 hours 0 minutes 19 seconds 273 msec
