                         Program Version 5.0.0 -  RELEASE  -
|  1> !wB97X-D3 RIJCOSX def2-SVP def2/J TightSCF xyzfile
|  2>
|  3> *xyzfile 0 1 D1.xyz
|  4>
|  5> %MaxCore 64000
|  6>
|  7> %pal nprocs 18
|  8> end
|  9>
| 10> %scf
| 11>   MaxIter 150
| 12> end
| 13>
| 14>
| 15>                          ****END OF INPUT****

CARTESIAN COORDINATES (ANGSTROEM)
---------------------------------
  C      5.558206   -1.992914   -6.215054
  C      4.930199   -7.375319   -2.649623
  C      3.841892   -6.951611   -3.632829
  H      3.458144   -5.954425   -3.407121
  H      2.988484   -7.643606   -3.567078
  S      4.318115   -6.915930   -5.368692
  C      4.181880   -2.589671   -6.298911
  C      3.145873   -1.768431   -6.486753
  N      4.019102   -3.864307   -6.227427
  H      4.768490   -4.591153   -5.990773
  H      3.122405   -4.333392   -6.314620
  H      3.281635   -0.777786   -6.566549
  H      2.212549   -2.134193   -6.562246
  F      5.406154   -5.899480   -5.512972
  O      3.111910   -6.445079   -6.043792
  C      6.419260   -2.542944   -5.077630
  C      5.872267   -5.002756   -2.427819
  C      6.173994   -6.485522   -2.606315
  H      6.734852   -6.613767   -3.534015
  H      6.821463   -6.831018   -1.793617
  H      4.469612   -7.406168   -1.655876
  H      5.230134   -8.398678   -2.885906
  C      5.896512   -2.169314   -3.694552
  H      7.428880   -2.143665   -5.208078
  H      6.505894   -3.627541   -5.175502
  C      6.807804   -2.623428   -2.551019
  H      4.894708   -2.589732   -3.557501
  H      5.778823   -1.081255   -3.635790
  C      7.111544   -4.122463   -2.520363
  H      7.751615   -2.071393   -2.614406
  H      6.345837   -2.326401   -1.604086
  H      5.362882   -4.828697   -1.471335
  H      5.174429   -4.702577   -3.211298
  H      7.778329   -4.329347   -1.677651
  H      7.673189   -4.402845   -3.417586
  O      4.763396   -8.239424   -5.698629
  H      6.036826   -2.198189   -7.176852
  H      5.467610   -0.907371   -6.127968

 Total Charge           Charge          ....    0
 Multiplicity           Mult            ....    1
 Number of Electrons    NEL             ....  136
 Basis Dimension        Dim             ....  338

ORBITAL ENERGIES
----------------

  NO   OCC          E(Eh)            E(eV)
   0   2.0000     -89.235231     -2428.2141
   1   2.0000     -24.921465      -678.1475
   2   2.0000     -19.269850      -524.3593
   3   2.0000     -19.262820      -524.1680
   4   2.0000     -14.412917      -392.1954
   5   2.0000     -10.362700      -281.9834
   6   2.0000     -10.327686      -281.0306
   7   2.0000     -10.310600      -280.5657
   8   2.0000     -10.301431      -280.3162
   9   2.0000     -10.295173      -280.1459
  10   2.0000     -10.293478      -280.0998
  11   2.0000     -10.287765      -279.9443
  12   2.0000     -10.286031      -279.8971
  13   2.0000     -10.282247      -279.7942
  14   2.0000     -10.278904      -279.7032
  15   2.0000     -10.201639      -277.6007
  16   2.0000      -8.317869      -226.3407
  17   2.0000      -6.281228      -170.9209
  18   2.0000      -6.274402      -170.7352
  19   2.0000      -6.273051      -170.6984
  20   2.0000      -1.486367       -40.4461
  21   2.0000      -1.249002       -33.9871
  22   2.0000      -1.149553       -31.2809
  23   2.0000      -1.022453       -27.8224
  24   2.0000      -0.967876       -26.3372
  25   2.0000      -0.932265       -25.3682
  26   2.0000      -0.903091       -24.5744
  27   2.0000      -0.870270       -23.6813
  28   2.0000      -0.850408       -23.1408
  29   2.0000      -0.819745       -22.3064
  30   2.0000      -0.805818       -21.9274
  31   2.0000      -0.767093       -20.8737
  32   2.0000      -0.732427       -19.9303
  33   2.0000      -0.722709       -19.6659
  34   2.0000      -0.714274       -19.4364
  35   2.0000      -0.692621       -18.8472
  36   2.0000      -0.674667       -18.3586
  37   2.0000      -0.663505       -18.0549
  38   2.0000      -0.658143       -17.9090
  39   2.0000      -0.614221       -16.7138
  40   2.0000      -0.606741       -16.5103
  41   2.0000      -0.591056       -16.0835
  42   2.0000      -0.588715       -16.0198
  43   2.0000      -0.576398       -15.6846
  44   2.0000      -0.565707       -15.3937
  45   2.0000      -0.560312       -15.2469
  46   2.0000      -0.550404       -14.9773
  47   2.0000      -0.533749       -14.5240
  48   2.0000      -0.531391       -14.4599
  49   2.0000      -0.521031       -14.1780
  50   2.0000      -0.507549       -13.8111
  51   2.0000      -0.505676       -13.7602
  52   2.0000      -0.490724       -13.3533
  53   2.0000      -0.475037       -12.9264
  54   2.0000      -0.466310       -12.6889
  55   2.0000      -0.464539       -12.6408
  56   2.0000      -0.462668       -12.5898
  57   2.0000      -0.450922       -12.2702
  58   2.0000      -0.447377       -12.1738
  59   2.0000      -0.437846       -11.9144
  60   2.0000      -0.431500       -11.7417
  61   2.0000      -0.429544       -11.6885
  62   2.0000      -0.427313       -11.6278
  63   2.0000      -0.420677       -11.4472
  64   2.0000      -0.411257       -11.1909
  65   2.0000      -0.403223       -10.9723
  66   2.0000      -0.399178       -10.8622
  67   2.0000      -0.254177        -6.9165
  68   0.0000       0.081140         2.2079
  69   0.0000       0.119063         3.2399
  70   0.0000       0.132218         3.5978
  71   0.0000       0.135076         3.6756
  72   0.0000       0.144884         3.9425

MULLIKEN ATOMIC CHARGES
-----------------------
   0 C :    0.092817
   1 C :   -0.014635
   2 C :   -0.142343
   3 H :    0.095095
   4 H :    0.120729
   5 S :    0.956948
   6 C :   -0.131255
   7 C :   -0.078152
   8 N :   -0.152121
   9 H :    0.142284
  10 H :    0.139185
  11 H :   -0.037858
  12 H :   -0.041576
  13 F :   -0.209144
  14 O :   -0.450365
  15 C :   -0.072413
  16 C :   -0.067035
  17 C :   -0.060278
  18 H :    0.027928
  19 H :    0.041030
  20 H :    0.051286
  21 H :    0.061453
  22 C :   -0.046709
  23 H :    0.019001
  24 H :   -0.005949
  25 C :    0.011962
  26 H :    0.037242
  27 H :    0.023813
  28 C :   -0.037625
  29 H :    0.021046
  30 H :    0.018751
  31 H :    0.025936
  32 H :   -0.019213
  33 H :    0.023368
  34 H :    0.020370
  35 O :   -0.411021
  36 H :    0.034582
  37 H :    0.012867
Sum of atomic charges:   -0.0000000

LOEWDIN ATOMIC CHARGES
----------------------
   0 C :   -0.025380
   1 C :   -0.050630
   2 C :   -0.142478
   3 H :    0.039942
   4 H :    0.063589
   5 S :    1.186535
   6 C :    0.000106
   7 C :   -0.195315
   8 N :   -0.041310
   9 H :    0.030870
  10 H :    0.067185
  11 H :   -0.007253
  12 H :   -0.010350
  13 F :   -0.108927
  14 O :   -0.481594
  15 C :   -0.043316
  16 C :   -0.045776
  17 C :   -0.045986
  18 H :    0.015926
  19 H :    0.032813
  20 H :    0.039607
  21 H :    0.036457
  22 C :   -0.040149
  23 H :    0.024198
  24 H :    0.005468
  25 C :   -0.037403
  26 H :    0.021490
  27 H :    0.027923
  28 C :   -0.038821
  29 H :    0.023760
  30 H :    0.022746
  31 H :    0.025208
  32 H :    0.003757
  33 H :    0.024603
  34 H :    0.019311
  35 O :   -0.462042
  36 H :    0.032338
  37 H :    0.032900

  Mayer bond orders larger than 0.100000
B(  0-C ,  6-C ) :   1.0116 B(  0-C , 15-C ) :   1.0772 B(  0-C , 36-H ) :   0.9329
B(  0-C , 37-H ) :   0.9331 B(  1-C ,  2-C ) :   1.0225 B(  1-C , 17-C ) :   1.0746
B(  1-C , 20-H ) :   0.9382 B(  1-C , 21-H ) :   0.9480 B(  2-C ,  3-H ) :   0.9259
B(  2-C ,  4-H ) :   0.9314 B(  2-C ,  5-S ) :   0.9156 B(  5-S , 13-F ) :   0.8896
B(  5-S , 14-O ) :   1.7330 B(  5-S , 35-O ) :   1.8175 B(  6-C ,  7-C ) :   1.8329
B(  6-C ,  8-N ) :   1.2809 B(  7-C , 11-H ) :   0.9488 B(  7-C , 12-H ) :   0.9585
B(  8-N ,  9-H ) :   0.9136 B(  8-N , 10-H ) :   0.9258 B( 15-C , 22-C ) :   1.0418
B( 15-C , 23-H ) :   0.9463 B( 15-C , 24-H ) :   0.9415 B( 16-C , 17-C ) :   1.0559
B( 16-C , 28-C ) :   1.0634 B( 16-C , 31-H ) :   0.9492 B( 16-C , 32-H ) :   0.9320
B( 17-C , 18-H ) :   0.9497 B( 17-C , 19-H ) :   0.9465 B( 22-C , 25-C ) :   1.0790
B( 22-C , 26-H ) :   0.9440 B( 22-C , 27-H ) :   0.9437 B( 25-C , 28-C ) :   1.0739
B( 25-C , 29-H ) :   0.9470 B( 25-C , 30-H ) :   0.9481 B( 28-C , 33-H ) :   0.9469
B( 28-C , 34-H ) :   0.9469

Dispersion correction           -0.020748681
FINAL SINGLE POINT ENERGY     -1134.678837543728

DIPOLE MOMENT
-------------
                                X             Y             Z
Electronic contribution:     -7.00517     -18.89160     -13.23806
Nuclear contribution   :      7.78491      18.17172      15.09294
                        -----------------------------------------
Total Dipole Moment    :      0.77974      -0.71988       1.85487
                        -----------------------------------------
Magnitude (a.u.)       :      2.13700
Magnitude (Debye)      :      5.43183

Rotational constants in cm-1:     0.018190     0.012573     0.008405
Rotational constants in MHz :   545.327178   376.916509   251.974803

                             ****ORCA TERMINATED NORMALLY****
TOTAL RUN TIME: 0 days 0 hours 1 minutes 4 seconds 726 msec
