                         Program Version 5.0.0 -  RELEASE  -
|  1> !wB97X-D3 RIJCOSX def2-SVP def2/J TightSCF xyzfile
|  2>
|  3> *xyzfile 0 1 D6.xyz
|  4>
|  5> %MaxCore 64000
|  6>
|  7> %pal nprocs 18
|  8> end
|  9>
| 10> %scf
| 11>   MaxIter 150
| 12> end
| 13>
| 14>
| 15>                          ****END OF INPUT****

CARTESIAN COORDINATES (ANGSTROEM)
---------------------------------
  C      5.558206   -1.992914   -6.215054
  C      4.930199   -7.375319   -2.649623
  C      3.841892   -6.951611   -3.632829
  H      3.458144   -5.954425   -3.407121
  H      2.988484   -7.643606   -3.567078
  S      4.318115   -6.915930   -5.368692
  C      4.181880   -2.589671   -6.298911
  N      3.145873   -1.768431   -6.486753
  C      4.019102   -3.864307   -6.227427
  H      4.768490   -4.591153   -5.990773
  H      3.122405   -4.333392   -6.314620
  H      3.281635   -0.777786   -6.566549
  H      2.212549   -2.134193   -6.562246
  O      5.406154   -5.899480   -5.512972
  O      3.111910   -6.445079   -6.043792
  C      6.419260   -2.542944   -5.077630
  C      5.872267   -5.002756   -2.427819
  C      6.173994   -6.485522   -2.606315
  H      6.734852   -6.613767   -3.534015
  H      6.821463   -6.831018   -1.793617
  H      4.469612   -7.406168   -1.655876
  H      5.230134   -8.398678   -2.885906
  C      5.896512   -2.169314   -3.694552
  H      7.428880   -2.143665   -5.208078
  H      6.505894   -3.627541   -5.175502
  C      6.807804   -2.623428   -2.551019
  H      4.894708   -2.589732   -3.557501
  H      5.778823   -1.081255   -3.635790
  C      7.111544   -4.122463   -2.520363
  H      7.751615   -2.071393   -2.614406
  H      6.345837   -2.326401   -1.604086
  H      5.362882   -4.828697   -1.471335
  H      5.174429   -4.702577   -3.211298
  H      7.778329   -4.329347   -1.677651
  H      7.673189   -4.402845   -3.417586
  F      4.763396   -8.239424   -5.698629
  H      6.036826   -2.198189   -7.176852
  H      5.467610   -0.907371   -6.127968

 Total Charge           Charge          ....    0
 Multiplicity           Mult            ....    1
 Number of Electrons    NEL             ....  136
 Basis Dimension        Dim             ....  338

ORBITAL ENERGIES
----------------

  NO   OCC          E(Eh)            E(eV)
   0   2.0000     -89.223567     -2427.8967
   1   2.0000     -24.918560      -678.0685
   2   2.0000     -19.243891      -523.6529
   3   2.0000     -19.240060      -523.5486
   4   2.0000     -14.401037      -391.8721
   5   2.0000     -10.351538      -281.6797
   6   2.0000     -10.319235      -280.8007
   7   2.0000     -10.290803      -280.0270
   8   2.0000     -10.279288      -279.7136
   9   2.0000     -10.274899      -279.5942
  10   2.0000     -10.272166      -279.5198
  11   2.0000     -10.272025      -279.5160
  12   2.0000     -10.264714      -279.3171
  13   2.0000     -10.264495      -279.3111
  14   2.0000     -10.262882      -279.2672
  15   2.0000     -10.168180      -276.6902
  16   2.0000      -8.305587      -226.0065
  17   2.0000      -6.268912      -170.5858
  18   2.0000      -6.262154      -170.4019
  19   2.0000      -6.260841      -170.3662
  20   2.0000      -1.501029       -40.8451
  21   2.0000      -1.218019       -33.1440
  22   2.0000      -1.112016       -30.2595
  23   2.0000      -0.999722       -27.2038
  24   2.0000      -0.954352       -25.9692
  25   2.0000      -0.915900       -24.9229
  26   2.0000      -0.886418       -24.1207
  27   2.0000      -0.861437       -23.4409
  28   2.0000      -0.831936       -22.6381
  29   2.0000      -0.808938       -22.0123
  30   2.0000      -0.781883       -21.2761
  31   2.0000      -0.753010       -20.4904
  32   2.0000      -0.722949       -19.6725
  33   2.0000      -0.707820       -19.2608
  34   2.0000      -0.702427       -19.1140
  35   2.0000      -0.685940       -18.6654
  36   2.0000      -0.657469       -17.8906
  37   2.0000      -0.648455       -17.6454
  38   2.0000      -0.625959       -17.0332
  39   2.0000      -0.602095       -16.3838
  40   2.0000      -0.596845       -16.2410
  41   2.0000      -0.590856       -16.0780
  42   2.0000      -0.570475       -15.5234
  43   2.0000      -0.565576       -15.3901
  44   2.0000      -0.555475       -15.1152
  45   2.0000      -0.545979       -14.8569
  46   2.0000      -0.541541       -14.7361
  47   2.0000      -0.518018       -14.0960
  48   2.0000      -0.512022       -13.9328
  49   2.0000      -0.507676       -13.8146
  50   2.0000      -0.505641       -13.7592
  51   2.0000      -0.487001       -13.2520
  52   2.0000      -0.466906       -12.7052
  53   2.0000      -0.460701       -12.5363
  54   2.0000      -0.449080       -12.2201
  55   2.0000      -0.438921       -11.9437
  56   2.0000      -0.437459       -11.9039
  57   2.0000      -0.431639       -11.7455
  58   2.0000      -0.421700       -11.4750
  59   2.0000      -0.415851       -11.3159
  60   2.0000      -0.408705       -11.1214
  61   2.0000      -0.408484       -11.1154
  62   2.0000      -0.404210       -10.9991
  63   2.0000      -0.394728       -10.7411
  64   2.0000      -0.388669       -10.5762
  65   2.0000      -0.382044       -10.3959
  66   2.0000      -0.352054        -9.5799
  67   2.0000      -0.242715        -6.6046
  68   0.0000       0.107581         2.9274
  69   0.0000       0.129815         3.5324
  70   0.0000       0.144452         3.9307
  71   0.0000       0.148126         4.0307
  72   0.0000       0.154735         4.2106

MULLIKEN ATOMIC CHARGES
-----------------------
   0 C :    0.106249
   1 C :   -0.031396
   2 C :   -0.140043
   3 H :    0.115014
   4 H :    0.090653
   5 S :    0.972638
   6 C :   -0.076446
   7 N :   -0.111637
   8 C :   -0.238701
   9 H :    0.057174
  10 H :   -0.029685
  11 H :    0.102430
  12 H :    0.112288
  13 O :   -0.449889
  14 O :   -0.433568
  15 C :   -0.059281
  16 C :   -0.069393
  17 C :   -0.029843
  18 H :    0.032925
  19 H :    0.026318
  20 H :    0.048935
  21 H :    0.037712
  22 C :   -0.043946
  23 H :    0.003830
  24 H :    0.041936
  25 C :    0.011951
  26 H :    0.032405
  27 H :    0.006054
  28 C :   -0.036461
  29 H :    0.014126
  30 H :    0.010230
  31 H :    0.010422
  32 H :    0.018162
  33 H :    0.012818
  34 H :    0.026054
  35 F :   -0.157161
  36 H :    0.038246
  37 H :   -0.021123
Sum of atomic charges:    0.0000000

LOEWDIN ATOMIC CHARGES
----------------------
   0 C :   -0.027214
   1 C :   -0.053381
   2 C :   -0.144821
   3 H :    0.056038
   4 H :    0.043739
   5 S :    1.190180
   6 C :   -0.008420
   7 N :   -0.028373
   8 C :   -0.215220
   9 H :   -0.022519
  10 H :   -0.014961
  11 H :    0.058375
  12 H :    0.069650
  13 O :   -0.452155
  14 O :   -0.466445
  15 C :   -0.032350
  16 C :   -0.043983
  17 C :   -0.043797
  18 H :    0.019073
  19 H :    0.025465
  20 H :    0.037936
  21 H :    0.026131
  22 C :   -0.040941
  23 H :    0.017635
  24 H :    0.026131
  25 C :   -0.037539
  26 H :    0.020360
  27 H :    0.019165
  28 C :   -0.037149
  29 H :    0.020767
  30 H :    0.019118
  31 H :    0.018004
  32 H :    0.016682
  33 H :    0.019913
  34 H :    0.023038
  35 F :   -0.105892
  36 H :    0.036906
  37 H :    0.010853

  Mayer bond orders larger than 0.100000
B(  0-C ,  6-C ) :   0.9828 B(  0-C , 15-C ) :   1.1042 B(  0-C , 36-H ) :   0.9292
B(  0-C , 37-H ) :   0.9327 B(  1-C ,  2-C ) :   1.0210 B(  1-C , 17-C ) :   1.0704
B(  1-C , 20-H ) :   0.9395 B(  1-C , 21-H ) :   0.9529 B(  2-C ,  3-H ) :   0.9239
B(  2-C ,  4-H ) :   0.9346 B(  2-C ,  5-S ) :   0.9147 B(  5-S , 13-O ) :   1.6304
B(  5-S , 14-O ) :   1.7544 B(  5-S , 35-F ) :   1.0391 B(  6-C ,  7-N ) :   1.2206
B(  6-C ,  8-C ) :   1.8735 B(  7-N , 11-H ) :   0.9535 B(  7-N , 12-H ) :   0.9534
B(  8-C ,  9-H ) :   0.9151 B(  8-C , 10-H ) :   0.9617 B(  9-H , 13-O ) :   0.1062
B( 15-C , 22-C ) :   1.0513 B( 15-C , 23-H ) :   0.9449 B( 15-C , 24-H ) :   0.9401
B( 16-C , 17-C ) :   1.0609 B( 16-C , 28-C ) :   1.0687 B( 16-C , 31-H ) :   0.9489
B( 16-C , 32-H ) :   0.9306 B( 17-C , 18-H ) :   0.9408 B( 17-C , 19-H ) :   0.9468
B( 22-C , 25-C ) :   1.0818 B( 22-C , 26-H ) :   0.9409 B( 22-C , 27-H ) :   0.9443
B( 25-C , 28-C ) :   1.0764 B( 25-C , 29-H ) :   0.9465 B( 25-C , 30-H ) :   0.9472
B( 28-C , 33-H ) :   0.9468 B( 28-C , 34-H ) :   0.9470

Dispersion correction           -0.020790691
FINAL SINGLE POINT ENERGY     -1134.649314128461

DIPOLE MOMENT
-------------
                                X             Y             Z
Electronic contribution:     -8.92719     -21.55106     -14.11298
Nuclear contribution   :      8.67311      20.60825      15.35056
                        -----------------------------------------
Total Dipole Moment    :     -0.25408      -0.94281       1.23758
                        -----------------------------------------
Magnitude (a.u.)       :      1.57641
Magnitude (Debye)      :      4.00691

Rotational constants in cm-1:     0.017976     0.012151     0.008188
Rotational constants in MHz :   538.898457   364.286417   245.482451

                             ****ORCA TERMINATED NORMALLY****
TOTAL RUN TIME: 0 days 0 hours 1 minutes 4 seconds 162 msec
