                         Program Version 5.0.0 -  RELEASE  -
|  1> !wB97X-D3 RIJCOSX def2-SVPD def2/J TightSCF
|  2> *xyz -1 1
|  3> C         -0.60249       -0.63071        0.49224
|  4> O         -1.71206       -1.37684        0.20253
|  5> H          0.27695       -1.19720        0.26733
|  6> H         -0.60598       -0.37494        1.53122
|  7> H         -0.61066        0.26355       -0.09525
|  8> *
|  9> %MaxCore 64000
| 10>
| 11> %pal nprocs 8
| 12> end
| 13> %scf
| 14>   MaxIter 150
| 15> end
| 16>
| 17>                          ****END OF INPUT****

CARTESIAN COORDINATES (ANGSTROEM)
---------------------------------
  C     -0.602490   -0.630710    0.492240
  O     -1.712060   -1.376840    0.202530
  H      0.276950   -1.197200    0.267330
  H     -0.605980   -0.374940    1.531220
  H     -0.610660    0.263550   -0.095250

 Total Charge           Charge          ....   -1
 Multiplicity           Mult            ....    1
 Number of Electrons    NEL             ....   18
 Basis Dimension        Dim             ....   67

ORBITAL ENERGIES
----------------

  NO   OCC          E(Eh)            E(eV)
   0   2.0000     -18.887433      -513.9532
   1   2.0000     -10.074041      -274.1286
   2   2.0000      -0.762200       -20.7405
   3   2.0000      -0.499945       -13.6042
   4   2.0000      -0.295354        -8.0370
   5   2.0000      -0.295325        -8.0362
   6   2.0000      -0.193886        -5.2759
   7   2.0000      -0.040573        -1.1040
   8   2.0000      -0.040568        -1.1039
   9   0.0000       0.264329         7.1928
  10   0.0000       0.340104         9.2547
  11   0.0000       0.340107         9.2548
  12   0.0000       0.347868         9.4660
  13   0.0000       0.385565        10.4918

MULLIKEN ATOMIC CHARGES
-----------------------
   0 C :    0.775931
   1 O :   -1.043461
   2 H :   -0.244042
   3 H :   -0.244255
   4 H :   -0.244173
Sum of atomic charges:   -1.0000000

LOEWDIN ATOMIC CHARGES
----------------------
   0 C :   -0.116145
   1 O :   -0.659760
   2 H :   -0.074688
   3 H :   -0.074717
   4 H :   -0.074690

  Mayer bond orders larger than 0.100000
B(  0-C ,  1-O ) :   1.2029 B(  0-C ,  2-H ) :   0.9175 B(  0-C ,  3-H ) :   0.9174
B(  0-C ,  4-H ) :   0.9175

Dispersion correction           -0.000090009
FINAL SINGLE POINT ENERGY      -114.980412417319

DIPOLE MOMENT
-------------
                                X             Y             Z
Electronic contribution:     -1.46015      -0.98183      -0.38105
Nuclear contribution   :      2.33640       1.57111       0.61004
                        -----------------------------------------
Total Dipole Moment    :      0.87625       0.58928       0.22898
                        -----------------------------------------
Magnitude (a.u.)       :      1.08051
Magnitude (Debye)      :      2.74643

Rotational constants in cm-1:     5.477665     0.940945     0.940944
Rotational constants in MHz : 164216.266994 28208.811441 28208.799857

                             ****ORCA TERMINATED NORMALLY****
TOTAL RUN TIME: 0 days 0 hours 0 minutes 3 seconds 881 msec
