                         Program Version 5.0.0 -  RELEASE  -
|  1> !wB97X-D3 RIJCOSX def2-SVPD def2/J TightSCF
|  2> *xyz 1 1
|  3> C         -2.12050        0.88520        1.78951
|  4> N         -3.17690       -0.15948        1.61070
|  5> H         -4.06474        0.23127        1.28675
|  6> H         -3.34407       -0.67151        2.48493
|  7> H         -2.71686       -0.78189        0.93588
|  8> H         -1.96853        1.40078        0.86432
|  9> H         -1.20609        0.41954        2.09270
| 10> H         -2.43151        1.58226        2.53937
| 11> *
| 12> %MaxCore 64000
| 13>
| 14> %pal nprocs 8
| 15> end
| 16>
| 17> %scf
| 18>   MaxIter 150
| 19> end
| 20>
| 21>
| 22>                          ****END OF INPUT****

CARTESIAN COORDINATES (ANGSTROEM)
---------------------------------
  C     -2.120500    0.885200    1.789510
  N     -3.176900   -0.159480    1.610700
  H     -4.064740    0.231270    1.286750
  H     -3.344070   -0.671510    2.484930
  H     -2.716860   -0.781890    0.935880
  H     -1.968530    1.400780    0.864320
  H     -1.206090    0.419540    2.092700
  H     -2.431510    1.582260    2.539370

 Total Charge           Charge          ....    1
 Multiplicity           Mult            ....    1
 Number of Electrons    NEL             ....   18
 Basis Dimension        Dim             ....   88

ORBITAL ENERGIES
----------------

  NO   OCC          E(Eh)            E(eV)
   0   2.0000     -14.787763      -402.3955
   1   2.0000     -10.549067      -287.0547
   2   2.0000      -1.335898       -36.3516
   3   2.0000      -1.044676       -28.4271
   4   2.0000      -0.924393       -25.1540
   5   2.0000      -0.912054       -24.8183
   6   2.0000      -0.809159       -22.0183
   7   2.0000      -0.727390       -19.7933
   8   2.0000      -0.723970       -19.7002
   9   0.0000      -0.122241        -3.3263
  10   0.0000      -0.057376        -1.5613
  11   0.0000      -0.048779        -1.3273
  12   0.0000      -0.045790        -1.2460
  13   0.0000      -0.005431        -0.1478

MULLIKEN ATOMIC CHARGES
-----------------------
   0 C :    0.707848
   1 N :   -0.802364
   2 H :    0.362654
   3 H :    0.376319
   4 H :    0.417856
   5 H :   -0.013246
   6 H :   -0.006700
   7 H :   -0.042368
Sum of atomic charges:    1.0000000

LOEWDIN ATOMIC CHARGES
----------------------
   0 C :    0.279162
   1 N :    0.315983
   2 H :    0.110139
   3 H :    0.111025
   4 H :    0.105835
   5 H :    0.027070
   6 H :    0.027332
   7 H :    0.023454

  Mayer bond orders larger than 0.100000
B(  0-C ,  1-N ) :   0.8346 B(  0-C ,  5-H ) :   0.9210 B(  0-C ,  6-H ) :   0.9130
B(  0-C ,  7-H ) :   0.9569 B(  1-N ,  2-H ) :   0.8014 B(  1-N ,  3-H ) :   0.7861
B(  1-N ,  4-H ) :   0.7295

Dispersion correction           -0.000488334
FINAL SINGLE POINT ENERGY       -96.121152567719

DIPOLE MOMENT
-------------
                                X             Y             Z
Electronic contribution:     -0.84222      -0.77122      -0.13081
Nuclear contribution   :      0.30442       0.18283       0.03339
                        -----------------------------------------
Total Dipole Moment    :     -0.53780      -0.58839      -0.09742
                        -----------------------------------------
Magnitude (a.u.)       :      0.80307
Magnitude (Debye)      :      2.04123

Rotational constants in cm-1:     2.844840     0.686092     0.683099
Rotational constants in MHz : 85286.171795 20568.516729 20478.789944

                             ****ORCA TERMINATED NORMALLY****
TOTAL RUN TIME: 0 days 0 hours 0 minutes 5 seconds 6 msec
