                         Program Version 5.0.0 -  RELEASE  -
|  1> !wB97X-D3 RIJCOSX def2-SVPD def2/J TightSCF xyzfile
|  2>
|  3> *xyzfile 0 1 B.xyz
|  4>
|  5> %MaxCore 64000
|  6>
|  7> %pal nprocs 18
|  8> end
|  9>
| 10> %scf
| 11>   MaxIter 150
| 12> end
| 13>
| 14>
| 15>                          ****END OF INPUT****

CARTESIAN COORDINATES (ANGSTROEM)
---------------------------------
  C     -2.120502    0.885196    1.789506
  C     -0.778939    0.171966    1.804965
  H     -2.324193    1.472649    2.686078
  H     -2.187698    1.541272    0.919482
  N     -3.176900   -0.159484    1.610700
  H      0.015695    0.910767    1.939153
  H     -0.743553   -0.506827    2.665420
  C     -0.602493   -0.630712    0.492240
  H      0.313894   -1.240346    0.603498
  H     -0.363829    0.113322   -0.301169
  O     -1.712061   -1.376836    0.202535
  H     -4.064736    0.231272    1.286754
  H     -3.344073   -0.671511    2.484928
  H     -2.716861   -0.781886    0.935880

 Total Charge           Charge          ....    0
 Multiplicity           Mult            ....    1
 Number of Electrons    NEL             ....   42
 Basis Dimension        Dim             ....  175

ORBITAL ENERGIES
----------------

  NO   OCC          E(Eh)            E(eV)
   0   2.0000     -19.114779      -520.1396
   1   2.0000     -14.519445      -395.0942
   2   2.0000     -10.355726      -281.7936
   3   2.0000     -10.288115      -279.9538
   4   2.0000     -10.284662      -279.8599
   5   2.0000      -1.102513       -30.0009
   6   2.0000      -0.999282       -27.1918
   7   2.0000      -0.881852       -23.9964
   8   2.0000      -0.762664       -20.7532
   9   2.0000      -0.699499       -19.0343
  10   2.0000      -0.677993       -18.4491
  11   2.0000      -0.648331       -17.6420
  12   2.0000      -0.588889       -16.0245
  13   2.0000      -0.538287       -14.6475
  14   2.0000      -0.503823       -13.7097
  15   2.0000      -0.500850       -13.6288
  16   2.0000      -0.457328       -12.4445
  17   2.0000      -0.436713       -11.8836
  18   2.0000      -0.413101       -11.2410
  19   2.0000      -0.277070        -7.5395
  20   2.0000      -0.269538        -7.3345
  21   0.0000       0.063147         1.7183
  22   0.0000       0.101038         2.7494
  23   0.0000       0.105445         2.8693
  24   0.0000       0.126434         3.4404
  25   0.0000       0.152571         4.1517

MULLIKEN ATOMIC CHARGES
-----------------------
   0 C :    0.552682
   1 C :   -0.056452
   2 H :   -0.212457
   3 H :    0.002643
   4 N :   -0.456485
   5 H :   -0.081181
   6 H :    0.011130
   7 C :    0.568882
   8 H :   -0.138679
   9 H :   -0.024856
  10 O :   -0.791211
  11 H :    0.265291
  12 H :    0.380010
  13 H :   -0.019317
Sum of atomic charges:    0.0000000

LOEWDIN ATOMIC CHARGES
----------------------
   0 C :    0.076889
   1 C :   -0.024019
   2 H :    0.023544
   3 H :    0.042989
   4 N :    0.303273
   5 H :    0.023542
   6 H :    0.024868
   7 C :   -0.070780
   8 H :    0.010586
   9 H :    0.011383
  10 O :   -0.406385
  11 H :    0.081233
  12 H :    0.088211
  13 H :   -0.185334

  Mayer bond orders larger than 0.100000
B(  0-C ,  1-C ) :   1.1371 B(  0-C ,  2-H ) :   0.9494 B(  0-C ,  3-H ) :   0.8783
B(  0-C ,  4-N ) :   0.8251 B(  0-C ,  5-H ) :   0.1002 B(  1-C ,  5-H ) :   0.9490
B(  1-C ,  6-H ) :   0.9035 B(  1-C ,  7-C ) :   1.1228 B(  1-C ,  8-H ) :   0.1211
B(  1-C ,  9-H ) :   0.1005 B(  2-H ,  4-N ) :   0.1306 B(  4-N , 11-H ) :   0.8738
B(  4-N , 12-H ) :   0.7878 B(  4-N , 13-H ) :   0.9719 B(  5-H ,  7-C ) :   0.1132
B(  7-C ,  8-H ) :   0.9390 B(  7-C ,  9-H ) :   0.9230 B(  7-C , 10-O ) :   1.0431
B( 10-O , 13-H ) :   0.5403

Dispersion correction           -0.003272664
FINAL SINGLE POINT ENERGY      -249.425996549818

DIPOLE MOMENT
-------------
                                X             Y             Z
Electronic contribution:     -1.50707      -1.39967      -0.75541
Nuclear contribution   :      0.08650       3.01678       2.47433
                        -----------------------------------------
Total Dipole Moment    :     -1.42057       1.61711       1.71892
                        -----------------------------------------
Magnitude (a.u.)       :      2.75459
Magnitude (Debye)      :      7.00161

Rotational constants in cm-1:     0.238796     0.156489     0.106146
Rotational constants in MHz :  7158.916762  4691.413084  3182.185740

                             ****ORCA TERMINATED NORMALLY****
TOTAL RUN TIME: 0 days 0 hours 0 minutes 12 seconds 977 msec
