                         Program Version 5.0.0 -  RELEASE  -
|  1> !wB97X-D3 RIJCOSX def2-SVPD def2/J TightSCF
|  2> *xyz 0 1
|  3> C         -0.60249       -0.63071        0.49224
|  4> F         -1.71206       -1.37684        0.20253
|  5> H          0.27695       -1.19720        0.26733
|  6> H         -0.60598       -0.37494        1.53122
|  7> H         -0.61066        0.26355       -0.09525
|  8> *
|  9> %MaxCore 64000
| 10>
| 11> %pal nprocs 8
| 12> end
| 13> %scf
| 14>   MaxIter 150
| 15> end
| 16>
| 17>                          ****END OF INPUT****

CARTESIAN COORDINATES (ANGSTROEM)
---------------------------------
  C     -0.602490   -0.630710    0.492240
  F     -1.712060   -1.376840    0.202530
  H      0.276950   -1.197200    0.267330
  H     -0.605980   -0.374940    1.531220
  H     -0.610660    0.263550   -0.095250

 Total Charge           Charge          ....    0
 Multiplicity           Mult            ....    1
 Number of Electrons    NEL             ....   18
 Basis Dimension        Dim             ....   67

ORBITAL ENERGIES
----------------

  NO   OCC          E(Eh)            E(eV)
   0   2.0000     -24.786208      -674.4670
   1   2.0000     -10.360344      -281.9193
   2   2.0000      -1.298531       -35.3348
   3   2.0000      -0.815094       -22.1798
   4   2.0000      -0.600488       -16.3401
   5   2.0000      -0.595556       -16.2059
   6   2.0000      -0.595534       -16.2053
   7   2.0000      -0.450572       -12.2607
   8   2.0000      -0.450551       -12.2601
   9   0.0000       0.095899         2.6096
  10   0.0000       0.146413         3.9841
  11   0.0000       0.178633         4.8608
  12   0.0000       0.178638         4.8610
  13   0.0000       0.217173         5.9096

MULLIKEN ATOMIC CHARGES
-----------------------
   0 C :    0.770210
   1 F :   -0.496535
   2 H :   -0.091125
   3 H :   -0.091055
   4 H :   -0.091495
Sum of atomic charges:    0.0000000

LOEWDIN ATOMIC CHARGES
----------------------
   0 C :    0.268141
   1 F :   -0.257352
   2 H :   -0.003585
   3 H :   -0.003601
   4 H :   -0.003602

  Mayer bond orders larger than 0.100000
B(  0-C ,  1-F ) :   0.8291 B(  0-C ,  2-H ) :   0.9559 B(  0-C ,  3-H ) :   0.9557
B(  0-C ,  4-H ) :   0.9561

Dispersion correction           -0.000129194
FINAL SINGLE POINT ENERGY      -139.606858008799

DIPOLE MOMENT
-------------
                                X             Y             Z
Electronic contribution:     -2.36605      -1.59086      -0.61769
Nuclear contribution   :      2.96306       1.99251       0.77366
                        -----------------------------------------
Total Dipole Moment    :      0.59701       0.40165       0.15597
                        -----------------------------------------
Magnitude (a.u.)       :      0.73625
Magnitude (Debye)      :      1.87141

Rotational constants in cm-1:     5.477665     0.875886     0.875886
Rotational constants in MHz : 164216.266994 26258.396768 26258.386731

                             ****ORCA TERMINATED NORMALLY****
TOTAL RUN TIME: 0 days 0 hours 0 minutes 3 seconds 331 msec
