                         Program Version 5.0.0 -  RELEASE  -
|  1> !wB97X-D3 RIJCOSX def2-SVPD def2/J TightSCF
|  2> *xyz 0 1
|  3> C         -2.12050        0.88520        1.78951
|  4> C         -3.17690       -0.15948        1.61070
|  5> H         -4.06474        0.23127        1.28675
|  6> H         -3.34407       -0.67151        2.48493
|  7> H         -2.71686       -0.78189        0.93588
|  8> H         -1.96853        1.40078        0.86432
|  9> H         -1.20609        0.41954        2.09270
| 10> H         -2.43151        1.58226        2.53937
| 11> *
| 12> %MaxCore 64000
| 13>
| 14> %pal nprocs 8
| 15> end
| 16>
| 17> %scf
| 18>   MaxIter 150
| 19> end
| 20>
| 21>
| 22>                          ****END OF INPUT****

CARTESIAN COORDINATES (ANGSTROEM)
---------------------------------
  C     -2.120500    0.885200    1.789510
  C     -3.176900   -0.159480    1.610700
  H     -4.064740    0.231270    1.286750
  H     -3.344070   -0.671510    2.484930
  H     -2.716860   -0.781890    0.935880
  H     -1.968530    1.400780    0.864320
  H     -1.206090    0.419540    2.092700
  H     -2.431510    1.582260    2.539370

 Total Charge           Charge          ....    0
 Multiplicity           Mult            ....    1
 Number of Electrons    NEL             ....   18
 Basis Dimension        Dim             ....   88

ORBITAL ENERGIES
----------------

  NO   OCC          E(Eh)            E(eV)
   0   2.0000     -10.265861      -279.3483
   1   2.0000     -10.252137      -278.9748
   2   2.0000      -0.879976       -23.9454
   3   2.0000      -0.724000       -19.7010
   4   2.0000      -0.557067       -15.1586
   5   2.0000      -0.548129       -14.9154
   6   2.0000      -0.462811       -12.5937
   7   2.0000      -0.443086       -12.0570
   8   2.0000      -0.434039       -11.8108
   9   0.0000       0.098855         2.6900
  10   0.0000       0.129253         3.5172
  11   0.0000       0.180761         4.9188
  12   0.0000       0.182511         4.9664
  13   0.0000       0.200325         5.4511

MULLIKEN ATOMIC CHARGES
-----------------------
   0 C :    0.110893
   1 C :    0.500338
   2 H :   -0.182147
   3 H :   -0.147978
   4 H :   -0.109439
   5 H :   -0.053620
   6 H :   -0.046911
   7 H :   -0.071134
Sum of atomic charges:    0.0000000

LOEWDIN ATOMIC CHARGES
----------------------
   0 C :    0.067784
   1 C :    0.083076
   2 H :   -0.033200
   3 H :   -0.032829
   4 H :   -0.034823
   5 H :   -0.015267
   6 H :   -0.014532
   7 H :   -0.020209

  Mayer bond orders larger than 0.100000
B(  0-C ,  1-C ) :   1.4186 B(  0-C ,  2-H ) :   0.1402 B(  0-C ,  3-H ) :   0.1390
B(  0-C ,  4-H ) :   0.1909 B(  0-C ,  5-H ) :   0.8854 B(  0-C ,  6-H ) :   0.8787
B(  0-C ,  7-H ) :   0.9267 B(  1-C ,  2-H ) :   0.8391 B(  1-C ,  3-H ) :   0.8250
B(  1-C ,  4-H ) :   0.8123 B(  1-C ,  5-H ) :   0.1308 B(  1-C ,  6-H ) :   0.1345
B(  1-C ,  7-H ) :   0.1119

Dispersion correction           -0.000477140
FINAL SINGLE POINT ENERGY       -79.733042206617

DIPOLE MOMENT
-------------
                                X             Y             Z
Electronic contribution:     -0.12445      -0.01912      -0.00280
Nuclear contribution   :      0.12022       0.00247       0.00249
                        -----------------------------------------
Total Dipole Moment    :     -0.00424      -0.01666      -0.00031
                        -----------------------------------------
Magnitude (a.u.)       :      0.01719
Magnitude (Debye)      :      0.04370

Rotational constants in cm-1:     2.844858     0.716988     0.713720
Rotational constants in MHz : 85286.697487 21494.771942 21396.773512

                             ****ORCA TERMINATED NORMALLY****
TOTAL RUN TIME: 0 days 0 hours 0 minutes 4 seconds 137 msec
