                         Program Version 5.0.0 -  RELEASE  -
|  1> !B3LYP D3BJ RIJCOSX def2-SVPD def2/J TightSCF
|  2> *xyz -1 1
|  3> C          1.69499        1.54179       -5.57045
|  4> S          1.78029       -0.03313       -6.42874
|  5> O          2.56929        0.21366       -7.60736
|  6> O          0.41688       -0.46297       -6.61859
|  7> O          2.50513       -0.93326       -5.48257
|  8> H          1.18489        2.25500       -6.18367
|  9> H          2.68564        1.89081       -5.36624
| 10> H          1.16361        1.41804       -4.65000
| 11> *
| 12> %MaxCore 64000
| 13>
| 14> %pal nprocs 8
| 15> end
| 16>
| 17> %scf
| 18>   MaxIter 150
| 19> end
| 20>
| 21>
| 22>                          ****END OF INPUT****

CARTESIAN COORDINATES (ANGSTROEM)
---------------------------------
  C      1.694990    1.541790   -5.570450
  S      1.780290   -0.033130   -6.428740
  O      2.569290    0.213660   -7.607360
  O      0.416880   -0.462970   -6.618590
  O      2.505130   -0.933260   -5.482570
  H      1.184890    2.255000   -6.183670
  H      2.685640    1.890810   -5.366240
  H      1.163610    1.418040   -4.650000

 Total Charge           Charge          ....   -1
 Multiplicity           Mult            ....    1
 Number of Electrons    NEL             ....   50
 Basis Dimension        Dim             ....  140

ORBITAL ENERGIES
----------------

  NO   OCC          E(Eh)            E(eV)
   0   2.0000     -88.881559     -2418.5902
   1   2.0000     -18.920472      -514.8522
   2   2.0000     -18.919288      -514.8200
   3   2.0000     -18.902313      -514.3581
   4   2.0000     -10.036706      -273.1127
   5   2.0000      -7.935208      -215.9280
   6   2.0000      -5.904132      -160.6596
   7   2.0000      -5.903969      -160.6552
   8   2.0000      -5.903621      -160.6457
   9   2.0000      -0.930161       -25.3110
  10   2.0000      -0.794987       -21.6327
  11   2.0000      -0.761121       -20.7112
  12   2.0000      -0.579388       -15.7660
  13   2.0000      -0.386785       -10.5250
  14   2.0000      -0.302114        -8.2209
  15   2.0000      -0.290517        -7.9054
  16   2.0000      -0.289602        -7.8805
  17   2.0000      -0.249592        -6.7918
  18   2.0000      -0.246081        -6.6962
  19   2.0000      -0.151846        -4.1320
  20   2.0000      -0.150744        -4.1020
  21   2.0000      -0.117391        -3.1944
  22   2.0000      -0.112930        -3.0730
  23   2.0000      -0.096755        -2.6328
  24   2.0000      -0.062983        -1.7139
  25   0.0000       0.150126         4.0851
  26   0.0000       0.185900         5.0586
  27   0.0000       0.186428         5.0730
  28   0.0000       0.190041         5.1713
  29   0.0000       0.213798         5.8177

MULLIKEN ATOMIC CHARGES
-----------------------
   0 C :    0.720334
   1 S :    1.105121
   2 O :   -0.760422
   3 O :   -0.762083
   4 O :   -0.818555
   5 H :   -0.166346
   6 H :   -0.156397
   7 H :   -0.161653
Sum of atomic charges:   -1.0000000

LOEWDIN ATOMIC CHARGES
----------------------
   0 C :    0.062293
   1 S :    0.835792
   2 O :   -0.581618
   3 O :   -0.580784
   4 O :   -0.609572
   5 H :   -0.043903
   6 H :   -0.040819
   7 H :   -0.041389

  Mayer bond orders larger than 0.100000
B(  0-C ,  1-S ) :   0.9272 B(  0-C ,  5-H ) :   0.8787 B(  0-C ,  6-H ) :   0.8823
B(  0-C ,  7-H ) :   0.8837 B(  1-S ,  2-O ) :   1.3369 B(  1-S ,  3-O ) :   1.3339
B(  1-S ,  4-O ) :   1.2863 B(  1-S ,  5-H ) :   0.1209 B(  1-S ,  6-H ) :   0.1324
B(  1-S ,  7-H ) :   0.1320

Dispersion correction           -0.011090453
FINAL SINGLE POINT ENERGY      -663.323279712769

DIPOLE MOMENT
-------------
                                X             Y             Z
Electronic contribution:      0.11794      -3.67655      -2.17328
Nuclear contribution   :     -0.31747       5.08000       2.69095
                        -----------------------------------------
Total Dipole Moment    :     -0.19954       1.40345       0.51767
                        -----------------------------------------
Magnitude (a.u.)       :      1.50912
Magnitude (Debye)      :      3.83589

Rotational constants in cm-1:     0.172246     0.157831     0.154490
Rotational constants in MHz :  5163.797750  4731.657963  4631.481993

                             ****ORCA TERMINATED NORMALLY****
TOTAL RUN TIME: 0 days 0 hours 0 minutes 7 seconds 639 msec
