                         Program Version 5.0.0 -  RELEASE  -
|  1> !B3LYP D3BJ RIJCOSX def2-SVPD def2/J TightSCF
|  2> *xyz 1 1
|  3> C          1.96337       -1.74915       -1.89689
|  4> N          2.73849       -2.01517       -3.09711
|  5> C          4.04974       -2.15472       -3.15204
|  6> N          4.65821       -1.98629       -4.31866
|  7> N          4.76423       -2.45444       -2.05049
|  8> H          4.28736       -2.77626       -1.21750
|  9> H          5.75082       -2.65835       -2.12599
| 10> H          2.34518       -1.69027       -3.97145
| 11> H          4.10900       -1.59268       -5.07176
| 12> H          5.64910       -2.15646       -4.42724
| 13> H          0.92556       -1.68522       -2.14942
| 14> H          2.28268       -0.82430       -1.46378
| 15> H          2.11118       -2.54207       -1.19381
| 16> *
| 17> %MaxCore 64000
| 18>
| 19> %pal nprocs 8
| 20> end
| 21>
| 22> %scf
| 23>   MaxIter 150
| 24> end
| 25>
| 26>
| 27>                          ****END OF INPUT****

CARTESIAN COORDINATES (ANGSTROEM)
---------------------------------
  C      1.963370   -1.749150   -1.896890
  N      2.738490   -2.015170   -3.097110
  C      4.049740   -2.154720   -3.152040
  N      4.658210   -1.986290   -4.318660
  N      4.764230   -2.454440   -2.050490
  H      4.287360   -2.776260   -1.217500
  H      5.750820   -2.658350   -2.125990
  H      2.345180   -1.690270   -3.971450
  H      4.109000   -1.592680   -5.071760
  H      5.649100   -2.156460   -4.427240
  H      0.925560   -1.685220   -2.149420
  H      2.282680   -0.824300   -1.463780
  H      2.111180   -2.542070   -1.193810

 Total Charge           Charge          ....    1
 Multiplicity           Mult            ....    1
 Number of Electrons    NEL             ....   40
 Basis Dimension        Dim             ....  164

ORBITAL ENERGIES
----------------

  NO   OCC          E(Eh)            E(eV)
   0   2.0000     -14.559933      -396.1959
   1   2.0000     -14.559236      -396.1769
   2   2.0000     -14.558224      -396.1494
   3   2.0000     -10.522821      -286.3405
   4   2.0000     -10.390274      -282.7337
   5   2.0000      -1.213791       -33.0289
   6   2.0000      -1.102215       -29.9928
   7   2.0000      -1.089632       -29.6504
   8   2.0000      -0.905762       -24.6470
   9   2.0000      -0.829183       -22.5632
  10   2.0000      -0.788991       -21.4695
  11   2.0000      -0.760822       -20.7030
  12   2.0000      -0.700648       -19.0656
  13   2.0000      -0.693484       -18.8707
  14   2.0000      -0.657103       -17.8807
  15   2.0000      -0.650510       -17.7013
  16   2.0000      -0.594038       -16.1646
  17   2.0000      -0.581147       -15.8138
  18   2.0000      -0.483681       -13.1616
  19   2.0000      -0.461421       -12.5559
  20   0.0000      -0.177015        -4.8168
  21   0.0000      -0.163042        -4.4366
  22   0.0000      -0.124851        -3.3974
  23   0.0000      -0.119163        -3.2426
  24   0.0000      -0.092058        -2.5050

MULLIKEN ATOMIC CHARGES
-----------------------
   0 C :    1.303429
   1 N :   -0.447109
   2 C :    1.205702
   3 N :    0.047096
   4 N :    0.095624
   5 H :   -0.089410
   6 H :   -0.145002
   7 H :   -0.202420
   8 H :   -0.035216
   9 H :   -0.127331
  10 H :   -0.345955
  11 H :   -0.106794
  12 H :   -0.152613
Sum of atomic charges:    1.0000000

LOEWDIN ATOMIC CHARGES
----------------------
   0 C :    0.262622
   1 N :    0.021117
   2 C :   -0.043237
   3 N :    0.270219
   4 N :    0.287139
   5 H :    0.022061
   6 H :    0.035316
   7 H :    0.051031
   8 H :    0.036848
   9 H :    0.042163
  10 H :    0.012069
  11 H :    0.007482
  12 H :   -0.004830

  Mayer bond orders larger than 0.100000
B(  0-C ,  1-N ) :   0.9706 B(  0-C , 10-H ) :   0.7491 B(  0-C , 11-H ) :   0.8012
B(  0-C , 12-H ) :   0.7980 B(  1-N ,  2-C ) :   1.0693 B(  1-N ,  3-N ) :   0.2561
B(  1-N ,  4-N ) :   0.2114 B(  1-N ,  7-H ) :   1.2207 B(  1-N , 10-H ) :   0.1975
B(  1-N , 11-H ) :   0.1269 B(  1-N , 12-H ) :   0.1647 B(  2-C ,  3-N ) :   0.8807
B(  2-C ,  4-N ) :   0.9990 B(  2-C ,  5-H ) :  -0.1533 B(  2-C ,  6-H ) :  -0.1395
B(  2-C ,  7-H ) :  -0.1953 B(  2-C ,  8-H ) :  -0.1335 B(  2-C ,  9-H ) :  -0.1679
B(  3-N ,  4-N ) :   0.1550 B(  3-N ,  8-H ) :   1.1503 B(  3-N ,  9-H ) :   1.2782
B(  4-N ,  5-H ) :   1.1324 B(  4-N ,  6-H ) :   1.2333 B(  5-H ,  6-H ) :  -0.1965
B(  8-H ,  9-H ) :  -0.1803

Dispersion correction           -0.014981680
FINAL SINGLE POINT ENERGY      -244.788695978913

DIPOLE MOMENT
-------------
                                X             Y             Z
Electronic contribution:      2.04692      -0.55702      -1.80235
Nuclear contribution   :     -1.59972       0.59064       1.48941
                        -----------------------------------------
Total Dipole Moment    :      0.44720       0.03362      -0.31294
                        -----------------------------------------
Magnitude (a.u.)       :      0.54685
Magnitude (Debye)      :      1.38998

Rotational constants in cm-1:     0.309236     0.134358     0.096189
Rotational constants in MHz :  9270.657746  4027.948155  2883.671905

                             ****ORCA TERMINATED NORMALLY****
TOTAL RUN TIME: 0 days 0 hours 0 minutes 10 seconds 308 msec
