                         Program Version 5.0.0 -  RELEASE  -
|  1> !B3LYP D3BJ RIJCOSX def2-SVPD def2/J TightSCF
|  2> *xyz 0 1
|  3> C          1.69499        1.54179       -5.57045
|  4> S          1.78029       -0.03313       -6.42874
|  5> F          2.56929        0.21366       -7.60736
|  6> O          0.41688       -0.46297       -6.61859
|  7> O          2.50513       -0.93326       -5.48257
|  8> H          1.18489        2.25500       -6.18367
|  9> H          2.68564        1.89081       -5.36624
| 10> H          1.16361        1.41804       -4.65000
| 11> *
| 12> %MaxCore 64000
| 13>
| 14> %pal nprocs 8
| 15> end
| 16>
| 17> %scf
| 18>   MaxIter 150
| 19> end
| 20>
| 21>
| 22>                          ****END OF INPUT****

CARTESIAN COORDINATES (ANGSTROEM)
---------------------------------
  C      1.694990    1.541790   -5.570450
  S      1.780290   -0.033130   -6.428740
  F      2.569290    0.213660   -7.607360
  O      0.416880   -0.462970   -6.618590
  O      2.505130   -0.933260   -5.482570
  H      1.184890    2.255000   -6.183670
  H      2.685640    1.890810   -5.366240
  H      1.163610    1.418040   -4.650000

 Total Charge           Charge          ....    0
 Multiplicity           Mult            ....    1
 Number of Electrons    NEL             ....   50
 Basis Dimension        Dim             ....  140

ORBITAL ENERGIES
----------------

  NO   OCC          E(Eh)            E(eV)
   0   2.0000     -89.147328     -2425.8221
   1   2.0000     -24.821958      -675.4398
   2   2.0000     -19.159832      -521.3655
   3   2.0000     -19.141019      -520.8536
   4   2.0000     -10.246989      -278.8347
   5   2.0000      -8.201627      -223.1776
   6   2.0000      -6.174686      -168.0218
   7   2.0000      -6.168127      -167.8433
   8   2.0000      -6.167051      -167.8140
   9   2.0000      -1.385180       -37.6927
  10   2.0000      -1.111998       -30.2590
  11   2.0000      -1.002888       -27.2900
  12   2.0000      -0.804183       -21.8829
  13   2.0000      -0.725287       -19.7361
  14   2.0000      -0.612007       -16.6535
  15   2.0000      -0.596964       -16.2442
  16   2.0000      -0.561878       -15.2895
  17   2.0000      -0.483628       -13.1602
  18   2.0000      -0.481829       -13.1112
  19   2.0000      -0.472129       -12.8473
  20   2.0000      -0.442957       -12.0535
  21   2.0000      -0.391135       -10.6433
  22   2.0000      -0.345789        -9.4094
  23   2.0000      -0.327425        -8.9097
  24   2.0000      -0.309197        -8.4137
  25   0.0000      -0.012930        -0.3518
  26   0.0000       0.029138         0.7929
  27   0.0000       0.030463         0.8290
  28   0.0000       0.044128         1.2008
  29   0.0000       0.045458         1.2370

MULLIKEN ATOMIC CHARGES
-----------------------
   0 C :    0.684077
   1 S :    1.262664
   2 F :   -0.375144
   3 O :   -0.615382
   4 O :   -0.668663
   5 H :   -0.096131
   6 H :   -0.089812
   7 H :   -0.101610
Sum of atomic charges:   -0.0000000

LOEWDIN ATOMIC CHARGES
----------------------
   0 C :    0.130620
   1 S :    1.107945
   2 F :   -0.257013
   3 O :   -0.461499
   4 O :   -0.488589
   5 H :   -0.016492
   6 H :   -0.014191
   7 H :   -0.000782

  Mayer bond orders larger than 0.100000
B(  0-C ,  1-S ) :   0.9858 B(  0-C ,  5-H ) :   0.8804 B(  0-C ,  6-H ) :   0.8840
B(  0-C ,  7-H ) :   0.8838 B(  1-S ,  2-F ) :   0.7134 B(  1-S ,  3-O ) :   1.5440
B(  1-S ,  4-O ) :   1.4963 B(  1-S ,  6-H ) :   0.1047 B(  1-S ,  7-H ) :   0.1319

Dispersion correction           -0.010385534
FINAL SINGLE POINT ENERGY      -687.805506396882

DIPOLE MOMENT
-------------
                                X             Y             Z
Electronic contribution:      1.39797      -3.20967      -4.13986
Nuclear contribution   :     -1.09446       4.91008       3.93848
                        -----------------------------------------
Total Dipole Moment    :      0.30351       1.70041      -0.20138
                        -----------------------------------------
Magnitude (a.u.)       :      1.73898
Magnitude (Debye)      :      4.42015

Rotational constants in cm-1:     0.163326     0.155515     0.146672
Rotational constants in MHz :  4896.387829  4662.220576  4397.127261

                             ****ORCA TERMINATED NORMALLY****
TOTAL RUN TIME: 0 days 0 hours 0 minutes 7 seconds 635 msec
