                         Program Version 5.0.0 -  RELEASE  -
|  1> !B3LYP D3BJ RIJCOSX def2-SVPD def2/J TightSCF
|  2> *xyz 0 1
|  3> C          1.96337       -1.74915       -1.89689
|  4> C          2.73849       -2.01517       -3.09711
|  5> C          4.04974       -2.15472       -3.15204
|  6> N          4.65821       -1.98629       -4.31866
|  7> N          4.76423       -2.45444       -2.05049
|  8> H          4.28736       -2.77626       -1.21750
|  9> H          5.75082       -2.65835       -2.12599
| 10> H          2.34518       -1.69027       -3.97145
| 11> H          4.10900       -1.59268       -5.07176
| 12> H          5.64910       -2.15646       -4.42724
| 13> H          0.92556       -1.68522       -2.14942
| 14> H          2.28268       -0.82430       -1.46378
| 15> H          2.11118       -2.54207       -1.19381
| 16> *
| 17> %MaxCore 64000
| 18>
| 19> %pal nprocs 8
| 20> end
| 21>
| 22> %scf
| 23>   MaxIter 150
| 24> end
| 25>
| 26>
| 27>                          ****END OF INPUT****

CARTESIAN COORDINATES (ANGSTROEM)
---------------------------------
  C      1.963370   -1.749150   -1.896890
  C      2.738490   -2.015170   -3.097110
  C      4.049740   -2.154720   -3.152040
  N      4.658210   -1.986290   -4.318660
  N      4.764230   -2.454440   -2.050490
  H      4.287360   -2.776260   -1.217500
  H      5.750820   -2.658350   -2.125990
  H      2.345180   -1.690270   -3.971450
  H      4.109000   -1.592680   -5.071760
  H      5.649100   -2.156460   -4.427240
  H      0.925560   -1.685220   -2.149420
  H      2.282680   -0.824300   -1.463780
  H      2.111180   -2.542070   -1.193810

 Total Charge           Charge          ....    0
 Multiplicity           Mult            ....    1
 Number of Electrons    NEL             ....   40
 Basis Dimension        Dim             ....  164

ORBITAL ENERGIES
----------------

  NO   OCC          E(Eh)            E(eV)
   0   2.0000     -14.332296      -390.0016
   1   2.0000     -14.328013      -389.8850
   2   2.0000     -10.222805      -278.1767
   3   2.0000     -10.146726      -276.1065
   4   2.0000     -10.102812      -274.9115
   5   2.0000      -0.949884       -25.8477
   6   2.0000      -0.861469       -23.4418
   7   2.0000      -0.745623       -20.2894
   8   2.0000      -0.651449       -17.7268
   9   2.0000      -0.583460       -15.8768
  10   2.0000      -0.541739       -14.7415
  11   2.0000      -0.508268       -13.8307
  12   2.0000      -0.473914       -12.8958
  13   2.0000      -0.424449       -11.5499
  14   2.0000      -0.409315       -11.1380
  15   2.0000      -0.377875       -10.2825
  16   2.0000      -0.358028        -9.7424
  17   2.0000      -0.337198        -9.1756
  18   2.0000      -0.265274        -7.2185
  19   2.0000      -0.157840        -4.2950
  20   0.0000       0.011958         0.3254
  21   0.0000       0.040560         1.1037
  22   0.0000       0.052864         1.4385
  23   0.0000       0.070811         1.9269
  24   0.0000       0.079527         2.1640

MULLIKEN ATOMIC CHARGES
-----------------------
   0 C :    1.103392
   1 C :   -0.526806
   2 C :    0.773919
   3 N :    0.132456
   4 N :    0.080213
   5 H :   -0.097798
   6 H :   -0.304163
   7 H :   -0.394581
   8 H :   -0.045428
   9 H :   -0.244472
  10 H :   -0.160810
  11 H :   -0.185592
  12 H :   -0.130328
Sum of atomic charges:   -0.0000000

LOEWDIN ATOMIC CHARGES
----------------------
   0 C :    0.093334
   1 C :   -0.069667
   2 C :   -0.230848
   3 N :    0.181268
   4 N :    0.206137
   5 H :   -0.010167
   6 H :   -0.016239
   7 H :   -0.061704
   8 H :    0.002490
   9 H :   -0.011226
  10 H :   -0.022555
  11 H :   -0.023838
  12 H :   -0.036986

  Mayer bond orders larger than 0.100000
B(  0-C ,  1-C ) :   1.1536 B(  0-C ,  7-H ) :   0.2158 B(  0-C , 10-H ) :   0.6796
B(  0-C , 11-H ) :   0.7074 B(  0-C , 12-H ) :   0.6486 B(  1-C ,  2-C ) :   1.5958
B(  1-C ,  3-N ) :   0.3079 B(  1-C ,  4-N ) :   0.2756 B(  1-C ,  7-H ) :   0.9126
B(  1-C , 10-H ) :   0.3135 B(  1-C , 11-H ) :   0.1750 B(  1-C , 12-H ) :   0.3329
B(  2-C ,  3-N ) :   0.9435 B(  2-C ,  4-N ) :   0.9381 B(  2-C ,  6-H ) :  -0.1826
B(  2-C ,  7-H ) :   0.2387 B(  2-C ,  9-H ) :  -0.1092 B(  3-N ,  8-H ) :   1.1447
B(  3-N ,  9-H ) :   1.2639 B(  4-N ,  5-H ) :   1.1020 B(  4-N ,  6-H ) :   1.3275
B(  5-H ,  6-H ) :  -0.1928 B(  8-H ,  9-H ) :  -0.1750 B( 10-H , 12-H ) :   0.1059

Dispersion correction           -0.015764466
FINAL SINGLE POINT ENERGY      -228.321091091414

DIPOLE MOMENT
-------------
                                X             Y             Z
Electronic contribution:      2.73163      -0.66509      -1.59087
Nuclear contribution   :     -1.78367       0.60166       1.44982
                        -----------------------------------------
Total Dipole Moment    :      0.94796      -0.06343      -0.14105
                        -----------------------------------------
Magnitude (a.u.)       :      0.96050
Magnitude (Debye)      :      2.44139

Rotational constants in cm-1:     0.313991     0.135452     0.097139
Rotational constants in MHz :  9413.212964  4060.745953  2912.144668

                             ****ORCA TERMINATED NORMALLY****
TOTAL RUN TIME: 0 days 0 hours 0 minutes 11 seconds 746 msec
