                         Program Version 5.0.0 -  RELEASE  -
|  1> !B3LYP D3BJ RIJCOSX def2-SVPD def2/J TightSCF
|  2> *xyz 0 1
|  3> C          1.69499        1.54179       -5.57045
|  4> S          1.78029       -0.03313       -6.42874
|  5> O          2.56929        0.21366       -7.60736
|  6> F          0.41688       -0.46297       -6.61859
|  7> O          2.50513       -0.93326       -5.48257
|  8> H          1.18489        2.25500       -6.18367
|  9> H          2.68564        1.89081       -5.36624
| 10> H          1.16361        1.41804       -4.65000
| 11> *
| 12> %MaxCore 64000
| 13>
| 14> %pal nprocs 8
| 15> end
| 16>
| 17> %scf
| 18>   MaxIter 150
| 19> end
| 20>
| 21>
| 22>                          ****END OF INPUT****

CARTESIAN COORDINATES (ANGSTROEM)
---------------------------------
  C      1.694990    1.541790   -5.570450
  S      1.780290   -0.033130   -6.428740
  O      2.569290    0.213660   -7.607360
  F      0.416880   -0.462970   -6.618590
  O      2.505130   -0.933260   -5.482570
  H      1.184890    2.255000   -6.183670
  H      2.685640    1.890810   -5.366240
  H      1.163610    1.418040   -4.650000

 Total Charge           Charge          ....    0
 Multiplicity           Mult            ....    1
 Number of Electrons    NEL             ....   50
 Basis Dimension        Dim             ....  140

ORBITAL ENERGIES
----------------

  NO   OCC          E(Eh)            E(eV)
   0   2.0000     -89.147055     -2425.8147
   1   2.0000     -24.822259      -675.4480
   2   2.0000     -19.158706      -521.3349
   3   2.0000     -19.141062      -520.8548
   4   2.0000     -10.247027      -278.8358
   5   2.0000      -8.201398      -223.1714
   6   2.0000      -6.174427      -168.0147
   7   2.0000      -6.167904      -167.8372
   8   2.0000      -6.166830      -167.8080
   9   2.0000      -1.384000       -37.6606
  10   2.0000      -1.112996       -30.2862
  11   2.0000      -1.002575       -27.2815
  12   2.0000      -0.803760       -21.8714
  13   2.0000      -0.725345       -19.7377
  14   2.0000      -0.611603       -16.6426
  15   2.0000      -0.596407       -16.2291
  16   2.0000      -0.561508       -15.2794
  17   2.0000      -0.483676       -13.1615
  18   2.0000      -0.481656       -13.1065
  19   2.0000      -0.472670       -12.8620
  20   2.0000      -0.442814       -12.0496
  21   2.0000      -0.391367       -10.6497
  22   2.0000      -0.345082        -9.3902
  23   2.0000      -0.327394        -8.9088
  24   2.0000      -0.308681        -8.3996
  25   0.0000      -0.013692        -0.3726
  26   0.0000       0.029067         0.7910
  27   0.0000       0.029122         0.7924
  28   0.0000       0.043994         1.1971
  29   0.0000       0.045453         1.2368

MULLIKEN ATOMIC CHARGES
-----------------------
   0 C :    0.685040
   1 S :    1.262056
   2 O :   -0.614042
   3 F :   -0.377816
   4 O :   -0.667700
   5 H :   -0.096195
   6 H :   -0.096972
   7 H :   -0.094372
Sum of atomic charges:    0.0000000

LOEWDIN ATOMIC CHARGES
----------------------
   0 C :    0.130768
   1 S :    1.108201
   2 O :   -0.462521
   3 F :   -0.256630
   4 O :   -0.488298
   5 H :   -0.016499
   6 H :   -0.000411
   7 H :   -0.014610

  Mayer bond orders larger than 0.100000
B(  0-C ,  1-S ) :   0.9856 B(  0-C ,  5-H ) :   0.8801 B(  0-C ,  6-H ) :   0.8825
B(  0-C ,  7-H ) :   0.8855 B(  1-S ,  2-O ) :   1.5462 B(  1-S ,  3-F ) :   0.7099
B(  1-S ,  4-O ) :   1.4955 B(  1-S ,  6-H ) :   0.1319 B(  1-S ,  7-H ) :   0.1042

Dispersion correction           -0.010387482
FINAL SINGLE POINT ENERGY      -687.804793721104

DIPOLE MOMENT
-------------
                                X             Y             Z
Electronic contribution:     -2.16808      -4.33048      -2.49809
Nuclear contribution   :      1.05593       5.58608       2.95063
                        -----------------------------------------
Total Dipole Moment    :     -1.11215       1.25560       0.45254
                        -----------------------------------------
Magnitude (a.u.)       :      1.73730
Magnitude (Debye)      :      4.41586

Rotational constants in cm-1:     0.163930     0.155251     0.146268
Rotational constants in MHz :  4914.487830  4654.318941  4385.000376

                             ****ORCA TERMINATED NORMALLY****
TOTAL RUN TIME: 0 days 0 hours 0 minutes 7 seconds 679 msec
