                         Program Version 5.0.0 -  RELEASE  -
|  1> !B3LYP D3BJ RIJCOSX def2-SVPD def2/J TightSCF
|  2> *xyz 0 1
|  3> C          1.96337       -1.74915       -1.89689
|  4> N          2.73849       -2.01517       -3.09711
|  5> C          4.04974       -2.15472       -3.15204
|  6> C          4.65821       -1.98629       -4.31866
|  7> N          4.76423       -2.45444       -2.05049
|  8> H          4.28736       -2.77626       -1.21750
|  9> H          5.75082       -2.65835       -2.12599
| 10> H          2.34518       -1.69027       -3.97145
| 11> H          4.10900       -1.59268       -5.07176
| 12> H          5.64910       -2.15646       -4.42724
| 13> H          0.92556       -1.68522       -2.14942
| 14> H          2.28268       -0.82430       -1.46378
| 15> H          2.11118       -2.54207       -1.19381
| 16> *
| 17> %MaxCore 64000
| 18>
| 19> %pal nprocs 8
| 20> end
| 21>
| 22> %scf
| 23>   MaxIter 150
| 24> end
| 25>
| 26>
| 27>                          ****END OF INPUT****

CARTESIAN COORDINATES (ANGSTROEM)
---------------------------------
  C      1.963370   -1.749150   -1.896890
  N      2.738490   -2.015170   -3.097110
  C      4.049740   -2.154720   -3.152040
  C      4.658210   -1.986290   -4.318660
  N      4.764230   -2.454440   -2.050490
  H      4.287360   -2.776260   -1.217500
  H      5.750820   -2.658350   -2.125990
  H      2.345180   -1.690270   -3.971450
  H      4.109000   -1.592680   -5.071760
  H      5.649100   -2.156460   -4.427240
  H      0.925560   -1.685220   -2.149420
  H      2.282680   -0.824300   -1.463780
  H      2.111180   -2.542070   -1.193810

 Total Charge           Charge          ....    0
 Multiplicity           Mult            ....    1
 Number of Electrons    NEL             ....   40
 Basis Dimension        Dim             ....  164

ORBITAL ENERGIES
----------------

  NO   OCC          E(Eh)            E(eV)
   0   2.0000     -14.330691      -389.9579
   1   2.0000     -14.329198      -389.9173
   2   2.0000     -10.226384      -278.2741
   3   2.0000     -10.215403      -277.9752
   4   2.0000     -10.095432      -274.7107
   5   2.0000      -0.958968       -26.0948
   6   2.0000      -0.873425       -23.7671
   7   2.0000      -0.739059       -20.1108
   8   2.0000      -0.660888       -17.9837
   9   2.0000      -0.598217       -16.2783
  10   2.0000      -0.534216       -14.5368
  11   2.0000      -0.493148       -13.4192
  12   2.0000      -0.476892       -12.9769
  13   2.0000      -0.455116       -12.3843
  14   2.0000      -0.405396       -11.0314
  15   2.0000      -0.392017       -10.6673
  16   2.0000      -0.386153       -10.5078
  17   2.0000      -0.360922        -9.8212
  18   2.0000      -0.256217        -6.9720
  19   2.0000      -0.162444        -4.4203
  20   0.0000       0.010456         0.2845
  21   0.0000       0.045062         1.2262
  22   0.0000       0.046475         1.2646
  23   0.0000       0.069089         1.8800
  24   0.0000       0.081468         2.2169

MULLIKEN ATOMIC CHARGES
-----------------------
   0 C :    1.309065
   1 N :   -0.412763
   2 C :    0.624595
   3 C :    0.469700
   4 N :    0.193593
   5 H :   -0.196468
   6 H :   -0.166250
   7 H :   -0.226904
   8 H :   -0.335976
   9 H :   -0.510181
  10 H :   -0.399935
  11 H :   -0.137666
  12 H :   -0.210810
Sum of atomic charges:    0.0000000

LOEWDIN ATOMIC CHARGES
----------------------
   0 C :    0.207644
   1 N :   -0.042242
   2 C :   -0.244142
   3 C :    0.148831
   4 N :    0.203148
   5 H :   -0.025100
   6 H :    0.002061
   7 H :    0.024214
   8 H :   -0.106233
   9 H :   -0.104998
  10 H :   -0.014873
  11 H :   -0.019982
  12 H :   -0.028327

  Mayer bond orders larger than 0.100000
B(  0-C ,  1-N ) :   0.9582 B(  0-C , 10-H ) :   0.7277 B(  0-C , 11-H ) :   0.7977
B(  0-C , 12-H ) :   0.7878 B(  1-N ,  2-C ) :   1.0962 B(  1-N ,  3-C ) :   0.2324
B(  1-N ,  4-N ) :   0.1441 B(  1-N ,  7-H ) :   1.1801 B(  1-N , 10-H ) :   0.1916
B(  1-N , 11-H ) :   0.1365 B(  1-N , 12-H ) :   0.1868 B(  2-C ,  3-C ) :   1.3457
B(  2-C ,  4-N ) :   0.9978 B(  2-C ,  7-H ) :  -0.1326 B(  2-C ,  8-H ) :   0.1251
B(  2-C ,  9-H ) :   0.1308 B(  3-C ,  4-N ) :   0.2109 B(  3-C ,  8-H ) :   0.8156
B(  3-C ,  9-H ) :   0.7793 B(  4-N ,  5-H ) :   1.1135 B(  4-N ,  6-H ) :   1.2040
B(  5-H ,  6-H ) :  -0.1954

Dispersion correction           -0.015632841
FINAL SINGLE POINT ENERGY      -228.313947875970

DIPOLE MOMENT
-------------
                                X             Y             Z
Electronic contribution:      0.86933      -0.64735      -0.33560
Nuclear contribution   :     -1.39484       0.60751       1.20240
                        -----------------------------------------
Total Dipole Moment    :     -0.52551      -0.03984       0.86680
                        -----------------------------------------
Magnitude (a.u.)       :      1.01444
Magnitude (Debye)      :      2.57850

Rotational constants in cm-1:     0.316419     0.139940     0.099730
Rotational constants in MHz :  9485.991536  4195.289338  2989.818216

                             ****ORCA TERMINATED NORMALLY****
TOTAL RUN TIME: 0 days 0 hours 0 minutes 9 seconds 465 msec
