                         Program Version 5.0.0 -  RELEASE  -
|  1> !B3LYP D3BJ RIJCOSX def2-SVPD def2/J TightSCF
|  2> *xyz 0 1
|  3> C          1.69499        1.54179       -5.57045
|  4> S          1.78029       -0.03313       -6.42874
|  5> O          2.56929        0.21366       -7.60736
|  6> O          0.41688       -0.46297       -6.61859
|  7> F          2.50513       -0.93326       -5.48257
|  8> H          1.18489        2.25500       -6.18367
|  9> H          2.68564        1.89081       -5.36624
| 10> H          1.16361        1.41804       -4.65000
| 11> *
| 12> %MaxCore 64000
| 13>
| 14> %pal nprocs 8
| 15> end
| 16>
| 17> %scf
| 18>   MaxIter 150
| 19> end
| 20>
| 21>
| 22>                          ****END OF INPUT****

CARTESIAN COORDINATES (ANGSTROEM)
---------------------------------
  C      1.694990    1.541790   -5.570450
  S      1.780290   -0.033130   -6.428740
  O      2.569290    0.213660   -7.607360
  O      0.416880   -0.462970   -6.618590
  F      2.505130   -0.933260   -5.482570
  H      1.184890    2.255000   -6.183670
  H      2.685640    1.890810   -5.366240
  H      1.163610    1.418040   -4.650000

 Total Charge           Charge          ....    0
 Multiplicity           Mult            ....    1
 Number of Electrons    NEL             ....   50
 Basis Dimension        Dim             ....  140

ORBITAL ENERGIES
----------------

  NO   OCC          E(Eh)            E(eV)
   0   2.0000     -89.144693     -2425.7504
   1   2.0000     -24.795721      -674.7259
   2   2.0000     -19.159196      -521.3482
   3   2.0000     -19.158020      -521.3162
   4   2.0000     -10.245705      -278.7998
   5   2.0000      -8.198875      -223.1027
   6   2.0000      -6.171617      -167.9382
   7   2.0000      -6.165670      -167.7764
   8   2.0000      -6.164600      -167.7473
   9   2.0000      -1.340142       -36.4671
  10   2.0000      -1.124040       -30.5867
  11   2.0000      -1.030595       -28.0439
  12   2.0000      -0.800694       -21.7880
  13   2.0000      -0.702903       -19.1270
  14   2.0000      -0.591994       -16.1090
  15   2.0000      -0.565921       -15.3995
  16   2.0000      -0.556071       -15.1315
  17   2.0000      -0.484209       -13.1760
  18   2.0000      -0.483125       -13.1465
  19   2.0000      -0.470042       -12.7905
  20   2.0000      -0.450748       -12.2655
  21   2.0000      -0.398328       -10.8391
  22   2.0000      -0.349562        -9.5121
  23   2.0000      -0.346255        -9.4221
  24   2.0000      -0.328815        -8.9475
  25   0.0000      -0.009633        -0.2621
  26   0.0000       0.028078         0.7640
  27   0.0000       0.031826         0.8660
  28   0.0000       0.045529         1.2389
  29   0.0000       0.046100         1.2545

MULLIKEN ATOMIC CHARGES
-----------------------
   0 C :    0.682625
   1 S :    1.272838
   2 O :   -0.630967
   3 O :   -0.631515
   4 F :   -0.402089
   5 H :   -0.104475
   6 H :   -0.090665
   7 H :   -0.095752
Sum of atomic charges:    0.0000000

LOEWDIN ATOMIC CHARGES
----------------------
   0 C :    0.131175
   1 S :    1.104983
   2 O :   -0.463483
   3 O :   -0.462250
   4 F :   -0.278828
   5 H :   -0.002527
   6 H :   -0.014247
   7 H :   -0.014823

  Mayer bond orders larger than 0.100000
B(  0-C ,  1-S ) :   0.9849 B(  0-C ,  5-H ) :   0.8774 B(  0-C ,  6-H ) :   0.8851
B(  0-C ,  7-H ) :   0.8866 B(  1-S ,  2-O ) :   1.5415 B(  1-S ,  3-O ) :   1.5389
B(  1-S ,  4-F ) :   0.6498 B(  1-S ,  5-H ) :   0.1235 B(  1-S ,  6-H ) :   0.1065
B(  1-S ,  7-H ) :   0.1059 B(  2-O ,  3-O ) :   0.1019

Dispersion correction           -0.010386829
FINAL SINGLE POINT ENERGY      -687.828076169075

DIPOLE MOMENT
-------------
                                X             Y             Z
Electronic contribution:      1.30876      -5.12914      -0.58753
Nuclear contribution   :     -1.03036       6.05593       1.81567
                        -----------------------------------------
Total Dipole Moment    :      0.27840       0.92679       1.22814
                        -----------------------------------------
Magnitude (a.u.)       :      1.56358
Magnitude (Debye)      :      3.97429

Rotational constants in cm-1:     0.164224     0.152173     0.148737
Rotational constants in MHz :  4923.310232  4562.031098  4459.033187

                             ****ORCA TERMINATED NORMALLY****
TOTAL RUN TIME: 0 days 0 hours 0 minutes 7 seconds 199 msec
