                         Program Version 5.0.0 -  RELEASE  -
|  1> !B3LYP D3BJ RIJCOSX def2-SVPD def2/J TightSCF
|  2> *xyz 0 1
|  3> C          1.96337       -1.74915       -1.89689
|  4> N          2.73849       -2.01517       -3.09711
|  5> C          4.04974       -2.15472       -3.15204
|  6> N          4.65821       -1.98629       -4.31866
|  7> C          4.76423       -2.45444       -2.05049
|  8> H          4.28736       -2.77626       -1.21750
|  9> H          5.75082       -2.65835       -2.12599
| 10> H          2.34518       -1.69027       -3.97145
| 11> H          4.10900       -1.59268       -5.07176
| 12> H          5.64910       -2.15646       -4.42724
| 13> H          0.92556       -1.68522       -2.14942
| 14> H          2.28268       -0.82430       -1.46378
| 15> H          2.11118       -2.54207       -1.19381
| 16> *
| 17> %MaxCore 64000
| 18>
| 19> %pal nprocs 8
| 20> end
| 21>
| 22> %scf
| 23>   MaxIter 150
| 24> end
| 25>
| 26>
| 27>                          ****END OF INPUT****

CARTESIAN COORDINATES (ANGSTROEM)
---------------------------------
  C      1.963370   -1.749150   -1.896890
  N      2.738490   -2.015170   -3.097110
  C      4.049740   -2.154720   -3.152040
  N      4.658210   -1.986290   -4.318660
  C      4.764230   -2.454440   -2.050490
  H      4.287360   -2.776260   -1.217500
  H      5.750820   -2.658350   -2.125990
  H      2.345180   -1.690270   -3.971450
  H      4.109000   -1.592680   -5.071760
  H      5.649100   -2.156460   -4.427240
  H      0.925560   -1.685220   -2.149420
  H      2.282680   -0.824300   -1.463780
  H      2.111180   -2.542070   -1.193810

 Total Charge           Charge          ....    0
 Multiplicity           Mult            ....    1
 Number of Electrons    NEL             ....   40
 Basis Dimension        Dim             ....  164

ORBITAL ENERGIES
----------------

  NO   OCC          E(Eh)            E(eV)
   0   2.0000     -14.334163      -390.0524
   1   2.0000     -14.331975      -389.9929
   2   2.0000     -10.227912      -278.3156
   3   2.0000     -10.208939      -277.7993
   4   2.0000     -10.097208      -274.7590
   5   2.0000      -0.964957       -26.2578
   6   2.0000      -0.876848       -23.8603
   7   2.0000      -0.714379       -19.4392
   8   2.0000      -0.690465       -18.7885
   9   2.0000      -0.567104       -15.4317
  10   2.0000      -0.546850       -14.8805
  11   2.0000      -0.524615       -14.2755
  12   2.0000      -0.453421       -12.3382
  13   2.0000      -0.449185       -12.2230
  14   2.0000      -0.417067       -11.3490
  15   2.0000      -0.384058       -10.4507
  16   2.0000      -0.373221       -10.1559
  17   2.0000      -0.366007        -9.9596
  18   2.0000      -0.252262        -6.8644
  19   2.0000      -0.165916        -4.5148
  20   0.0000       0.010496         0.2856
  21   0.0000       0.036084         0.9819
  22   0.0000       0.050417         1.3719
  23   0.0000       0.072021         1.9598
  24   0.0000       0.083759         2.2792

MULLIKEN ATOMIC CHARGES
-----------------------
   0 C :    1.324592
   1 N :   -0.383904
   2 C :    0.575025
   3 N :    0.192799
   4 C :    0.507147
   5 H :   -0.194731
   6 H :   -0.680397
   7 H :   -0.356425
   8 H :   -0.172262
   9 H :   -0.155827
  10 H :   -0.425816
  11 H :   -0.160158
  12 H :   -0.070043
Sum of atomic charges:   -0.0000000

LOEWDIN ATOMIC CHARGES
----------------------
   0 C :    0.215459
   1 N :   -0.045283
   2 C :   -0.250023
   3 N :    0.188088
   4 C :    0.167788
   5 H :   -0.118420
   6 H :   -0.111833
   7 H :    0.009617
   8 H :   -0.013405
   9 H :    0.008799
  10 H :   -0.016255
  11 H :   -0.014828
  12 H :   -0.019703

  Mayer bond orders larger than 0.100000
B(  0-C ,  1-N ) :   0.9570 B(  0-C ,  7-H ) :  -0.1153 B(  0-C , 10-H ) :   0.7501
B(  0-C , 11-H ) :   0.7876 B(  0-C , 12-H ) :   0.8020 B(  1-N ,  2-C ) :   1.0215
B(  1-N ,  3-N ) :   0.1514 B(  1-N ,  4-C ) :   0.3410 B(  1-N ,  7-H ) :   1.2508
B(  1-N , 10-H ) :   0.1793 B(  1-N , 11-H ) :   0.1741 B(  1-N , 12-H ) :   0.1089
B(  2-C ,  3-N ) :   0.9446 B(  2-C ,  4-C ) :   1.6035 B(  2-C ,  5-H ) :   0.2438
B(  2-C ,  6-H ) :   0.1308 B(  2-C ,  7-H ) :  -0.1589 B(  2-C ,  9-H ) :  -0.1060
B(  3-N ,  4-C ) :   0.2298 B(  3-N ,  8-H ) :   1.1503 B(  3-N ,  9-H ) :   1.2519
B(  4-C ,  5-H ) :   0.6780 B(  4-C ,  6-H ) :   0.8435 B(  8-H ,  9-H ) :  -0.1689

Dispersion correction           -0.015719229
FINAL SINGLE POINT ENERGY      -228.314846786337

DIPOLE MOMENT
-------------
                                X             Y             Z
Electronic contribution:      0.79410      -0.13497      -2.54045
Nuclear contribution   :     -1.37336       0.51269       1.66180
                        -----------------------------------------
Total Dipole Moment    :     -0.57927       0.37772      -0.87865
                        -----------------------------------------
Magnitude (a.u.)       :      1.11814
Magnitude (Debye)      :      2.84210

Rotational constants in cm-1:     0.331915     0.135033     0.098638
Rotational constants in MHz :  9950.555862  4048.179255  2957.099162

                             ****ORCA TERMINATED NORMALLY****
TOTAL RUN TIME: 0 days 0 hours 0 minutes 10 seconds 464 msec
