                         Program Version 5.0.0 -  RELEASE  -
|  1> !B3LYP D3BJ RIJCOSX def2-SVPD def2/J TightSCF xyzfile
|  2>
|  3> *xyzfile 0 1 D6.xyz
|  4>
|  5> %MaxCore 64000
|  6>
|  7> %pal nprocs 4
|  8> end
|  9>
| 10> %scf
| 11>   MaxIter 150
| 12> end
| 13>
| 14>
| 15>                          ****END OF INPUT****

CARTESIAN COORDINATES (ANGSTROEM)
---------------------------------
  C      1.963365   -1.749150   -1.896887
  N      2.738490   -2.015170   -3.097113
  C      0.611877    1.657634   -4.500288
  C      1.694991    1.541794   -5.570447
  H      2.697326    1.734659   -5.183996
  H      1.506656    2.272239   -6.358076
  S      1.780287   -0.033128   -6.428739
  C      4.049736   -2.154717   -3.152044
  N      4.658206   -1.986293   -4.318655
  C      4.764231   -2.454435   -2.050491
  H      4.287363   -2.776259   -1.217496
  H      5.750825   -2.658351   -2.125988
  H      2.345176   -1.690274   -3.971447
  H      4.109004   -1.592677   -5.071760
  H      5.649095   -2.156462   -4.427237
  O      2.569287    0.213657   -7.607360
  F      0.416880   -0.462969   -6.618595
  C      2.088520   -0.300912   -1.415204
  H      2.231272   -2.451616   -1.102643
  H      0.930249   -1.977801   -2.155438
  C      0.680356    0.655418   -3.348038
  H     -0.356865    1.549231   -4.991128
  H      0.650228    2.675438   -4.096000
  C      1.968993    0.733582   -2.535654
  H      3.051356   -0.168602   -0.911868
  H      1.316501   -0.136231   -0.657252
  O      2.505129   -0.933263   -5.482570
  H      2.824195    0.624726   -3.208464
  H      2.058919    1.730331   -2.093112
  H      0.542252   -0.344731   -3.766662
  H     -0.174219    0.829692   -2.685182

 Total Charge           Charge          ....    0
 Multiplicity           Mult            ....    1
 Number of Electrons    NEL             ....  120
 Basis Dimension        Dim             ....  432

ORBITAL ENERGIES
----------------

  NO   OCC          E(Eh)            E(eV)
   0   2.0000     -89.168613     -2426.4013
   1   2.0000     -24.841547      -675.9729
   2   2.0000     -19.179720      -521.9067
   3   2.0000     -19.170829      -521.6648
   4   2.0000     -14.297261      -389.0483
   5   2.0000     -14.296955      -389.0399
   6   2.0000     -10.262908      -279.2679
   7   2.0000     -10.227385      -278.3013
   8   2.0000     -10.203934      -277.6632
   9   2.0000     -10.201996      -277.6104
  10   2.0000     -10.201660      -277.6013
  11   2.0000     -10.185818      -277.1702
  12   2.0000     -10.172879      -276.8181
  13   2.0000     -10.073837      -274.1230
  14   2.0000      -8.222036      -223.7330
  15   2.0000      -6.195150      -168.5786
  16   2.0000      -6.189043      -168.4124
  17   2.0000      -6.186973      -168.3561
  18   2.0000      -1.402507       -38.1642
  19   2.0000      -1.137211       -30.9451
  20   2.0000      -1.034623       -28.1535
  21   2.0000      -0.938170       -25.5289
  22   2.0000      -0.856569       -23.3084
  23   2.0000      -0.849397       -23.1133
  24   2.0000      -0.794504       -21.6196
  25   2.0000      -0.758230       -20.6325
  26   2.0000      -0.728044       -19.8111
  27   2.0000      -0.686529       -18.6814
  28   2.0000      -0.675609       -18.3843
  29   2.0000      -0.641414       -17.4538
  30   2.0000      -0.618334       -16.8257
  31   2.0000      -0.616153       -16.7664
  32   2.0000      -0.587020       -15.9736
  33   2.0000      -0.573233       -15.5985
  34   2.0000      -0.535614       -14.5748
  35   2.0000      -0.524800       -14.2805
  36   2.0000      -0.512125       -13.9356
  37   2.0000      -0.510242       -13.8844
  38   2.0000      -0.499593       -13.5946
  39   2.0000      -0.488608       -13.2957
  40   2.0000      -0.467755       -12.7283
  41   2.0000      -0.459500       -12.5036
  42   2.0000      -0.443879       -12.0786
  43   2.0000      -0.434506       -11.8235
  44   2.0000      -0.429185       -11.6787
  45   2.0000      -0.412280       -11.2187
  46   2.0000      -0.396703       -10.7948
  47   2.0000      -0.394655       -10.7391
  48   2.0000      -0.377406       -10.2697
  49   2.0000      -0.370638       -10.0856
  50   2.0000      -0.362691        -9.8693
  51   2.0000      -0.361219        -9.8293
  52   2.0000      -0.350320        -9.5327
  53   2.0000      -0.344513        -9.3747
  54   2.0000      -0.336167        -9.1476
  55   2.0000      -0.333296        -9.0695
  56   2.0000      -0.331349        -9.0165
  57   2.0000      -0.320009        -8.7079
  58   2.0000      -0.225196        -6.1279
  59   2.0000      -0.142100        -3.8667
  60   0.0000      -0.025968        -0.7066
  61   0.0000       0.006677         0.1817
  62   0.0000       0.012732         0.3465
  63   0.0000       0.023305         0.6342
  64   0.0000       0.024968         0.6794

MULLIKEN ATOMIC CHARGES
-----------------------
   0 C :    1.123305
   1 N :    0.241697
   2 C :    0.637826
   3 C :    0.278151
   4 H :    0.019467
   5 H :   -0.182660
   6 S :    1.567435
   7 C :    0.653793
   8 N :    0.553430
   9 C :    0.551173
  10 H :   -0.077149
  11 H :   -0.779531
  12 H :   -0.873345
  13 H :   -0.365626
  14 H :   -0.294562
  15 O :   -0.648241
  16 F :   -0.464125
  17 C :    0.628566
  18 H :   -0.418470
  19 H :   -0.288037
  20 C :    0.189402
  21 H :   -0.104309
  22 H :   -0.127492
  23 C :    0.162208
  24 H :   -0.194720
  25 H :   -0.121817
  26 O :   -0.825258
  27 H :   -0.018881
  28 H :   -0.407730
  29 H :   -0.134041
  30 H :   -0.280460
Sum of atomic charges:   -0.0000000

LOEWDIN ATOMIC CHARGES
----------------------
   0 C :    0.070333
   1 N :    0.011490
   2 C :   -0.027226
   3 C :   -0.025015
   4 H :    0.033451
   5 H :    0.022095
   6 S :    1.193054
   7 C :   -0.225499
   8 N :    0.215492
   9 C :    0.157184
  10 H :   -0.123861
  11 H :   -0.116570
  12 H :   -0.090622
  13 H :   -0.088038
  14 H :    0.007395
  15 O :   -0.434298
  16 F :   -0.237198
  17 C :   -0.002670
  18 H :    0.011377
  19 H :    0.010886
  20 C :   -0.021612
  21 H :    0.021806
  22 H :    0.035590
  23 C :   -0.019575
  24 H :    0.015822
  25 H :    0.016317
  26 O :   -0.472470
  27 H :    0.007477
  28 H :    0.022833
  29 H :   -0.000431
  30 H :    0.032484

  Mayer bond orders larger than 0.100000
B(  0-C ,  1-N ) :   0.9638 B(  0-C ,  7-C ) :  -0.1074 B(  0-C , 12-H ) :  -0.3787
B(  0-C , 17-C ) :   1.0099 B(  0-C , 18-H ) :   0.8167 B(  0-C , 19-H ) :   0.6351
B(  0-C , 23-C ) :   0.1272 B(  0-C , 25-H ) :   0.1215 B(  1-N ,  7-C ) :   0.9245
B(  1-N ,  9-C ) :   0.4941 B(  1-N , 12-H ) :   0.8626 B(  1-N , 13-H ) :   0.1128
B(  1-N , 19-H ) :   0.1664 B(  1-N , 26-O ) :  -0.1049 B(  2-C ,  3-C ) :   1.2266
B(  2-C ,  4-H ) :   0.1156 B(  2-C ,  5-H ) :   0.1951 B(  2-C , 20-C ) :   1.2309
B(  2-C , 21-H ) :   0.5803 B(  2-C , 22-H ) :   0.7222 B(  3-C ,  4-H ) :   0.8790
B(  3-C ,  5-H ) :   0.8015 B(  3-C ,  6-S ) :   1.0302 B(  3-C , 21-H ) :   0.1251
B(  3-C , 22-H ) :   0.1574 B(  6-S , 15-O ) :   1.5758 B(  6-S , 16-F ) :   0.5498
B(  6-S , 26-O ) :   1.3380 B(  7-C ,  8-N ) :   0.8619 B(  7-C ,  9-C ) :   1.3946
B(  7-C , 10-H ) :   0.3467 B(  7-C , 11-H ) :   0.2784 B(  7-C , 12-H ) :  -0.3424
B(  7-C , 14-H ) :  -0.1888 B(  8-N ,  9-C ) :   0.2454 B(  8-N , 13-H ) :   1.0157
B(  8-N , 14-H ) :   1.3058 B(  9-C , 10-H ) :   0.5393 B(  9-C , 11-H ) :   0.6351
B(  9-C , 12-H ) :  -0.1303 B( 10-H , 13-H ) :   0.1003 B( 10-H , 18-H ) :   0.1549
B( 10-H , 19-H ) :  -0.1112 B( 12-H , 19-H ) :   0.1185 B( 12-H , 26-O ) :   0.1386
B( 12-H , 27-H ) :   0.1267 B( 12-H , 28-H ) :  -0.1158 B( 13-H , 14-H ) :  -0.2060
B( 13-H , 26-O ) :   0.2113 B( 16-F , 26-O ) :   0.1617 B( 17-C , 18-H ) :   0.1096
B( 17-C , 19-H ) :   0.1110 B( 17-C , 23-C ) :   1.2235 B( 17-C , 24-H ) :   0.7241
B( 17-C , 25-H ) :   0.7688 B( 17-C , 27-H ) :   0.1126 B( 18-H , 19-H ) :  -0.2275
B( 20-C , 21-H ) :   0.3128 B( 20-C , 22-H ) :   0.1000 B( 20-C , 23-C ) :   1.1835
B( 20-C , 27-H ) :   0.1299 B( 20-C , 28-H ) :   0.1631 B( 20-C , 29-H ) :   0.9069
B( 20-C , 30-H ) :   0.7609 B( 21-H , 22-H ) :  -0.1224 B( 23-C , 24-H ) :   0.2569
B( 23-C , 25-H ) :   0.1446 B( 23-C , 27-H ) :   0.8222 B( 23-C , 28-H ) :   0.8081
B( 23-C , 29-H ) :   0.1168 B( 23-C , 30-H ) :   0.1435 B( 24-H , 25-H ) :  -0.1167

Dispersion correction           -0.061673507
FINAL SINGLE POINT ENERGY     -1071.993809459088

DIPOLE MOMENT
-------------
                                X             Y             Z
Electronic contribution:     -4.85790      -1.36520     -22.71247
Nuclear contribution   :      2.90585       3.30398      21.99296
                        -----------------------------------------
Total Dipole Moment    :     -1.95205       1.93878      -0.71952
                        -----------------------------------------
Magnitude (a.u.)       :      2.84378
Magnitude (Debye)      :      7.22831

Rotational constants in cm-1:     0.029065     0.014689     0.011200
Rotational constants in MHz :   871.338526   440.374927   335.770911

                             ****ORCA TERMINATED NORMALLY****
TOTAL RUN TIME: 0 days 0 hours 3 minutes 7 seconds 630 msec
