                         Program Version 5.0.0 -  RELEASE  -
|  1> !B3LYP D3BJ RIJCOSX def2-SVPD def2/J TightSCF xyzfile
|  2>
|  3> *xyzfile 0 1 D8.xyz
|  4>
|  5> %MaxCore 64000
|  6>
|  7> %pal nprocs 4
|  8> end
|  9>
| 10> %scf
| 11>   MaxIter 150
| 12> end
| 13>
| 14>
| 15>                          ****END OF INPUT****

CARTESIAN COORDINATES (ANGSTROEM)
---------------------------------
  C      1.963365   -1.749150   -1.896887
  N      2.738490   -2.015170   -3.097113
  C      0.611877    1.657634   -4.500288
  C      1.694991    1.541794   -5.570447
  H      2.697326    1.734659   -5.183996
  H      1.506656    2.272239   -6.358076
  S      1.780287   -0.033128   -6.428739
  C      4.049736   -2.154717   -3.152044
  C      4.658206   -1.986293   -4.318655
  N      4.764231   -2.454435   -2.050491
  H      4.287363   -2.776259   -1.217496
  H      5.750825   -2.658351   -2.125988
  H      2.345176   -1.690274   -3.971447
  H      4.109004   -1.592677   -5.071760
  H      5.649095   -2.156462   -4.427237
  O      2.569287    0.213657   -7.607360
  O      0.416880   -0.462969   -6.618595
  C      2.088520   -0.300912   -1.415204
  H      2.231272   -2.451616   -1.102643
  H      0.930249   -1.977801   -2.155438
  C      0.680356    0.655418   -3.348038
  H     -0.356865    1.549231   -4.991128
  H      0.650228    2.675438   -4.096000
  C      1.968993    0.733582   -2.535654
  H      3.051356   -0.168602   -0.911868
  H      1.316501   -0.136231   -0.657252
  F      2.505129   -0.933263   -5.482570
  H      2.824195    0.624726   -3.208464
  H      2.058919    1.730331   -2.093112
  H      0.542252   -0.344731   -3.766662
  H     -0.174219    0.829692   -2.685182

 Total Charge           Charge          ....    0
 Multiplicity           Mult            ....    1
 Number of Electrons    NEL             ....  120
 Basis Dimension        Dim             ....  432

ORBITAL ENERGIES
----------------

  NO   OCC          E(Eh)            E(eV)
   0   2.0000     -89.142106     -2425.6800
   1   2.0000     -24.802271      -674.9041
   2   2.0000     -19.159545      -521.3577
   3   2.0000     -19.157722      -521.3081
   4   2.0000     -14.331361      -389.9762
   5   2.0000     -14.324630      -389.7930
   6   2.0000     -10.246415      -278.8191
   7   2.0000     -10.227065      -278.2926
   8   2.0000     -10.223693      -278.2008
   9   2.0000     -10.214436      -277.9489
  10   2.0000     -10.200969      -277.5825
  11   2.0000     -10.193766      -277.3865
  12   2.0000     -10.189226      -277.2629
  13   2.0000     -10.093270      -274.6518
  14   2.0000      -8.195591      -223.0134
  15   2.0000      -6.168632      -167.8570
  16   2.0000      -6.162419      -167.6880
  17   2.0000      -6.160926      -167.6473
  18   2.0000      -1.350201       -36.7408
  19   2.0000      -1.124893       -30.6099
  20   2.0000      -1.030046       -28.0290
  21   2.0000      -0.961586       -26.1661
  22   2.0000      -0.877800       -23.8862
  23   2.0000      -0.840304       -22.8658
  24   2.0000      -0.796215       -21.6661
  25   2.0000      -0.763530       -20.7767
  26   2.0000      -0.719884       -19.5890
  27   2.0000      -0.709429       -19.3046
  28   2.0000      -0.669613       -18.2211
  29   2.0000      -0.634311       -17.2605
  30   2.0000      -0.596416       -16.2293
  31   2.0000      -0.596004       -16.2181
  32   2.0000      -0.576928       -15.6990
  33   2.0000      -0.571091       -15.5402
  34   2.0000      -0.553018       -15.0484
  35   2.0000      -0.533578       -14.5194
  36   2.0000      -0.504976       -13.7411
  37   2.0000      -0.500493       -13.6191
  38   2.0000      -0.490038       -13.3346
  39   2.0000      -0.484770       -13.1913
  40   2.0000      -0.474977       -12.9248
  41   2.0000      -0.466140       -12.6843
  42   2.0000      -0.448836       -12.2134
  43   2.0000      -0.440873       -11.9968
  44   2.0000      -0.427672       -11.6375
  45   2.0000      -0.408403       -11.1132
  46   2.0000      -0.403709       -10.9855
  47   2.0000      -0.397361       -10.8127
  48   2.0000      -0.386870       -10.5273
  49   2.0000      -0.379094       -10.3157
  50   2.0000      -0.372251       -10.1295
  51   2.0000      -0.365703        -9.9513
  52   2.0000      -0.351273        -9.5586
  53   2.0000      -0.347494        -9.4558
  54   2.0000      -0.342866        -9.3299
  55   2.0000      -0.335320        -9.1245
  56   2.0000      -0.334094        -9.0912
  57   2.0000      -0.328124        -8.9287
  58   2.0000      -0.255350        -6.9484
  59   2.0000      -0.164499        -4.4763
  60   0.0000      -0.001554        -0.0423
  61   0.0000       0.010110         0.2751
  62   0.0000       0.017624         0.4796
  63   0.0000       0.022126         0.6021
  64   0.0000       0.031583         0.8594

MULLIKEN ATOMIC CHARGES
-----------------------
   0 C :    1.164580
   1 N :    0.080637
   2 C :    0.664149
   3 C :    0.260946
   4 H :    0.056649
   5 H :   -0.246153
   6 S :    1.577326
   7 C :    0.719006
   8 C :    0.829738
   9 N :    0.281621
  10 H :   -0.098030
  11 H :   -0.250733
  12 H :   -0.649037
  13 H :   -0.440742
  14 H :   -0.728695
  15 O :   -0.678036
  16 O :   -0.720767
  17 C :    0.581124
  18 H :   -0.528465
  19 H :   -0.242398
  20 C :    0.171843
  21 H :   -0.091468
  22 H :   -0.120165
  23 C :    0.169154
  24 H :   -0.115047
  25 H :   -0.195629
  26 F :   -0.608326
  27 H :    0.010000
  28 H :   -0.417467
  29 H :   -0.194702
  30 H :   -0.240913
Sum of atomic charges:    0.0000000

LOEWDIN ATOMIC CHARGES
----------------------
   0 C :    0.065467
   1 N :    0.010114
   2 C :   -0.022879
   3 C :   -0.032193
   4 H :    0.019340
   5 H :    0.030071
   6 S :    1.143206
   7 C :   -0.220244
   8 C :    0.176106
   9 N :    0.207348
  10 H :   -0.025709
  11 H :    0.002673
  12 H :   -0.047552
  13 H :   -0.144793
  14 H :   -0.097235
  15 O :   -0.442694
  16 O :   -0.447872
  17 C :   -0.007552
  18 H :    0.006615
  19 H :    0.015586
  20 C :   -0.019455
  21 H :    0.027131
  22 H :    0.033478
  23 C :   -0.022252
  24 H :    0.015625
  25 H :    0.017011
  26 F :   -0.303012
  27 H :    0.004480
  28 H :    0.024702
  29 H :    0.001315
  30 H :    0.033174

  Mayer bond orders larger than 0.100000
B(  0-C ,  1-N ) :   0.9276 B(  0-C , 12-H ) :  -0.3313 B(  0-C , 17-C ) :   1.0389
B(  0-C , 18-H ) :   0.7862 B(  0-C , 19-H ) :   0.5643 B(  0-C , 23-C ) :   0.1290
B(  0-C , 25-H ) :   0.1252 B(  1-N ,  7-C ) :   1.0604 B(  1-N ,  8-C ) :   0.2290
B(  1-N ,  9-N ) :   0.2170 B(  1-N , 12-H ) :   1.0651 B(  1-N , 18-H ) :   0.1092
B(  1-N , 19-H ) :   0.1668 B(  2-C ,  3-C ) :   1.2247 B(  2-C ,  4-H ) :   0.1303
B(  2-C ,  5-H ) :   0.1884 B(  2-C , 20-C ) :   1.2371 B(  2-C , 21-H ) :   0.5967
B(  2-C , 22-H ) :   0.6946 B(  3-C ,  4-H ) :   0.8700 B(  3-C ,  5-H ) :   0.7476
B(  3-C ,  6-S ) :   1.0215 B(  3-C , 21-H ) :   0.1435 B(  3-C , 22-H ) :   0.1587
B(  5-H ,  6-S ) :   0.1141 B(  6-S , 15-O ) :   1.5110 B(  6-S , 16-O ) :   1.4169
B(  6-S , 26-F ) :   0.6056 B(  7-C ,  8-C ) :   1.3040 B(  7-C ,  9-N ) :   0.9480
B(  7-C , 11-H ) :  -0.1537 B(  7-C , 12-H ) :  -0.3381 B(  7-C , 13-H ) :   0.1375
B(  7-C , 14-H ) :   0.2972 B(  8-C ,  9-N ) :   0.3067 B(  8-C , 13-H ) :   0.4199
B(  8-C , 14-H ) :   0.5645 B(  9-N , 10-H ) :   0.9599 B(  9-N , 11-H ) :   1.2706
B(  9-N , 18-H ) :   0.1043 B( 10-H , 11-H ) :  -0.2220 B( 12-H , 13-H ) :  -0.1096
B( 12-H , 19-H ) :   0.1986 B( 12-H , 24-H ) :   0.1224 B( 13-H , 14-H ) :  -0.2598
B( 13-H , 26-F ) :   0.3394 B( 16-O , 26-F ) :   0.1069 B( 17-C , 18-H ) :   0.1438
B( 17-C , 19-H ) :   0.1131 B( 17-C , 23-C ) :   1.2196 B( 17-C , 24-H ) :   0.7002
B( 17-C , 25-H ) :   0.8292 B( 17-C , 27-H ) :   0.1056 B( 18-H , 19-H ) :  -0.1834
B( 20-C , 21-H ) :   0.3190 B( 20-C , 22-H ) :   0.1028 B( 20-C , 23-C ) :   1.1722
B( 20-C , 27-H ) :   0.1076 B( 20-C , 28-H ) :   0.1490 B( 20-C , 29-H ) :   0.9185
B( 20-C , 30-H ) :   0.7622 B( 21-H , 22-H ) :  -0.1115 B( 23-C , 24-H ) :   0.2483
B( 23-C , 25-H ) :   0.1423 B( 23-C , 27-H ) :   0.8381 B( 23-C , 28-H ) :   0.8483
B( 23-C , 30-H ) :   0.1559 B( 24-H , 25-H ) :  -0.1108

Dispersion correction           -0.061166922
FINAL SINGLE POINT ENERGY     -1071.999911503756

DIPOLE MOMENT
-------------
                                X             Y             Z
Electronic contribution:     -0.86624      -2.91358     -18.31869
Nuclear contribution   :      0.50676       3.90127      20.40426
                        -----------------------------------------
Total Dipole Moment    :     -0.35949       0.98770       2.08557
                        -----------------------------------------
Magnitude (a.u.)       :      2.33547
Magnitude (Debye)      :      5.93628

Rotational constants in cm-1:     0.029548     0.014706     0.011197
Rotational constants in MHz :   885.834387   440.871746   335.667619

                             ****ORCA TERMINATED NORMALLY****
TOTAL RUN TIME: 0 days 0 hours 2 minutes 37 seconds 178 msec
