                         Program Version 5.0.0 -  RELEASE  -
|  1> !BLYP D3BJ RIJCOSX def2-SVPD def2/J TightSCF
|  2> *xyz -1 1
|  3> C         -0.87096        0.24804       -2.66280
|  4> C         -0.47749        0.60819       -4.10105
|  5> H          0.20677        1.45830       -4.11875
|  6> H         -1.36844        0.92942       -4.64785
|  7> C          0.18467       -0.50664       -4.91676
|  8> O         -0.15869       -1.70109       -4.65798
|  9> O          1.05594       -0.17441       -5.74037
| 10> H         -1.54056       -0.58646       -2.67455
| 11> H         -1.35339        1.08600       -2.20455
| 12> H          0.00660       -0.00662       -2.10609
| 13> *
| 14>
| 15> %MaxCore 64000
| 16>
| 17> %pal nprocs 4
| 18> end
| 19>
| 20> %scf
| 21>   MaxIter 150
| 22> end
| 23>
| 24>
| 25>                          ****END OF INPUT****

CARTESIAN COORDINATES (ANGSTROEM)
---------------------------------
  C     -0.870960    0.248040   -2.662800
  C     -0.477490    0.608190   -4.101050
  H      0.206770    1.458300   -4.118750
  H     -1.368440    0.929420   -4.647850
  C      0.184670   -0.506640   -4.916760
  O     -0.158690   -1.701090   -4.657980
  O      1.055940   -0.174410   -5.740370
  H     -1.540560   -0.586460   -2.674550
  H     -1.353390    1.086000   -2.204550
  H      0.006600   -0.006620   -2.106090

 Total Charge           Charge          ....   -1
 Multiplicity           Mult            ....    1
 Number of Electrons    NEL             ....   40
 Basis Dimension        Dim             ....  146

ORBITAL ENERGIES
----------------

  NO   OCC          E(Eh)            E(eV)
   0   2.0000     -18.533902      -504.3331
   1   2.0000     -18.530791      -504.2484
   2   2.0000      -9.803460      -266.7657
   3   2.0000      -9.758934      -265.5541
   4   2.0000      -9.749255      -265.2907
   5   2.0000      -0.718720       -19.5574
   6   2.0000      -0.629889       -17.1401
   7   2.0000      -0.519396       -14.1335
   8   2.0000      -0.401160       -10.9161
   9   2.0000      -0.258088        -7.0229
  10   2.0000      -0.240593        -6.5469
  11   2.0000      -0.203490        -5.5373
  12   2.0000      -0.177740        -4.8365
  13   2.0000      -0.166699        -4.5361
  14   2.0000      -0.155495        -4.2312
  15   2.0000      -0.129548        -3.5252
  16   2.0000      -0.115408        -3.1404
  17   2.0000      -0.010626        -0.2891
  18   2.0000       0.001838         0.0500
  19   2.0000       0.019172         0.5217
  20   0.0000       0.137581         3.7438
  21   0.0000       0.172791         4.7019
  22   0.0000       0.188121         5.1190
  23   0.0000       0.193095         5.2544
  24   0.0000       0.217835         5.9276

MULLIKEN ATOMIC CHARGES
-----------------------
   0 C :    1.021077
   1 C :   -0.090494
   2 H :   -0.189685
   3 H :   -0.156170
   4 C :    0.226317
   5 O :   -0.643495
   6 O :   -0.572630
   7 H :   -0.160626
   8 H :   -0.240011
   9 H :   -0.194283
Sum of atomic charges:   -1.0000000

LOEWDIN ATOMIC CHARGES
----------------------
   0 C :    0.107680
   1 C :   -0.030445
   2 H :   -0.010179
   3 H :    0.000723
   4 C :   -0.328847
   5 O :   -0.309946
   6 O :   -0.304787
   7 H :   -0.038046
   8 H :   -0.054065
   9 H :   -0.032089

  Mayer bond orders larger than 0.100000
B(  0-C ,  1-C ) :   1.2644 B(  0-C ,  2-H ) :   0.1080 B(  0-C ,  3-H ) :   0.1143
B(  0-C ,  7-H ) :   0.7309 B(  0-C ,  8-H ) :   0.6954 B(  0-C ,  9-H ) :   0.7344
B(  1-C ,  2-H ) :   0.8769 B(  1-C ,  3-H ) :   0.8202 B(  1-C ,  4-C ) :   1.0569
B(  1-C ,  7-H ) :   0.2710 B(  1-C ,  8-H ) :   0.2895 B(  1-C ,  9-H ) :   0.2361
B(  2-H ,  4-C ) :   0.2346 B(  4-C ,  5-O ) :   1.5351 B(  4-C ,  6-O ) :   1.5589

Dispersion correction           -0.013467156
FINAL SINGLE POINT ENERGY      -267.591548647305

DIPOLE MOMENT
-------------
                                X             Y             Z
Electronic contribution:      2.65467      -2.95032      -4.59239
Nuclear contribution   :     -3.54611       4.15440       5.90446
                        -----------------------------------------
Total Dipole Moment    :     -0.89145       1.20408       1.31207
                        -----------------------------------------
Magnitude (a.u.)       :      1.99149
Magnitude (Debye)      :      5.06195

Rotational constants in cm-1:     0.332789     0.132085     0.101080
Rotational constants in MHz :  9976.755824  3959.803182  3030.288811

                             ****ORCA TERMINATED NORMALLY****
TOTAL RUN TIME: 0 days 0 hours 0 minutes 14 seconds 145 msec
