                         Program Version 5.0.0 -  RELEASE  -
|  1> !BLYP D3BJ RIJCOSX def2-SVPD def2/J TightSCF
|  2> *xyz 1 1
|  3> C          2.48645       -2.67712       -2.56345
|  4> C          3.03764       -2.36672       -3.92351
|  5> N          2.28036       -2.45441       -4.96769
|  6> N          4.32174       -2.01793       -4.01664
|  7> H          4.87994       -1.91167       -3.17382
|  8> H          4.71015       -1.67088       -4.88356
|  9> H          1.27042       -2.41265       -4.86614
| 10> H          2.58183       -2.05528       -5.84688
| 11> C          2.49799       -1.46946       -1.61030
| 12> H          1.47259       -3.05153       -2.69437
| 13> H          3.08320       -3.49064       -2.14147
| 14> H          1.91240       -0.67831       -2.02991
| 15> H          3.50450       -1.13364       -1.47227
| 16> H          2.08509       -1.75655       -0.66585
| 17> *
| 18>
| 19> %MaxCore 64000
| 20>
| 21> %pal nprocs 4
| 22> end
| 23>
| 24> %scf
| 25>   MaxIter 150
| 26> end
| 27>
| 28>
| 29>                          ****END OF INPUT****

CARTESIAN COORDINATES (ANGSTROEM)
---------------------------------
  C      2.486450   -2.677120   -2.563450
  C      3.037640   -2.366720   -3.923510
  N      2.280360   -2.454410   -4.967690
  N      4.321740   -2.017930   -4.016640
  H      4.879940   -1.911670   -3.173820
  H      4.710150   -1.670880   -4.883560
  H      1.270420   -2.412650   -4.866140
  H      2.581830   -2.055280   -5.846880
  C      2.497990   -1.469460   -1.610300
  H      1.472590   -3.051530   -2.694370
  H      3.083200   -3.490640   -2.141470
  H      1.912400   -0.678310   -2.029910
  H      3.504500   -1.133640   -1.472270
  H      2.085090   -1.756550   -0.665850

 Total Charge           Charge          ....    1
 Multiplicity           Mult            ....    1
 Number of Electrons    NEL             ....   40
 Basis Dimension        Dim             ....  172

ORBITAL ENERGIES
----------------

  NO   OCC          E(Eh)            E(eV)
   0   2.0000     -14.274195      -388.4206
   1   2.0000     -14.269073      -388.2812
   2   2.0000     -10.239049      -278.6187
   3   2.0000     -10.121172      -275.4111
   4   2.0000     -10.082021      -274.3457
   5   2.0000      -1.110242       -30.2112
   6   2.0000      -1.020688       -27.7743
   7   2.0000      -0.886064       -24.1110
   8   2.0000      -0.795218       -21.6390
   9   2.0000      -0.750419       -20.4199
  10   2.0000      -0.720262       -19.5993
  11   2.0000      -0.690603       -18.7923
  12   2.0000      -0.651398       -17.7254
  13   2.0000      -0.600295       -16.3349
  14   2.0000      -0.573251       -15.5990
  15   2.0000      -0.559706       -15.2304
  16   2.0000      -0.504406       -13.7256
  17   2.0000      -0.493544       -13.4300
  18   2.0000      -0.484156       -13.1745
  19   2.0000      -0.455532       -12.3957
  20   0.0000      -0.247432        -6.7330
  21   0.0000      -0.184614        -5.0236
  22   0.0000      -0.143752        -3.9117
  23   0.0000      -0.142234        -3.8704
  24   0.0000      -0.110427        -3.0049

MULLIKEN ATOMIC CHARGES
-----------------------
   0 C :    0.033183
   1 C :    0.335302
   2 N :    0.400122
   3 N :    0.369518
   4 H :   -0.053938
   5 H :   -0.219630
   6 H :   -0.059712
   7 H :   -0.165245
   8 C :    1.110547
   9 H :   -0.127225
  10 H :   -0.094432
  11 H :   -0.211246
  12 H :   -0.195544
  13 H :   -0.121701
Sum of atomic charges:    1.0000000

LOEWDIN ATOMIC CHARGES
----------------------
   0 C :    0.022841
   1 C :   -0.065154
   2 N :    0.301583
   3 N :    0.307532
   4 H :    0.044436
   5 H :    0.040731
   6 H :    0.055510
   7 H :    0.046330
   8 C :    0.186547
   9 H :    0.030725
  10 H :    0.049123
  11 H :   -0.005200
  12 H :   -0.019830
  13 H :    0.004825

  Mayer bond orders larger than 0.100000
B(  0-C ,  1-C ) :   1.1914 B(  0-C ,  8-C ) :   1.2644 B(  0-C ,  9-H ) :   0.7891
B(  0-C , 10-H ) :   0.7783 B(  0-C , 11-H ) :   0.2116 B(  0-C , 12-H ) :   0.2446
B(  0-C , 13-H ) :   0.2120 B(  1-C ,  2-N ) :   1.1859 B(  1-C ,  3-N ) :   1.2068
B(  1-C ,  5-H ) :  -0.1508 B(  1-C ,  7-H ) :  -0.1167 B(  1-C ,  9-H ) :   0.2513
B(  1-C , 10-H ) :   0.1356 B(  2-N ,  3-N ) :   0.1685 B(  2-N ,  6-H ) :   1.0648
B(  2-N ,  7-H ) :   1.1771 B(  3-N ,  4-H ) :   1.1113 B(  3-N ,  5-H ) :   1.2593
B(  4-H ,  5-H ) :  -0.1860 B(  6-H ,  7-H ) :  -0.1369 B(  8-C ,  9-H ) :   0.1074
B(  8-C , 11-H ) :   0.7104 B(  8-C , 12-H ) :   0.6859 B(  8-C , 13-H ) :   0.7610

Dispersion correction           -0.020570697
FINAL SINGLE POINT ENERGY      -228.785426443131

DIPOLE MOMENT
-------------
                                X             Y             Z
Electronic contribution:      1.06937      -1.08018      -3.91961
Nuclear contribution   :     -0.84604       1.34287       2.92710
                        -----------------------------------------
Total Dipole Moment    :      0.22333       0.26269      -0.99251
                        -----------------------------------------
Magnitude (a.u.)       :      1.05069
Magnitude (Debye)      :      2.67065

Rotational constants in cm-1:     0.265816     0.126189     0.097583
Rotational constants in MHz :  7968.948902  3783.040103  2925.457702

                             ****ORCA TERMINATED NORMALLY****
TOTAL RUN TIME: 0 days 0 hours 0 minutes 14 seconds 269 msec
