                         Program Version 5.0.0 -  RELEASE  -
|  1> !BLYP D3BJ RIJCOSX def2-SVPD def2/J TightSCF
|  2> *xyz 0 1
|  3> C         -0.87096        0.24804       -2.66280
|  4> C         -0.47749        0.60819       -4.10105
|  5> H          0.20677        1.45830       -4.11875
|  6> H         -1.36844        0.92942       -4.64785
|  7> C          0.18467       -0.50664       -4.91676
|  8> F         -0.15869       -1.70109       -4.65798
|  9> O          1.05594       -0.17441       -5.74037
| 10> H         -1.54056       -0.58646       -2.67455
| 11> H         -1.35339        1.08600       -2.20455
| 12> H          0.00660       -0.00662       -2.10609
| 13> *
| 14>
| 15> %MaxCore 64000
| 16>
| 17> %pal nprocs 4
| 18> end
| 19>
| 20> %scf
| 21>   MaxIter 150
| 22> end
| 23>
| 24>
| 25>                          ****END OF INPUT****

CARTESIAN COORDINATES (ANGSTROEM)
---------------------------------
  C     -0.870960    0.248040   -2.662800
  C     -0.477490    0.608190   -4.101050
  H      0.206770    1.458300   -4.118750
  H     -1.368440    0.929420   -4.647850
  C      0.184670   -0.506640   -4.916760
  F     -0.158690   -1.701090   -4.657980
  O      1.055940   -0.174410   -5.740370
  H     -1.540560   -0.586460   -2.674550
  H     -1.353390    1.086000   -2.204550
  H      0.006600   -0.006620   -2.106090

 Total Charge           Charge          ....    0
 Multiplicity           Mult            ....    1
 Number of Electrons    NEL             ....   40
 Basis Dimension        Dim             ....  146

ORBITAL ENERGIES
----------------

  NO   OCC          E(Eh)            E(eV)
   0   2.0000     -24.371621      -663.1855
   1   2.0000     -18.800682      -511.5926
   2   2.0000     -10.096296      -274.7342
   3   2.0000      -9.955782      -270.9106
   4   2.0000      -9.932456      -270.2759
   5   2.0000      -1.188343       -32.3365
   6   2.0000      -0.938664       -25.5423
   7   2.0000      -0.718204       -19.5433
   8   2.0000      -0.609893       -16.5960
   9   2.0000      -0.573359       -15.6019
  10   2.0000      -0.485222       -13.2036
  11   2.0000      -0.476818       -12.9749
  12   2.0000      -0.434782       -11.8310
  13   2.0000      -0.414682       -11.2841
  14   2.0000      -0.381892       -10.3918
  15   2.0000      -0.354964        -9.6591
  16   2.0000      -0.341459        -9.2916
  17   2.0000      -0.333245        -9.0681
  18   2.0000      -0.309519        -8.4224
  19   2.0000      -0.245045        -6.6680
  20   0.0000      -0.066517        -1.8100
  21   0.0000      -0.009788        -0.2664
  22   0.0000       0.028722         0.7816
  23   0.0000       0.037149         1.0109
  24   0.0000       0.052648         1.4326

MULLIKEN ATOMIC CHARGES
-----------------------
   0 C :    1.055586
   1 C :   -0.114485
   2 H :   -0.161666
   3 H :   -0.089348
   4 C :    0.543748
   5 F :   -0.337420
   6 O :   -0.356036
   7 H :   -0.160195
   8 H :   -0.209623
   9 H :   -0.170560
Sum of atomic charges:    0.0000000

LOEWDIN ATOMIC CHARGES
----------------------
   0 C :    0.145962
   1 C :    0.019129
   2 H :    0.028169
   3 H :    0.034266
   4 C :   -0.041133
   5 F :   -0.021169
   6 O :   -0.108730
   7 H :   -0.021344
   8 H :   -0.019388
   9 H :   -0.015762

  Mayer bond orders larger than 0.100000
B(  0-C ,  1-C ) :   1.3099 B(  0-C ,  3-H ) :   0.1061 B(  0-C ,  7-H ) :   0.7241
B(  0-C ,  8-H ) :   0.6937 B(  0-C ,  9-H ) :   0.7398 B(  1-C ,  2-H ) :   0.8892
B(  1-C ,  3-H ) :   0.8031 B(  1-C ,  4-C ) :   1.0550 B(  1-C ,  7-H ) :   0.2382
B(  1-C ,  8-H ) :   0.2799 B(  1-C ,  9-H ) :   0.2224 B(  2-H ,  4-C ) :   0.1796
B(  4-C ,  5-F ) :   0.8029 B(  4-C ,  6-O ) :   1.8940 B(  5-F ,  6-O ) :   0.1316

Dispersion correction           -0.012676051
FINAL SINGLE POINT ENERGY      -292.130583157525

DIPOLE MOMENT
-------------
                                X             Y             Z
Electronic contribution:      2.62550      -5.36164      -5.31330
Nuclear contribution   :     -3.42837       5.66737       6.17046
                        -----------------------------------------
Total Dipole Moment    :     -0.80287       0.30573       0.85715
                        -----------------------------------------
Magnitude (a.u.)       :      1.21358
Magnitude (Debye)      :      3.08468

Rotational constants in cm-1:     0.304660     0.130969     0.097716
Rotational constants in MHz :  9133.464515  3926.366384  2929.457090

                             ****ORCA TERMINATED NORMALLY****
TOTAL RUN TIME: 0 days 0 hours 0 minutes 16 seconds 288 msec
