                         Program Version 5.0.0 -  RELEASE  -
|  1> !BLYP D3BJ RIJCOSX def2-SVPD def2/J TightSCF
|  2> *xyz 0 1
|  3> C          2.48645       -2.67712       -2.56345
|  4> C          3.03764       -2.36672       -3.92351
|  5> C          2.28036       -2.45441       -4.96769
|  6> N          4.32174       -2.01793       -4.01664
|  7> H          4.87994       -1.91167       -3.17382
|  8> H          4.71015       -1.67088       -4.88356
|  9> H          1.27042       -2.41265       -4.86614
| 10> H          2.58183       -2.05528       -5.84688
| 11> C          2.49799       -1.46946       -1.61030
| 12> H          1.47259       -3.05153       -2.69437
| 13> H          3.08320       -3.49064       -2.14147
| 14> H          1.91240       -0.67831       -2.02991
| 15> H          3.50450       -1.13364       -1.47227
| 16> H          2.08509       -1.75655       -0.66585
| 17> *
| 18>
| 19> %MaxCore 64000
| 20>
| 21> %pal nprocs 4
| 22> end
| 23>
| 24> %scf
| 25>   MaxIter 150
| 26> end
| 27>
| 28>
| 29>                          ****END OF INPUT****

CARTESIAN COORDINATES (ANGSTROEM)
---------------------------------
  C      2.486450   -2.677120   -2.563450
  C      3.037640   -2.366720   -3.923510
  C      2.280360   -2.454410   -4.967690
  N      4.321740   -2.017930   -4.016640
  H      4.879940   -1.911670   -3.173820
  H      4.710150   -1.670880   -4.883560
  H      1.270420   -2.412650   -4.866140
  H      2.581830   -2.055280   -5.846880
  C      2.497990   -1.469460   -1.610300
  H      1.472590   -3.051530   -2.694370
  H      3.083200   -3.490640   -2.141470
  H      1.912400   -0.678310   -2.029910
  H      3.504500   -1.133640   -1.472270
  H      2.085090   -1.756550   -0.665850

 Total Charge           Charge          ....    0
 Multiplicity           Mult            ....    1
 Number of Electrons    NEL             ....   40
 Basis Dimension        Dim             ....  172

ORBITAL ENERGIES
----------------

  NO   OCC          E(Eh)            E(eV)
   0   2.0000     -14.026852      -381.6901
   1   2.0000      -9.938318      -270.4354
   2   2.0000      -9.920927      -269.9622
   3   2.0000      -9.912634      -269.7365
   4   2.0000      -9.854706      -268.1602
   5   2.0000      -0.830715       -22.6049
   6   2.0000      -0.694392       -18.8954
   7   2.0000      -0.643514       -17.5109
   8   2.0000      -0.562977       -15.3194
   9   2.0000      -0.506009       -13.7692
  10   2.0000      -0.469486       -12.7754
  11   2.0000      -0.422271       -11.4906
  12   2.0000      -0.386024       -10.5043
  13   2.0000      -0.380428       -10.3520
  14   2.0000      -0.340139        -9.2556
  15   2.0000      -0.334802        -9.1104
  16   2.0000      -0.309665        -8.4264
  17   2.0000      -0.289480        -7.8772
  18   2.0000      -0.280541        -7.6339
  19   2.0000      -0.162109        -4.4112
  20   0.0000      -0.005532        -0.1505
  21   0.0000       0.012498         0.3401
  22   0.0000       0.033258         0.9050
  23   0.0000       0.038884         1.0581
  24   0.0000       0.049549         1.3483

MULLIKEN ATOMIC CHARGES
-----------------------
   0 C :    0.096567
   1 C :   -0.229444
   2 C :    0.615316
   3 N :    0.501018
   4 H :   -0.235111
   5 H :   -0.275070
   6 H :   -0.143976
   7 H :   -0.604107
   8 C :    1.110835
   9 H :   -0.041007
  10 H :   -0.189125
  11 H :   -0.197476
  12 H :   -0.203736
  13 H :   -0.204684
Sum of atomic charges:   -0.0000000

LOEWDIN ATOMIC CHARGES
----------------------
   0 C :   -0.020164
   1 C :   -0.266964
   2 C :    0.174017
   3 N :    0.198912
   4 H :   -0.010757
   5 H :   -0.001415
   6 H :   -0.082470
   7 H :   -0.090430
   8 C :    0.147474
   9 H :    0.014951
  10 H :    0.018028
  11 H :   -0.018434
  12 H :   -0.037716
  13 H :   -0.025033

  Mayer bond orders larger than 0.100000
B(  0-C ,  1-C ) :   1.2907 B(  0-C ,  2-C ) :   0.1321 B(  0-C ,  8-C ) :   1.1977
B(  0-C ,  9-H ) :   0.8006 B(  0-C , 10-H ) :   0.7835 B(  0-C , 11-H ) :   0.1896
B(  0-C , 12-H ) :   0.2707 B(  0-C , 13-H ) :   0.2576 B(  1-C ,  2-C ) :   1.8164
B(  1-C ,  3-N ) :   1.3116 B(  1-C ,  6-H ) :   0.1334 B(  1-C ,  7-H ) :   0.2966
B(  1-C ,  9-H ) :   0.2090 B(  1-C , 10-H ) :   0.2003 B(  2-C ,  3-N ) :   0.3008
B(  2-C ,  6-H ) :   0.7933 B(  2-C ,  7-H ) :   0.4609 B(  3-N ,  4-H ) :   1.1263
B(  3-N ,  5-H ) :   1.1757 B(  4-H ,  5-H ) :  -0.1530 B(  6-H ,  7-H ) :   0.1743
B(  8-C ,  9-H ) :   0.1141 B(  8-C , 11-H ) :   0.7313 B(  8-C , 12-H ) :   0.6788
B(  8-C , 13-H ) :   0.7143

Dispersion correction           -0.021443501
FINAL SINGLE POINT ENERGY      -212.317057062630

DIPOLE MOMENT
-------------
                                X             Y             Z
Electronic contribution:      1.54253      -0.88779      -2.15280
Nuclear contribution   :     -0.99743       1.27863       2.57190
                        -----------------------------------------
Total Dipole Moment    :      0.54510       0.39083       0.41910
                        -----------------------------------------
Magnitude (a.u.)       :      0.79090
Magnitude (Debye)      :      2.01031

Rotational constants in cm-1:     0.274050     0.130114     0.100964
Rotational constants in MHz :  8215.815505  3900.722919  3026.834930

                             ****ORCA TERMINATED NORMALLY****
TOTAL RUN TIME: 0 days 0 hours 0 minutes 15 seconds 646 msec
