                         Program Version 5.0.0 -  RELEASE  -
|  1> !BLYP D3BJ RIJCOSX def2-SVPD def2/J TightSCF
|  2> *xyz 0 1
|  3> C         -0.87096        0.24804       -2.66280
|  4> C         -0.47749        0.60819       -4.10105
|  5> H          0.20677        1.45830       -4.11875
|  6> H         -1.36844        0.92942       -4.64785
|  7> C          0.18467       -0.50664       -4.91676
|  8> O         -0.15869       -1.70109       -4.65798
|  9> F          1.05594       -0.17441       -5.74037
| 10> H         -1.54056       -0.58646       -2.67455
| 11> H         -1.35339        1.08600       -2.20455
| 12> H          0.00660       -0.00662       -2.10609
| 13> *
| 14>
| 15> %MaxCore 64000
| 16>
| 17> %pal nprocs 4
| 18> end
| 19>
| 20> %scf
| 21>   MaxIter 150
| 22> end
| 23>
| 24>
| 25>                          ****END OF INPUT****

CARTESIAN COORDINATES (ANGSTROEM)
---------------------------------
  C     -0.870960    0.248040   -2.662800
  C     -0.477490    0.608190   -4.101050
  H      0.206770    1.458300   -4.118750
  H     -1.368440    0.929420   -4.647850
  C      0.184670   -0.506640   -4.916760
  O     -0.158690   -1.701090   -4.657980
  F      1.055940   -0.174410   -5.740370
  H     -1.540560   -0.586460   -2.674550
  H     -1.353390    1.086000   -2.204550
  H      0.006600   -0.006620   -2.106090

 Total Charge           Charge          ....    0
 Multiplicity           Mult            ....    1
 Number of Electrons    NEL             ....   40
 Basis Dimension        Dim             ....  146

ORBITAL ENERGIES
----------------

  NO   OCC          E(Eh)            E(eV)
   0   2.0000     -24.380458      -663.4260
   1   2.0000     -18.797505      -511.5061
   2   2.0000     -10.098391      -274.7912
   3   2.0000      -9.956911      -270.9413
   4   2.0000      -9.926698      -270.1192
   5   2.0000      -1.206512       -32.8309
   6   2.0000      -0.924296       -25.1514
   7   2.0000      -0.714589       -19.4450
   8   2.0000      -0.619137       -16.8476
   9   2.0000      -0.572285       -15.5727
  10   2.0000      -0.493216       -13.4211
  11   2.0000      -0.476167       -12.9572
  12   2.0000      -0.445133       -12.1127
  13   2.0000      -0.414520       -11.2797
  14   2.0000      -0.379695       -10.3320
  15   2.0000      -0.349480        -9.5098
  16   2.0000      -0.330582        -8.9956
  17   2.0000      -0.327878        -8.9220
  18   2.0000      -0.305419        -8.3109
  19   2.0000      -0.241858        -6.5813
  20   0.0000      -0.068923        -1.8755
  21   0.0000      -0.006146        -0.1673
  22   0.0000       0.024654         0.6709
  23   0.0000       0.040251         1.0953
  24   0.0000       0.051273         1.3952

MULLIKEN ATOMIC CHARGES
-----------------------
   0 C :    1.046376
   1 C :   -0.123397
   2 H :   -0.154558
   3 H :   -0.083483
   4 C :    0.544023
   5 O :   -0.412532
   6 F :   -0.287201
   7 H :   -0.149047
   8 H :   -0.211738
   9 H :   -0.168443
Sum of atomic charges:    0.0000000

LOEWDIN ATOMIC CHARGES
----------------------
   0 C :    0.155187
   1 C :    0.010242
   2 H :    0.016851
   3 H :    0.034092
   4 C :   -0.041128
   5 O :   -0.118959
   6 F :   -0.007280
   7 H :   -0.016288
   8 H :   -0.019369
   9 H :   -0.013347

  Mayer bond orders larger than 0.100000
B(  0-C ,  1-C ) :   1.3380 B(  0-C ,  2-H ) :   0.1063 B(  0-C ,  3-H ) :   0.1079
B(  0-C ,  7-H ) :   0.7244 B(  0-C ,  8-H ) :   0.6885 B(  0-C ,  9-H ) :   0.7367
B(  1-C ,  2-H ) :   0.8679 B(  1-C ,  3-H ) :   0.8032 B(  1-C ,  4-C ) :   1.0948
B(  1-C ,  7-H ) :   0.2513 B(  1-C ,  8-H ) :   0.2758 B(  1-C ,  9-H ) :   0.2297
B(  2-H ,  4-C ) :   0.1495 B(  4-C ,  5-O ) :   1.8773 B(  4-C ,  6-F ) :   0.8472
B(  5-O ,  6-F ) :   0.1224

Dispersion correction           -0.012792130
FINAL SINGLE POINT ENERGY      -292.124356881489

DIPOLE MOMENT
-------------
                                X             Y             Z
Electronic contribution:      4.64677      -2.85934      -7.12401
Nuclear contribution   :     -4.75269       4.00281       7.35060
                        -----------------------------------------
Total Dipole Moment    :     -0.10593       1.14347       0.22659
                        -----------------------------------------
Magnitude (a.u.)       :      1.17051
Magnitude (Debye)      :      2.97520

Rotational constants in cm-1:     0.323805     0.124913     0.096140
Rotational constants in MHz :  9707.430323  3744.789513  2882.191141

                             ****ORCA TERMINATED NORMALLY****
TOTAL RUN TIME: 0 days 0 hours 0 minutes 15 seconds 245 msec
