                         Program Version 5.0.0 -  RELEASE  -
|  1> !BLYP D3BJ RIJCOSX def2-SVPD def2/J TightSCF
|  2> *xyz 0 1
|  3> C          2.48645       -2.67712       -2.56345
|  4> C          3.03764       -2.36672       -3.92351
|  5> N          2.28036       -2.45441       -4.96769
|  6> C          4.32174       -2.01793       -4.01664
|  7> H          4.87994       -1.91167       -3.17382
|  8> H          4.71015       -1.67088       -4.88356
|  9> H          1.27042       -2.41265       -4.86614
| 10> H          2.58183       -2.05528       -5.84688
| 11> C          2.49799       -1.46946       -1.61030
| 12> H          1.47259       -3.05153       -2.69437
| 13> H          3.08320       -3.49064       -2.14147
| 14> H          1.91240       -0.67831       -2.02991
| 15> H          3.50450       -1.13364       -1.47227
| 16> H          2.08509       -1.75655       -0.66585
| 17> *
| 18>
| 19> %MaxCore 64000
| 20>
| 21> %pal nprocs 4
| 22> end
| 23>
| 24> %scf
| 25>   MaxIter 150
| 26> end
| 27>
| 28>
| 29>                          ****END OF INPUT****

CARTESIAN COORDINATES (ANGSTROEM)
---------------------------------
  C      2.486450   -2.677120   -2.563450
  C      3.037640   -2.366720   -3.923510
  N      2.280360   -2.454410   -4.967690
  C      4.321740   -2.017930   -4.016640
  H      4.879940   -1.911670   -3.173820
  H      4.710150   -1.670880   -4.883560
  H      1.270420   -2.412650   -4.866140
  H      2.581830   -2.055280   -5.846880
  C      2.497990   -1.469460   -1.610300
  H      1.472590   -3.051530   -2.694370
  H      3.083200   -3.490640   -2.141470
  H      1.912400   -0.678310   -2.029910
  H      3.504500   -1.133640   -1.472270
  H      2.085090   -1.756550   -0.665850

 Total Charge           Charge          ....    0
 Multiplicity           Mult            ....    1
 Number of Electrons    NEL             ....   40
 Basis Dimension        Dim             ....  172

ORBITAL ENERGIES
----------------

  NO   OCC          E(Eh)            E(eV)
   0   2.0000     -14.030641      -381.7931
   1   2.0000      -9.938460      -270.4392
   2   2.0000      -9.921816      -269.9863
   3   2.0000      -9.908813      -269.6325
   4   2.0000      -9.855263      -268.1753
   5   2.0000      -0.845378       -23.0039
   6   2.0000      -0.695572       -18.9275
   7   2.0000      -0.628887       -17.1129
   8   2.0000      -0.568176       -15.4609
   9   2.0000      -0.509415       -13.8619
  10   2.0000      -0.466117       -12.6837
  11   2.0000      -0.425964       -11.5911
  12   2.0000      -0.393407       -10.7051
  13   2.0000      -0.359019        -9.7694
  14   2.0000      -0.345745        -9.4082
  15   2.0000      -0.331016        -9.0074
  16   2.0000      -0.307457        -8.3663
  17   2.0000      -0.293122        -7.9763
  18   2.0000      -0.288807        -7.8588
  19   2.0000      -0.153662        -4.1813
  20   0.0000      -0.003566        -0.0970
  21   0.0000       0.008301         0.2259
  22   0.0000       0.032283         0.8785
  23   0.0000       0.037788         1.0283
  24   0.0000       0.050904         1.3852

MULLIKEN ATOMIC CHARGES
-----------------------
   0 C :    0.281612
   1 C :   -0.180827
   2 N :    0.436735
   3 C :    0.673880
   4 H :   -0.323535
   5 H :   -0.648435
   6 H :   -0.163689
   7 H :   -0.192108
   8 C :    1.066169
   9 H :   -0.245294
  10 H :   -0.105292
  11 H :   -0.237186
  12 H :   -0.225425
  13 H :   -0.136604
Sum of atomic charges:   -0.0000000

LOEWDIN ATOMIC CHARGES
----------------------
   0 C :   -0.020375
   1 C :   -0.269365
   2 N :    0.187066
   3 C :    0.191396
   4 H :   -0.089947
   5 H :   -0.097344
   6 H :   -0.002846
   7 H :    0.004642
   8 C :    0.149396
   9 H :    0.002518
  10 H :    0.023324
  11 H :   -0.021656
  12 H :   -0.030771
  13 H :   -0.026036

  Mayer bond orders larger than 0.100000
B(  0-C ,  1-C ) :   1.1326 B(  0-C ,  2-N ) :   0.1295 B(  0-C ,  3-C ) :   0.1781
B(  0-C ,  8-C ) :   1.2634 B(  0-C ,  9-H ) :   0.6415 B(  0-C , 10-H ) :   0.7309
B(  0-C , 11-H ) :   0.2310 B(  0-C , 12-H ) :   0.2332 B(  0-C , 13-H ) :   0.2161
B(  1-C ,  2-N ) :   1.1694 B(  1-C ,  3-C ) :   1.5650 B(  1-C ,  4-H ) :   0.1019
B(  1-C ,  5-H ) :   0.1743 B(  1-C ,  9-H ) :   0.3028 B(  1-C , 10-H ) :   0.1703
B(  2-N ,  3-C ) :   0.2876 B(  2-N ,  6-H ) :   0.9897 B(  2-N ,  7-H ) :   1.1178
B(  3-C ,  4-H ) :   0.6965 B(  3-C ,  5-H ) :   0.6388 B(  4-H ,  5-H ) :  -0.1123
B(  6-H ,  7-H ) :  -0.1200 B(  8-C ,  9-H ) :   0.1283 B(  8-C , 10-H ) :   0.1162
B(  8-C , 11-H ) :   0.7176 B(  8-C , 12-H ) :   0.7436 B(  8-C , 13-H ) :   0.7187

Dispersion correction           -0.021504495
FINAL SINGLE POINT ENERGY      -212.317778208368

DIPOLE MOMENT
-------------
                                X             Y             Z
Electronic contribution:     -0.23614      -1.20773      -2.99345
Nuclear contribution   :     -0.52463       1.37972       2.79217
                        -----------------------------------------
Total Dipole Moment    :     -0.76077       0.17198      -0.20127
                        -----------------------------------------
Magnitude (a.u.)       :      0.80552
Magnitude (Debye)      :      2.04747

Rotational constants in cm-1:     0.281086     0.127387     0.100311
Rotational constants in MHz :  8426.743103  3818.969834  3007.238026

                             ****ORCA TERMINATED NORMALLY****
TOTAL RUN TIME: 0 days 0 hours 0 minutes 17 seconds 441 msec
