                         Program Version 5.0.0 -  RELEASE  -
|  1> !BLYP D3BJ RIJCOSX def2-SVPD def2/J TightSCF xyzfile
|  2>
|  3> *xyzfile 0 1 D2.xyz
|  4>
|  5> %MaxCore 64000
|  6>
|  7> %pal nprocs 4
|  8> end
|  9>
| 10> %scf
| 11>   MaxIter 150
| 12> end
| 13>
| 14>
| 15>                          ****END OF INPUT****

CARTESIAN COORDINATES (ANGSTROEM)
---------------------------------
  C      2.486452   -2.677121   -2.563447
  C     -0.870963    0.248043   -2.662804
  C     -0.477492    0.608191   -4.101052
  H      0.206773    1.458299   -4.118748
  H     -1.368442    0.929419   -4.647855
  C      0.184673   -0.506640   -4.916760
  C      3.037640   -2.366715   -3.923509
  N      2.280360   -2.454408   -4.967692
  C      4.321736   -2.017932   -4.016641
  H      4.879940   -1.911668   -3.173823
  H      4.710148   -1.670882   -4.883561
  H      1.270423   -2.412650   -4.866143
  H      2.581829   -2.055282   -5.846878
  F     -0.158685   -1.701088   -4.657981
  O      1.055938   -0.174410   -5.740373
  C      2.497991   -1.469464   -1.610303
  C      1.582841   -0.321986   -2.042619
  H      2.193083   -1.833912   -0.625420
  H      3.523356   -1.103982   -1.490392
  C      0.100160   -0.673551   -1.915815
  H      1.822311   -0.040361   -3.072834
  H      1.813180    0.557019   -1.433266
  H     -0.063284   -1.679120   -2.301112
  H     -0.168820   -0.691680   -0.853831
  H     -1.001048    1.181040   -2.104071
  H     -1.844645   -0.246592   -2.663281
  H      1.472592   -3.051527   -2.694366
  H      3.083201   -3.490638   -2.141472

 Total Charge           Charge          ....    0
 Multiplicity           Mult            ....    1
 Number of Electrons    NEL             ....   94
 Basis Dimension        Dim             ....  374

ORBITAL ENERGIES
----------------

  NO   OCC          E(Eh)            E(eV)
   0   2.0000     -24.400243      -663.9644
   1   2.0000     -18.816611      -512.0260
   2   2.0000     -14.003369      -381.0510
   3   2.0000     -10.112477      -275.1745
   4   2.0000      -9.961518      -271.0667
   5   2.0000      -9.942476      -270.5485
   6   2.0000      -9.928495      -270.1681
   7   2.0000      -9.926261      -270.1073
   8   2.0000      -9.921770      -269.9851
   9   2.0000      -9.917840      -269.8782
  10   2.0000      -9.915169      -269.8055
  11   2.0000      -9.842315      -267.8230
  12   2.0000      -1.221290       -33.2330
  13   2.0000      -0.956698       -26.0331
  14   2.0000      -0.828608       -22.5476
  15   2.0000      -0.747271       -20.3343
  16   2.0000      -0.709285       -19.3006
  17   2.0000      -0.671772       -18.2799
  18   2.0000      -0.629893       -17.1403
  19   2.0000      -0.616099       -16.7649
  20   2.0000      -0.593065       -16.1381
  21   2.0000      -0.556021       -15.1301
  22   2.0000      -0.526939       -14.3387
  23   2.0000      -0.519643       -14.1402
  24   2.0000      -0.502707       -13.6794
  25   2.0000      -0.478127       -13.0105
  26   2.0000      -0.452533       -12.3140
  27   2.0000      -0.441666       -12.0183
  28   2.0000      -0.427894       -11.6436
  29   2.0000      -0.421136       -11.4597
  30   2.0000      -0.416883       -11.3440
  31   2.0000      -0.392849       -10.6900
  32   2.0000      -0.377784       -10.2800
  33   2.0000      -0.369692       -10.0598
  34   2.0000      -0.361836        -9.8461
  35   2.0000      -0.345602        -9.4043
  36   2.0000      -0.341175        -9.2838
  37   2.0000      -0.328730        -8.9452
  38   2.0000      -0.320725        -8.7274
  39   2.0000      -0.313869        -8.5408
  40   2.0000      -0.302053        -8.2193
  41   2.0000      -0.294571        -8.0157
  42   2.0000      -0.282114        -7.6767
  43   2.0000      -0.278593        -7.5809
  44   2.0000      -0.272410        -7.4126
  45   2.0000      -0.255858        -6.9622
  46   2.0000      -0.138749        -3.7756
  47   0.0000      -0.083907        -2.2832
  48   0.0000      -0.014183        -0.3859
  49   0.0000       0.008805         0.2396
  50   0.0000       0.013857         0.3771
  51   0.0000       0.017650         0.4803

MULLIKEN ATOMIC CHARGES
-----------------------
   0 C :    0.965093
   1 C :    0.850240
   2 C :    0.537906
   3 H :    0.124683
   4 H :   -0.467340
   5 C :    0.321414
   6 C :   -0.264284
   7 N :    0.675760
   8 C :    0.622805
   9 H :   -0.265281
  10 H :   -0.551061
  11 H :   -0.505944
  12 H :   -0.058253
  13 F :   -0.507419
  14 O :   -0.326674
  15 C :    0.529729
  16 C :    0.476113
  17 H :   -0.230455
  18 H :   -0.211551
  19 C :    0.321042
  20 H :   -0.282827
  21 H :   -0.372145
  22 H :   -0.148908
  23 H :   -0.345951
  24 H :   -0.273833
  25 H :   -0.115295
  26 H :   -0.279938
  27 H :   -0.217627
Sum of atomic charges:   -0.0000000

LOEWDIN ATOMIC CHARGES
----------------------
   0 C :    0.030752
   1 C :   -0.007989
   2 C :    0.068628
   3 H :    0.034773
   4 H :    0.035115
   5 C :   -0.029012
   6 C :   -0.247823
   7 N :    0.214283
   8 C :    0.189309
   9 H :   -0.094540
  10 H :   -0.096082
  11 H :   -0.088139
  12 H :    0.006505
  13 F :   -0.021987
  14 O :   -0.092493
  15 C :   -0.004901
  16 C :   -0.004180
  17 H :    0.016619
  18 H :    0.013224
  19 C :   -0.019673
  20 H :    0.002950
  21 H :    0.023261
  22 H :   -0.012957
  23 H :    0.024783
  24 H :    0.021581
  25 H :    0.018125
  26 H :   -0.005484
  27 H :    0.025352

  Mayer bond orders larger than 0.100000
B(  0-C ,  6-C ) :   0.9198 B(  0-C ,  7-N ) :   0.1433 B(  0-C , 10-H ) :   0.1442
B(  0-C , 15-C ) :   1.1053 B(  0-C , 16-C ) :   0.1824 B(  0-C , 17-H ) :   0.1924
B(  0-C , 18-H ) :   0.2011 B(  0-C , 26-H ) :   0.3997 B(  0-C , 27-H ) :   0.5623
B(  1-C ,  2-C ) :   1.1331 B(  1-C ,  3-H ) :   0.1024 B(  1-C ,  4-H ) :   0.1660
B(  1-C , 19-C ) :   1.2321 B(  1-C , 22-H ) :   0.1346 B(  1-C , 23-H ) :   0.1269
B(  1-C , 24-H ) :   0.5883 B(  1-C , 25-H ) :   0.5244 B(  2-C ,  3-H ) :   0.6985
B(  2-C ,  4-H ) :   0.5496 B(  2-C ,  5-C ) :   1.1835 B(  2-C , 14-O ) :   0.1013
B(  2-C , 19-C ) :   0.1849 B(  2-C , 24-H ) :   0.1839 B(  3-H ,  4-H ) :  -0.1484
B(  3-H ,  5-C ) :   0.2940 B(  4-H ,  5-C ) :   0.3499 B(  5-C , 13-F ) :   0.6654
B(  5-C , 14-O ) :   1.8766 B(  6-C ,  7-N ) :   1.1554 B(  6-C ,  8-C ) :   1.5503
B(  6-C ,  9-H ) :   0.1572 B(  6-C , 10-H ) :   0.2320 B(  6-C , 15-C ) :   0.1066
B(  6-C , 26-H ) :   0.3378 B(  6-C , 27-H ) :   0.2095 B(  7-N ,  8-C ) :   0.3284
B(  7-N , 11-H ) :   0.7781 B(  7-N , 12-H ) :   0.9363 B(  8-C ,  9-H ) :   0.7362
B(  8-C , 10-H ) :   0.4669 B( 11-H , 12-H ) :  -0.1476 B( 11-H , 13-F ) :   0.1848
B( 11-H , 26-H ) :   0.1254 B( 13-F , 14-O ) :   0.1293 B( 15-C , 16-C ) :   1.1845
B( 15-C , 17-H ) :   0.7209 B( 15-C , 18-H ) :   0.5737 B( 15-C , 20-H ) :   0.2235
B( 15-C , 21-H ) :   0.1220 B( 15-C , 26-H ) :   0.2616 B( 15-C , 27-H ) :   0.1845
B( 16-C , 17-H ) :   0.1564 B( 16-C , 18-H ) :   0.3088 B( 16-C , 19-C ) :   1.1634
B( 16-C , 20-H ) :   0.6810 B( 16-C , 21-H ) :   0.7012 B( 16-C , 22-H ) :   0.1485
B( 16-C , 23-H ) :   0.2831 B( 16-C , 26-H ) :  -0.1245 B( 17-H , 18-H ) :  -0.1898
B( 19-C , 20-H ) :   0.1917 B( 19-C , 21-H ) :   0.1297 B( 19-C , 22-H ) :   0.7598
B( 19-C , 23-H ) :   0.6378 B( 19-C , 24-H ) :   0.2469 B( 19-C , 25-H ) :   0.2966
B( 21-H , 27-H ) :   0.1075 B( 22-H , 26-H ) :   0.1472 B( 24-H , 25-H ) :  -0.1649
B( 26-H , 27-H ) :  -0.1007

Dispersion correction           -0.062388789
FINAL SINGLE POINT ENERGY      -581.780459604269

DIPOLE MOMENT
-------------
                                X             Y             Z
Electronic contribution:     -5.31249      -1.81095     -10.91848
Nuclear contribution   :      3.65024       2.44123      11.52670
                        -----------------------------------------
Total Dipole Moment    :     -1.66225       0.63028       0.60822
                        -----------------------------------------
Magnitude (a.u.)       :      1.87890
Magnitude (Debye)      :      4.77578

Rotational constants in cm-1:     0.040600     0.026409     0.019262
Rotational constants in MHz :  1217.142957   791.712481   577.449390

                             ****ORCA TERMINATED NORMALLY****
TOTAL RUN TIME: 0 days 0 hours 0 minutes 35 seconds 567 msec
