                         Program Version 5.0.0 -  RELEASE  -
|  1> !BLYP D3BJ RIJCOSX def2-SVPD def2/J TightSCF xyzfile
|  2>
|  3> *xyzfile 0 1 D4.xyz
|  4>
|  5> %MaxCore 64000
|  6>
|  7> %pal nprocs 4
|  8> end
|  9>
| 10> %scf
| 11>   MaxIter 150
| 12> end
| 13>
| 14>
| 15>                          ****END OF INPUT****

CARTESIAN COORDINATES (ANGSTROEM)
---------------------------------
  C      2.486452   -2.677121   -2.563447
  C     -0.870963    0.248043   -2.662804
  C     -0.477492    0.608191   -4.101052
  H      0.206773    1.458299   -4.118748
  H     -1.368442    0.929419   -4.647855
  C      0.184673   -0.506640   -4.916760
  C      3.037640   -2.366715   -3.923509
  N      2.280360   -2.454408   -4.967692
  C      4.321736   -2.017932   -4.016641
  H      4.879940   -1.911668   -3.173823
  H      4.710148   -1.670882   -4.883561
  H      1.270423   -2.412650   -4.866143
  H      2.581829   -2.055282   -5.846878
  O     -0.158685   -1.701088   -4.657981
  F      1.055938   -0.174410   -5.740373
  C      2.497991   -1.469464   -1.610303
  C      1.582841   -0.321986   -2.042619
  H      2.193083   -1.833912   -0.625420
  H      3.523356   -1.103982   -1.490392
  C      0.100160   -0.673551   -1.915815
  H      1.822311   -0.040361   -3.072834
  H      1.813180    0.557019   -1.433266
  H     -0.063284   -1.679120   -2.301112
  H     -0.168820   -0.691680   -0.853831
  H     -1.001048    1.181040   -2.104071
  H     -1.844645   -0.246592   -2.663281
  H      1.472592   -3.051527   -2.694366
  H      3.083201   -3.490638   -2.141472

 Total Charge           Charge          ....    0
 Multiplicity           Mult            ....    1
 Number of Electrons    NEL             ....   94
 Basis Dimension        Dim             ....  374

ORBITAL ENERGIES
----------------

  NO   OCC          E(Eh)            E(eV)
   0   2.0000     -24.400517      -663.9718
   1   2.0000     -18.821315      -512.1540
   2   2.0000     -13.994654      -380.8139
   3   2.0000     -10.120374      -275.3894
   4   2.0000      -9.965077      -271.1635
   5   2.0000      -9.940510      -270.4950
   6   2.0000      -9.923483      -270.0317
   7   2.0000      -9.920580      -269.9527
   8   2.0000      -9.920359      -269.9467
   9   2.0000      -9.914720      -269.7933
  10   2.0000      -9.909613      -269.6543
  11   2.0000      -9.840272      -267.7674
  12   2.0000      -1.226695       -33.3801
  13   2.0000      -0.957107       -26.0442
  14   2.0000      -0.822919       -22.3928
  15   2.0000      -0.743346       -20.2275
  16   2.0000      -0.707132       -19.2420
  17   2.0000      -0.669581       -18.2202
  18   2.0000      -0.631942       -17.1960
  19   2.0000      -0.609062       -16.5734
  20   2.0000      -0.590705       -16.0739
  21   2.0000      -0.551976       -15.0200
  22   2.0000      -0.519203       -14.1282
  23   2.0000      -0.514490       -14.0000
  24   2.0000      -0.494332       -13.4514
  25   2.0000      -0.482402       -13.1268
  26   2.0000      -0.467883       -12.7317
  27   2.0000      -0.441477       -12.0132
  28   2.0000      -0.427487       -11.6325
  29   2.0000      -0.423777       -11.5315
  30   2.0000      -0.415250       -11.2995
  31   2.0000      -0.392048       -10.6682
  32   2.0000      -0.375408       -10.2154
  33   2.0000      -0.362365        -9.8604
  34   2.0000      -0.358326        -9.7505
  35   2.0000      -0.345578        -9.4036
  36   2.0000      -0.334386        -9.0991
  37   2.0000      -0.326986        -8.8977
  38   2.0000      -0.316163        -8.6032
  39   2.0000      -0.314663        -8.5624
  40   2.0000      -0.297669        -8.1000
  41   2.0000      -0.291252        -7.9254
  42   2.0000      -0.280871        -7.6429
  43   2.0000      -0.275063        -7.4848
  44   2.0000      -0.271047        -7.3756
  45   2.0000      -0.254301        -6.9199
  46   2.0000      -0.136475        -3.7137
  47   0.0000      -0.091239        -2.4828
  48   0.0000      -0.011966        -0.3256
  49   0.0000       0.008106         0.2206
  50   0.0000       0.014257         0.3879
  51   0.0000       0.018310         0.4982

MULLIKEN ATOMIC CHARGES
-----------------------
   0 C :    0.956021
   1 C :    0.852611
   2 C :    0.508535
   3 H :    0.127795
   4 H :   -0.454892
   5 C :    0.443618
   6 C :   -0.290888
   7 N :    0.639640
   8 C :    0.629766
   9 H :   -0.270454
  10 H :   -0.550703
  11 H :   -0.482172
  12 H :   -0.078797
  13 O :   -0.594943
  14 F :   -0.302878
  15 C :    0.509510
  16 C :    0.423730
  17 H :   -0.226230
  18 H :   -0.217279
  19 C :    0.304923
  20 H :   -0.243339
  21 H :   -0.381037
  22 H :   -0.113802
  23 H :   -0.368087
  24 H :   -0.268387
  25 H :   -0.079325
  26 H :   -0.262914
  27 H :   -0.210025
Sum of atomic charges:    0.0000000

LOEWDIN ATOMIC CHARGES
----------------------
   0 C :    0.034526
   1 C :    0.003301
   2 C :    0.062048
   3 H :    0.025321
   4 H :    0.036167
   5 C :   -0.006291
   6 C :   -0.249652
   7 N :    0.211034
   8 C :    0.183499
   9 H :   -0.096391
  10 H :   -0.100778
  11 H :   -0.123016
  12 H :    0.005171
  13 O :   -0.100904
  14 F :    0.010008
  15 C :   -0.004566
  16 C :   -0.006953
  17 H :    0.017430
  18 H :    0.011704
  19 C :   -0.015513
  20 H :   -0.000609
  21 H :    0.021532
  22 H :   -0.012059
  23 H :    0.024781
  24 H :    0.022262
  25 H :    0.023443
  26 H :   -0.000535
  27 H :    0.025040

  Mayer bond orders larger than 0.100000
B(  0-C ,  6-C ) :   0.9329 B(  0-C ,  7-N ) :   0.1413 B(  0-C , 10-H ) :   0.1448
B(  0-C , 15-C ) :   1.1078 B(  0-C , 16-C ) :   0.2003 B(  0-C , 17-H ) :   0.1887
B(  0-C , 18-H ) :   0.1976 B(  0-C , 26-H ) :   0.4243 B(  0-C , 27-H ) :   0.5514
B(  1-C ,  2-C ) :   1.1503 B(  1-C ,  3-H ) :   0.1309 B(  1-C ,  4-H ) :   0.1858
B(  1-C , 19-C ) :   1.2354 B(  1-C , 22-H ) :   0.1228 B(  1-C , 23-H ) :   0.1103
B(  1-C , 24-H ) :   0.5721 B(  1-C , 25-H ) :   0.5219 B(  2-C ,  3-H ) :   0.7173
B(  2-C ,  4-H ) :   0.5330 B(  2-C ,  5-C ) :   1.2166 B(  2-C , 14-F ) :   0.1014
B(  2-C , 19-C ) :   0.1955 B(  2-C , 24-H ) :   0.2029 B(  3-H ,  4-H ) :  -0.1525
B(  3-H ,  5-C ) :   0.2144 B(  4-H ,  5-C ) :   0.3496 B(  5-C , 13-O ) :   1.6891
B(  5-C , 14-F ) :   0.7740 B(  6-C ,  7-N ) :   1.1837 B(  6-C ,  8-C ) :   1.5425
B(  6-C ,  9-H ) :   0.1724 B(  6-C , 10-H ) :   0.2314 B(  6-C , 15-C ) :   0.1117
B(  6-C , 26-H ) :   0.3351 B(  6-C , 27-H ) :   0.2049 B(  7-N ,  8-C ) :   0.3193
B(  7-N , 11-H ) :   0.7665 B(  7-N , 12-H ) :   0.9467 B(  8-C ,  9-H ) :   0.7222
B(  8-C , 10-H ) :   0.4752 B( 11-H , 12-H ) :  -0.1556 B( 11-H , 13-O ) :   0.2054
B( 11-H , 26-H ) :   0.1155 B( 13-O , 14-F ) :   0.1115 B( 15-C , 16-C ) :   1.1854
B( 15-C , 17-H ) :   0.7173 B( 15-C , 18-H ) :   0.5773 B( 15-C , 20-H ) :   0.2263
B( 15-C , 21-H ) :   0.1302 B( 15-C , 26-H ) :   0.2614 B( 15-C , 27-H ) :   0.1891
B( 16-C , 17-H ) :   0.1588 B( 16-C , 18-H ) :   0.3123 B( 16-C , 19-C ) :   1.1712
B( 16-C , 20-H ) :   0.7032 B( 16-C , 21-H ) :   0.7164 B( 16-C , 22-H ) :   0.1486
B( 16-C , 23-H ) :   0.2871 B( 16-C , 26-H ) :  -0.1243 B( 17-H , 18-H ) :  -0.1912
B( 19-C , 20-H ) :   0.1697 B( 19-C , 21-H ) :   0.1283 B( 19-C , 22-H ) :   0.7820
B( 19-C , 23-H ) :   0.6305 B( 19-C , 24-H ) :   0.2542 B( 19-C , 25-H ) :   0.3034
B( 21-H , 27-H ) :   0.1068 B( 22-H , 26-H ) :   0.1403 B( 24-H , 25-H ) :  -0.1691

Dispersion correction           -0.062712339
FINAL SINGLE POINT ENERGY      -581.782755755521

DIPOLE MOMENT
-------------
                                X             Y             Z
Electronic contribution:     -3.41795       0.74630     -12.75498
Nuclear contribution   :      2.21030       0.63135      12.80988
                        -----------------------------------------
Total Dipole Moment    :     -1.20765       1.37765       0.05490
                        -----------------------------------------
Magnitude (a.u.)       :      1.83286
Magnitude (Debye)      :      4.65875

Rotational constants in cm-1:     0.039980     0.026547     0.019089
Rotational constants in MHz :  1198.568620   795.867393   572.288555

                             ****ORCA TERMINATED NORMALLY****
TOTAL RUN TIME: 0 days 0 hours 0 minutes 33 seconds 509 msec
