                         Program Version 5.0.0 -  RELEASE  -
|  1> !M062X D3Zero RIJCOSX def2-TZVP def2/J TightSCF
|  2> *xyz -1 1
|  3> C         -0.05517        1.61942       -3.78858
|  4> C          1.22302        2.46987       -3.75691
|  5> H          1.11470        3.25807       -4.53300
|  6> H          1.23773        3.01124       -2.79216
|  7> O          2.35381        1.71203       -3.93448
|  8> H         -0.10198        1.08015       -4.71156
|  9> H         -0.91014        2.25726       -3.70441
| 10> H         -0.04403        0.92826       -2.97183
| 11> *
| 12>
| 13> %MaxCore 64000
| 14>
| 15> %pal nprocs 4
| 16> end
| 17>
| 18> %scf
| 19>   MaxIter 150
| 20> end
| 21>
| 22>
| 23>                          ****END OF INPUT****

CARTESIAN COORDINATES (ANGSTROEM)
---------------------------------
  C     -0.055170    1.619420   -3.788580
  C      1.223020    2.469870   -3.756910
  H      1.114700    3.258070   -4.533000
  H      1.237730    3.011240   -2.792160
  O      2.353810    1.712030   -3.934480
  H     -0.101980    1.080150   -4.711560
  H     -0.910140    2.257260   -3.704410
  H     -0.044030    0.928260   -2.971830

 Total Charge           Charge          ....   -1
 Multiplicity           Mult            ....    1
 Number of Electrons    NEL             ....   26
 Basis Dimension        Dim             ....  123

ORBITAL ENERGIES
----------------

  NO   OCC          E(Eh)            E(eV)
   0   2.0000     -19.265946      -524.2530
   1   2.0000     -10.336679      -281.2753
   2   2.0000     -10.315926      -280.7106
   3   2.0000      -0.777044       -21.1444
   4   2.0000      -0.612776       -16.6745
   5   2.0000      -0.447705       -12.1827
   6   2.0000      -0.311922        -8.4878
   7   2.0000      -0.287779        -7.8309
   8   2.0000      -0.227920        -6.2020
   9   2.0000      -0.212458        -5.7813
  10   2.0000      -0.163867        -4.4590
  11   2.0000      -0.021303        -0.5797
  12   2.0000      -0.019921        -0.5421
  13   0.0000       0.252278         6.8648
  14   0.0000       0.289344         7.8735
  15   0.0000       0.313201         8.5226
  16   0.0000       0.317294         8.6340
  17   0.0000       0.348397         9.4804

MULLIKEN ATOMIC CHARGES
-----------------------
   0 C :   -0.273930
   1 C :    0.000482
   2 H :   -0.028231
   3 H :   -0.026009
   4 O :   -0.811254
   5 H :    0.063501
   6 H :    0.012439
   7 H :    0.063003
Sum of atomic charges:   -1.0000000

LOEWDIN ATOMIC CHARGES
----------------------
   0 C :   -0.368225
   1 C :   -0.553651
   2 H :    0.058171
   3 H :    0.059415
   4 O :   -0.453869
   5 H :    0.090763
   6 H :    0.077222
   7 H :    0.090175

  Mayer bond orders larger than 0.100000
B(  0-C ,  1-C ) :   0.8831 B(  0-C ,  4-O ) :  -0.1780 B(  0-C ,  5-H ) :   0.9738
B(  0-C ,  6-H ) :   0.9461 B(  0-C ,  7-H ) :   0.9761 B(  1-C ,  2-H ) :   0.9429
B(  1-C ,  3-H ) :   0.9430 B(  1-C ,  4-O ) :   1.5213

Dispersion correction           -0.000014732
FINAL SINGLE POINT ENERGY      -154.401691944709

DIPOLE MOMENT
-------------
                                X             Y             Z
Electronic contribution:      2.83059      -0.58020      -0.26087
Nuclear contribution   :     -4.28298       0.81046       0.39340
                        -----------------------------------------
Total Dipole Moment    :     -1.45239       0.23027       0.13253
                        -----------------------------------------
Magnitude (a.u.)       :      1.47649
Magnitude (Debye)      :      3.75294

Rotational constants in cm-1:     1.266793     0.328147     0.288309
Rotational constants in MHz : 37977.512300  9837.594308  8643.275638

                             ****ORCA TERMINATED NORMALLY****
TOTAL RUN TIME: 0 days 0 hours 0 minutes 13 seconds 921 msec
