                         Program Version 5.0.0 -  RELEASE  -
|  1> !M062X D3Zero RIJCOSX def2-TZVP def2/J TightSCF
|  2> *xyz 1 1
|  3> C          1.63556       -1.67040       -5.29211
|  4> C          0.33848       -1.50091       -4.50540
|  5> N          2.48451       -0.50741       -5.14039
|  6> H          1.39834       -1.82924       -6.35259
|  7> H          2.15586       -2.56540       -4.93209
|  8> C          3.45115       -0.14953       -5.95259
|  9> N          3.92267        1.08956       -5.85071
| 10> N          3.96616       -1.00618       -6.86788
| 11> H          3.52139       -1.90647       -6.99527
| 12> H          4.44482       -0.62347       -7.67035
| 13> H          2.25200        0.24080       -4.49879
| 14> H          3.46428        1.64078       -5.13639
| 15> H          4.83447        1.31375       -6.22465
| 16> H         -0.17658       -0.62881       -4.85045
| 17> H          0.56384       -1.39374       -3.46490
| 18> H         -0.28102       -2.36136       -4.64938
| 19> *
| 20>
| 21> %MaxCore 64000
| 22>
| 23> %pal nprocs 4
| 24> end
| 25>
| 26> %scf
| 27>   MaxIter 150
| 28> end
| 29>
| 30>
| 31>                          ****END OF INPUT****

CARTESIAN COORDINATES (ANGSTROEM)
---------------------------------
  C      1.635560   -1.670400   -5.292110
  C      0.338480   -1.500910   -4.505400
  N      2.484510   -0.507410   -5.140390
  H      1.398340   -1.829240   -6.352590
  H      2.155860   -2.565400   -4.932090
  C      3.451150   -0.149530   -5.952590
  N      3.922670    1.089560   -5.850710
  N      3.966160   -1.006180   -6.867880
  H      3.521390   -1.906470   -6.995270
  H      4.444820   -0.623470   -7.670350
  H      2.252000    0.240800   -4.498790
  H      3.464280    1.640780   -5.136390
  H      4.834470    1.313750   -6.224650
  H     -0.176580   -0.628810   -4.850450
  H      0.563840   -1.393740   -3.464900
  H     -0.281020   -2.361360   -4.649380

 Total Charge           Charge          ....    1
 Multiplicity           Mult            ....    1
 Number of Electrons    NEL             ....   48
 Basis Dimension        Dim             ....  246

ORBITAL ENERGIES
----------------

  NO   OCC          E(Eh)            E(eV)
   0   2.0000     -14.976276      -407.5252
   1   2.0000     -14.970983      -407.3812
   2   2.0000     -14.969323      -407.3360
   3   2.0000     -10.875347      -295.9332
   4   2.0000     -10.746752      -292.4340
   5   2.0000     -10.673780      -290.4483
   6   2.0000      -1.334124       -36.3034
   7   2.0000      -1.213297       -33.0155
   8   2.0000      -1.198369       -32.6093
   9   2.0000      -1.032489       -28.0955
  10   2.0000      -0.918193       -24.9853
  11   2.0000      -0.899219       -24.4690
  12   2.0000      -0.854302       -23.2467
  13   2.0000      -0.822525       -22.3820
  14   2.0000      -0.758469       -20.6390
  15   2.0000      -0.756142       -20.5757
  16   2.0000      -0.738158       -20.0863
  17   2.0000      -0.710912       -19.3449
  18   2.0000      -0.675128       -18.3712
  19   2.0000      -0.611862       -16.6496
  20   2.0000      -0.594374       -16.1737
  21   2.0000      -0.586160       -15.9502
  22   2.0000      -0.544188       -14.8081
  23   2.0000      -0.515677       -14.0323
  24   0.0000      -0.127707        -3.4751
  25   0.0000      -0.124095        -3.3768
  26   0.0000      -0.092037        -2.5045
  27   0.0000      -0.075727        -2.0606
  28   0.0000      -0.053638        -1.4596

MULLIKEN ATOMIC CHARGES
-----------------------
   0 C :   -0.188077
   1 C :   -0.459736
   2 N :   -0.286207
   3 H :    0.167992
   4 H :    0.195004
   5 C :    0.576072
   6 N :   -0.469563
   7 N :   -0.496968
   8 H :    0.304880
   9 H :    0.298097
  10 H :    0.258567
  11 H :    0.279028
  12 H :    0.305904
  13 H :    0.165655
  14 H :    0.171744
  15 H :    0.177608
Sum of atomic charges:    1.0000000

LOEWDIN ATOMIC CHARGES
----------------------
   0 C :   -0.290405
   1 C :   -0.277849
   2 N :    0.169020
   3 H :    0.143019
   4 H :    0.146810
   5 C :   -0.400119
   6 N :    0.057698
   7 N :    0.046573
   8 H :    0.196513
   9 H :    0.198528
  10 H :    0.212919
  11 H :    0.199471
  12 H :    0.202863
  13 H :    0.127100
  14 H :    0.128842
  15 H :    0.139015

  Mayer bond orders larger than 0.100000
B(  0-C ,  1-C ) :   0.9646 B(  0-C ,  2-N ) :   0.8361 B(  0-C ,  3-H ) :   0.9656
B(  0-C ,  4-H ) :   0.9454 B(  1-C , 13-H ) :   0.9700 B(  1-C , 14-H ) :   0.9680
B(  1-C , 15-H ) :   0.9614 B(  2-N ,  5-C ) :   1.3912 B(  2-N , 10-H ) :   0.9039
B(  5-C ,  6-N ) :   1.2765 B(  5-C ,  7-N ) :   1.2630 B(  6-N , 11-H ) :   0.9044
B(  6-N , 12-H ) :   0.8916 B(  7-N ,  8-H ) :   0.8953 B(  7-N ,  9-H ) :   0.8947

Dispersion correction           -0.000319194
FINAL SINGLE POINT ENERGY      -284.367980794092

DIPOLE MOMENT
-------------
                                X             Y             Z
Electronic contribution:      4.70021       2.48465      -1.70320
Nuclear contribution   :     -3.96322      -1.85512       1.24891
                        -----------------------------------------
Total Dipole Moment    :      0.73699       0.62954      -0.45429
                        -----------------------------------------
Magnitude (a.u.)       :      1.07044
Magnitude (Debye)      :      2.72085

Rotational constants in cm-1:     0.261404     0.067000     0.054949
Rotational constants in MHz :  7836.702504  2008.609425  1647.329138

                             ****ORCA TERMINATED NORMALLY****
TOTAL RUN TIME: 0 days 0 hours 0 minutes 37 seconds 407 msec
