                         Program Version 5.0.0 -  RELEASE  -
|  1> !M062X D3Zero RIJCOSX def2-TZVP def2/J TightSCF
|  2> *xyz 0 1
|  3> C         -0.05517        1.61942       -3.78858
|  4> C          1.22302        2.46987       -3.75691
|  5> H          1.11470        3.25807       -4.53300
|  6> H          1.23773        3.01124       -2.79216
|  7> F          2.35381        1.71203       -3.93448
|  8> H         -0.10198        1.08015       -4.71156
|  9> H         -0.91014        2.25726       -3.70441
| 10> H         -0.04403        0.92826       -2.97183
| 11> *
| 12>
| 13> %MaxCore 64000
| 14>
| 15> %pal nprocs 4
| 16> end
| 17>
| 18> %scf
| 19>   MaxIter 150
| 20> end
| 21>
| 22>
| 23>                          ****END OF INPUT****

CARTESIAN COORDINATES (ANGSTROEM)
---------------------------------
  C     -0.055170    1.619420   -3.788580
  C      1.223020    2.469870   -3.756910
  H      1.114700    3.258070   -4.533000
  H      1.237730    3.011240   -2.792160
  F      2.353810    1.712030   -3.934480
  H     -0.101980    1.080150   -4.711560
  H     -0.910140    2.257260   -3.704410
  H     -0.044030    0.928260   -2.971830

 Total Charge           Charge          ....    0
 Multiplicity           Mult            ....    1
 Number of Electrons    NEL             ....   26
 Basis Dimension        Dim             ....  123

ORBITAL ENERGIES
----------------

  NO   OCC          E(Eh)            E(eV)
   0   2.0000     -25.229698      -686.5350
   1   2.0000     -10.614044      -288.8228
   2   2.0000     -10.528307      -286.4898
   3   2.0000      -1.339757       -36.4567
   4   2.0000      -0.863453       -23.4958
   5   2.0000      -0.722335       -19.6557
   6   2.0000      -0.588446       -16.0124
   7   2.0000      -0.581204       -15.8154
   8   2.0000      -0.544164       -14.8075
   9   2.0000      -0.481964       -13.1149
  10   2.0000      -0.467629       -12.7248
  11   2.0000      -0.405748       -11.0410
  12   2.0000      -0.400623       -10.9015
  13   0.0000       0.074162         2.0180
  14   0.0000       0.113137         3.0786
  15   0.0000       0.132757         3.6125
  16   0.0000       0.136443         3.7128
  17   0.0000       0.147802         4.0219

MULLIKEN ATOMIC CHARGES
-----------------------
   0 C :   -0.390742
   1 C :    0.004997
   2 H :    0.110305
   3 H :    0.110097
   4 F :   -0.239015
   5 H :    0.138823
   6 H :    0.127769
   7 H :    0.137766
Sum of atomic charges:   -0.0000000

LOEWDIN ATOMIC CHARGES
----------------------
   0 C :   -0.310954
   1 C :   -0.364262
   2 H :    0.118113
   3 H :    0.117193
   4 F :    0.083715
   5 H :    0.117906
   6 H :    0.121239
   7 H :    0.117048

  Mayer bond orders larger than 0.100000
B(  0-C ,  1-C ) :   0.9712 B(  0-C ,  5-H ) :   0.9692 B(  0-C ,  6-H ) :   0.9600
B(  0-C ,  7-H ) :   0.9701 B(  1-C ,  2-H ) :   0.9762 B(  1-C ,  3-H ) :   0.9765
B(  1-C ,  4-F ) :   0.9682

Dispersion correction           -0.000018707
FINAL SINGLE POINT ENERGY      -179.051639283400

DIPOLE MOMENT
-------------
                                X             Y             Z
Electronic contribution:      5.02163      -0.73206      -0.43165
Nuclear contribution   :     -5.66833       1.07099       0.52006
                        -----------------------------------------
Total Dipole Moment    :     -0.64670       0.33893       0.08841
                        -----------------------------------------
Magnitude (a.u.)       :      0.73547
Magnitude (Debye)      :      1.86941

Rotational constants in cm-1:     1.245689     0.305293     0.269541
Rotational constants in MHz : 37344.801915  9152.442838  8080.640229

                             ****ORCA TERMINATED NORMALLY****
TOTAL RUN TIME: 0 days 0 hours 0 minutes 11 seconds 769 msec
