                         Program Version 5.0.0 -  RELEASE  -
|  1> !M062X D3Zero RIJCOSX def2-TZVP def2/J TightSCF
|  2> *xyz 0 1
|  3> C          1.63556       -1.67040       -5.29211
|  4> C          0.33848       -1.50091       -4.50540
|  5> C          2.48451       -0.50741       -5.14039
|  6> H          1.39834       -1.82924       -6.35259
|  7> H          2.15586       -2.56540       -4.93209
|  8> C          3.45115       -0.14953       -5.95259
|  9> N          3.92267        1.08956       -5.85071
| 10> N          3.96616       -1.00618       -6.86788
| 11> H          3.52139       -1.90647       -6.99527
| 12> H          4.44482       -0.62347       -7.67035
| 13> H          2.25200        0.24080       -4.49879
| 14> H          3.46428        1.64078       -5.13639
| 15> H          4.83447        1.31375       -6.22465
| 16> H         -0.17658       -0.62881       -4.85045
| 17> H          0.56384       -1.39374       -3.46490
| 18> H         -0.28102       -2.36136       -4.64938
| 19> *
| 20>
| 21> %MaxCore 64000
| 22>
| 23> %pal nprocs 4
| 24> end
| 25>
| 26> %scf
| 27>   MaxIter 150
| 28> end
| 29>
| 30>
| 31>                          ****END OF INPUT****

CARTESIAN COORDINATES (ANGSTROEM)
---------------------------------
  C      1.635560   -1.670400   -5.292110
  C      0.338480   -1.500910   -4.505400
  C      2.484510   -0.507410   -5.140390
  H      1.398340   -1.829240   -6.352590
  H      2.155860   -2.565400   -4.932090
  C      3.451150   -0.149530   -5.952590
  N      3.922670    1.089560   -5.850710
  N      3.966160   -1.006180   -6.867880
  H      3.521390   -1.906470   -6.995270
  H      4.444820   -0.623470   -7.670350
  H      2.252000    0.240800   -4.498790
  H      3.464280    1.640780   -5.136390
  H      4.834470    1.313750   -6.224650
  H     -0.176580   -0.628810   -4.850450
  H      0.563840   -1.393740   -3.464900
  H     -0.281020   -2.361360   -4.649380

 Total Charge           Charge          ....    0
 Multiplicity           Mult            ....    1
 Number of Electrons    NEL             ....   48
 Basis Dimension        Dim             ....  246

ORBITAL ENERGIES
----------------

  NO   OCC          E(Eh)            E(eV)
   0   2.0000     -14.746306      -401.2674
   1   2.0000     -14.741010      -401.1233
   2   2.0000     -10.576150      -287.7917
   3   2.0000     -10.510609      -286.0082
   4   2.0000     -10.500991      -285.7465
   5   2.0000     -10.456903      -284.5468
   6   2.0000      -1.068030       -29.0626
   7   2.0000      -0.973471       -26.4895
   8   2.0000      -0.874701       -23.8018
   9   2.0000      -0.790272       -21.5044
  10   2.0000      -0.695993       -18.9389
  11   2.0000      -0.658060       -17.9067
  12   2.0000      -0.607219       -16.5233
  13   2.0000      -0.586686       -15.9645
  14   2.0000      -0.533011       -14.5040
  15   2.0000      -0.510728       -13.8976
  16   2.0000      -0.494379       -13.4527
  17   2.0000      -0.465195       -12.6586
  18   2.0000      -0.445836       -12.1318
  19   2.0000      -0.402610       -10.9556
  20   2.0000      -0.392164       -10.6713
  21   2.0000      -0.389490       -10.5986
  22   2.0000      -0.329907        -8.9772
  23   2.0000      -0.215125        -5.8538
  24   0.0000       0.054170         1.4740
  25   0.0000       0.082888         2.2555
  26   0.0000       0.093848         2.5537
  27   0.0000       0.107835         2.9344
  28   0.0000       0.112695         3.0666

MULLIKEN ATOMIC CHARGES
-----------------------
   0 C :   -0.314840
   1 C :   -0.434489
   2 C :   -0.266406
   3 H :    0.108260
   4 H :    0.134588
   5 C :    0.454308
   6 N :   -0.564046
   7 N :   -0.584948
   8 H :    0.260309
   9 H :    0.233313
  10 H :    0.091560
  11 H :    0.248772
  12 H :    0.236213
  13 H :    0.133970
  14 H :    0.135732
  15 H :    0.127706
Sum of atomic charges:    0.0000000

LOEWDIN ATOMIC CHARGES
----------------------
   0 C :   -0.310975
   1 C :   -0.300381
   2 C :   -0.287923
   3 H :    0.130839
   4 H :    0.132980
   5 C :   -0.455806
   6 N :   -0.027555
   7 N :   -0.034090
   8 H :    0.175297
   9 H :    0.161589
  10 H :    0.125210
  11 H :    0.182541
  12 H :    0.163442
  13 H :    0.115848
  14 H :    0.116811
  15 H :    0.112174

  Mayer bond orders larger than 0.100000
B(  0-C ,  1-C ) :   0.9520 B(  0-C ,  2-C ) :   0.9420 B(  0-C ,  3-H ) :   0.9816
B(  0-C ,  4-H ) :   0.9757 B(  1-C , 13-H ) :   0.9796 B(  1-C , 14-H ) :   0.9803
B(  1-C , 15-H ) :   0.9848 B(  2-C ,  5-C ) :   1.6546 B(  2-C , 10-H ) :   0.9990
B(  5-C ,  6-N ) :   1.0852 B(  5-C ,  7-N ) :   1.0723 B(  6-N , 11-H ) :   0.9268
B(  6-N , 12-H ) :   0.9257 B(  7-N ,  8-H ) :   0.9241 B(  7-N ,  9-H ) :   0.9270

Dispersion correction           -0.000317474
FINAL SINGLE POINT ENERGY      -267.888934918583

DIPOLE MOMENT
-------------
                                X             Y             Z
Electronic contribution:      4.54107       2.16919      -1.92723
Nuclear contribution   :     -3.99655      -1.83277       1.34879
                        -----------------------------------------
Total Dipole Moment    :      0.54452       0.33642      -0.57844
                        -----------------------------------------
Magnitude (a.u.)       :      0.86271
Magnitude (Debye)      :      2.19284

Rotational constants in cm-1:     0.262971     0.067064     0.055026
Rotational constants in MHz :  7883.664566  2010.513309  1649.636654

                             ****ORCA TERMINATED NORMALLY****
TOTAL RUN TIME: 0 days 0 hours 0 minutes 37 seconds 938 msec
