                         Program Version 5.0.0 -  RELEASE  -
|  1> !M062X D3Zero RIJCOSX def2-TZVP def2/J TightSCF
|  2> *xyz 0 1
|  3> C          1.63556       -1.67040       -5.29211
|  4> C          0.33848       -1.50091       -4.50540
|  5> N          2.48451       -0.50741       -5.14039
|  6> H          1.39834       -1.82924       -6.35259
|  7> H          2.15586       -2.56540       -4.93209
|  8> C          3.45115       -0.14953       -5.95259
|  9> C          3.92267        1.08956       -5.85071
| 10> N          3.96616       -1.00618       -6.86788
| 11> H          3.52139       -1.90647       -6.99527
| 12> H          4.44482       -0.62347       -7.67035
| 13> H          2.25200        0.24080       -4.49879
| 14> H          3.46428        1.64078       -5.13639
| 15> H          4.83447        1.31375       -6.22465
| 16> H         -0.17658       -0.62881       -4.85045
| 17> H          0.56384       -1.39374       -3.46490
| 18> H         -0.28102       -2.36136       -4.64938
| 19> *
| 20>
| 21> %MaxCore 64000
| 22>
| 23> %pal nprocs 4
| 24> end
| 25>
| 26> %scf
| 27>   MaxIter 150
| 28> end
| 29>
| 30>
| 31>                          ****END OF INPUT****

CARTESIAN COORDINATES (ANGSTROEM)
---------------------------------
  C      1.635560   -1.670400   -5.292110
  C      0.338480   -1.500910   -4.505400
  N      2.484510   -0.507410   -5.140390
  H      1.398340   -1.829240   -6.352590
  H      2.155860   -2.565400   -4.932090
  C      3.451150   -0.149530   -5.952590
  C      3.922670    1.089560   -5.850710
  N      3.966160   -1.006180   -6.867880
  H      3.521390   -1.906470   -6.995270
  H      4.444820   -0.623470   -7.670350
  H      2.252000    0.240800   -4.498790
  H      3.464280    1.640780   -5.136390
  H      4.834470    1.313750   -6.224650
  H     -0.176580   -0.628810   -4.850450
  H      0.563840   -1.393740   -3.464900
  H     -0.281020   -2.361360   -4.649380

 Total Charge           Charge          ....    0
 Multiplicity           Mult            ....    1
 Number of Electrons    NEL             ....   48
 Basis Dimension        Dim             ....  246

ORBITAL ENERGIES
----------------

  NO   OCC          E(Eh)            E(eV)
   0   2.0000     -14.747005      -401.2864
   1   2.0000     -14.744957      -401.2307
   2   2.0000     -10.580887      -287.9206
   3   2.0000     -10.578439      -287.8540
   4   2.0000     -10.533994      -286.6446
   5   2.0000     -10.443738      -284.1886
   6   2.0000      -1.081485       -29.4287
   7   2.0000      -0.987911       -26.8824
   8   2.0000      -0.875852       -23.8332
   9   2.0000      -0.795955       -21.6590
  10   2.0000      -0.715054       -19.4576
  11   2.0000      -0.676591       -18.4110
  12   2.0000      -0.608245       -16.5512
  13   2.0000      -0.569342       -15.4926
  14   2.0000      -0.553768       -15.0688
  15   2.0000      -0.531089       -14.4517
  16   2.0000      -0.487716       -13.2714
  17   2.0000      -0.465887       -12.6774
  18   2.0000      -0.445591       -12.1251
  19   2.0000      -0.438418       -11.9299
  20   2.0000      -0.436880       -11.8881
  21   2.0000      -0.415143       -11.2966
  22   2.0000      -0.322452        -8.7744
  23   2.0000      -0.213482        -5.8091
  24   0.0000       0.055525         1.5109
  25   0.0000       0.076472         2.0809
  26   0.0000       0.087073         2.3694
  27   0.0000       0.107924         2.9368
  28   0.0000       0.117827         3.2062

MULLIKEN ATOMIC CHARGES
-----------------------
   0 C :   -0.143055
   1 C :   -0.455860
   2 N :   -0.356731
   3 H :    0.126202
   4 H :    0.141801
   5 C :    0.486903
   6 C :   -0.575619
   7 N :   -0.580130
   8 H :    0.243532
   9 H :    0.260166
  10 H :    0.236959
  11 H :    0.067471
  12 H :    0.113748
  13 H :    0.147380
  14 H :    0.147527
  15 H :    0.139707
Sum of atomic charges:   -0.0000000

LOEWDIN ATOMIC CHARGES
----------------------
   0 C :   -0.316806
   1 C :   -0.302115
   2 N :    0.111051
   3 H :    0.126852
   4 H :    0.126080
   5 C :   -0.459550
   6 C :   -0.347892
   7 N :   -0.030822
   8 H :    0.161938
   9 H :    0.176957
  10 H :    0.201085
  11 H :    0.096587
  12 H :    0.096908
  13 H :    0.119369
  14 H :    0.118889
  15 H :    0.121469

  Mayer bond orders larger than 0.100000
B(  0-C ,  1-C ) :   0.9599 B(  0-C ,  2-N ) :   0.9131 B(  0-C ,  3-H ) :   0.9663
B(  0-C ,  4-H ) :   0.9541 B(  1-C , 13-H ) :   0.9753 B(  1-C , 14-H ) :   0.9769
B(  1-C , 15-H ) :   0.9758 B(  2-N ,  5-C ) :   1.1770 B(  2-N , 10-H ) :   0.9250
B(  5-C ,  6-C ) :   1.5999 B(  5-C ,  7-N ) :   1.0467 B(  6-C , 11-H ) :   1.0191
B(  6-C , 12-H ) :   1.0005 B(  7-N ,  8-H ) :   0.9304 B(  7-N ,  9-H ) :   0.9234

Dispersion correction           -0.000314600
FINAL SINGLE POINT ENERGY      -267.878524310103

DIPOLE MOMENT
-------------
                                X             Y             Z
Electronic contribution:      2.95576       0.54846      -1.29284
Nuclear contribution   :     -3.69145      -1.49398       1.19810
                        -----------------------------------------
Total Dipole Moment    :     -0.73569      -0.94552      -0.09474
                        -----------------------------------------
Magnitude (a.u.)       :      1.20176
Magnitude (Debye)      :      3.05463

Rotational constants in cm-1:     0.270790     0.068966     0.056679
Rotational constants in MHz :  8118.084803  2067.559423  1699.196934

                             ****ORCA TERMINATED NORMALLY****
TOTAL RUN TIME: 0 days 0 hours 0 minutes 39 seconds 411 msec
