                         Program Version 5.0.0 -  RELEASE  -
|  1> !M062X D3Zero RIJCOSX def2-TZVP def2/J TightSCF
|  2> *xyz 0 1
|  3> C          1.63556       -1.67040       -5.29211
|  4> C          0.33848       -1.50091       -4.50540
|  5> N          2.48451       -0.50741       -5.14039
|  6> H          1.39834       -1.82924       -6.35259
|  7> H          2.15586       -2.56540       -4.93209
|  8> C          3.45115       -0.14953       -5.95259
|  9> N          3.92267        1.08956       -5.85071
| 10> C          3.96616       -1.00618       -6.86788
| 11> H          3.52139       -1.90647       -6.99527
| 12> H          4.44482       -0.62347       -7.67035
| 13> H          2.25200        0.24080       -4.49879
| 14> H          3.46428        1.64078       -5.13639
| 15> H          4.83447        1.31375       -6.22465
| 16> H         -0.17658       -0.62881       -4.85045
| 17> H          0.56384       -1.39374       -3.46490
| 18> H         -0.28102       -2.36136       -4.64938
| 19> *
| 20>
| 21> %MaxCore 64000
| 22>
| 23> %pal nprocs 4
| 24> end
| 25>
| 26> %scf
| 27>   MaxIter 150
| 28> end
| 29>
| 30>
| 31>                          ****END OF INPUT****

CARTESIAN COORDINATES (ANGSTROEM)
---------------------------------
  C      1.635560   -1.670400   -5.292110
  C      0.338480   -1.500910   -4.505400
  N      2.484510   -0.507410   -5.140390
  H      1.398340   -1.829240   -6.352590
  H      2.155860   -2.565400   -4.932090
  C      3.451150   -0.149530   -5.952590
  N      3.922670    1.089560   -5.850710
  C      3.966160   -1.006180   -6.867880
  H      3.521390   -1.906470   -6.995270
  H      4.444820   -0.623470   -7.670350
  H      2.252000    0.240800   -4.498790
  H      3.464280    1.640780   -5.136390
  H      4.834470    1.313750   -6.224650
  H     -0.176580   -0.628810   -4.850450
  H      0.563840   -1.393740   -3.464900
  H     -0.281020   -2.361360   -4.649380

 Total Charge           Charge          ....    0
 Multiplicity           Mult            ....    1
 Number of Electrons    NEL             ....   48
 Basis Dimension        Dim             ....  246

ORBITAL ENERGIES
----------------

  NO   OCC          E(Eh)            E(eV)
   0   2.0000     -14.753105      -401.4524
   1   2.0000     -14.747021      -401.2868
   2   2.0000     -10.582535      -287.9654
   3   2.0000     -10.571688      -287.6703
   4   2.0000     -10.530182      -286.5408
   5   2.0000     -10.445148      -284.2269
   6   2.0000      -1.090218       -29.6663
   7   2.0000      -0.993206       -27.0265
   8   2.0000      -0.861252       -23.4359
   9   2.0000      -0.796327       -21.6692
  10   2.0000      -0.731876       -19.9154
  11   2.0000      -0.647663       -17.6238
  12   2.0000      -0.610260       -16.6060
  13   2.0000      -0.598501       -16.2860
  14   2.0000      -0.548027       -14.9126
  15   2.0000      -0.535049       -14.5594
  16   2.0000      -0.471673       -12.8349
  17   2.0000      -0.460802       -12.5390
  18   2.0000      -0.456738       -12.4285
  19   2.0000      -0.434974       -11.8362
  20   2.0000      -0.424953       -11.5636
  21   2.0000      -0.415796       -11.3144
  22   2.0000      -0.315700        -8.5906
  23   2.0000      -0.217073        -5.9069
  24   0.0000       0.049761         1.3541
  25   0.0000       0.073558         2.0016
  26   0.0000       0.092376         2.5137
  27   0.0000       0.112403         3.0586
  28   0.0000       0.122459         3.3323

MULLIKEN ATOMIC CHARGES
-----------------------
   0 C :   -0.122182
   1 C :   -0.450407
   2 N :   -0.367822
   3 H :    0.143475
   4 H :    0.146203
   5 C :    0.466662
   6 N :   -0.554305
   7 C :   -0.575269
   8 H :    0.097174
   9 H :    0.104727
  10 H :    0.201051
  11 H :    0.217150
  12 H :    0.266747
  13 H :    0.142281
  14 H :    0.142815
  15 H :    0.141700
Sum of atomic charges:   -0.0000000

LOEWDIN ATOMIC CHARGES
----------------------
   0 C :   -0.298034
   1 C :   -0.305049
   2 N :    0.111929
   3 H :    0.135607
   4 H :    0.131207
   5 C :   -0.471501
   6 N :   -0.020457
   7 C :   -0.357328
   8 H :    0.095726
   9 H :    0.095050
  10 H :    0.181563
  11 H :    0.163602
  12 H :    0.181699
  13 H :    0.116954
  14 H :    0.116702
  15 H :    0.122328

  Mayer bond orders larger than 0.100000
B(  0-C ,  1-C ) :   0.9431 B(  0-C ,  2-N ) :   0.9017 B(  0-C ,  3-H ) :   0.9721
B(  0-C ,  4-H ) :   0.9620 B(  1-C , 13-H ) :   0.9762 B(  1-C , 14-H ) :   0.9767
B(  1-C , 15-H ) :   0.9775 B(  2-N ,  5-C ) :   1.1496 B(  2-N , 10-H ) :   0.9350
B(  5-C ,  6-N ) :   1.0645 B(  5-C ,  7-C ) :   1.6044 B(  6-N , 11-H ) :   0.9359
B(  6-N , 12-H ) :   0.9203 B(  7-C ,  8-H ) :   1.0141 B(  7-C ,  9-H ) :   1.0014

Dispersion correction           -0.000318246
FINAL SINGLE POINT ENERGY      -267.878999878451

DIPOLE MOMENT
-------------
                                X             Y             Z
Electronic contribution:      3.01584       2.64879      -0.18311
Nuclear contribution   :     -3.68222      -1.93858       0.98231
                        -----------------------------------------
Total Dipole Moment    :     -0.66639       0.71021       0.79920
                        -----------------------------------------
Magnitude (a.u.)       :      1.25983
Magnitude (Debye)      :      3.20224

Rotational constants in cm-1:     0.275407     0.068040     0.056255
Rotational constants in MHz :  8256.498401  2039.796466  1686.484500

                             ****ORCA TERMINATED NORMALLY****
TOTAL RUN TIME: 0 days 0 hours 0 minutes 37 seconds 620 msec
