                         Program Version 5.0.0 -  RELEASE  -
|  1> !wB97X-D3 RIJCOSX def2-TZVP def2/J TightSCF
|  2> *xyz -1 1
|  3> C         -0.77455        2.78833       -0.54394
|  4> C          0.69721        3.22791       -0.52513
|  5> O          1.48929        2.37470        0.19919
|  6> H          0.71600        4.26403       -0.13077
|  7> H          1.03615        3.33092       -1.58367
|  8> H         -1.34746        3.48478       -1.11982
|  9> H         -1.15078        2.75876        0.45729
| 10> H         -0.85058        1.81526       -0.98241
| 11> *
| 12>
| 13> %MaxCore 64000
| 14> %pal nprocs 4
| 15> end
| 16>
| 17> %scf
| 18>   MaxIter 150
| 19> end
| 20>
| 21>
| 22>                          ****END OF INPUT****

CARTESIAN COORDINATES (ANGSTROEM)
---------------------------------
  C     -0.774550    2.788330   -0.543940
  C      0.697210    3.227910   -0.525130
  O      1.489290    2.374700    0.199190
  H      0.716000    4.264030   -0.130770
  H      1.036150    3.330920   -1.583670
  H     -1.347460    3.484780   -1.119820
  H     -1.150780    2.758760    0.457290
  H     -0.850580    1.815260   -0.982410

 Total Charge           Charge          ....   -1
 Multiplicity           Mult            ....    1
 Number of Electrons    NEL             ....   26
 Basis Dimension        Dim             ....  123

ORBITAL ENERGIES
----------------

  NO   OCC          E(Eh)            E(eV)
   0   2.0000     -18.869572      -513.4672
   1   2.0000     -10.078238      -274.2428
   2   2.0000     -10.057147      -273.6689
   3   2.0000      -0.776764       -21.1368
   4   2.0000      -0.632569       -17.2131
   5   2.0000      -0.472790       -12.8653
   6   2.0000      -0.343620        -9.3504
   7   2.0000      -0.320325        -8.7165
   8   2.0000      -0.261044        -7.1034
   9   2.0000      -0.242660        -6.6031
  10   2.0000      -0.191923        -5.2225
  11   2.0000      -0.044539        -1.2120
  12   2.0000      -0.042718        -1.1624
  13   0.0000       0.294576         8.0158
  14   0.0000       0.330993         9.0068
  15   0.0000       0.358400         9.7526
  16   0.0000       0.360001         9.7961
  17   0.0000       0.393670        10.7123

MULLIKEN ATOMIC CHARGES
-----------------------
   0 C :   -0.174216
   1 C :    0.090739
   2 O :   -0.804911
   3 H :   -0.078149
   4 H :   -0.079865
   5 H :   -0.021028
   6 H :    0.034160
   7 H :    0.033271
Sum of atomic charges:   -1.0000000

LOEWDIN ATOMIC CHARGES
----------------------
   0 C :   -0.361654
   1 C :   -0.549248
   2 O :   -0.445069
   3 H :    0.052510
   4 H :    0.051757
   5 H :    0.074930
   6 H :    0.088571
   7 H :    0.088203

  Mayer bond orders larger than 0.100000
B(  0-C ,  1-C ) :   0.9099 B(  0-C ,  2-O ) :  -0.1817 B(  0-C ,  5-H ) :   0.9429
B(  0-C ,  6-H ) :   0.9759 B(  0-C ,  7-H ) :   0.9755 B(  1-C ,  2-O ) :   1.5803
B(  1-C ,  3-H ) :   0.9256 B(  1-C ,  4-H ) :   0.9264

Dispersion correction           -0.000860166
FINAL SINGLE POINT ENERGY      -154.431560359837

DIPOLE MOMENT
-------------
                                X             Y             Z
Electronic contribution:      2.42960      -1.10347       1.22934
Nuclear contribution   :     -3.69910       1.55962      -1.78699
                        -----------------------------------------
Total Dipole Moment    :     -1.26950       0.45615      -0.55765
                        -----------------------------------------
Magnitude (a.u.)       :      1.45968
Magnitude (Debye)      :      3.71022

Rotational constants in cm-1:     1.268893     0.327436     0.287754
Rotational constants in MHz : 38040.440181  9816.269339  8626.646564

                             ****ORCA TERMINATED NORMALLY****
TOTAL RUN TIME: 0 days 0 hours 0 minutes 15 seconds 226 msec
