                         Program Version 5.0.0 -  RELEASE  -
|  1> !wB97X-D3 RIJCOSX def2-TZVP def2/J TightSCF
|  2> *xyz 1 1
|  3> C          3.95643        0.50147       -0.37910
|  4> H          3.16840        0.02920        0.20738
|  5> N          3.80389        1.96157       -0.15675
|  6> C          3.84232        0.14849       -1.85406
|  7> H          4.92323        0.17798        0.00937
|  8> H          4.20643        2.24441        0.74536
|  9> H          2.80827        2.21132       -0.09610
| 10> H          4.28076        2.50155       -0.89104
| 11> H          4.62951        0.62800       -2.39748
| 12> H          2.89665        0.48102       -2.22825
| 13> H          3.92053       -0.91187       -1.97413
| 14> *
| 15>
| 16> %MaxCore 64000
| 17> %pal nprocs 4
| 18> end
| 19>
| 20> %scf
| 21>   MaxIter 150
| 22> end
| 23>
| 24>
| 25>                          ****END OF INPUT****

CARTESIAN COORDINATES (ANGSTROEM)
---------------------------------
  C      3.956430    0.501470   -0.379100
  H      3.168400    0.029200    0.207380
  N      3.803890    1.961570   -0.156750
  C      3.842320    0.148490   -1.854060
  H      4.923230    0.177980    0.009370
  H      4.206430    2.244410    0.745360
  H      2.808270    2.211320   -0.096100
  H      4.280760    2.501550   -0.891040
  H      4.629510    0.628000   -2.397480
  H      2.896650    0.481020   -2.228250
  H      3.920530   -0.911870   -1.974130

 Total Charge           Charge          ....    1
 Multiplicity           Mult            ....    1
 Number of Electrons    NEL             ....   26
 Basis Dimension        Dim             ....  141

ORBITAL ENERGIES
----------------

  NO   OCC          E(Eh)            E(eV)
   0   2.0000     -14.758536      -401.6002
   1   2.0000     -10.528533      -286.4959
   2   2.0000     -10.447416      -284.2886
   3   2.0000      -1.334727       -36.3198
   4   2.0000      -1.081948       -29.4413
   5   2.0000      -0.955367       -25.9969
   6   2.0000      -0.906738       -24.6736
   7   2.0000      -0.888331       -24.1727
   8   2.0000      -0.797121       -21.6908
   9   2.0000      -0.742966       -20.2171
  10   2.0000      -0.678844       -18.4723
  11   2.0000      -0.663730       -18.0610
  12   2.0000      -0.645829       -17.5739
  13   0.0000      -0.108583        -2.9547
  14   0.0000      -0.049753        -1.3538
  15   0.0000      -0.043581        -1.1859
  16   0.0000      -0.027131        -0.7383
  17   0.0000       0.011002         0.2994

MULLIKEN ATOMIC CHARGES
-----------------------
   0 C :   -0.199683
   1 H :    0.188230
   2 N :   -0.310560
   3 C :   -0.370647
   4 H :    0.191151
   5 H :    0.340303
   6 H :    0.341263
   7 H :    0.335427
   8 H :    0.152584
   9 H :    0.148424
  10 H :    0.183509
Sum of atomic charges:    1.0000000

LOEWDIN ATOMIC CHARGES
----------------------
   0 C :   -0.278841
   1 H :    0.151811
   2 N :    0.169528
   3 C :   -0.277157
   4 H :    0.153081
   5 H :    0.224483
   6 H :    0.226357
   7 H :    0.224258
   8 H :    0.129738
   9 H :    0.129648
  10 H :    0.147095

  Mayer bond orders larger than 0.100000
B(  0-C ,  1-H ) :   0.9554 B(  0-C ,  2-N ) :   0.8683 B(  0-C ,  3-C ) :   0.9994
B(  0-C ,  4-H ) :   0.9534 B(  2-N ,  5-H ) :   0.8746 B(  2-N ,  6-H ) :   0.8723
B(  2-N ,  7-H ) :   0.8692 B(  3-C ,  8-H ) :   0.9611 B(  3-C ,  9-H ) :   0.9608
B(  3-C , 10-H ) :   0.9590

Dispersion correction           -0.001507994
FINAL SINGLE POINT ENERGY      -135.549941581608

DIPOLE MOMENT
-------------
                                X             Y             Z
Electronic contribution:     -0.01234       1.35731       1.26611
Nuclear contribution   :     -0.06214      -0.04120      -0.39947
                        -----------------------------------------
Total Dipole Moment    :     -0.07448       1.31611       0.86664
                        -----------------------------------------
Magnitude (a.u.)       :      1.57758
Magnitude (Debye)      :      4.00988

Rotational constants in cm-1:     1.011771     0.281435     0.249812
Rotational constants in MHz : 30332.138762  8437.210602  7489.166323

                             ****ORCA TERMINATED NORMALLY****
TOTAL RUN TIME: 0 days 0 hours 0 minutes 17 seconds 616 msec
