                         Program Version 5.0.0 -  RELEASE  -
|  1> !wB97X-D3 RIJCOSX def2-TZVP def2/J TightSCF
|  2> *xyz 0 1
|  3> C         -0.77455        2.78833       -0.54394
|  4> C          0.69721        3.22791       -0.52513
|  5> F          1.48929        2.37470        0.19919
|  6> H          0.71600        4.26403       -0.13077
|  7> H          1.03615        3.33092       -1.58367
|  8> H         -1.34746        3.48478       -1.11982
|  9> H         -1.15078        2.75876        0.45729
| 10> H         -0.85058        1.81526       -0.98241
| 11> *
| 12>
| 13> %MaxCore 64000
| 14> %pal nprocs 4
| 15> end
| 16>
| 17> %scf
| 18>   MaxIter 150
| 19> end
| 20>
| 21>
| 22>                          ****END OF INPUT****

CARTESIAN COORDINATES (ANGSTROEM)
---------------------------------
  C     -0.774550    2.788330   -0.543940
  C      0.697210    3.227910   -0.525130
  F      1.489290    2.374700    0.199190
  H      0.716000    4.264030   -0.130770
  H      1.036150    3.330920   -1.583670
  H     -1.347460    3.484780   -1.119820
  H     -1.150780    2.758760    0.457290
  H     -0.850580    1.815260   -0.982410

 Total Charge           Charge          ....    0
 Multiplicity           Mult            ....    1
 Number of Electrons    NEL             ....   26
 Basis Dimension        Dim             ....  123

ORBITAL ENERGIES
----------------

  NO   OCC          E(Eh)            E(eV)
   0   2.0000     -24.768709      -673.9908
   1   2.0000     -10.353781      -281.7407
   2   2.0000     -10.267899      -279.4037
   3   2.0000      -1.311706       -35.6933
   4   2.0000      -0.880570       -23.9615
   5   2.0000      -0.741862       -20.1871
   6   2.0000      -0.609182       -16.5767
   7   2.0000      -0.597420       -16.2566
   8   2.0000      -0.558165       -15.1885
   9   2.0000      -0.503511       -13.7012
  10   2.0000      -0.497620       -13.5409
  11   2.0000      -0.431110       -11.7311
  12   2.0000      -0.424884       -11.5617
  13   0.0000       0.124039         3.3753
  14   0.0000       0.162847         4.4313
  15   0.0000       0.182650         4.9702
  16   0.0000       0.185557         5.0493
  17   0.0000       0.196375         5.3436

MULLIKEN ATOMIC CHARGES
-----------------------
   0 C :   -0.327677
   1 C :    0.045867
   2 F :   -0.237171
   3 H :    0.086921
   4 H :    0.087330
   5 H :    0.109782
   6 H :    0.117596
   7 H :    0.117352
Sum of atomic charges:   -0.0000000

LOEWDIN ATOMIC CHARGES
----------------------
   0 C :   -0.309003
   1 C :   -0.366599
   2 F :    0.090484
   3 H :    0.115899
   4 H :    0.116736
   5 H :    0.120292
   6 H :    0.116199
   7 H :    0.115992

  Mayer bond orders larger than 0.100000
B(  0-C ,  1-C ) :   0.9962 B(  0-C ,  5-H ) :   0.9619 B(  0-C ,  6-H ) :   0.9728
B(  0-C ,  7-H ) :   0.9732 B(  1-C ,  2-F ) :   0.9920 B(  1-C ,  3-H ) :   0.9715
B(  1-C ,  4-H ) :   0.9717

Dispersion correction           -0.000875231
FINAL SINGLE POINT ENERGY      -179.085788148640

DIPOLE MOMENT
-------------
                                X             Y             Z
Electronic contribution:      4.42006      -1.65515       2.00304
Nuclear contribution   :     -4.89513       2.05627      -2.36166
                        -----------------------------------------
Total Dipole Moment    :     -0.47508       0.40112      -0.35862
                        -----------------------------------------
Magnitude (a.u.)       :      0.71778
Magnitude (Debye)      :      1.82444

Rotational constants in cm-1:     1.247826     0.304622     0.269019
Rotational constants in MHz : 37408.889506  9132.346906  8064.979146

                             ****ORCA TERMINATED NORMALLY****
TOTAL RUN TIME: 0 days 0 hours 0 minutes 12 seconds 608 msec
