                         Program Version 5.0.0 -  RELEASE  -
|  1> !wB97X-D3 RIJCOSX def2-TZVP def2/J TightSCF
|  2> *xyz 0 1
|  3> C          3.95643        0.50147       -0.37910
|  4> H          3.16840        0.02920        0.20738
|  5> C          3.80389        1.96157       -0.15675
|  6> C          3.84232        0.14849       -1.85406
|  7> H          4.92323        0.17798        0.00937
|  8> H          4.20643        2.24441        0.74536
|  9> H          2.80827        2.21132       -0.09610
| 10> H          4.28076        2.50155       -0.89104
| 11> H          4.62951        0.62800       -2.39748
| 12> H          2.89665        0.48102       -2.22825
| 13> H          3.92053       -0.91187       -1.97413
| 14> *
| 15>
| 16> %MaxCore 64000
| 17> %pal nprocs 4
| 18> end
| 19>
| 20> %scf
| 21>   MaxIter 150
| 22> end
| 23>
| 24>
| 25>                          ****END OF INPUT****

CARTESIAN COORDINATES (ANGSTROEM)
---------------------------------
  C      3.956430    0.501470   -0.379100
  H      3.168400    0.029200    0.207380
  C      3.803890    1.961570   -0.156750
  C      3.842320    0.148490   -1.854060
  H      4.923230    0.177980    0.009370
  H      4.206430    2.244410    0.745360
  H      2.808270    2.211320   -0.096100
  H      4.280760    2.501550   -0.891040
  H      4.629510    0.628000   -2.397480
  H      2.896650    0.481020   -2.228250
  H      3.920530   -0.911870   -1.974130

 Total Charge           Charge          ....    0
 Multiplicity           Mult            ....    1
 Number of Electrons    NEL             ....   26
 Basis Dimension        Dim             ....  141

ORBITAL ENERGIES
----------------

  NO   OCC          E(Eh)            E(eV)
   0   2.0000     -10.259427      -279.1732
   1   2.0000     -10.249991      -278.9164
   2   2.0000     -10.230973      -278.3989
   3   2.0000      -0.909151       -24.7393
   4   2.0000      -0.803940       -21.8763
   5   2.0000      -0.694893       -18.9090
   6   2.0000      -0.571360       -15.5475
   7   2.0000      -0.546468       -14.8701
   8   2.0000      -0.499336       -13.5876
   9   2.0000      -0.487722       -13.2716
  10   2.0000      -0.430187       -11.7060
  11   2.0000      -0.427967       -11.6456
  12   2.0000      -0.418400       -11.3852
  13   0.0000       0.122244         3.3264
  14   0.0000       0.164935         4.4881
  15   0.0000       0.171447         4.6653
  16   0.0000       0.176606         4.8057
  17   0.0000       0.196841         5.3563

MULLIKEN ATOMIC CHARGES
-----------------------
   0 C :   -0.144537
   1 H :    0.082293
   2 C :   -0.324952
   3 C :   -0.333492
   4 H :    0.084526
   5 H :    0.108682
   6 H :    0.107864
   7 H :    0.098850
   8 H :    0.106555
   9 H :    0.104380
  10 H :    0.109830
Sum of atomic charges:    0.0000000

LOEWDIN ATOMIC CHARGES
----------------------
   0 C :   -0.321538
   1 H :    0.131559
   2 C :   -0.303562
   3 C :   -0.304797
   4 H :    0.129452
   5 H :    0.108489
   6 H :    0.109253
   7 H :    0.108345
   8 H :    0.114261
   9 H :    0.115088
  10 H :    0.113450

  Mayer bond orders larger than 0.100000
B(  0-C ,  1-H ) :   0.9775 B(  0-C ,  2-C ) :   0.9674 B(  0-C ,  3-C ) :   0.9811
B(  0-C ,  4-H ) :   0.9784 B(  2-C ,  5-H ) :   0.9860 B(  2-C ,  6-H ) :   0.9827
B(  2-C ,  7-H ) :   0.9816 B(  3-C ,  8-H ) :   0.9801 B(  3-C ,  9-H ) :   0.9781
B(  3-C , 10-H ) :   0.9827

Dispersion correction           -0.001455677
FINAL SINGLE POINT ENERGY      -119.138507230778

DIPOLE MOMENT
-------------
                                X             Y             Z
Electronic contribution:      0.08146      -0.29640       0.23603
Nuclear contribution   :     -0.08172       0.30475      -0.19303
                        -----------------------------------------
Total Dipole Moment    :     -0.00025       0.00835       0.04300
                        -----------------------------------------
Magnitude (a.u.)       :      0.04380
Magnitude (Debye)      :      0.11134

Rotational constants in cm-1:     1.020248     0.295755     0.261591
Rotational constants in MHz : 30586.266829  8866.511639  7842.297953

                             ****ORCA TERMINATED NORMALLY****
TOTAL RUN TIME: 0 days 0 hours 0 minutes 18 seconds 617 msec
