                         Program Version 5.0.0 -  RELEASE  -
|  1> !wB97X-D3 RIJCOSX def2-TZVP def2/J TightSCF xyzfile
|  2>
|  3> *xyzfile 0 1 D.xyz
|  4>
|  5> %MaxCore 64000
|  6>
|  7> %pal nprocs 18
|  8> end
|  9>
| 10> %scf
| 11>   MaxIter 150
| 12> end
| 13>
| 14>
| 15>                          ****END OF INPUT****

CARTESIAN COORDINATES (ANGSTROEM)
---------------------------------
  C      3.956426    0.501466   -0.379100
  H      3.168398    0.029201    0.207383
  C      3.803893    1.961572   -0.156747
  C      3.842322    0.148490   -1.854058
  H      4.923231    0.177982    0.009371
  H      4.620021    0.694502   -2.402150
  H      4.096015   -0.910930   -1.955103
  C      2.475619    0.412708   -2.485377
  H      2.174689    1.445076   -2.287971
  C      1.383931   -0.532740   -1.995203
  H      2.575613    0.318574   -3.571460
  H      1.264698   -0.412309   -0.915491
  H      1.705223   -1.566885   -2.164984
  C      0.031398   -0.317260   -2.677791
  C     -0.587292    1.060853   -2.436460
  H     -0.662815   -1.089530   -2.329985
  H      0.149465   -0.478040   -3.755648
  H      0.104376    1.828590   -2.793130
  C     -0.951213    1.334978   -0.972500
  H     -1.478832    1.161355   -3.062484
  H     -0.317007    0.741648   -0.311389
  H     -1.980916    1.012842   -0.788958
  C     -0.774550    2.788332   -0.543943
  H     -1.352609    3.459372   -1.192585
  H     -1.171014    2.902331    0.469968
  C      0.697208    3.227911   -0.525126
  F      1.489294    2.374703    0.199189
  H      0.715998    4.264030   -0.130774
  H      1.036148    3.330920   -1.583669
  H      4.206425    2.244406    0.745359
  H      2.808269    2.211323   -0.096097
  H      4.280757    2.501552   -0.891037

 Total Charge           Charge          ....    0
 Multiplicity           Mult            ....    1
 Number of Electrons    NEL             ....   90
 Basis Dimension        Dim             ....  467

ORBITAL ENERGIES
----------------

  NO   OCC          E(Eh)            E(eV)
   0   2.0000     -24.792494      -674.6381
   1   2.0000     -10.363227      -281.9977
   2   2.0000     -10.285706      -279.8883
   3   2.0000     -10.272211      -279.5211
   4   2.0000     -10.268932      -279.4318
   5   2.0000     -10.265737      -279.3449
   6   2.0000     -10.259821      -279.1839
   7   2.0000     -10.257669      -279.1254
   8   2.0000     -10.251588      -278.9599
   9   2.0000     -10.240446      -278.6567
  10   2.0000     -10.185392      -277.1586
  11   2.0000      -1.347975       -36.6803
  12   2.0000      -0.938735       -25.5443
  13   2.0000      -0.918622       -24.9970
  14   2.0000      -0.885004       -24.0822
  15   2.0000      -0.852781       -23.2054
  16   2.0000      -0.804244       -21.8846
  17   2.0000      -0.777509       -21.1571
  18   2.0000      -0.735064       -20.0021
  19   2.0000      -0.710190       -19.3252
  20   2.0000      -0.673710       -18.3326
  21   2.0000      -0.658248       -17.9118
  22   2.0000      -0.635409       -17.2904
  23   2.0000      -0.619239       -16.8503
  24   2.0000      -0.597220       -16.2512
  25   2.0000      -0.571981       -15.5644
  26   2.0000      -0.560200       -15.2438
  27   2.0000      -0.549879       -14.9630
  28   2.0000      -0.529501       -14.4085
  29   2.0000      -0.526114       -14.3163
  30   2.0000      -0.508948       -13.8492
  31   2.0000      -0.490629       -13.3507
  32   2.0000      -0.483706       -13.1623
  33   2.0000      -0.470107       -12.7923
  34   2.0000      -0.461441       -12.5565
  35   2.0000      -0.450315       -12.2537
  36   2.0000      -0.443346       -12.0640
  37   2.0000      -0.436036       -11.8651
  38   2.0000      -0.416871       -11.3436
  39   2.0000      -0.412202       -11.2166
  40   2.0000      -0.405108       -11.0236
  41   2.0000      -0.403911       -10.9910
  42   2.0000      -0.388695       -10.5769
  43   2.0000      -0.387518       -10.5449
  44   2.0000      -0.365768        -9.9530
  45   0.0000       0.111449         3.0327
  46   0.0000       0.121322         3.3013
  47   0.0000       0.129171         3.5149
  48   0.0000       0.137818         3.7502
  49   0.0000       0.148362         4.0371

MULLIKEN ATOMIC CHARGES
-----------------------
   0 C :   -0.166210
   1 H :    0.085778
   2 C :   -0.406709
   3 C :   -0.169779
   4 H :    0.087758
   5 H :    0.103714
   6 H :    0.085383
   7 C :   -0.182174
   8 H :    0.069760
   9 C :   -0.238616
  10 H :    0.097474
  11 H :    0.100179
  12 H :    0.103525
  13 C :   -0.157202
  14 C :   -0.239144
  15 H :    0.101960
  16 H :    0.102479
  17 H :    0.101009
  18 C :   -0.180975
  19 H :    0.108005
  20 H :    0.111103
  21 H :    0.111630
  22 C :   -0.207380
  23 H :    0.113099
  24 H :    0.112471
  25 C :   -0.031464
  26 F :   -0.183488
  27 H :    0.118320
  28 H :    0.114289
  29 H :    0.098490
  30 H :    0.148267
  31 H :    0.088446
Sum of atomic charges:    0.0000000

LOEWDIN ATOMIC CHARGES
----------------------
   0 C :   -0.303061
   1 H :    0.130796
   2 C :   -0.321525
   3 C :   -0.269332
   4 H :    0.129411
   5 H :    0.134428
   6 H :    0.132657
   7 C :   -0.264447
   8 H :    0.129863
   9 C :   -0.268286
  10 H :    0.134598
  11 H :    0.130707
  12 H :    0.136666
  13 C :   -0.268237
  14 C :   -0.264712
  15 H :    0.135777
  16 H :    0.135465
  17 H :    0.131142
  18 C :   -0.266370
  19 H :    0.134110
  20 H :    0.139215
  21 H :    0.136060
  22 C :   -0.276757
  23 H :    0.142848
  24 H :    0.138521
  25 C :   -0.340072
  26 F :    0.173397
  27 H :    0.126142
  28 H :    0.122983
  29 H :    0.102843
  30 H :    0.063183
  31 H :    0.101986

  Mayer bond orders larger than 0.100000
B(  0-C ,  1-H ) :   0.9917 B(  0-C ,  2-C ) :   0.9239 B(  0-C ,  3-C ) :   0.9759
B(  0-C ,  4-H ) :   0.9786 B(  2-C , 29-H ) :   0.9916 B(  2-C , 30-H ) :   0.9874
B(  2-C , 31-H ) :   0.9788 B(  3-C ,  5-H ) :   0.9875 B(  3-C ,  6-H ) :   0.9792
B(  3-C ,  7-C ) :   0.9785 B(  7-C ,  8-H ) :   0.9808 B(  7-C ,  9-C ) :   0.9490
B(  7-C , 10-H ) :   0.9706 B(  9-C , 11-H ) :   0.9898 B(  9-C , 12-H ) :   0.9729
B(  9-C , 13-C ) :   0.9807 B( 13-C , 14-C ) :   0.9607 B( 13-C , 15-H ) :   0.9787
B( 13-C , 16-H ) :   0.9802 B( 14-C , 17-H ) :   1.0000 B( 14-C , 18-C ) :   0.9279
B( 14-C , 19-H ) :   0.9689 B( 18-C , 20-H ) :   0.9866 B( 18-C , 21-H ) :   0.9692
B( 18-C , 22-C ) :   0.9701 B( 22-C , 23-H ) :   0.9603 B( 22-C , 24-H ) :   0.9730
B( 22-C , 25-C ) :   1.0051 B( 25-C , 26-F ) :   0.9268 B( 25-C , 27-H ) :   0.9761
B( 25-C , 28-H ) :   0.9744

Dispersion correction           -0.014488145
FINAL SINGLE POINT ENERGY      -493.566236698290

DIPOLE MOMENT
-------------
                                X             Y             Z
Electronic contribution:     -1.96836       3.28963       4.28174
Nuclear contribution   :      1.09293      -2.80761      -4.51228
                        -----------------------------------------
Total Dipole Moment    :     -0.87544       0.48202      -0.23054
                        -----------------------------------------
Magnitude (a.u.)       :      1.02561
Magnitude (Debye)      :      2.60690

Rotational constants in cm-1:     0.040502     0.027818     0.018259
Rotational constants in MHz :  1214.218058   833.972871   547.398614

                             ****ORCA TERMINATED NORMALLY****
TOTAL RUN TIME: 0 days 0 hours 1 minutes 22 seconds 133 msec
