                         Program Version 5.0.0 -  RELEASE  -
|  1> !PBE0 D3BJ RIJCOSX def2-TZVPD def2/J TightSCF
|  2> *xyz -1 1
|  3> C          3.80351        1.37472       -3.26081
|  4> C          3.93993        0.32036       -4.36773
|  5> H          4.10504       -0.65508       -3.90773
|  6> H          3.02280        0.28052       -4.95712
|  7> C          5.10585        0.66802       -5.30546
|  8> O          4.80913        1.15019       -6.41436
|  9> O          6.26737        0.56500       -4.81948
| 10> H          3.64113        2.33595       -3.70189
| 11> H          4.69995        1.39701       -2.67703
| 12> H          2.97435        1.12625       -2.63180
| 13> *
| 14>
| 15> %MaxCore 64000
| 16>
| 17> %pal nprocs 4
| 18> end
| 19>
| 20> %scf
| 21>   MaxIter 150
| 22> end
| 23>
| 24>
| 25>                          ****END OF INPUT****

CARTESIAN COORDINATES (ANGSTROEM)
---------------------------------
  C      3.803510    1.374720   -3.260810
  C      3.939930    0.320360   -4.367730
  H      4.105040   -0.655080   -3.907730
  H      3.022800    0.280520   -4.957120
  C      5.105850    0.668020   -5.305460
  O      4.809130    1.150190   -6.414360
  O      6.267370    0.565000   -4.819480
  H      3.641130    2.335950   -3.701890
  H      4.699950    1.397010   -2.677030
  H      2.974350    1.126250   -2.631800

 Total Charge           Charge          ....   -1
 Multiplicity           Mult            ....    1
 Number of Electrons    NEL             ....   40
 Basis Dimension        Dim             ....  236

ORBITAL ENERGIES
----------------

  NO   OCC          E(Eh)            E(eV)
   0   2.0000     -18.941861      -515.4343
   1   2.0000     -18.938344      -515.3385
   2   2.0000     -10.100037      -274.8360
   3   2.0000     -10.055711      -273.6298
   4   2.0000     -10.044407      -273.3222
   5   2.0000      -0.849164       -23.1069
   6   2.0000      -0.756157       -20.5761
   7   2.0000      -0.626461       -17.0469
   8   2.0000      -0.490300       -13.3417
   9   2.0000      -0.336006        -9.1432
  10   2.0000      -0.303857        -8.2684
  11   2.0000      -0.274738        -7.4760
  12   2.0000      -0.242449        -6.5974
  13   2.0000      -0.226020        -6.1503
  14   2.0000      -0.221801        -6.0355
  15   2.0000      -0.189344        -5.1523
  16   2.0000      -0.176135        -4.7929
  17   2.0000      -0.061318        -1.6685
  18   2.0000      -0.050989        -1.3875
  19   2.0000      -0.041897        -1.1401
  20   0.0000       0.141046         3.8381
  21   0.0000       0.165789         4.5113
  22   0.0000       0.176706         4.8084
  23   0.0000       0.187473         5.1014
  24   0.0000       0.214863         5.8467

MULLIKEN ATOMIC CHARGES
-----------------------
   0 C :   -0.817978
   1 C :    0.114866
   2 H :    0.120917
   3 H :    0.117260
   4 C :    0.300975
   5 O :   -0.682739
   6 O :   -0.717955
   7 H :    0.210229
   8 H :    0.197612
   9 H :    0.156812
Sum of atomic charges:   -1.0000000

LOEWDIN ATOMIC CHARGES
----------------------
   0 C :   -0.131406
   1 C :   -0.212857
   2 H :    0.089309
   3 H :    0.086241
   4 C :   -0.781458
   5 O :   -0.096337
   6 O :   -0.114938
   7 H :    0.062272
   8 H :    0.057290
   9 H :    0.041883

  Mayer bond orders larger than 0.100000
B(  0-C ,  1-C ) :   0.7192 B(  0-C ,  4-C ) :   0.2290 B(  0-C ,  7-H ) :   0.9891
B(  0-C ,  8-H ) :   1.0170 B(  0-C ,  9-H ) :   0.9766 B(  1-C ,  2-H ) :   0.9560
B(  1-C ,  3-H ) :   0.9991 B(  1-C ,  4-C ) :   0.9004 B(  4-C ,  5-O ) :   1.5031
B(  4-C ,  6-O ) :   1.4830

Dispersion correction           -0.005485757
FINAL SINGLE POINT ENERGY      -267.647663145265

DIPOLE MOMENT
-------------
                                X             Y             Z
Electronic contribution:      3.73750      -0.48639      -4.50835
Nuclear contribution   :     -5.15232       0.33441       5.87398
                        -----------------------------------------
Total Dipole Moment    :     -1.41482      -0.15199       1.36563
                        -----------------------------------------
Magnitude (a.u.)       :      1.97225
Magnitude (Debye)      :      5.01306

Rotational constants in cm-1:     0.295355     0.137164     0.110193
Rotational constants in MHz :  8854.523706  4112.077980  3303.490503

                             ****ORCA TERMINATED NORMALLY****
TOTAL RUN TIME: 0 days 0 hours 0 minutes 33 seconds 327 msec
