                         Program Version 5.0.0 -  RELEASE  -
|  1> !PBE0 D3BJ RIJCOSX def2-TZVPD def2/J TightSCF
|  2> *xyz 1 1
|  3> C          3.90595        2.81985       -3.75292
|  4> N          5.29562        3.13151       -4.10533
|  5> C          3.80351        1.37472       -3.26081
|  6> C          5.70862        3.46889       -5.32419
|  7> N          6.90470        3.03895       -5.71708
|  8> N          4.98188        4.29357       -6.09746
|  9> H          5.00055        4.10131       -7.08776
| 10> H          4.08469        4.59690       -5.73965
| 11> H          5.96336        2.52611       -3.64239
| 12> H          7.04716        2.06686       -5.47360
| 13> H          7.19815        3.30799       -6.64523
| 14> H          3.28202        2.94919       -4.64026
| 15> H          3.56525        3.51457       -2.98252
| 16> H          4.14157        0.71142       -4.02935
| 17> H          2.78528        1.15146       -3.01944
| 18> H          4.41205        1.25066       -2.38949
| 19> *
| 20>
| 21> %MaxCore 64000
| 22>
| 23> %pal nprocs 4
| 24> end
| 25>
| 26> %scf
| 27>   MaxIter 150
| 28> end
| 29>
| 30>
| 31>                          ****END OF INPUT****

CARTESIAN COORDINATES (ANGSTROEM)
---------------------------------
  C      3.905950    2.819850   -3.752920
  N      5.295620    3.131510   -4.105330
  C      3.803510    1.374720   -3.260810
  C      5.708620    3.468890   -5.324190
  N      6.904700    3.038950   -5.717080
  N      4.981880    4.293570   -6.097460
  H      5.000550    4.101310   -7.087760
  H      4.084690    4.596900   -5.739650
  H      5.963360    2.526110   -3.642390
  H      7.047160    2.066860   -5.473600
  H      7.198150    3.307990   -6.645230
  H      3.282020    2.949190   -4.640260
  H      3.565250    3.514570   -2.982520
  H      4.141570    0.711420   -4.029350
  H      2.785280    1.151460   -3.019440
  H      4.412050    1.250660   -2.389490

 Total Charge           Charge          ....    1
 Multiplicity           Mult            ....    1
 Number of Electrons    NEL             ....   48
 Basis Dimension        Dim             ....  312

ORBITAL ENERGIES
----------------

  NO   OCC          E(Eh)            E(eV)
   0   2.0000     -14.612053      -397.6142
   1   2.0000     -14.610683      -397.5769
   2   2.0000     -14.609445      -397.5432
   3   2.0000     -10.556752      -287.2638
   4   2.0000     -10.432308      -283.8775
   5   2.0000     -10.363552      -282.0066
   6   2.0000      -1.249552       -34.0020
   7   2.0000      -1.135105       -30.8878
   8   2.0000      -1.126651       -30.6577
   9   2.0000      -0.957741       -26.0615
  10   2.0000      -0.855216       -23.2716
  11   2.0000      -0.827638       -22.5212
  12   2.0000      -0.793345       -21.5880
  13   2.0000      -0.762395       -20.7458
  14   2.0000      -0.716351       -19.4929
  15   2.0000      -0.702609       -19.1190
  16   2.0000      -0.665865       -18.1191
  17   2.0000      -0.642288       -17.4775
  18   2.0000      -0.609945       -16.5974
  19   2.0000      -0.573918       -15.6171
  20   2.0000      -0.549727       -14.9588
  21   2.0000      -0.534416       -14.5422
  22   2.0000      -0.503540       -13.7020
  23   2.0000      -0.472393       -12.8545
  24   0.0000      -0.188714        -5.1352
  25   0.0000      -0.156431        -4.2567
  26   0.0000      -0.122988        -3.3467
  27   0.0000      -0.110734        -3.0132
  28   0.0000      -0.095061        -2.5867

MULLIKEN ATOMIC CHARGES
-----------------------
   0 C :   -0.203875
   1 N :   -0.006713
   2 C :   -0.967227
   3 C :    0.357526
   4 N :   -0.274801
   5 N :   -0.281495
   6 H :    0.216534
   7 H :    0.242211
   8 H :    0.253296
   9 H :    0.234824
  10 H :    0.233231
  11 H :    0.232070
  12 H :    0.183102
  13 H :    0.271523
  14 H :    0.215216
  15 H :    0.294576
Sum of atomic charges:    1.0000000

LOEWDIN ATOMIC CHARGES
----------------------
   0 C :   -0.203457
   1 N :    0.090188
   2 C :   -0.059549
   3 C :   -0.448415
   4 N :    0.209099
   5 N :    0.219178
   6 H :    0.138209
   7 H :    0.129244
   8 H :    0.156226
   9 H :    0.140583
  10 H :    0.137279
  11 H :    0.117952
  12 H :    0.129345
  13 H :    0.078010
  14 H :    0.085637
  15 H :    0.080471

  Mayer bond orders larger than 0.100000
B(  0-C ,  1-N ) :   0.9376 B(  0-C ,  2-C ) :   0.8337 B(  0-C , 11-H ) :   0.8657
B(  0-C , 12-H ) :   0.9983 B(  1-N ,  3-C ) :   1.3431 B(  1-N ,  8-H ) :   0.8590
B(  2-C , 11-H ) :   0.1186 B(  2-C , 13-H ) :   0.9801 B(  2-C , 14-H ) :   0.9991
B(  2-C , 15-H ) :   0.9586 B(  3-C ,  4-N ) :   1.2584 B(  3-C ,  5-N ) :   1.2326
B(  4-N ,  9-H ) :   0.9351 B(  4-N , 10-H ) :   0.9136 B(  5-N ,  6-H ) :   0.9408
B(  5-N ,  7-H ) :   0.9168

Dispersion correction           -0.010307802
FINAL SINGLE POINT ENERGY      -284.174077933646

DIPOLE MOMENT
-------------
                                X             Y             Z
Electronic contribution:      3.51276       3.40581      -2.64506
Nuclear contribution   :     -3.31456      -3.64300       1.57303
                        -----------------------------------------
Total Dipole Moment    :      0.19819      -0.23718      -1.07203
                        -----------------------------------------
Magnitude (a.u.)       :      1.11570
Magnitude (Debye)      :      2.83588

Rotational constants in cm-1:     0.229487     0.071000     0.059428
Rotational constants in MHz :  6879.840828  2128.520047  1781.605314

                             ****ORCA TERMINATED NORMALLY****
TOTAL RUN TIME: 0 days 0 hours 0 minutes 56 seconds 508 msec
