                         Program Version 5.0.0 -  RELEASE  -
|  1> !PBE0 D3BJ RIJCOSX def2-TZVPD def2/J TightSCF xyzfile
|  2>
|  3> *xyzfile 0 1 B.xyz
|  4>
|  5> %MaxCore 64000
|  6>
|  7> %pal nprocs 4
|  8> end
|  9>
| 10> %scf
| 11>   MaxIter 150
| 12> end
| 13>
| 14>
| 15>                          ****END OF INPUT****

CARTESIAN COORDINATES (ANGSTROEM)
---------------------------------
  C      3.905947    2.819855   -3.752920
  N      5.295615    3.131515   -4.105334
  C      3.803511    1.374716   -3.260807
  C      3.939934    0.320362   -4.367729
  H      4.105043   -0.655085   -3.907733
  H      3.022801    0.280517   -4.957117
  C      5.105846    0.668022   -5.305463
  C      5.708619    3.468885   -5.324190
  N      6.904696    3.038954   -5.717084
  N      4.981884    4.293570   -6.097457
  H      5.000546    4.101311   -7.087761
  H      4.084693    4.596899   -5.739652
  H      5.963358    2.526112   -3.642391
  H      7.047164    2.066861   -5.473604
  H      7.198145    3.307994   -6.645225
  H      3.282025    2.949187   -4.640259
  H      3.565254    3.514574   -2.982523
  H      4.574833    1.215157   -2.500443
  H      2.843514    1.260845   -2.751465
  O      4.809132    1.150187   -6.414361
  O      6.267366    0.564999   -4.819481

 Total Charge           Charge          ....    0
 Multiplicity           Mult            ....    1
 Number of Electrons    NEL             ....   78
 Basis Dimension        Dim             ....  475

ORBITAL ENERGIES
----------------

  NO   OCC          E(Eh)            E(eV)
   0   2.0000     -19.122960      -520.3622
   1   2.0000     -19.119458      -520.2669
   2   2.0000     -14.448012      -393.1504
   3   2.0000     -14.441721      -392.9792
   4   2.0000     -14.417684      -392.3251
   5   2.0000     -10.385951      -282.6161
   6   2.0000     -10.283334      -279.8237
   7   2.0000     -10.277387      -279.6619
   8   2.0000     -10.233968      -278.4804
   9   2.0000     -10.200100      -277.5588
  10   2.0000      -1.078738       -29.3540
  11   2.0000      -1.032731       -28.1020
  12   2.0000      -0.969424       -26.3794
  13   2.0000      -0.950906       -25.8755
  14   2.0000      -0.939622       -25.5684
  15   2.0000      -0.819814       -22.3083
  16   2.0000      -0.735820       -20.0227
  17   2.0000      -0.676635       -18.4122
  18   2.0000      -0.643101       -17.4997
  19   2.0000      -0.623900       -16.9772
  20   2.0000      -0.591341       -16.0912
  21   2.0000      -0.550418       -14.9776
  22   2.0000      -0.530595       -14.4382
  23   2.0000      -0.513310       -13.9679
  24   2.0000      -0.493968       -13.4415
  25   2.0000      -0.490943       -13.3592
  26   2.0000      -0.444897       -12.1063
  27   2.0000      -0.439301       -11.9540
  28   2.0000      -0.425353       -11.5744
  29   2.0000      -0.401633       -10.9290
  30   2.0000      -0.396231       -10.7820
  31   2.0000      -0.390699       -10.6315
  32   2.0000      -0.353794        -9.6272
  33   2.0000      -0.348716        -9.4890
  34   2.0000      -0.330122        -8.9831
  35   2.0000      -0.304667        -8.2904
  36   2.0000      -0.246759        -6.7147
  37   2.0000      -0.231073        -6.2878
  38   2.0000      -0.221973        -6.0402
  39   0.0000      -0.018316        -0.4984
  40   0.0000      -0.010147        -0.2761
  41   0.0000       0.013254         0.3607
  42   0.0000       0.022407         0.6097
  43   0.0000       0.039430         1.0730

MULLIKEN ATOMIC CHARGES
-----------------------
   0 C :   -0.275842
   1 N :   -0.019306
   2 C :   -0.431939
   3 C :   -0.105719
   4 H :    0.120666
   5 H :    0.160128
   6 C :    0.634270
   7 C :    0.188945
   8 N :   -0.232153
   9 N :   -0.312431
  10 H :    0.202154
  11 H :    0.227907
  12 H :    0.326081
  13 H :    0.252939
  14 H :    0.212530
  15 H :    0.242593
  16 H :    0.020452
  17 H :    0.204314
  18 H :    0.049609
  19 O :   -0.671197
  20 O :   -0.794002
Sum of atomic charges:   -0.0000000

LOEWDIN ATOMIC CHARGES
----------------------
   0 C :   -0.165145
   1 N :    0.090961
   2 C :   -0.181178
   3 C :   -0.119471
   4 H :    0.113067
   5 H :    0.110114
   6 C :   -0.714711
   7 C :   -0.480205
   8 N :    0.200917
   9 N :    0.196624
  10 H :    0.126522
  11 H :    0.114860
  12 H :    0.145088
  13 H :    0.076877
  14 H :    0.127007
  15 H :    0.122129
  16 H :    0.116665
  17 H :    0.116808
  18 H :    0.111321
  19 O :   -0.033075
  20 O :   -0.075176

  Mayer bond orders larger than 0.100000
B(  0-C ,  1-N ) :   0.9421 B(  0-C ,  2-C ) :   1.0775 B(  0-C , 15-H ) :   0.8202
B(  0-C , 16-H ) :   1.0908 B(  1-N ,  7-C ) :   1.3312 B(  1-N , 12-H ) :   0.7619
B(  2-C ,  3-C ) :   0.9868 B(  2-C ,  6-C ) :   0.1311 B(  2-C , 15-H ) :   0.1033
B(  2-C , 17-H ) :   0.9013 B(  2-C , 18-H ) :   1.0118 B(  3-C ,  4-H ) :   0.9285
B(  3-C ,  5-H ) :   0.9502 B(  3-C ,  6-C ) :   0.9913 B(  6-C , 19-O ) :   1.4139
B(  6-C , 20-O ) :   1.2399 B(  7-C ,  8-N ) :   1.2324 B(  7-C ,  9-N ) :   1.0869
B(  7-C , 19-O ) :   0.1387 B(  7-C , 20-O ) :   0.1092 B(  8-N , 13-H ) :   0.8275
B(  8-N , 14-H ) :   0.8788 B(  9-N , 10-H ) :   0.9277 B(  9-N , 11-H ) :   0.8986
B( 13-H , 20-O ) :   0.1489

Dispersion correction           -0.019740434
FINAL SINGLE POINT ENERGY      -511.526859175501

DIPOLE MOMENT
-------------
                                X             Y             Z
Electronic contribution:      4.17671       0.39338      -3.43239
Nuclear contribution   :     -4.94498       2.03334       3.78956
                        -----------------------------------------
Total Dipole Moment    :     -0.76827       2.42673       0.35717
                        -----------------------------------------
Magnitude (a.u.)       :      2.57037
Magnitude (Debye)      :      6.53336

Rotational constants in cm-1:     0.062533     0.042832     0.033687
Rotational constants in MHz :  1874.701390  1284.063603  1009.911042

                             ****ORCA TERMINATED NORMALLY****
TOTAL RUN TIME: 0 days 0 hours 2 minutes 31 seconds 44 msec
