                         Program Version 5.0.0 -  RELEASE  -
|  1> !PBE0 D3BJ RIJCOSX def2-TZVPD def2/J TightSCF
|  2> *xyz 0 1
|  3> C          3.80351        1.37472       -3.26081
|  4> C          3.93993        0.32036       -4.36773
|  5> H          4.10504       -0.65508       -3.90773
|  6> H          3.02280        0.28052       -4.95712
|  7> C          5.10585        0.66802       -5.30546
|  8> F          4.80913        1.15019       -6.41436
|  9> O          6.26737        0.56500       -4.81948
| 10> H          3.64113        2.33595       -3.70189
| 11> H          4.69995        1.39701       -2.67703
| 12> H          2.97435        1.12625       -2.63180
| 13> *
| 14>
| 15> %MaxCore 64000
| 16>
| 17> %pal nprocs 4
| 18> end
| 19>
| 20> %scf
| 21>   MaxIter 150
| 22> end
| 23>
| 24>
| 25>                          ****END OF INPUT****

CARTESIAN COORDINATES (ANGSTROEM)
---------------------------------
  C      3.803510    1.374720   -3.260810
  C      3.939930    0.320360   -4.367730
  H      4.105040   -0.655080   -3.907730
  H      3.022800    0.280520   -4.957120
  C      5.105850    0.668020   -5.305460
  F      4.809130    1.150190   -6.414360
  O      6.267370    0.565000   -4.819480
  H      3.641130    2.335950   -3.701890
  H      4.699950    1.397010   -2.677030
  H      2.974350    1.126250   -2.631800

 Total Charge           Charge          ....    0
 Multiplicity           Mult            ....    1
 Number of Electrons    NEL             ....   40
 Basis Dimension        Dim             ....  236

ORBITAL ENERGIES
----------------

  NO   OCC          E(Eh)            E(eV)
   0   2.0000     -24.847444      -676.1333
   1   2.0000     -19.211324      -522.7667
   2   2.0000     -10.400196      -283.0037
   3   2.0000     -10.253156      -279.0026
   4   2.0000     -10.226594      -278.2798
   5   2.0000      -1.361587       -37.0507
   6   2.0000      -1.058046       -28.7909
   7   2.0000      -0.824634       -22.4394
   8   2.0000      -0.712770       -19.3955
   9   2.0000      -0.662985       -18.0407
  10   2.0000      -0.571776       -15.5588
  11   2.0000      -0.558127       -15.1874
  12   2.0000      -0.525902       -14.3105
  13   2.0000      -0.479926       -13.0595
  14   2.0000      -0.450638       -12.2625
  15   2.0000      -0.413605       -11.2548
  16   2.0000      -0.392808       -10.6889
  17   2.0000      -0.386643       -10.5211
  18   2.0000      -0.359501        -9.7825
  19   2.0000      -0.304567        -8.2877
  20   0.0000      -0.027678        -0.7532
  21   0.0000       0.008461         0.2302
  22   0.0000       0.035907         0.9771
  23   0.0000       0.045500         1.2381
  24   0.0000       0.054581         1.4852

MULLIKEN ATOMIC CHARGES
-----------------------
   0 C :   -0.839716
   1 C :    0.102574
   2 H :    0.143770
   3 H :    0.153899
   4 C :    0.414688
   5 F :   -0.161776
   6 O :   -0.469965
   7 H :    0.248471
   8 H :    0.233200
   9 H :    0.174855
Sum of atomic charges:    0.0000000

LOEWDIN ATOMIC CHARGES
----------------------
   0 C :   -0.088337
   1 C :   -0.155467
   2 H :    0.118592
   3 H :    0.107133
   4 C :   -0.492386
   5 F :    0.220046
   6 O :    0.071589
   7 H :    0.074676
   8 H :    0.074638
   9 H :    0.069516

  Mayer bond orders larger than 0.100000
B(  0-C ,  1-C ) :   0.7726 B(  0-C ,  4-C ) :   0.2225 B(  0-C ,  7-H ) :   0.9428
B(  0-C ,  8-H ) :   1.0039 B(  0-C ,  9-H ) :   0.9894 B(  1-C ,  2-H ) :   0.9469
B(  1-C ,  3-H ) :   0.9695 B(  1-C ,  4-C ) :   0.8892 B(  4-C ,  5-F ) :   1.0696
B(  4-C ,  6-O ) :   1.8025

Dispersion correction           -0.005190338
FINAL SINGLE POINT ENERGY      -292.198460605289

DIPOLE MOMENT
-------------
                                X             Y             Z
Electronic contribution:      3.99434      -0.00929      -7.43316
Nuclear contribution   :     -5.17129      -0.01923       7.59895
                        -----------------------------------------
Total Dipole Moment    :     -1.17695      -0.02852       0.16579
                        -----------------------------------------
Magnitude (a.u.)       :      1.18891
Magnitude (Debye)      :      3.02197

Rotational constants in cm-1:     0.282073     0.131822     0.105134
Rotational constants in MHz :  8456.328792  3951.925810  3151.840112

                             ****ORCA TERMINATED NORMALLY****
TOTAL RUN TIME: 0 days 0 hours 0 minutes 32 seconds 559 msec
