                         Program Version 5.0.0 -  RELEASE  -
|  1> !PBE0 D3BJ RIJCOSX def2-TZVPD def2/J TightSCF
|  2> *xyz 0 1
|  3> C          3.90595        2.81985       -3.75292
|  4> C          5.29562        3.13151       -4.10533
|  5> C          3.80351        1.37472       -3.26081
|  6> C          5.70862        3.46889       -5.32419
|  7> N          6.90470        3.03895       -5.71708
|  8> N          4.98188        4.29357       -6.09746
|  9> H          5.00055        4.10131       -7.08776
| 10> H          4.08469        4.59690       -5.73965
| 11> H          5.96336        2.52611       -3.64239
| 12> H          7.04716        2.06686       -5.47360
| 13> H          7.19815        3.30799       -6.64523
| 14> H          3.28202        2.94919       -4.64026
| 15> H          3.56525        3.51457       -2.98252
| 16> H          4.14157        0.71142       -4.02935
| 17> H          2.78528        1.15146       -3.01944
| 18> H          4.41205        1.25066       -2.38949
| 19> *
| 20>
| 21> %MaxCore 64000
| 22>
| 23> %pal nprocs 4
| 24> end
| 25>
| 26> %scf
| 27>   MaxIter 150
| 28> end
| 29>
| 30>
| 31>                          ****END OF INPUT****

CARTESIAN COORDINATES (ANGSTROEM)
---------------------------------
  C      3.905950    2.819850   -3.752920
  C      5.295620    3.131510   -4.105330
  C      3.803510    1.374720   -3.260810
  C      5.708620    3.468890   -5.324190
  N      6.904700    3.038950   -5.717080
  N      4.981880    4.293570   -6.097460
  H      5.000550    4.101310   -7.087760
  H      4.084690    4.596900   -5.739650
  H      5.963360    2.526110   -3.642390
  H      7.047160    2.066860   -5.473600
  H      7.198150    3.307990   -6.645230
  H      3.282020    2.949190   -4.640260
  H      3.565250    3.514570   -2.982520
  H      4.141570    0.711420   -4.029350
  H      2.785280    1.151460   -3.019440
  H      4.412050    1.250660   -2.389490

 Total Charge           Charge          ....    0
 Multiplicity           Mult            ....    1
 Number of Electrons    NEL             ....   48
 Basis Dimension        Dim             ....  312

ORBITAL ENERGIES
----------------

  NO   OCC          E(Eh)            E(eV)
   0   2.0000     -14.388119      -391.5206
   1   2.0000     -14.385038      -391.4368
   2   2.0000     -10.263272      -279.2778
   3   2.0000     -10.199486      -277.5421
   4   2.0000     -10.190026      -277.2847
   5   2.0000     -10.148296      -276.1492
   6   2.0000      -0.993833       -27.0436
   7   2.0000      -0.903481       -24.5850
   8   2.0000      -0.801652       -21.8141
   9   2.0000      -0.718202       -19.5433
  10   2.0000      -0.633365       -17.2347
  11   2.0000      -0.594232       -16.1699
  12   2.0000      -0.551341       -15.0027
  13   2.0000      -0.527001       -14.3404
  14   2.0000      -0.492396       -13.3988
  15   2.0000      -0.460594       -12.5334
  16   2.0000      -0.435647       -11.8546
  17   2.0000      -0.403060       -10.9678
  18   2.0000      -0.383164       -10.4264
  19   2.0000      -0.364099        -9.9077
  20   2.0000      -0.339174        -9.2294
  21   2.0000      -0.335890        -9.1400
  22   2.0000      -0.288145        -7.8408
  23   2.0000      -0.181449        -4.9375
  24   0.0000       0.002214         0.0603
  25   0.0000       0.030698         0.8353
  26   0.0000       0.033371         0.9081
  27   0.0000       0.046115         1.2549
  28   0.0000       0.059371         1.6156

MULLIKEN ATOMIC CHARGES
-----------------------
   0 C :    0.293686
   1 C :   -0.595894
   2 C :   -1.058897
   3 C :   -0.021629
   4 N :   -0.332190
   5 N :   -0.353728
   6 H :    0.148989
   7 H :    0.203384
   8 H :    0.358579
   9 H :    0.199067
  10 H :    0.193944
  11 H :    0.173647
  12 H :    0.086481
  13 H :    0.268162
  14 H :    0.184606
  15 H :    0.251792
Sum of atomic charges:    0.0000000

LOEWDIN ATOMIC CHARGES
----------------------
   0 C :   -0.287282
   1 C :   -0.137722
   2 C :   -0.111373
   3 C :   -0.561482
   4 N :    0.112651
   5 N :    0.124433
   6 H :    0.096351
   7 H :    0.101647
   8 H :    0.064584
   9 H :    0.110260
  10 H :    0.097153
  11 H :    0.096322
  12 H :    0.100142
  13 H :    0.067867
  14 H :    0.059740
  15 H :    0.066709

  Mayer bond orders larger than 0.100000
B(  0-C ,  1-C ) :   0.7050 B(  0-C ,  2-C ) :   0.5868 B(  0-C , 11-H ) :   0.9190
B(  0-C , 12-H ) :   0.9840 B(  1-C ,  2-C ) :   0.3732 B(  1-C ,  3-C ) :   1.9225
B(  1-C ,  5-N ) :   0.1346 B(  1-C ,  8-H ) :   0.8412 B(  2-C , 13-H ) :   0.9946
B(  2-C , 14-H ) :   1.0214 B(  2-C , 15-H ) :   0.9918 B(  3-C ,  4-N ) :   1.1362
B(  3-C ,  5-N ) :   1.0038 B(  4-N ,  9-H ) :   0.9604 B(  4-N , 10-H ) :   0.9299
B(  5-N ,  6-H ) :   1.0080 B(  5-N ,  7-H ) :   0.9110

Dispersion correction           -0.010730141
FINAL SINGLE POINT ENERGY      -267.702410677402

DIPOLE MOMENT
-------------
                                X             Y             Z
Electronic contribution:      3.17792       3.25885      -2.81953
Nuclear contribution   :     -3.27358      -3.61654       1.70633
                        -----------------------------------------
Total Dipole Moment    :     -0.09566      -0.35769      -1.11320
                        -----------------------------------------
Magnitude (a.u.)       :      1.17316
Magnitude (Debye)      :      2.98194

Rotational constants in cm-1:     0.231961     0.071249     0.059473
Rotational constants in MHz :  6954.024434  2135.976855  1782.962814

                             ****ORCA TERMINATED NORMALLY****
TOTAL RUN TIME: 0 days 0 hours 0 minutes 57 seconds 241 msec
