                         Program Version 5.0.0 -  RELEASE  -
|  1> !PBE0 D3BJ RIJCOSX def2-TZVPD def2/J TightSCF
|  2> *xyz 0 1
|  3> C          3.80351        1.37472       -3.26081
|  4> C          3.93993        0.32036       -4.36773
|  5> H          4.10504       -0.65508       -3.90773
|  6> H          3.02280        0.28052       -4.95712
|  7> C          5.10585        0.66802       -5.30546
|  8> O          4.80913        1.15019       -6.41436
|  9> F          6.26737        0.56500       -4.81948
| 10> H          3.64113        2.33595       -3.70189
| 11> H          4.69995        1.39701       -2.67703
| 12> H          2.97435        1.12625       -2.63180
| 13> *
| 14>
| 15> %MaxCore 64000
| 16>
| 17> %pal nprocs 4
| 18> end
| 19>
| 20> %scf
| 21>   MaxIter 150
| 22> end
| 23>
| 24>
| 25>                          ****END OF INPUT****

CARTESIAN COORDINATES (ANGSTROEM)
---------------------------------
  C      3.803510    1.374720   -3.260810
  C      3.939930    0.320360   -4.367730
  H      4.105040   -0.655080   -3.907730
  H      3.022800    0.280520   -4.957120
  C      5.105850    0.668020   -5.305460
  O      4.809130    1.150190   -6.414360
  F      6.267370    0.565000   -4.819480
  H      3.641130    2.335950   -3.701890
  H      4.699950    1.397010   -2.677030
  H      2.974350    1.126250   -2.631800

 Total Charge           Charge          ....    0
 Multiplicity           Mult            ....    1
 Number of Electrons    NEL             ....   40
 Basis Dimension        Dim             ....  236

ORBITAL ENERGIES
----------------

  NO   OCC          E(Eh)            E(eV)
   0   2.0000     -24.840518      -675.9449
   1   2.0000     -19.213998      -522.8395
   2   2.0000     -10.398157      -282.9482
   3   2.0000     -10.252687      -278.9898
   4   2.0000     -10.229272      -278.3526
   5   2.0000      -1.347831       -36.6763
   6   2.0000      -1.069283       -29.0967
   7   2.0000      -0.826475       -22.4895
   8   2.0000      -0.706936       -19.2367
   9   2.0000      -0.661196       -17.9921
  10   2.0000      -0.565798       -15.3961
  11   2.0000      -0.553391       -15.0585
  12   2.0000      -0.522712       -14.2237
  13   2.0000      -0.480111       -13.0645
  14   2.0000      -0.451686       -12.2910
  15   2.0000      -0.417139       -11.3509
  16   2.0000      -0.398294       -10.8381
  17   2.0000      -0.387159       -10.5351
  18   2.0000      -0.368577       -10.0295
  19   2.0000      -0.305288        -8.3073
  20   0.0000      -0.023638        -0.6432
  21   0.0000       0.007834         0.2132
  22   0.0000       0.035698         0.9714
  23   0.0000       0.045492         1.2379
  24   0.0000       0.054924         1.4946

MULLIKEN ATOMIC CHARGES
-----------------------
   0 C :   -0.845320
   1 C :    0.110211
   2 H :    0.168618
   3 H :    0.134031
   4 C :    0.401606
   5 O :   -0.445101
   6 F :   -0.183115
   7 H :    0.248241
   8 H :    0.237348
   9 H :    0.173481
Sum of atomic charges:    0.0000000

LOEWDIN ATOMIC CHARGES
----------------------
   0 C :   -0.089804
   1 C :   -0.153461
   2 H :    0.112783
   3 H :    0.116396
   4 C :   -0.493047
   5 O :    0.089359
   6 F :    0.199880
   7 H :    0.077144
   8 H :    0.070847
   9 H :    0.069904

  Mayer bond orders larger than 0.100000
B(  0-C ,  1-C ) :   0.7382 B(  0-C ,  4-C ) :   0.2188 B(  0-C ,  7-H ) :   0.9797
B(  0-C ,  8-H ) :   0.9683 B(  0-C ,  9-H ) :   0.9926 B(  1-C ,  2-H ) :   0.9404
B(  1-C ,  3-H ) :   0.9847 B(  1-C ,  4-C ) :   0.8998 B(  4-C ,  5-O ) :   1.8114
B(  4-C ,  6-F ) :   1.0423

Dispersion correction           -0.005174287
FINAL SINGLE POINT ENERGY      -292.203877815204

DIPOLE MOMENT
-------------
                                X             Y             Z
Electronic contribution:      6.40870      -0.98600      -4.76673
Nuclear contribution   :     -6.76123       0.61881       5.86003
                        -----------------------------------------
Total Dipole Moment    :     -0.35253      -0.36720       1.09330
                        -----------------------------------------
Magnitude (a.u.)       :      1.20599
Magnitude (Debye)      :      3.06538

Rotational constants in cm-1:     0.275298     0.134631     0.105723
Rotational constants in MHz :  8253.224169  4036.137572  3169.487264

                             ****ORCA TERMINATED NORMALLY****
TOTAL RUN TIME: 0 days 0 hours 0 minutes 31 seconds 614 msec
