                         Program Version 5.0.0 -  RELEASE  -
|  1> !PBE0 D3BJ RIJCOSX def2-TZVPD def2/J TightSCF
|  2> *xyz 0 1
|  3> C          3.90595        2.81985       -3.75292
|  4> N          5.29562        3.13151       -4.10533
|  5> C          3.80351        1.37472       -3.26081
|  6> C          5.70862        3.46889       -5.32419
|  7> C          6.90470        3.03895       -5.71708
|  8> N          4.98188        4.29357       -6.09746
|  9> H          5.00055        4.10131       -7.08776
| 10> H          4.08469        4.59690       -5.73965
| 11> H          5.96336        2.52611       -3.64239
| 12> H          7.04716        2.06686       -5.47360
| 13> H          7.19815        3.30799       -6.64523
| 14> H          3.28202        2.94919       -4.64026
| 15> H          3.56525        3.51457       -2.98252
| 16> H          4.14157        0.71142       -4.02935
| 17> H          2.78528        1.15146       -3.01944
| 18> H          4.41205        1.25066       -2.38949
| 19> *
| 20>
| 21> %MaxCore 64000
| 22>
| 23> %pal nprocs 4
| 24> end
| 25>
| 26> %scf
| 27>   MaxIter 150
| 28> end
| 29>
| 30>
| 31>                          ****END OF INPUT****

CARTESIAN COORDINATES (ANGSTROEM)
---------------------------------
  C      3.905950    2.819850   -3.752920
  N      5.295620    3.131510   -4.105330
  C      3.803510    1.374720   -3.260810
  C      5.708620    3.468890   -5.324190
  C      6.904700    3.038950   -5.717080
  N      4.981880    4.293570   -6.097460
  H      5.000550    4.101310   -7.087760
  H      4.084690    4.596900   -5.739650
  H      5.963360    2.526110   -3.642390
  H      7.047160    2.066860   -5.473600
  H      7.198150    3.307990   -6.645230
  H      3.282020    2.949190   -4.640260
  H      3.565250    3.514570   -2.982520
  H      4.141570    0.711420   -4.029350
  H      2.785280    1.151460   -3.019440
  H      4.412050    1.250660   -2.389490

 Total Charge           Charge          ....    0
 Multiplicity           Mult            ....    1
 Number of Electrons    NEL             ....   48
 Basis Dimension        Dim             ....  312

ORBITAL ENERGIES
----------------

  NO   OCC          E(Eh)            E(eV)
   0   2.0000     -14.387818      -391.5124
   1   2.0000     -14.387763      -391.5109
   2   2.0000     -10.268109      -279.4094
   3   2.0000     -10.261847      -279.2391
   4   2.0000     -10.218884      -278.0700
   5   2.0000     -10.132470      -275.7185
   6   2.0000      -0.998761       -27.1777
   7   2.0000      -0.915045       -24.8997
   8   2.0000      -0.797973       -21.7139
   9   2.0000      -0.729773       -19.8581
  10   2.0000      -0.650845       -17.7104
  11   2.0000      -0.615123       -16.7383
  12   2.0000      -0.550492       -14.9796
  13   2.0000      -0.510816       -13.9000
  14   2.0000      -0.499466       -13.5912
  15   2.0000      -0.467529       -12.7221
  16   2.0000      -0.437256       -11.8983
  17   2.0000      -0.415526       -11.3070
  18   2.0000      -0.394102       -10.7241
  19   2.0000      -0.387877       -10.5547
  20   2.0000      -0.384250       -10.4560
  21   2.0000      -0.351012        -9.5515
  22   2.0000      -0.274263        -7.4631
  23   2.0000      -0.185600        -5.0504
  24   0.0000       0.003978         0.1082
  25   0.0000       0.024423         0.6646
  26   0.0000       0.035503         0.9661
  27   0.0000       0.041806         1.1376
  28   0.0000       0.060042         1.6338

MULLIKEN ATOMIC CHARGES
-----------------------
   0 C :   -0.176744
   1 N :   -0.105002
   2 C :   -0.912983
   3 C :    0.473622
   4 C :   -0.980321
   5 N :   -0.345446
   6 H :    0.188626
   7 H :    0.190337
   8 H :    0.207890
   9 H :    0.220806
  10 H :    0.203800
  11 H :    0.213201
  12 H :    0.117439
  13 H :    0.250804
  14 H :    0.204424
  15 H :    0.249548
Sum of atomic charges:   -0.0000000

LOEWDIN ATOMIC CHARGES
----------------------
   0 C :   -0.240282
   1 N :    0.017317
   2 C :   -0.088177
   3 C :   -0.576874
   4 C :   -0.006820
   5 N :    0.126106
   6 H :    0.109142
   7 H :    0.092810
   8 H :    0.130220
   9 H :    0.011093
  10 H :    0.005734
  11 H :    0.105920
  12 H :    0.107965
  13 H :    0.072205
  14 H :    0.065789
  15 H :    0.067852

  Mayer bond orders larger than 0.100000
B(  0-C ,  1-N ) :   0.8954 B(  0-C ,  2-C ) :   0.7836 B(  0-C , 11-H ) :   0.8981
B(  0-C , 12-H ) :   1.0347 B(  1-N ,  3-C ) :   1.2198 B(  1-N ,  4-C ) :   0.1194
B(  1-N ,  8-H ) :   0.8690 B(  2-C , 13-H ) :   1.0142 B(  2-C , 14-H ) :   1.0007
B(  2-C , 15-H ) :   0.9759 B(  3-C ,  4-C ) :   1.3870 B(  3-C ,  5-N ) :   1.0796
B(  4-C ,  9-H ) :   0.9967 B(  4-C , 10-H ) :   1.1276 B(  5-N ,  6-H ) :   0.9570
B(  5-N ,  7-H ) :   0.9268

Dispersion correction           -0.010644312
FINAL SINGLE POINT ENERGY      -267.690302920589

DIPOLE MOMENT
-------------
                                X             Y             Z
Electronic contribution:      1.52481       3.24055      -1.26833
Nuclear contribution   :     -2.93222      -3.63618       1.36440
                        -----------------------------------------
Total Dipole Moment    :     -1.40741      -0.39563       0.09607
                        -----------------------------------------
Magnitude (a.u.)       :      1.46511
Magnitude (Debye)      :      3.72402

Rotational constants in cm-1:     0.237993     0.072843     0.061284
Rotational constants in MHz :  7134.860770  2183.763760  1837.240960

                             ****ORCA TERMINATED NORMALLY****
TOTAL RUN TIME: 0 days 0 hours 0 minutes 56 seconds 245 msec
