                         Program Version 5.0.0 -  RELEASE  -
|  1> !PBE0 D3BJ RIJCOSX def2-TZVPD def2/J TightSCF
|  2> *xyz 0 1
|  3> C          3.90595        2.81985       -3.75292
|  4> N          5.29562        3.13151       -4.10533
|  5> C          3.80351        1.37472       -3.26081
|  6> C          5.70862        3.46889       -5.32419
|  7> N          6.90470        3.03895       -5.71708
|  8> C          4.98188        4.29357       -6.09746
|  9> H          5.00055        4.10131       -7.08776
| 10> H          4.08469        4.59690       -5.73965
| 11> H          5.96336        2.52611       -3.64239
| 12> H          7.04716        2.06686       -5.47360
| 13> H          7.19815        3.30799       -6.64523
| 14> H          3.28202        2.94919       -4.64026
| 15> H          3.56525        3.51457       -2.98252
| 16> H          4.14157        0.71142       -4.02935
| 17> H          2.78528        1.15146       -3.01944
| 18> H          4.41205        1.25066       -2.38949
| 19> *
| 20>
| 21> %MaxCore 64000
| 22>
| 23> %pal nprocs 4
| 24> end
| 25>
| 26> %scf
| 27>   MaxIter 150
| 28> end
| 29>
| 30>
| 31>                          ****END OF INPUT****

CARTESIAN COORDINATES (ANGSTROEM)
---------------------------------
  C      3.905950    2.819850   -3.752920
  N      5.295620    3.131510   -4.105330
  C      3.803510    1.374720   -3.260810
  C      5.708620    3.468890   -5.324190
  N      6.904700    3.038950   -5.717080
  C      4.981880    4.293570   -6.097460
  H      5.000550    4.101310   -7.087760
  H      4.084690    4.596900   -5.739650
  H      5.963360    2.526110   -3.642390
  H      7.047160    2.066860   -5.473600
  H      7.198150    3.307990   -6.645230
  H      3.282020    2.949190   -4.640260
  H      3.565250    3.514570   -2.982520
  H      4.141570    0.711420   -4.029350
  H      2.785280    1.151460   -3.019440
  H      4.412050    1.250660   -2.389490

 Total Charge           Charge          ....    0
 Multiplicity           Mult            ....    1
 Number of Electrons    NEL             ....   48
 Basis Dimension        Dim             ....  312

ORBITAL ENERGIES
----------------

  NO   OCC          E(Eh)            E(eV)
   0   2.0000     -14.390184      -391.5768
   1   2.0000     -14.386791      -391.4845
   2   2.0000     -10.267039      -279.3803
   3   2.0000     -10.256395      -279.0907
   4   2.0000     -10.216791      -278.0130
   5   2.0000     -10.137864      -275.8653
   6   2.0000      -1.003832       -27.3156
   7   2.0000      -0.916939       -24.9512
   8   2.0000      -0.786841       -21.4110
   9   2.0000      -0.731273       -19.8990
  10   2.0000      -0.664410       -18.0795
  11   2.0000      -0.585583       -15.9345
  12   2.0000      -0.553364       -15.0578
  13   2.0000      -0.533711       -14.5230
  14   2.0000      -0.487049       -13.2533
  15   2.0000      -0.471874       -12.8403
  16   2.0000      -0.419795       -11.4232
  17   2.0000      -0.416307       -11.3283
  18   2.0000      -0.406629       -11.0650
  19   2.0000      -0.386905       -10.5282
  20   2.0000      -0.376309       -10.2399
  21   2.0000      -0.352374        -9.5886
  22   2.0000      -0.272021        -7.4021
  23   2.0000      -0.188916        -5.1407
  24   0.0000       0.003673         0.0999
  25   0.0000       0.026644         0.7250
  26   0.0000       0.036778         1.0008
  27   0.0000       0.044124         1.2007
  28   0.0000       0.056260         1.5309

MULLIKEN ATOMIC CHARGES
-----------------------
   0 C :   -0.151136
   1 N :   -0.096993
   2 C :   -0.935260
   3 C :    0.465630
   4 N :   -0.364253
   5 C :   -1.065789
   6 H :    0.201131
   7 H :    0.275484
   8 H :    0.234583
   9 H :    0.175894
  10 H :    0.204632
  11 H :    0.214783
  12 H :    0.142853
  13 H :    0.249806
  14 H :    0.205975
  15 H :    0.242660
Sum of atomic charges:   -0.0000000

LOEWDIN ATOMIC CHARGES
----------------------
   0 C :   -0.233407
   1 N :    0.018130
   2 C :   -0.090677
   3 C :   -0.584087
   4 N :    0.114632
   5 C :    0.008046
   6 H :    0.008065
   7 H :    0.003338
   8 H :    0.126270
   9 H :    0.100435
  10 H :    0.106969
  11 H :    0.109726
  12 H :    0.112239
  13 H :    0.068889
  14 H :    0.066382
  15 H :    0.065049

  Mayer bond orders larger than 0.100000
B(  0-C ,  1-N ) :   0.8927 B(  0-C ,  2-C ) :   0.7296 B(  0-C , 11-H ) :   0.9114
B(  0-C , 12-H ) :   1.0008 B(  1-N ,  3-C ) :   1.1361 B(  1-N ,  8-H ) :   0.8676
B(  2-C , 13-H ) :   1.0226 B(  2-C , 14-H ) :   1.0037 B(  2-C , 15-H ) :   0.9854
B(  3-C ,  4-N ) :   1.0961 B(  3-C ,  5-C ) :   1.4253 B(  4-N ,  5-C ) :   0.1047
B(  4-N ,  9-H ) :   0.9731 B(  4-N , 10-H ) :   0.9273 B(  5-C ,  6-H ) :   1.0850
B(  5-C ,  7-H ) :   0.9466

Dispersion correction           -0.010669216
FINAL SINGLE POINT ENERGY      -267.694846384568

DIPOLE MOMENT
-------------
                                X             Y             Z
Electronic contribution:      3.38295       2.07340      -0.97689
Nuclear contribution   :     -3.34013      -3.37002       1.28371
                        -----------------------------------------
Total Dipole Moment    :      0.04282      -1.29662       0.30682
                        -----------------------------------------
Magnitude (a.u.)       :      1.33311
Magnitude (Debye)      :      3.38850

Rotational constants in cm-1:     0.239537     0.072280     0.060961
Rotational constants in MHz :  7181.153552  2166.902802  1827.551447

                             ****ORCA TERMINATED NORMALLY****
TOTAL RUN TIME: 0 days 0 hours 0 minutes 58 seconds 180 msec
