                         Program Version 5.0.0 -  RELEASE  -
|  1> !PBE0 D3BJ RIJCOSX def2-TZVPD def2/J TightSCF xyzfile
|  2>
|  3> *xyzfile 0 1 D1.xyz
|  4>
|  5> %MaxCore 64000
|  6>
|  7> %pal nprocs 4
|  8> end
|  9>
| 10> %scf
| 11>   MaxIter 150
| 12> end
| 13>
| 14>
| 15>                          ****END OF INPUT****

CARTESIAN COORDINATES (ANGSTROEM)
---------------------------------
  C      3.905947    2.819855   -3.752920
  C      5.295615    3.131515   -4.105334
  C      3.803511    1.374716   -3.260807
  C      3.939934    0.320362   -4.367729
  H      4.105043   -0.655085   -3.907733
  H      3.022801    0.280517   -4.957117
  C      5.105846    0.668022   -5.305463
  C      5.708619    3.468885   -5.324190
  N      6.904696    3.038954   -5.717084
  N      4.981884    4.293570   -6.097457
  H      5.000546    4.101311   -7.087761
  H      4.084693    4.596899   -5.739652
  H      5.963358    2.526112   -3.642391
  H      7.047164    2.066861   -5.473604
  H      7.198145    3.307994   -6.645225
  H      3.282025    2.949187   -4.640259
  H      3.565254    3.514574   -2.982523
  H      4.574833    1.215157   -2.500443
  H      2.843514    1.260845   -2.751465
  F      4.809132    1.150187   -6.414361
  O      6.267366    0.564999   -4.819481

 Total Charge           Charge          ....    0
 Multiplicity           Mult            ....    1
 Number of Electrons    NEL             ....   78
 Basis Dimension        Dim             ....  475

ORBITAL ENERGIES
----------------

  NO   OCC          E(Eh)            E(eV)
   0   2.0000     -24.850330      -676.2119
   1   2.0000     -19.213362      -522.8222
   2   2.0000     -14.387452      -391.5025
   3   2.0000     -14.366294      -390.9267
   4   2.0000     -10.406037      -283.1627
   5   2.0000     -10.262348      -279.2527
   6   2.0000     -10.249730      -278.9093
   7   2.0000     -10.229431      -278.3570
   8   2.0000     -10.211586      -277.8714
   9   2.0000     -10.149497      -276.1819
  10   2.0000      -1.365676       -37.1619
  11   2.0000      -1.067844       -29.0575
  12   2.0000      -0.988420       -26.8963
  13   2.0000      -0.896739       -24.4015
  14   2.0000      -0.842443       -22.9240
  15   2.0000      -0.775623       -21.1058
  16   2.0000      -0.717834       -19.5332
  17   2.0000      -0.682097       -18.5608
  18   2.0000      -0.628594       -17.1049
  19   2.0000      -0.597094       -16.2478
  20   2.0000      -0.576270       -15.6811
  21   2.0000      -0.560029       -15.2392
  22   2.0000      -0.551107       -14.9964
  23   2.0000      -0.536389       -14.5959
  24   2.0000      -0.518542       -14.1102
  25   2.0000      -0.482870       -13.1396
  26   2.0000      -0.474763       -12.9190
  27   2.0000      -0.456525       -12.4227
  28   2.0000      -0.445259       -12.1161
  29   2.0000      -0.412734       -11.2311
  30   2.0000      -0.400605       -10.9010
  31   2.0000      -0.381286       -10.3753
  32   2.0000      -0.376968       -10.2578
  33   2.0000      -0.360311        -9.8046
  34   2.0000      -0.348038        -9.4706
  35   2.0000      -0.334709        -9.1079
  36   2.0000      -0.312796        -8.5116
  37   2.0000      -0.278464        -7.5774
  38   2.0000      -0.182833        -4.9751
  39   0.0000      -0.031870        -0.8672
  40   0.0000       0.002822         0.0768
  41   0.0000       0.022298         0.6067
  42   0.0000       0.029909         0.8139
  43   0.0000       0.037153         1.0110

MULLIKEN ATOMIC CHARGES
-----------------------
   0 C :    0.184625
   1 C :   -0.533093
   2 C :   -0.424782
   3 C :   -0.224882
   4 H :    0.135905
   5 H :    0.190159
   6 C :    0.751401
   7 C :   -0.359510
   8 N :   -0.274623
   9 N :   -0.340807
  10 H :    0.145871
  11 H :    0.224211
  12 H :    0.406342
  13 H :    0.267807
  14 H :    0.192607
  15 H :    0.252648
  16 H :   -0.072063
  17 H :    0.217333
  18 H :    0.066149
  19 F :   -0.228741
  20 O :   -0.576554
Sum of atomic charges:   -0.0000000

LOEWDIN ATOMIC CHARGES
----------------------
   0 C :   -0.223804
   1 C :   -0.129436
   2 C :   -0.189172
   3 C :   -0.086824
   4 H :    0.123477
   5 H :    0.115103
   6 C :   -0.472697
   7 C :   -0.571257
   8 N :    0.135490
   9 N :    0.135614
  10 H :    0.098341
  11 H :    0.102287
  12 H :    0.073216
  13 H :    0.066719
  14 H :    0.105310
  15 H :    0.107349
  16 H :    0.106376
  17 H :    0.121312
  18 H :    0.110863
  19 F :    0.226691
  20 O :    0.045043

  Mayer bond orders larger than 0.100000
B(  0-C ,  1-C ) :   0.6348 B(  0-C ,  2-C ) :   0.8774 B(  0-C , 15-H ) :   0.8683
B(  0-C , 16-H ) :   1.0615 B(  1-C ,  2-C ) :   0.3232 B(  1-C ,  7-C ) :   1.7774
B(  1-C ,  9-N ) :   0.1149 B(  1-C , 12-H ) :   0.9112 B(  2-C ,  3-C ) :   1.0195
B(  2-C ,  6-C ) :   0.1236 B(  2-C , 17-H ) :   0.8994 B(  2-C , 18-H ) :   1.0120
B(  3-C ,  4-H ) :   0.9080 B(  3-C ,  5-H ) :   0.9443 B(  3-C ,  6-C ) :   0.9941
B(  6-C , 19-F ) :   0.9664 B(  6-C , 20-O ) :   1.5965 B(  7-C ,  8-N ) :   1.0747
B(  7-C ,  9-N ) :   0.9382 B(  8-N , 13-H ) :   0.8267 B(  8-N , 14-H ) :   0.8843
B(  9-N , 10-H ) :   0.9706 B(  9-N , 11-H ) :   0.8978

Dispersion correction           -0.019655477
FINAL SINGLE POINT ENERGY      -519.429157471226

DIPOLE MOMENT
-------------
                                X             Y             Z
Electronic contribution:      3.41825      -3.60978      -6.44822
Nuclear contribution   :     -4.60158       3.22721       5.56005
                        -----------------------------------------
Total Dipole Moment    :     -1.18333      -0.38256      -0.88817
                        -----------------------------------------
Magnitude (a.u.)       :      1.52823
Magnitude (Debye)      :      3.88444

Rotational constants in cm-1:     0.061224     0.042534     0.033552
Rotational constants in MHz :  1835.464095  1275.135177  1005.856966

                             ****ORCA TERMINATED NORMALLY****
TOTAL RUN TIME: 0 days 0 hours 2 minutes 42 seconds 482 msec
