                         Program Version 5.0.0 -  RELEASE  -
|  1> !PBE0 D3BJ RIJCOSX def2-TZVPD def2/J TightSCF xyzfile
|  2>
|  3> *xyzfile 0 1 D2.xyz
|  4>
|  5> %MaxCore 64000
|  6>
|  7> %pal nprocs 4
|  8> end
|  9>
| 10> %scf
| 11>   MaxIter 150
| 12> end
| 13>
| 14>
| 15>                          ****END OF INPUT****

CARTESIAN COORDINATES (ANGSTROEM)
---------------------------------
  C      3.905947    2.819855   -3.752920
  N      5.295615    3.131515   -4.105334
  C      3.803511    1.374716   -3.260807
  C      3.939934    0.320362   -4.367729
  H      4.105043   -0.655085   -3.907733
  H      3.022801    0.280517   -4.957117
  C      5.105846    0.668022   -5.305463
  C      5.708619    3.468885   -5.324190
  C      6.904696    3.038954   -5.717084
  N      4.981884    4.293570   -6.097457
  H      5.000546    4.101311   -7.087761
  H      4.084693    4.596899   -5.739652
  H      5.963358    2.526112   -3.642391
  H      7.047164    2.066861   -5.473604
  H      7.198145    3.307994   -6.645225
  H      3.282025    2.949187   -4.640259
  H      3.565254    3.514574   -2.982523
  H      4.574833    1.215157   -2.500443
  H      2.843514    1.260845   -2.751465
  F      4.809132    1.150187   -6.414361
  O      6.267366    0.564999   -4.819481

 Total Charge           Charge          ....    0
 Multiplicity           Mult            ....    1
 Number of Electrons    NEL             ....   78
 Basis Dimension        Dim             ....  475

ORBITAL ENERGIES
----------------

  NO   OCC          E(Eh)            E(eV)
   0   2.0000     -24.850701      -676.2219
   1   2.0000     -19.213836      -522.8351
   2   2.0000     -14.387685      -391.5088
   3   2.0000     -14.383376      -391.3916
   4   2.0000     -10.407634      -283.2061
   5   2.0000     -10.270121      -279.4642
   6   2.0000     -10.261781      -279.2372
   7   2.0000     -10.258846      -279.1574
   8   2.0000     -10.253289      -279.0062
   9   2.0000     -10.116003      -275.2704
  10   2.0000      -1.365695       -37.1625
  11   2.0000      -1.068245       -29.0684
  12   2.0000      -0.998024       -27.1576
  13   2.0000      -0.915678       -24.9169
  14   2.0000      -0.844323       -22.9752
  15   2.0000      -0.767609       -20.8877
  16   2.0000      -0.723231       -19.6801
  17   2.0000      -0.687290       -18.7021
  18   2.0000      -0.641658       -17.4604
  19   2.0000      -0.613608       -16.6971
  20   2.0000      -0.580074       -15.7846
  21   2.0000      -0.565373       -15.3846
  22   2.0000      -0.552963       -15.0469
  23   2.0000      -0.529175       -14.3996
  24   2.0000      -0.513626       -13.9765
  25   2.0000      -0.498541       -13.5660
  26   2.0000      -0.484336       -13.1795
  27   2.0000      -0.457869       -12.4592
  28   2.0000      -0.433149       -11.7866
  29   2.0000      -0.420237       -11.4352
  30   2.0000      -0.409754       -11.1500
  31   2.0000      -0.405557       -11.0358
  32   2.0000      -0.382114       -10.3979
  33   2.0000      -0.379992       -10.3401
  34   2.0000      -0.358368        -9.7517
  35   2.0000      -0.350210        -9.5297
  36   2.0000      -0.297377        -8.0920
  37   2.0000      -0.271879        -7.3982
  38   2.0000      -0.177349        -4.8259
  39   0.0000      -0.036686        -0.9983
  40   0.0000      -0.001080        -0.0294
  41   0.0000       0.017799         0.4843
  42   0.0000       0.024398         0.6639
  43   0.0000       0.032529         0.8851

MULLIKEN ATOMIC CHARGES
-----------------------
   0 C :   -0.387509
   1 N :   -0.112848
   2 C :   -0.336181
   3 C :   -0.146078
   4 H :    0.130700
   5 H :    0.191610
   6 C :    0.647001
   7 C :    0.230697
   8 C :   -1.078648
   9 N :   -0.369508
  10 H :    0.191613
  11 H :    0.199814
  12 H :    0.289848
  13 H :    0.528110
  14 H :    0.205349
  15 H :    0.252280
  16 H :    0.035897
  17 H :    0.202740
  18 H :    0.070610
  19 F :   -0.216984
  20 O :   -0.528513
Sum of atomic charges:   -0.0000000

LOEWDIN ATOMIC CHARGES
----------------------
   0 C :   -0.183602
   1 N :    0.036966
   2 C :   -0.175683
   3 C :   -0.087631
   4 H :    0.124527
   5 H :    0.115822
   6 C :   -0.473814
   7 C :   -0.589481
   8 C :    0.003849
   9 N :    0.132261
  10 H :    0.108704
  11 H :    0.092304
  12 H :    0.133272
  13 H :   -0.008971
  14 H :    0.020615
  15 H :    0.115970
  16 H :    0.114124
  17 H :    0.121342
  18 H :    0.114067
  19 F :    0.233582
  20 O :    0.051777

  Mayer bond orders larger than 0.100000
B(  0-C ,  1-N ) :   0.8852 B(  0-C ,  2-C ) :   1.0260 B(  0-C ,  7-C ) :  -0.1025
B(  0-C ,  9-N ) :   0.1202 B(  0-C , 15-H ) :   0.8917 B(  0-C , 16-H ) :   1.0945
B(  1-N ,  7-C ) :   1.0824 B(  1-N , 12-H ) :   0.7742 B(  2-C ,  3-C ) :   0.9829
B(  2-C ,  6-C ) :   0.1263 B(  2-C , 17-H ) :   0.9116 B(  2-C , 18-H ) :   1.0205
B(  3-C ,  4-H ) :   0.9235 B(  3-C ,  5-H ) :   0.9446 B(  3-C ,  6-C ) :   0.9930
B(  6-C , 19-F ) :   0.9892 B(  6-C , 20-O ) :   1.7025 B(  7-C ,  8-C ) :   1.6351
B(  7-C ,  9-N ) :   0.9702 B(  7-C , 14-H ) :  -0.1151 B(  8-C , 13-H ) :   0.7011
B(  8-C , 14-H ) :   1.2243 B(  9-N , 10-H ) :   0.9301 B(  9-N , 11-H ) :   0.9093

Dispersion correction           -0.019558826
FINAL SINGLE POINT ENERGY      -519.398959730438

DIPOLE MOMENT
-------------
                                X             Y             Z
Electronic contribution:      2.08405      -3.76652      -5.17841
Nuclear contribution   :     -4.40347       3.21582       5.36161
                        -----------------------------------------
Total Dipole Moment    :     -2.31942      -0.55070       0.18320
                        -----------------------------------------
Magnitude (a.u.)       :      2.39093
Magnitude (Debye)      :      6.07726

Rotational constants in cm-1:     0.061226     0.043199     0.033926
Rotational constants in MHz :  1835.503528  1295.087558  1017.061512

                             ****ORCA TERMINATED NORMALLY****
TOTAL RUN TIME: 0 days 0 hours 2 minutes 54 seconds 16 msec
