                         Program Version 5.0.0 -  RELEASE  -
|  1> !PBE0 D3BJ RIJCOSX def2-TZVPD def2/J TightSCF xyzfile
|  2>
|  3> *xyzfile 0 1 D3.xyz
|  4>
|  5> %MaxCore 64000
|  6>
|  7> %pal nprocs 4
|  8> end
|  9>
| 10> %scf
| 11>   MaxIter 150
| 12> end
| 13>
| 14>
| 15>                          ****END OF INPUT****

CARTESIAN COORDINATES (ANGSTROEM)
---------------------------------
  C      3.905947    2.819855   -3.752920
  N      5.295615    3.131515   -4.105334
  C      3.803511    1.374716   -3.260807
  C      3.939934    0.320362   -4.367729
  H      4.105043   -0.655085   -3.907733
  H      3.022801    0.280517   -4.957117
  C      5.105846    0.668022   -5.305463
  C      5.708619    3.468885   -5.324190
  N      6.904696    3.038954   -5.717084
  C      4.981884    4.293570   -6.097457
  H      5.000546    4.101311   -7.087761
  H      4.084693    4.596899   -5.739652
  H      5.963358    2.526112   -3.642391
  H      7.047164    2.066861   -5.473604
  H      7.198145    3.307994   -6.645225
  H      3.282025    2.949187   -4.640259
  H      3.565254    3.514574   -2.982523
  H      4.574833    1.215157   -2.500443
  H      2.843514    1.260845   -2.751465
  F      4.809132    1.150187   -6.414361
  O      6.267366    0.564999   -4.819481

 Total Charge           Charge          ....    0
 Multiplicity           Mult            ....    1
 Number of Electrons    NEL             ....   78
 Basis Dimension        Dim             ....  475

ORBITAL ENERGIES
----------------

  NO   OCC          E(Eh)            E(eV)
   0   2.0000     -24.861503      -676.5159
   1   2.0000     -19.231682      -523.3207
   2   2.0000     -14.390043      -391.5730
   3   2.0000     -14.364648      -390.8819
   4   2.0000     -10.423209      -283.6299
   5   2.0000     -10.267464      -279.3919
   6   2.0000     -10.266973      -279.3785
   7   2.0000     -10.261300      -279.2242
   8   2.0000     -10.254683      -279.0441
   9   2.0000     -10.132565      -275.7211
  10   2.0000      -1.376275       -37.4503
  11   2.0000      -1.086666       -29.5697
  12   2.0000      -0.999411       -27.1953
  13   2.0000      -0.913545       -24.8588
  14   2.0000      -0.843841       -22.9621
  15   2.0000      -0.762421       -20.7465
  16   2.0000      -0.726870       -19.7791
  17   2.0000      -0.701025       -19.0758
  18   2.0000      -0.654203       -17.8018
  19   2.0000      -0.590586       -16.0707
  20   2.0000      -0.586768       -15.9668
  21   2.0000      -0.575604       -15.6630
  22   2.0000      -0.559921       -15.2362
  23   2.0000      -0.532190       -14.4816
  24   2.0000      -0.521082       -14.1794
  25   2.0000      -0.498915       -13.5762
  26   2.0000      -0.489706       -13.3256
  27   2.0000      -0.451512       -12.2863
  28   2.0000      -0.443082       -12.0569
  29   2.0000      -0.423471       -11.5232
  30   2.0000      -0.407068       -11.0769
  31   2.0000      -0.404930       -11.0187
  32   2.0000      -0.390901       -10.6370
  33   2.0000      -0.384214       -10.4550
  34   2.0000      -0.371906       -10.1201
  35   2.0000      -0.346624        -9.4321
  36   2.0000      -0.327616        -8.9149
  37   2.0000      -0.265807        -7.2330
  38   2.0000      -0.183277        -4.9872
  39   0.0000      -0.049677        -1.3518
  40   0.0000       0.002182         0.0594
  41   0.0000       0.023409         0.6370
  42   0.0000       0.026530         0.7219
  43   0.0000       0.032805         0.8927

MULLIKEN ATOMIC CHARGES
-----------------------
   0 C :   -0.358322
   1 N :   -0.056434
   2 C :   -0.383197
   3 C :   -0.153001
   4 H :    0.134421
   5 H :    0.195499
   6 C :    0.727431
   7 C :    0.117482
   8 N :   -0.282175
   9 C :   -1.202114
  10 H :    0.294972
  11 H :    0.301849
  12 H :    0.340030
  13 H :    0.293923
  14 H :    0.213315
  15 H :    0.258473
  16 H :    0.060332
  17 H :    0.204669
  18 H :    0.061610
  19 F :   -0.184612
  20 O :   -0.584150
Sum of atomic charges:   -0.0000000

LOEWDIN ATOMIC CHARGES
----------------------
   0 C :   -0.175282
   1 N :    0.037265
   2 C :   -0.173936
   3 C :   -0.084959
   4 H :    0.125315
   5 H :    0.118407
   6 C :   -0.466383
   7 C :   -0.599034
   8 N :    0.133497
   9 C :    0.003842
  10 H :    0.010822
  11 H :    0.003469
  12 H :    0.129617
  13 H :    0.059054
  14 H :    0.113417
  15 H :    0.120011
  16 H :    0.118594
  17 H :    0.119562
  18 H :    0.115905
  19 F :    0.242796
  20 O :    0.048021

  Mayer bond orders larger than 0.100000
B(  0-C ,  1-N ) :   0.8752 B(  0-C ,  2-C ) :   1.0244 B(  0-C ,  9-C ) :   0.1124
B(  0-C , 15-H ) :   0.8986 B(  0-C , 16-H ) :   1.0448 B(  1-N ,  7-C ) :   1.1739
B(  1-N , 12-H ) :   0.7069 B(  2-C ,  3-C ) :   0.9701 B(  2-C ,  6-C ) :   0.1369
B(  2-C , 17-H ) :   0.9065 B(  2-C , 18-H ) :   1.0286 B(  3-C ,  4-H ) :   0.9195
B(  3-C ,  5-H ) :   0.9413 B(  3-C ,  6-C ) :   1.0152 B(  6-C , 19-F ) :   1.0229
B(  6-C , 20-O ) :   1.5541 B(  7-C ,  8-N ) :   1.0115 B(  7-C ,  9-C ) :   1.5738
B(  7-C , 20-O ) :   0.1088 B(  8-N ,  9-C ) :   0.1072 B(  8-N , 13-H ) :   0.7973
B(  8-N , 14-H ) :   0.8825 B(  9-C , 10-H ) :   0.9384 B(  9-C , 11-H ) :   0.9612

Dispersion correction           -0.019553858
FINAL SINGLE POINT ENERGY      -519.417714845336

DIPOLE MOMENT
-------------
                                X             Y             Z
Electronic contribution:      3.57567      -4.85384      -4.86832
Nuclear contribution   :     -4.64021       3.37029       5.31478
                        -----------------------------------------
Total Dipole Moment    :     -1.06454      -1.48355       0.44646
                        -----------------------------------------
Magnitude (a.u.)       :      1.87976
Magnitude (Debye)      :      4.77797

Rotational constants in cm-1:     0.061077     0.043622     0.034103
Rotational constants in MHz :  1831.041375  1307.759852  1022.388536

                             ****ORCA TERMINATED NORMALLY****
TOTAL RUN TIME: 0 days 0 hours 2 minutes 32 seconds 614 msec
