                         Program Version 5.0.0 -  RELEASE  -
|  1> !PBE0 D3BJ RIJCOSX def2-TZVPD def2/J TightSCF xyzfile
|  2>
|  3> *xyzfile 0 1 D4.xyz
|  4>
|  5> %MaxCore 64000
|  6>
|  7> %pal nprocs 4
|  8> end
|  9>
| 10> %scf
| 11>   MaxIter 150
| 12> end
| 13>
| 14>
| 15>                          ****END OF INPUT****

CARTESIAN COORDINATES (ANGSTROEM)
---------------------------------
  C      3.905947    2.819855   -3.752920
  C      5.295615    3.131515   -4.105334
  C      3.803511    1.374716   -3.260807
  C      3.939934    0.320362   -4.367729
  H      4.105043   -0.655085   -3.907733
  H      3.022801    0.280517   -4.957117
  C      5.105846    0.668022   -5.305463
  C      5.708619    3.468885   -5.324190
  N      6.904696    3.038954   -5.717084
  N      4.981884    4.293570   -6.097457
  H      5.000546    4.101311   -7.087761
  H      4.084693    4.596899   -5.739652
  H      5.963358    2.526112   -3.642391
  H      7.047164    2.066861   -5.473604
  H      7.198145    3.307994   -6.645225
  H      3.282025    2.949187   -4.640259
  H      3.565254    3.514574   -2.982523
  H      4.574833    1.215157   -2.500443
  H      2.843514    1.260845   -2.751465
  O      4.809132    1.150187   -6.414361
  F      6.267366    0.564999   -4.819481

 Total Charge           Charge          ....    0
 Multiplicity           Mult            ....    1
 Number of Electrons    NEL             ....   78
 Basis Dimension        Dim             ....  475

ORBITAL ENERGIES
----------------

  NO   OCC          E(Eh)            E(eV)
   0   2.0000     -24.847450      -676.1335
   1   2.0000     -19.210271      -522.7381
   2   2.0000     -14.385569      -391.4512
   3   2.0000     -14.374856      -391.1597
   4   2.0000     -10.398775      -282.9651
   5   2.0000     -10.265372      -279.3350
   6   2.0000     -10.246777      -278.8290
   7   2.0000     -10.229563      -278.3606
   8   2.0000     -10.209028      -277.8018
   9   2.0000     -10.150555      -276.2106
  10   2.0000      -1.358239       -36.9596
  11   2.0000      -1.069754       -29.1095
  12   2.0000      -0.989931       -26.9374
  13   2.0000      -0.899217       -24.4689
  14   2.0000      -0.841842       -22.9077
  15   2.0000      -0.774398       -21.0724
  16   2.0000      -0.716647       -19.5010
  17   2.0000      -0.679839       -18.4994
  18   2.0000      -0.628473       -17.1016
  19   2.0000      -0.606825       -16.5125
  20   2.0000      -0.572798       -15.5866
  21   2.0000      -0.560926       -15.2636
  22   2.0000      -0.544941       -14.8286
  23   2.0000      -0.525877       -14.3098
  24   2.0000      -0.517871       -14.0920
  25   2.0000      -0.483588       -13.1591
  26   2.0000      -0.478440       -13.0190
  27   2.0000      -0.457151       -12.4397
  28   2.0000      -0.443514       -12.0686
  29   2.0000      -0.412658       -11.2290
  30   2.0000      -0.398420       -10.8416
  31   2.0000      -0.385333       -10.4854
  32   2.0000      -0.376458       -10.2439
  33   2.0000      -0.358682        -9.7602
  34   2.0000      -0.349400        -9.5077
  35   2.0000      -0.339831        -9.2473
  36   2.0000      -0.303945        -8.2708
  37   2.0000      -0.279205        -7.5976
  38   2.0000      -0.184958        -5.0330
  39   0.0000      -0.023556        -0.6410
  40   0.0000       0.007938         0.2160
  41   0.0000       0.021822         0.5938
  42   0.0000       0.030614         0.8330
  43   0.0000       0.036870         1.0033

MULLIKEN ATOMIC CHARGES
-----------------------
   0 C :    0.290226
   1 C :   -0.679446
   2 C :   -0.512938
   3 C :   -0.200423
   4 H :    0.163236
   5 H :    0.163019
   6 C :    0.672859
   7 C :   -0.249449
   8 N :   -0.268723
   9 N :   -0.336308
  10 H :    0.147349
  11 H :    0.226799
  12 H :    0.456607
  13 H :    0.242348
  14 H :    0.191793
  15 H :    0.242205
  16 H :   -0.074437
  17 H :    0.219238
  18 H :    0.063233
  19 O :   -0.503117
  20 F :   -0.254069
Sum of atomic charges:    0.0000000

LOEWDIN ATOMIC CHARGES
----------------------
   0 C :   -0.222925
   1 C :   -0.138381
   2 C :   -0.193499
   3 C :   -0.087828
   4 H :    0.116948
   5 H :    0.123092
   6 C :   -0.487539
   7 C :   -0.568372
   8 N :    0.137841
   9 N :    0.148512
  10 H :    0.103350
  11 H :    0.104839
  12 H :    0.069328
  13 H :    0.082052
  14 H :    0.109088
  15 H :    0.110653
  16 H :    0.105872
  17 H :    0.116958
  18 H :    0.110889
  19 O :    0.083847
  20 F :    0.175276

  Mayer bond orders larger than 0.100000
B(  0-C ,  1-C ) :   0.6272 B(  0-C ,  2-C ) :   0.8285 B(  0-C , 15-H ) :   0.8545
B(  0-C , 16-H ) :   1.0657 B(  1-C ,  2-C ) :   0.3993 B(  1-C ,  7-C ) :   1.7446
B(  1-C ,  9-N ) :   0.1345 B(  1-C , 12-H ) :   0.8584 B(  2-C ,  3-C ) :   1.0252
B(  2-C ,  6-C ) :   0.1284 B(  2-C , 17-H ) :   0.9156 B(  2-C , 18-H ) :   1.0103
B(  3-C ,  4-H ) :   0.9185 B(  3-C ,  5-H ) :   0.9407 B(  3-C ,  6-C ) :   1.0131
B(  6-C , 19-O ) :   1.7041 B(  6-C , 20-F ) :   0.8756 B(  7-C ,  8-N ) :   1.0980
B(  7-C ,  9-N ) :   0.9595 B(  8-N , 13-H ) :   0.8751 B(  8-N , 14-H ) :   0.8657
B(  9-N , 10-H ) :   0.9599 B(  9-N , 11-H ) :   0.8964

Dispersion correction           -0.019692227
FINAL SINGLE POINT ENERGY      -519.429873864664

DIPOLE MOMENT
-------------
                                X             Y             Z
Electronic contribution:      5.84156      -4.48607      -3.90829
Nuclear contribution   :     -6.25608       3.89116       3.75052
                        -----------------------------------------
Total Dipole Moment    :     -0.41451      -0.59491      -0.15776
                        -----------------------------------------
Magnitude (a.u.)       :      0.74205
Magnitude (Debye)      :      1.88613

Rotational constants in cm-1:     0.061229     0.042568     0.033282
Rotational constants in MHz :  1835.590871  1276.154029   997.769927

                             ****ORCA TERMINATED NORMALLY****
TOTAL RUN TIME: 0 days 0 hours 2 minutes 41 seconds 917 msec
