                         Program Version 5.0.0 -  RELEASE  -
|  1> !PBE0 D3BJ RIJCOSX def2-TZVPD def2/J TightSCF xyzfile
|  2>
|  3> *xyzfile 0 1 D5.xyz
|  4>
|  5> %MaxCore 64000
|  6>
|  7> %pal nprocs 4
|  8> end
|  9>
| 10> %scf
| 11>   MaxIter 150
| 12> end
| 13>
| 14>
| 15>                          ****END OF INPUT****

CARTESIAN COORDINATES (ANGSTROEM)
---------------------------------
  C      3.905947    2.819855   -3.752920
  N      5.295615    3.131515   -4.105334
  C      3.803511    1.374716   -3.260807
  C      3.939934    0.320362   -4.367729
  H      4.105043   -0.655085   -3.907733
  H      3.022801    0.280517   -4.957117
  C      5.105846    0.668022   -5.305463
  C      5.708619    3.468885   -5.324190
  C      6.904696    3.038954   -5.717084
  N      4.981884    4.293570   -6.097457
  H      5.000546    4.101311   -7.087761
  H      4.084693    4.596899   -5.739652
  H      5.963358    2.526112   -3.642391
  H      7.047164    2.066861   -5.473604
  H      7.198145    3.307994   -6.645225
  H      3.282025    2.949187   -4.640259
  H      3.565254    3.514574   -2.982523
  H      4.574833    1.215157   -2.500443
  H      2.843514    1.260845   -2.751465
  O      4.809132    1.150187   -6.414361
  F      6.267366    0.564999   -4.819481

 Total Charge           Charge          ....    0
 Multiplicity           Mult            ....    1
 Number of Electrons    NEL             ....   78
 Basis Dimension        Dim             ....  475

ORBITAL ENERGIES
----------------

  NO   OCC          E(Eh)            E(eV)
   0   2.0000     -24.844166      -676.0441
   1   2.0000     -19.215064      -522.8685
   2   2.0000     -14.392962      -391.6524
   3   2.0000     -14.380482      -391.3128
   4   2.0000     -10.401658      -283.0435
   5   2.0000     -10.269458      -279.4462
   6   2.0000     -10.261154      -279.2202
   7   2.0000     -10.259972      -279.1880
   8   2.0000     -10.254733      -279.0455
   9   2.0000     -10.121331      -275.4154
  10   2.0000      -1.355489       -36.8847
  11   2.0000      -1.073012       -29.1982
  12   2.0000      -0.999568       -27.1996
  13   2.0000      -0.915242       -24.9050
  14   2.0000      -0.844593       -22.9826
  15   2.0000      -0.767453       -20.8835
  16   2.0000      -0.724100       -19.7038
  17   2.0000      -0.682130       -18.5617
  18   2.0000      -0.642751       -17.4901
  19   2.0000      -0.617796       -16.8111
  20   2.0000      -0.574525       -15.6336
  21   2.0000      -0.571705       -15.5569
  22   2.0000      -0.538752       -14.6602
  23   2.0000      -0.525665       -14.3041
  24   2.0000      -0.515211       -14.0196
  25   2.0000      -0.502101       -13.6629
  26   2.0000      -0.481924       -13.1138
  27   2.0000      -0.457518       -12.4497
  28   2.0000      -0.436527       -11.8785
  29   2.0000      -0.419126       -11.4050
  30   2.0000      -0.408630       -11.1194
  31   2.0000      -0.396589       -10.7917
  32   2.0000      -0.386961       -10.5297
  33   2.0000      -0.379427       -10.3247
  34   2.0000      -0.373277       -10.1574
  35   2.0000      -0.338295        -9.2055
  36   2.0000      -0.307572        -8.3695
  37   2.0000      -0.274889        -7.4801
  38   2.0000      -0.178009        -4.8439
  39   0.0000      -0.028350        -0.7714
  40   0.0000       0.001078         0.0293
  41   0.0000       0.016792         0.4569
  42   0.0000       0.026317         0.7161
  43   0.0000       0.032853         0.8940

MULLIKEN ATOMIC CHARGES
-----------------------
   0 C :   -0.298495
   1 N :   -0.133344
   2 C :   -0.415657
   3 C :   -0.115688
   4 H :    0.157059
   5 H :    0.166473
   6 C :    0.573811
   7 C :    0.268348
   8 C :   -0.956431
   9 N :   -0.368133
  10 H :    0.187875
  11 H :    0.198885
  12 H :    0.268622
  13 H :    0.404616
  14 H :    0.201934
  15 H :    0.242061
  16 H :    0.033032
  17 H :    0.207038
  18 H :    0.068906
  19 O :   -0.460463
  20 F :   -0.230450
Sum of atomic charges:    0.0000000

LOEWDIN ATOMIC CHARGES
----------------------
   0 C :   -0.181914
   1 N :    0.037458
   2 C :   -0.179169
   3 C :   -0.087707
   4 H :    0.118772
   5 H :    0.123808
   6 C :   -0.487893
   7 C :   -0.586574
   8 C :   -0.000489
   9 N :    0.142112
  10 H :    0.112543
  11 H :    0.094507
  12 H :    0.130911
  13 H :    0.001081
  14 H :    0.022952
  15 H :    0.119409
  16 H :    0.114258
  17 H :    0.117591
  18 H :    0.114132
  19 O :    0.100578
  20 F :    0.173635

  Mayer bond orders larger than 0.100000
B(  0-C ,  1-N ) :   0.9117 B(  0-C ,  2-C ) :   1.0192 B(  0-C ,  9-N ) :   0.1160
B(  0-C , 15-H ) :   0.8717 B(  0-C , 16-H ) :   1.0995 B(  1-N ,  7-C ) :   1.0577
B(  1-N , 12-H ) :   0.7871 B(  2-C ,  3-C ) :   0.9719 B(  2-C ,  6-C ) :   0.1456
B(  2-C , 17-H ) :   0.9248 B(  2-C , 18-H ) :   1.0175 B(  3-C ,  4-H ) :   0.9357
B(  3-C ,  5-H ) :   0.9396 B(  3-C ,  6-C ) :   1.0082 B(  6-C , 19-O ) :   1.7437
B(  6-C , 20-F ) :   0.9277 B(  7-C ,  8-C ) :   1.6935 B(  7-C ,  9-N ) :   0.9922
B(  7-C , 14-H ) :  -0.1105 B(  8-C , 13-H ) :   0.7793 B(  8-C , 14-H ) :   1.1834
B(  9-N , 10-H ) :   0.9227 B(  9-N , 11-H ) :   0.9060

Dispersion correction           -0.019595787
FINAL SINGLE POINT ENERGY      -519.404052441453

DIPOLE MOMENT
-------------
                                X             Y             Z
Electronic contribution:      4.42006      -4.65049      -2.61081
Nuclear contribution   :     -6.05797       3.87976       3.55209
                        -----------------------------------------
Total Dipole Moment    :     -1.63791      -0.77073       0.94128
                        -----------------------------------------
Magnitude (a.u.)       :      2.04029
Magnitude (Debye)      :      5.18599

Rotational constants in cm-1:     0.061282     0.043164     0.033679
Rotational constants in MHz :  1837.191639  1294.028651  1009.659886

                             ****ORCA TERMINATED NORMALLY****
TOTAL RUN TIME: 0 days 0 hours 2 minutes 32 seconds 503 msec
