                         Program Version 5.0.0 -  RELEASE  -
|  1> !PBE0 D3BJ RIJCOSX def2-TZVPD def2/J TightSCF xyzfile
|  2>
|  3> *xyzfile 0 1 D6.xyz
|  4>
|  5> %MaxCore 64000
|  6>
|  7> %pal nprocs 4
|  8> end
|  9>
| 10> %scf
| 11>   MaxIter 150
| 12> end
| 13>
| 14>
| 15>                          ****END OF INPUT****

CARTESIAN COORDINATES (ANGSTROEM)
---------------------------------
  C      3.905947    2.819855   -3.752920
  N      5.295615    3.131515   -4.105334
  C      3.803511    1.374716   -3.260807
  C      3.939934    0.320362   -4.367729
  H      4.105043   -0.655085   -3.907733
  H      3.022801    0.280517   -4.957117
  C      5.105846    0.668022   -5.305463
  C      5.708619    3.468885   -5.324190
  N      6.904696    3.038954   -5.717084
  C      4.981884    4.293570   -6.097457
  H      5.000546    4.101311   -7.087761
  H      4.084693    4.596899   -5.739652
  H      5.963358    2.526112   -3.642391
  H      7.047164    2.066861   -5.473604
  H      7.198145    3.307994   -6.645225
  H      3.282025    2.949187   -4.640259
  H      3.565254    3.514574   -2.982523
  H      4.574833    1.215157   -2.500443
  H      2.843514    1.260845   -2.751465
  O      4.809132    1.150187   -6.414361
  F      6.267366    0.564999   -4.819481

 Total Charge           Charge          ....    0
 Multiplicity           Mult            ....    1
 Number of Electrons    NEL             ....   78
 Basis Dimension        Dim             ....  475

ORBITAL ENERGIES
----------------

  NO   OCC          E(Eh)            E(eV)
   0   2.0000     -24.861513      -676.5162
   1   2.0000     -19.223707      -523.1037
   2   2.0000     -14.395701      -391.7269
   3   2.0000     -14.372512      -391.0959
   4   2.0000     -10.408217      -283.2220
   5   2.0000     -10.265800      -279.3466
   6   2.0000     -10.262781      -279.2645
   7   2.0000     -10.261995      -279.2431
   8   2.0000     -10.254176      -279.0303
   9   2.0000     -10.132232      -275.7120
  10   2.0000      -1.372770       -37.3550
  11   2.0000      -1.080775       -29.4094
  12   2.0000      -1.003668       -27.3112
  13   2.0000      -0.917325       -24.9617
  14   2.0000      -0.842406       -22.9230
  15   2.0000      -0.761434       -20.7197
  16   2.0000      -0.726333       -19.7645
  17   2.0000      -0.701973       -19.1017
  18   2.0000      -0.654621       -17.8131
  19   2.0000      -0.596169       -16.2226
  20   2.0000      -0.591239       -16.0884
  21   2.0000      -0.581612       -15.8265
  22   2.0000      -0.541689       -14.7401
  23   2.0000      -0.528704       -14.3868
  24   2.0000      -0.518774       -14.1166
  25   2.0000      -0.499146       -13.5824
  26   2.0000      -0.495353       -13.4792
  27   2.0000      -0.445499       -12.1226
  28   2.0000      -0.442573       -12.0430
  29   2.0000      -0.419327       -11.4105
  30   2.0000      -0.407362       -11.0849
  31   2.0000      -0.403056       -10.9677
  32   2.0000      -0.395352       -10.7581
  33   2.0000      -0.380319       -10.3490
  34   2.0000      -0.374040       -10.1781
  35   2.0000      -0.345521        -9.4021
  36   2.0000      -0.313553        -8.5322
  37   2.0000      -0.270444        -7.3592
  38   2.0000      -0.183930        -5.0050
  39   0.0000      -0.034530        -0.9396
  40   0.0000      -0.000248        -0.0067
  41   0.0000       0.024610         0.6697
  42   0.0000       0.025032         0.6812
  43   0.0000       0.033730         0.9178

MULLIKEN ATOMIC CHARGES
-----------------------
   0 C :   -0.252419
   1 N :   -0.070998
   2 C :   -0.470899
   3 C :   -0.120682
   4 H :    0.160156
   5 H :    0.164314
   6 C :    0.607490
   7 C :    0.234953
   8 N :   -0.270607
   9 C :   -1.201457
  10 H :    0.282106
  11 H :    0.296826
  12 H :    0.304129
  13 H :    0.254808
  14 H :    0.215293
  15 H :    0.239683
  16 H :    0.052971
  17 H :    0.213344
  18 H :    0.058571
  19 O :   -0.435555
  20 F :   -0.262024
Sum of atomic charges:    0.0000000

LOEWDIN ATOMIC CHARGES
----------------------
   0 C :   -0.173057
   1 N :    0.037148
   2 C :   -0.178629
   3 C :   -0.087236
   4 H :    0.118415
   5 H :    0.125717
   6 C :   -0.488803
   7 C :   -0.598095
   8 N :    0.134305
   9 C :    0.015863
  10 H :    0.017259
  11 H :    0.007199
  12 H :    0.127467
  13 H :    0.073219
  14 H :    0.116364
  15 H :    0.123832
  16 H :    0.118515
  17 H :    0.115244
  18 H :    0.115421
  19 O :    0.108480
  20 F :    0.171373

  Mayer bond orders larger than 0.100000
B(  0-C ,  1-N ) :   0.9067 B(  0-C ,  2-C ) :   1.0161 B(  0-C ,  9-C ) :   0.1038
B(  0-C , 15-H ) :   0.8742 B(  0-C , 16-H ) :   1.0558 B(  1-N ,  7-C ) :   1.1728
B(  1-N , 12-H ) :   0.7087 B(  2-C ,  3-C ) :   0.9575 B(  2-C ,  6-C ) :   0.1541
B(  2-C , 17-H ) :   0.9151 B(  2-C , 18-H ) :   1.0312 B(  3-C ,  4-H ) :   0.9351
B(  3-C ,  5-H ) :   0.9360 B(  3-C ,  6-C ) :   1.0295 B(  6-C , 19-O ) :   1.7551
B(  6-C , 20-F ) :   0.8581 B(  7-C ,  8-N ) :   0.9940 B(  7-C ,  9-C ) :   1.5537
B(  8-N ,  9-C ) :   0.1207 B(  8-N , 13-H ) :   0.8372 B(  8-N , 14-H ) :   0.8655
B(  9-C , 10-H ) :   0.9518 B(  9-C , 11-H ) :   0.9532

Dispersion correction           -0.019596262
FINAL SINGLE POINT ENERGY      -519.414412995817

DIPOLE MOMENT
-------------
                                X             Y             Z
Electronic contribution:      5.96368      -5.65369      -2.33510
Nuclear contribution   :     -6.29470       4.03423       3.50525
                        -----------------------------------------
Total Dipole Moment    :     -0.33103      -1.61946       1.17015
                        -----------------------------------------
Magnitude (a.u.)       :      2.02521
Magnitude (Debye)      :      5.14768

Rotational constants in cm-1:     0.061094     0.043661     0.033867
Rotational constants in MHz :  1831.559881  1308.929520  1015.295167

                             ****ORCA TERMINATED NORMALLY****
TOTAL RUN TIME: 0 days 0 hours 2 minutes 34 seconds 843 msec
