                         Program Version 5.0.0 -  RELEASE  -
|  1> !TPSS D3BJ RIJCOSX def2-SVPD def2/J TightSCF
|  2> *xyz -1 1
|  3> C          0.70466        1.44313       -4.50363
|  4> C          1.72854        1.42432       -5.63944
|  5> H          2.64672        1.95379       -5.38105
|  6> H          1.29992        1.93061       -6.50361
|  7> S          2.25263       -0.18811       -6.27184
|  8> O          3.56261       -0.44446       -5.63155
|  9> O          2.34494       -0.03374       -7.69650
| 10> O          1.26606       -1.15918       -5.80536
| 11> H         -0.17385        0.91270       -4.80656
| 12> H          0.44778        2.45562       -4.27173
| 13> H          1.12367        0.97423       -3.63791
| 14> *
| 15>
| 16> %MaxCore 64000
| 17>
| 18> %pal nprocs 4
| 19> end
| 20>
| 21> %scf
| 22>   MaxIter 150
| 23> end
| 24>
| 25>
| 26>                          ****END OF INPUT****

CARTESIAN COORDINATES (ANGSTROEM)
---------------------------------
  C      0.704660    1.443130   -4.503630
  C      1.728540    1.424320   -5.639440
  H      2.646720    1.953790   -5.381050
  H      1.299920    1.930610   -6.503610
  S      2.252630   -0.188110   -6.271840
  O      3.562610   -0.444460   -5.631550
  O      2.344940   -0.033740   -7.696500
  O      1.266060   -1.159180   -5.805360
  H     -0.173850    0.912700   -4.806560
  H      0.447780    2.455620   -4.271730
  H      1.123670    0.974230   -3.637910

 Total Charge           Charge          ....   -1
 Multiplicity           Mult            ....    1
 Number of Electrons    NEL             ....   58
 Basis Dimension        Dim             ....  176

ORBITAL ENERGIES
----------------

  NO   OCC          E(Eh)            E(eV)
   0   2.0000     -88.365009     -2404.5341
   1   2.0000     -18.681397      -508.3467
   2   2.0000     -18.674737      -508.1654
   3   2.0000     -18.666477      -507.9407
   4   2.0000      -9.861865      -268.3550
   5   2.0000      -9.861250      -268.3382
   6   2.0000      -7.724995      -210.2078
   7   2.0000      -5.711017      -155.4047
   8   2.0000      -5.710854      -155.4002
   9   2.0000      -5.710078      -155.3791
  10   2.0000      -0.852050       -23.1855
  11   2.0000      -0.719771       -19.5860
  12   2.0000      -0.697028       -18.9671
  13   2.0000      -0.570426       -15.5221
  14   2.0000      -0.453473       -12.3396
  15   2.0000      -0.330745        -9.0000
  16   2.0000      -0.277553        -7.5526
  17   2.0000      -0.268183        -7.2976
  18   2.0000      -0.233549        -6.3552
  19   2.0000      -0.216107        -5.8806
  20   2.0000      -0.213135        -5.7997
  21   2.0000      -0.188418        -5.1271
  22   2.0000      -0.182305        -4.9608
  23   2.0000      -0.104727        -2.8498
  24   2.0000      -0.103279        -2.8104
  25   2.0000      -0.072474        -1.9721
  26   2.0000      -0.067239        -1.8297
  27   2.0000      -0.055801        -1.5184
  28   2.0000      -0.020398        -0.5551
  29   0.0000       0.131208         3.5703
  30   0.0000       0.161111         4.3841
  31   0.0000       0.168930         4.5968
  32   0.0000       0.173666         4.7257
  33   0.0000       0.195594         5.3224

MULLIKEN ATOMIC CHARGES
-----------------------
   0 C :    0.676630
   1 C :   -0.395156
   2 H :   -0.012094
   3 H :    0.032589
   4 S :    1.237411
   5 O :   -0.812983
   6 O :   -0.758398
   7 O :   -0.802187
   8 H :   -0.019228
   9 H :   -0.106211
  10 H :   -0.040375
Sum of atomic charges:   -1.0000000

LOEWDIN ATOMIC CHARGES
----------------------
   0 C :    0.106664
   1 C :   -0.119007
   2 H :   -0.005896
   3 H :   -0.013789
   4 S :    0.849468
   5 O :   -0.593088
   6 O :   -0.566317
   7 O :   -0.572042
   8 H :   -0.026635
   9 H :   -0.039217
  10 H :   -0.020140

  Mayer bond orders larger than 0.100000
B(  0-C ,  1-C ) :   1.3060 B(  0-C ,  8-H ) :   0.8206 B(  0-C ,  9-H ) :   0.7849
B(  0-C , 10-H ) :   0.8336 B(  1-C ,  2-H ) :   0.9884 B(  1-C ,  3-H ) :   0.9754
B(  1-C ,  4-S ) :   0.8606 B(  1-C ,  8-H ) :   0.2027 B(  1-C ,  9-H ) :   0.2075
B(  1-C , 10-H ) :   0.1848 B(  4-S ,  5-O ) :   1.3054 B(  4-S ,  6-O ) :   1.3631
B(  4-S ,  7-O ) :   1.3123

Dispersion correction           -0.011976361
FINAL SINGLE POINT ENERGY      -702.847735497666

DIPOLE MOMENT
-------------
                                X             Y             Z
Electronic contribution:      3.65367      -5.63854      -4.30348
Nuclear contribution   :     -4.50297       7.24642       5.01775
                        -----------------------------------------
Total Dipole Moment    :     -0.84930       1.60787       0.71428
                        -----------------------------------------
Magnitude (a.u.)       :      1.95365
Magnitude (Debye)      :      4.96579

Rotational constants in cm-1:     0.162459     0.081286     0.079601
Rotational constants in MHz :  4870.394399  2436.893583  2386.374948

                             ****ORCA TERMINATED NORMALLY****
TOTAL RUN TIME: 0 days 0 hours 0 minutes 15 seconds 457 msec
