                         Program Version 5.0.0 -  RELEASE  -
|  1> !TPSS D3BJ RIJCOSX def2-SVPD def2/J TightSCF
|  2> *xyz 1 1
|  3> C          2.91632       -1.24259       -1.54313
|  4> C          3.46659       -1.59097       -2.88908
|  5> N          4.65227       -1.14316       -3.25969
|  6> N          2.75226       -2.29204       -3.72803
|  7> H          1.77836       -2.48960       -3.51274
|  8> H          2.94861       -2.20854       -4.71681
|  9> H          5.14672       -0.51251       -2.63385
| 10> H          4.78303       -1.00720       -4.25350
| 11> C          2.80408        0.29070       -1.35924
| 12> H          1.94047       -1.71653       -1.44116
| 13> H          3.55857       -1.66343       -0.76637
| 14> H          2.17393        0.69633       -2.12297
| 15> H          3.77707        0.73043       -1.42880
| 16> H          2.38369        0.50492       -0.39889
| 17> *
| 18>
| 19> %MaxCore 64000
| 20>
| 21> %pal nprocs 4
| 22> end
| 23>
| 24> %scf
| 25>   MaxIter 150
| 26> end
| 27>
| 28>
| 29>                          ****END OF INPUT****

CARTESIAN COORDINATES (ANGSTROEM)
---------------------------------
  C      2.916320   -1.242590   -1.543130
  C      3.466590   -1.590970   -2.889080
  N      4.652270   -1.143160   -3.259690
  N      2.752260   -2.292040   -3.728030
  H      1.778360   -2.489600   -3.512740
  H      2.948610   -2.208540   -4.716810
  H      5.146720   -0.512510   -2.633850
  H      4.783030   -1.007200   -4.253500
  C      2.804080    0.290700   -1.359240
  H      1.940470   -1.716530   -1.441160
  H      3.558570   -1.663430   -0.766370
  H      2.173930    0.696330   -2.122970
  H      3.777070    0.730430   -1.428800
  H      2.383690    0.504920   -0.398890

 Total Charge           Charge          ....    1
 Multiplicity           Mult            ....    1
 Number of Electrons    NEL             ....   40
 Basis Dimension        Dim             ....  172

ORBITAL ENERGIES
----------------

  NO   OCC          E(Eh)            E(eV)
   0   2.0000     -14.367994      -390.9730
   1   2.0000     -14.362918      -390.8349
   2   2.0000     -10.314905      -280.6828
   3   2.0000     -10.203841      -277.6606
   4   2.0000     -10.166692      -276.6498
   5   2.0000      -1.137595       -30.9555
   6   2.0000      -1.044355       -28.4183
   7   2.0000      -0.909413       -24.7464
   8   2.0000      -0.810024       -22.0419
   9   2.0000      -0.767511       -20.8850
  10   2.0000      -0.724512       -19.7150
  11   2.0000      -0.707429       -19.2501
  12   2.0000      -0.658448       -17.9173
  13   2.0000      -0.622283       -16.9332
  14   2.0000      -0.586736       -15.9659
  15   2.0000      -0.560869       -15.2620
  16   2.0000      -0.516924       -14.0662
  17   2.0000      -0.507807       -13.8181
  18   2.0000      -0.496504       -13.5106
  19   2.0000      -0.463148       -12.6029
  20   0.0000      -0.251029        -6.8308
  21   0.0000      -0.174272        -4.7422
  22   0.0000      -0.132605        -3.6084
  23   0.0000      -0.131425        -3.5762
  24   0.0000      -0.098051        -2.6681

MULLIKEN ATOMIC CHARGES
-----------------------
   0 C :   -0.239743
   1 C :    0.525228
   2 N :    0.071197
   3 N :    0.034324
   4 H :    0.050899
   5 H :   -0.082033
   6 H :    0.053068
   7 H :   -0.051880
   8 C :    0.627602
   9 H :    0.047834
  10 H :    0.065062
  11 H :   -0.044262
  12 H :   -0.077557
  13 H :    0.020260
Sum of atomic charges:    1.0000000

LOEWDIN ATOMIC CHARGES
----------------------
   0 C :    0.029866
   1 C :   -0.055090
   2 N :    0.290677
   3 N :    0.287513
   4 H :    0.055945
   5 H :    0.047964
   6 H :    0.046580
   7 H :    0.046062
   8 C :    0.186903
   9 H :    0.030886
  10 H :    0.050227
  11 H :   -0.002968
  12 H :   -0.020489
  13 H :    0.005925

  Mayer bond orders larger than 0.100000
B(  0-C ,  1-C ) :   1.2187 B(  0-C ,  8-C ) :   1.2734 B(  0-C ,  9-H ) :   0.8954
B(  0-C , 10-H ) :   0.8346 B(  0-C , 11-H ) :   0.1462 B(  0-C , 12-H ) :   0.1722
B(  0-C , 13-H ) :   0.1428 B(  1-C ,  2-N ) :   1.0950 B(  1-C ,  3-N ) :   1.0807
B(  1-C ,  5-H ) :  -0.1191 B(  1-C ,  9-H ) :   0.1344 B(  1-C , 10-H ) :   0.1359
B(  2-N ,  3-N ) :   0.1988 B(  2-N ,  6-H ) :   0.9845 B(  2-N ,  7-H ) :   1.1978
B(  3-N ,  4-H ) :   1.0374 B(  3-N ,  5-H ) :   1.2112 B(  4-H ,  5-H ) :  -0.1275
B(  6-H ,  7-H ) :  -0.1212 B(  8-C ,  9-H ) :   0.1017 B(  8-C , 11-H ) :   0.8415
B(  8-C , 12-H ) :   0.8225 B(  8-C , 13-H ) :   0.8566

Dispersion correction           -0.012557388
FINAL SINGLE POINT ENERGY      -228.920344521244

DIPOLE MOMENT
-------------
                                X             Y             Z
Electronic contribution:      1.32466      -2.86116      -2.78191
Nuclear contribution   :     -1.30215       2.77761       1.84194
                        -----------------------------------------
Total Dipole Moment    :      0.02251      -0.08355      -0.93998
                        -----------------------------------------
Magnitude (a.u.)       :      0.94395
Magnitude (Debye)      :      2.39933

Rotational constants in cm-1:     0.267442     0.127541     0.099068
Rotational constants in MHz :  8017.703171  3823.592522  2969.992494

                             ****ORCA TERMINATED NORMALLY****
TOTAL RUN TIME: 0 days 0 hours 0 minutes 13 seconds 611 msec
