                         Program Version 5.0.0 -  RELEASE  -
|  1> !TPSS D3BJ RIJCOSX def2-SVPD def2/J TightSCF
|  2> *xyz 0 1
|  3> C          0.70466        1.44313       -4.50363
|  4> C          1.72854        1.42432       -5.63944
|  5> H          2.64672        1.95379       -5.38105
|  6> H          1.29992        1.93061       -6.50361
|  7> S          2.25263       -0.18811       -6.27184
|  8> F          3.56261       -0.44446       -5.63155
|  9> O          2.34494       -0.03374       -7.69650
| 10> O          1.26606       -1.15918       -5.80536
| 11> H         -0.17385        0.91270       -4.80656
| 12> H          0.44778        2.45562       -4.27173
| 13> H          1.12367        0.97423       -3.63791
| 14> *
| 15>
| 16> %MaxCore 64000
| 17>
| 18> %pal nprocs 4
| 19> end
| 20>
| 21> %scf
| 22>   MaxIter 150
| 23> end
| 24>
| 25>
| 26>                          ****END OF INPUT****

CARTESIAN COORDINATES (ANGSTROEM)
---------------------------------
  C      0.704660    1.443130   -4.503630
  C      1.728540    1.424320   -5.639440
  H      2.646720    1.953790   -5.381050
  H      1.299920    1.930610   -6.503610
  S      2.252630   -0.188110   -6.271840
  F      3.562610   -0.444460   -5.631550
  O      2.344940   -0.033740   -7.696500
  O      1.266060   -1.159180   -5.805360
  H     -0.173850    0.912700   -4.806560
  H      0.447780    2.455620   -4.271730
  H      1.123670    0.974230   -3.637910

 Total Charge           Charge          ....    0
 Multiplicity           Mult            ....    1
 Number of Electrons    NEL             ....   58
 Basis Dimension        Dim             ....  176

ORBITAL ENERGIES
----------------

  NO   OCC          E(Eh)            E(eV)
   0   2.0000     -88.619463     -2411.4582
   1   2.0000     -24.522228      -667.2837
   2   2.0000     -18.914747      -514.6964
   3   2.0000     -18.907640      -514.5030
   4   2.0000     -10.062711      -273.8203
   5   2.0000     -10.023770      -272.7607
   6   2.0000      -7.980643      -217.1643
   7   2.0000      -5.970730      -162.4718
   8   2.0000      -5.964541      -162.3034
   9   2.0000      -5.962774      -162.2553
  10   2.0000      -1.260962       -34.3125
  11   2.0000      -1.040438       -28.3118
  12   2.0000      -0.948127       -25.7998
  13   2.0000      -0.759972       -20.6799
  14   2.0000      -0.667011       -18.1503
  15   2.0000      -0.616723       -16.7819
  16   2.0000      -0.525788       -14.3074
  17   2.0000      -0.505760       -13.7624
  18   2.0000      -0.499481       -13.5916
  19   2.0000      -0.451320       -12.2810
  20   2.0000      -0.435552       -11.8520
  21   2.0000      -0.410529       -11.1711
  22   2.0000      -0.391875       -10.6635
  23   2.0000      -0.367823       -10.0090
  24   2.0000      -0.361177        -9.8281
  25   2.0000      -0.344446        -9.3729
  26   2.0000      -0.296402        -8.0655
  27   2.0000      -0.291641        -7.9360
  28   2.0000      -0.275463        -7.4957
  29   0.0000      -0.020130        -0.5478
  30   0.0000      -0.000115        -0.0031
  31   0.0000       0.018764         0.5106
  32   0.0000       0.028835         0.7846
  33   0.0000       0.031782         0.8648

MULLIKEN ATOMIC CHARGES
-----------------------
   0 C :    0.702991
   1 C :   -0.411155
   2 H :    0.027138
   3 H :    0.081022
   4 S :    1.421873
   5 F :   -0.407014
   6 O :   -0.637759
   7 O :   -0.680277
   8 H :    0.004977
   9 H :   -0.069963
  10 H :   -0.031834
Sum of atomic charges:    0.0000000

LOEWDIN ATOMIC CHARGES
----------------------
   0 C :    0.144271
   1 C :   -0.077665
   2 H :    0.012218
   3 H :    0.017350
   4 S :    1.111385
   5 F :   -0.272293
   6 O :   -0.450560
   7 O :   -0.458656
   8 H :   -0.008788
   9 H :   -0.009048
  10 H :   -0.008214

  Mayer bond orders larger than 0.100000
B(  0-C ,  1-C ) :   1.3594 B(  0-C ,  8-H ) :   0.8212 B(  0-C ,  9-H ) :   0.7767
B(  0-C , 10-H ) :   0.8308 B(  1-C ,  2-H ) :   0.9600 B(  1-C ,  3-H ) :   0.9686
B(  1-C ,  4-S ) :   0.9269 B(  1-C ,  8-H ) :   0.1958 B(  1-C ,  9-H ) :   0.1996
B(  1-C , 10-H ) :   0.1804 B(  4-S ,  5-F ) :   0.6406 B(  4-S ,  6-O ) :   1.5624
B(  4-S ,  7-O ) :   1.5138

Dispersion correction           -0.011430531
FINAL SINGLE POINT ENERGY      -727.354908800273

DIPOLE MOMENT
-------------
                                X             Y             Z
Electronic contribution:      6.27008      -6.49829      -3.72253
Nuclear contribution   :     -6.09914       7.80989       4.64238
                        -----------------------------------------
Total Dipole Moment    :      0.17094       1.31160       0.91986
                        -----------------------------------------
Magnitude (a.u.)       :      1.61110
Magnitude (Debye)      :      4.09509

Rotational constants in cm-1:     0.154372     0.078826     0.078033
Rotational constants in MHz :  4627.943144  2363.154585  2339.382767

                             ****ORCA TERMINATED NORMALLY****
TOTAL RUN TIME: 0 days 0 hours 0 minutes 13 seconds 201 msec
