                         Program Version 5.0.0 -  RELEASE  -
|  1> !TPSS D3BJ RIJCOSX def2-SVPD def2/J TightSCF
|  2> *xyz 0 1
|  3> C          2.91632       -1.24259       -1.54313
|  4> C          3.46659       -1.59097       -2.88908
|  5> C          4.65227       -1.14316       -3.25969
|  6> N          2.75226       -2.29204       -3.72803
|  7> H          1.77836       -2.48960       -3.51274
|  8> H          2.94861       -2.20854       -4.71681
|  9> H          5.14672       -0.51251       -2.63385
| 10> H          4.78303       -1.00720       -4.25350
| 11> C          2.80408        0.29070       -1.35924
| 12> H          1.94047       -1.71653       -1.44116
| 13> H          3.55857       -1.66343       -0.76637
| 14> H          2.17393        0.69633       -2.12297
| 15> H          3.77707        0.73043       -1.42880
| 16> H          2.38369        0.50492       -0.39889
| 17> *
| 18>
| 19> %MaxCore 64000
| 20>
| 21> %pal nprocs 4
| 22> end
| 23>
| 24> %scf
| 25>   MaxIter 150
| 26> end
| 27>
| 28>
| 29>                          ****END OF INPUT****

CARTESIAN COORDINATES (ANGSTROEM)
---------------------------------
  C      2.916320   -1.242590   -1.543130
  C      3.466590   -1.590970   -2.889080
  C      4.652270   -1.143160   -3.259690
  N      2.752260   -2.292040   -3.728030
  H      1.778360   -2.489600   -3.512740
  H      2.948610   -2.208540   -4.716810
  H      5.146720   -0.512510   -2.633850
  H      4.783030   -1.007200   -4.253500
  C      2.804080    0.290700   -1.359240
  H      1.940470   -1.716530   -1.441160
  H      3.558570   -1.663430   -0.766370
  H      2.173930    0.696330   -2.122970
  H      3.777070    0.730430   -1.428800
  H      2.383690    0.504920   -0.398890

 Total Charge           Charge          ....    0
 Multiplicity           Mult            ....    1
 Number of Electrons    NEL             ....   40
 Basis Dimension        Dim             ....  172

ORBITAL ENERGIES
----------------

  NO   OCC          E(Eh)            E(eV)
   0   2.0000     -14.123354      -384.3160
   1   2.0000     -10.014077      -272.4969
   2   2.0000     -10.004065      -272.2245
   3   2.0000      -9.990450      -271.8540
   4   2.0000      -9.930234      -270.2154
   5   2.0000      -0.865852       -23.5610
   6   2.0000      -0.718111       -19.5408
   7   2.0000      -0.651415       -17.7259
   8   2.0000      -0.589239       -16.0340
   9   2.0000      -0.516474       -14.0540
  10   2.0000      -0.478925       -13.0322
  11   2.0000      -0.435728       -11.8568
  12   2.0000      -0.408424       -11.1138
  13   2.0000      -0.369505       -10.0547
  14   2.0000      -0.351202        -9.5567
  15   2.0000      -0.339765        -9.2455
  16   2.0000      -0.320060        -8.7093
  17   2.0000      -0.307741        -8.3741
  18   2.0000      -0.288991        -7.8639
  19   2.0000      -0.159985        -4.3534
  20   0.0000       0.005841         0.1589
  21   0.0000       0.008585         0.2336
  22   0.0000       0.038450         1.0463
  23   0.0000       0.046260         1.2588
  24   0.0000       0.059062         1.6072

MULLIKEN ATOMIC CHARGES
-----------------------
   0 C :   -0.065332
   1 C :   -0.114240
   2 C :    0.309439
   3 N :    0.108482
   4 H :   -0.078217
   5 H :   -0.111336
   6 H :   -0.069168
   7 H :   -0.357933
   8 C :    0.602963
   9 H :   -0.044507
  10 H :    0.005186
  11 H :   -0.087343
  12 H :   -0.099127
  13 H :    0.001133
Sum of atomic charges:   -0.0000000

LOEWDIN ATOMIC CHARGES
----------------------
   0 C :   -0.012947
   1 C :   -0.262184
   2 C :    0.172960
   3 N :    0.170785
   4 H :   -0.000655
   5 H :    0.006734
   6 H :   -0.086856
   7 H :   -0.088721
   8 C :    0.148841
   9 H :    0.002957
  10 H :    0.023593
  11 H :   -0.017989
  12 H :   -0.031101
  13 H :   -0.025418

  Mayer bond orders larger than 0.100000
B(  0-C ,  1-C ) :   1.1777 B(  0-C ,  8-C ) :   1.2804 B(  0-C ,  9-H ) :   0.8253
B(  0-C , 10-H ) :   0.8404 B(  0-C , 11-H ) :   0.1615 B(  0-C , 12-H ) :   0.1791
B(  0-C , 13-H ) :   0.1578 B(  1-C ,  2-C ) :   1.8468 B(  1-C ,  3-N ) :   1.0811
B(  1-C ,  6-H ) :   0.1363 B(  1-C ,  7-H ) :   0.1896 B(  1-C ,  9-H ) :   0.1781
B(  1-C , 10-H ) :   0.1725 B(  2-C ,  3-N ) :   0.2775 B(  2-C ,  6-H ) :   0.7171
B(  2-C ,  7-H ) :   0.8881 B(  3-N ,  4-H ) :   1.0498 B(  3-N ,  5-H ) :   1.1262
B(  4-H ,  5-H ) :  -0.1112 B(  6-H ,  7-H ) :   0.1362 B(  8-C , 11-H ) :   0.8579
B(  8-C , 12-H ) :   0.8592 B(  8-C , 13-H ) :   0.8174

Dispersion correction           -0.013080379
FINAL SINGLE POINT ENERGY      -212.456624445232

DIPOLE MOMENT
-------------
                                X             Y             Z
Electronic contribution:      0.11676      -2.75054      -1.83207
Nuclear contribution   :     -0.99366       2.78648       1.68526
                        -----------------------------------------
Total Dipole Moment    :     -0.87690       0.03594      -0.14681
                        -----------------------------------------
Magnitude (a.u.)       :      0.88983
Magnitude (Debye)      :      2.26177

Rotational constants in cm-1:     0.282898     0.128664     0.101801
Rotational constants in MHz :  8481.061354  3857.240210  3051.924245

                             ****ORCA TERMINATED NORMALLY****
TOTAL RUN TIME: 0 days 0 hours 0 minutes 16 seconds 241 msec
