                         Program Version 5.0.0 -  RELEASE  -
|  1> !TPSS D3BJ RIJCOSX def2-SVPD def2/J TightSCF
|  2> *xyz 0 1
|  3> C          0.70466        1.44313       -4.50363
|  4> C          1.72854        1.42432       -5.63944
|  5> H          2.64672        1.95379       -5.38105
|  6> H          1.29992        1.93061       -6.50361
|  7> S          2.25263       -0.18811       -6.27184
|  8> O          3.56261       -0.44446       -5.63155
|  9> F          2.34494       -0.03374       -7.69650
| 10> O          1.26606       -1.15918       -5.80536
| 11> H         -0.17385        0.91270       -4.80656
| 12> H          0.44778        2.45562       -4.27173
| 13> H          1.12367        0.97423       -3.63791
| 14> *
| 15>
| 16> %MaxCore 64000
| 17>
| 18> %pal nprocs 4
| 19> end
| 20>
| 21> %scf
| 22>   MaxIter 150
| 23> end
| 24>
| 25>
| 26>                          ****END OF INPUT****

CARTESIAN COORDINATES (ANGSTROEM)
---------------------------------
  C      0.704660    1.443130   -4.503630
  C      1.728540    1.424320   -5.639440
  H      2.646720    1.953790   -5.381050
  H      1.299920    1.930610   -6.503610
  S      2.252630   -0.188110   -6.271840
  O      3.562610   -0.444460   -5.631550
  F      2.344940   -0.033740   -7.696500
  O      1.266060   -1.159180   -5.805360
  H     -0.173850    0.912700   -4.806560
  H      0.447780    2.455620   -4.271730
  H      1.123670    0.974230   -3.637910

 Total Charge           Charge          ....    0
 Multiplicity           Mult            ....    1
 Number of Electrons    NEL             ....   58
 Basis Dimension        Dim             ....  176

ORBITAL ENERGIES
----------------

  NO   OCC          E(Eh)            E(eV)
   0   2.0000     -88.621705     -2411.5192
   1   2.0000     -24.544366      -667.8861
   2   2.0000     -18.907892      -514.5099
   3   2.0000     -18.899966      -514.2942
   4   2.0000     -10.063866      -273.8517
   5   2.0000     -10.024625      -272.7839
   6   2.0000      -7.982875      -217.2251
   7   2.0000      -5.973242      -162.5402
   8   2.0000      -5.966509      -162.3570
   9   2.0000      -5.964784      -162.3100
  10   2.0000      -1.298313       -35.3289
  11   2.0000      -1.026829       -27.9414
  12   2.0000      -0.928517       -25.2662
  13   2.0000      -0.760975       -20.7072
  14   2.0000      -0.680625       -18.5208
  15   2.0000      -0.624687       -16.9986
  16   2.0000      -0.537234       -14.6189
  17   2.0000      -0.532099       -14.4791
  18   2.0000      -0.505784       -13.7631
  19   2.0000      -0.452772       -12.3206
  20   2.0000      -0.437110       -11.8944
  21   2.0000      -0.402139       -10.9428
  22   2.0000      -0.389685       -10.6039
  23   2.0000      -0.370373       -10.0784
  24   2.0000      -0.356161        -9.6916
  25   2.0000      -0.339407        -9.2357
  26   2.0000      -0.289897        -7.8885
  27   2.0000      -0.280449        -7.6314
  28   2.0000      -0.260011        -7.0753
  29   0.0000      -0.020944        -0.5699
  30   0.0000      -0.003284        -0.0894
  31   0.0000       0.018216         0.4957
  32   0.0000       0.026409         0.7186
  33   0.0000       0.030867         0.8399

MULLIKEN ATOMIC CHARGES
-----------------------
   0 C :    0.678378
   1 C :   -0.409381
   2 H :    0.028435
   3 H :    0.077706
   4 S :    1.418059
   5 O :   -0.676294
   6 F :   -0.372502
   7 O :   -0.669056
   8 H :    0.004831
   9 H :   -0.067760
  10 H :   -0.012417
Sum of atomic charges:   -0.0000000

LOEWDIN ATOMIC CHARGES
----------------------
   0 C :    0.151403
   1 C :   -0.082612
   2 H :    0.017594
   3 H :    0.004643
   4 S :    1.114063
   5 O :   -0.473620
   6 F :   -0.252338
   7 O :   -0.459277
   8 H :   -0.010057
   9 H :   -0.007568
  10 H :   -0.002230

  Mayer bond orders larger than 0.100000
B(  0-C ,  1-C ) :   1.3717 B(  0-C ,  8-H ) :   0.8175 B(  0-C ,  9-H ) :   0.7792
B(  0-C , 10-H ) :   0.8351 B(  1-C ,  2-H ) :   0.9849 B(  1-C ,  3-H ) :   0.9337
B(  1-C ,  4-S ) :   0.9166 B(  1-C ,  8-H ) :   0.1974 B(  1-C ,  9-H ) :   0.1963
B(  1-C , 10-H ) :   0.1743 B(  4-S ,  5-O ) :   1.5054 B(  4-S ,  6-F ) :   0.7059
B(  4-S ,  7-O ) :   1.5112

Dispersion correction           -0.011447586
FINAL SINGLE POINT ENERGY      -727.335355944232

DIPOLE MOMENT
-------------
                                X             Y             Z
Electronic contribution:      4.20949      -5.81188      -7.16637
Nuclear contribution   :     -4.83029       7.38191       6.79413
                        -----------------------------------------
Total Dipole Moment    :     -0.62079       1.57003      -0.37225
                        -----------------------------------------
Magnitude (a.u.)       :      1.72885
Magnitude (Debye)      :      4.39440

Rotational constants in cm-1:     0.156575     0.079070     0.076729
Rotational constants in MHz :  4694.010604  2370.444114  2300.280155

                             ****ORCA TERMINATED NORMALLY****
TOTAL RUN TIME: 0 days 0 hours 0 minutes 13 seconds 740 msec
