                         Program Version 5.0.0 -  RELEASE  -
|  1> !TPSS D3BJ RIJCOSX def2-SVPD def2/J TightSCF
|  2> *xyz 0 1
|  3> C          2.91632       -1.24259       -1.54313
|  4> C          3.46659       -1.59097       -2.88908
|  5> N          4.65227       -1.14316       -3.25969
|  6> C          2.75226       -2.29204       -3.72803
|  7> H          1.77836       -2.48960       -3.51274
|  8> H          2.94861       -2.20854       -4.71681
|  9> H          5.14672       -0.51251       -2.63385
| 10> H          4.78303       -1.00720       -4.25350
| 11> C          2.80408        0.29070       -1.35924
| 12> H          1.94047       -1.71653       -1.44116
| 13> H          3.55857       -1.66343       -0.76637
| 14> H          2.17393        0.69633       -2.12297
| 15> H          3.77707        0.73043       -1.42880
| 16> H          2.38369        0.50492       -0.39889
| 17> *
| 18>
| 19> %MaxCore 64000
| 20>
| 21> %pal nprocs 4
| 22> end
| 23>
| 24> %scf
| 25>   MaxIter 150
| 26> end
| 27>
| 28>
| 29>                          ****END OF INPUT****

CARTESIAN COORDINATES (ANGSTROEM)
---------------------------------
  C      2.916320   -1.242590   -1.543130
  C      3.466590   -1.590970   -2.889080
  N      4.652270   -1.143160   -3.259690
  C      2.752260   -2.292040   -3.728030
  H      1.778360   -2.489600   -3.512740
  H      2.948610   -2.208540   -4.716810
  H      5.146720   -0.512510   -2.633850
  H      4.783030   -1.007200   -4.253500
  C      2.804080    0.290700   -1.359240
  H      1.940470   -1.716530   -1.441160
  H      3.558570   -1.663430   -0.766370
  H      2.173930    0.696330   -2.122970
  H      3.777070    0.730430   -1.428800
  H      2.383690    0.504920   -0.398890

 Total Charge           Charge          ....    0
 Multiplicity           Mult            ....    1
 Number of Electrons    NEL             ....   40
 Basis Dimension        Dim             ....  172

ORBITAL ENERGIES
----------------

  NO   OCC          E(Eh)            E(eV)
   0   2.0000     -14.119662      -384.2155
   1   2.0000     -10.012770      -272.4613
   2   2.0000     -10.002442      -272.1803
   3   2.0000      -9.995382      -271.9882
   4   2.0000      -9.933498      -270.3042
   5   2.0000      -0.860919       -23.4268
   6   2.0000      -0.715889       -19.4803
   7   2.0000      -0.661906       -18.0114
   8   2.0000      -0.582029       -15.8378
   9   2.0000      -0.515906       -14.0385
  10   2.0000      -0.482808       -13.1379
  11   2.0000      -0.432573       -11.7709
  12   2.0000      -0.397820       -10.8252
  13   2.0000      -0.392173       -10.6716
  14   2.0000      -0.348678        -9.4880
  15   2.0000      -0.343148        -9.3375
  16   2.0000      -0.322250        -8.7689
  17   2.0000      -0.304977        -8.2988
  18   2.0000      -0.284106        -7.7309
  19   2.0000      -0.166325        -4.5259
  20   0.0000       0.003270         0.0890
  21   0.0000       0.011450         0.3116
  22   0.0000       0.044104         1.2001
  23   0.0000       0.046319         1.2604
  24   0.0000       0.056812         1.5459

MULLIKEN ATOMIC CHARGES
-----------------------
   0 C :   -0.188251
   1 C :   -0.231318
   2 N :    0.176659
   3 C :    0.243585
   4 H :    0.007864
   5 H :   -0.348950
   6 H :   -0.086238
   7 H :   -0.097187
   8 C :    0.645645
   9 H :    0.120201
  10 H :   -0.040034
  11 H :   -0.033783
  12 H :   -0.092199
  13 H :   -0.075994
Sum of atomic charges:    0.0000000

LOEWDIN ATOMIC CHARGES
----------------------
   0 C :   -0.014213
   1 C :   -0.269907
   2 N :    0.177285
   3 C :    0.172545
   4 H :   -0.080982
   5 H :   -0.085635
   6 H :   -0.005935
   7 H :    0.005171
   8 C :    0.146483
   9 H :    0.015861
  10 H :    0.017315
  11 H :   -0.015865
  12 H :   -0.038500
  13 H :   -0.023624

  Mayer bond orders larger than 0.100000
B(  0-C ,  1-C ) :   1.2883 B(  0-C ,  8-C ) :   1.2483 B(  0-C ,  9-H ) :   0.8876
B(  0-C , 10-H ) :   0.8365 B(  0-C , 11-H ) :   0.1526 B(  0-C , 12-H ) :   0.1994
B(  0-C , 13-H ) :   0.2013 B(  1-C ,  2-N ) :   1.0846 B(  1-C ,  3-C ) :   1.9115
B(  1-C ,  5-H ) :   0.2629 B(  1-C ,  9-H ) :   0.1107 B(  1-C , 10-H ) :   0.2055
B(  2-N ,  3-C ) :   0.2989 B(  2-N ,  6-H ) :   0.9940 B(  2-N ,  7-H ) :   1.0931
B(  3-C ,  4-H ) :   0.8907 B(  3-C ,  5-H ) :   0.7393 B(  4-H ,  5-H ) :   0.1536
B(  8-C ,  9-H ) :   0.1066 B(  8-C , 11-H ) :   0.8385 B(  8-C , 12-H ) :   0.8116
B(  8-C , 13-H ) :   0.8475

Dispersion correction           -0.013049138
FINAL SINGLE POINT ENERGY      -212.459907938475

DIPOLE MOMENT
-------------
                                X             Y             Z
Electronic contribution:      1.74167      -1.75452      -1.42534
Nuclear contribution   :     -1.43372       2.52039       1.57679
                        -----------------------------------------
Total Dipole Moment    :      0.30795       0.76586       0.15145
                        -----------------------------------------
Magnitude (a.u.)       :      0.83924
Magnitude (Debye)      :      2.13317

Rotational constants in cm-1:     0.274962     0.131786     0.102554
Rotational constants in MHz :  8243.150005  3950.846092  3074.493018

                             ****ORCA TERMINATED NORMALLY****
TOTAL RUN TIME: 0 days 0 hours 0 minutes 13 seconds 649 msec
