                         Program Version 5.0.0 -  RELEASE  -
|  1> !TPSS D3BJ RIJCOSX def2-SVPD def2/J TightSCF
|  2> *xyz 0 1
|  3> C          0.70466        1.44313       -4.50363
|  4> C          1.72854        1.42432       -5.63944
|  5> H          2.64672        1.95379       -5.38105
|  6> H          1.29992        1.93061       -6.50361
|  7> S          2.25263       -0.18811       -6.27184
|  8> O          3.56261       -0.44446       -5.63155
|  9> O          2.34494       -0.03374       -7.69650
| 10> F          1.26606       -1.15918       -5.80536
| 11> H         -0.17385        0.91270       -4.80656
| 12> H          0.44778        2.45562       -4.27173
| 13> H          1.12367        0.97423       -3.63791
| 14> *
| 15>
| 16> %MaxCore 64000
| 17>
| 18> %pal nprocs 4
| 19> end
| 20>
| 21> %scf
| 22>   MaxIter 150
| 23> end
| 24>
| 25>
| 26>                          ****END OF INPUT****

CARTESIAN COORDINATES (ANGSTROEM)
---------------------------------
  C      0.704660    1.443130   -4.503630
  C      1.728540    1.424320   -5.639440
  H      2.646720    1.953790   -5.381050
  H      1.299920    1.930610   -6.503610
  S      2.252630   -0.188110   -6.271840
  O      3.562610   -0.444460   -5.631550
  O      2.344940   -0.033740   -7.696500
  F      1.266060   -1.159180   -5.805360
  H     -0.173850    0.912700   -4.806560
  H      0.447780    2.455620   -4.271730
  H      1.123670    0.974230   -3.637910

 Total Charge           Charge          ....    0
 Multiplicity           Mult            ....    1
 Number of Electrons    NEL             ....   58
 Basis Dimension        Dim             ....  176

ORBITAL ENERGIES
----------------

  NO   OCC          E(Eh)            E(eV)
   0   2.0000     -88.620305     -2411.4811
   1   2.0000     -24.532639      -667.5671
   2   2.0000     -18.914853      -514.6993
   3   2.0000     -18.899567      -514.2834
   4   2.0000     -10.062830      -273.8235
   5   2.0000     -10.031034      -272.9583
   6   2.0000      -7.981486      -217.1873
   7   2.0000      -5.971789      -162.5006
   8   2.0000      -5.965264      -162.3231
   9   2.0000      -5.963449      -162.2737
  10   2.0000      -1.277407       -34.7600
  11   2.0000      -1.036655       -28.2088
  12   2.0000      -0.936607       -25.4864
  13   2.0000      -0.763713       -20.7817
  14   2.0000      -0.670243       -18.2382
  15   2.0000      -0.625845       -17.0301
  16   2.0000      -0.538457       -14.6522
  17   2.0000      -0.517974       -14.0948
  18   2.0000      -0.494451       -13.4547
  19   2.0000      -0.456007       -12.4086
  20   2.0000      -0.430565       -11.7163
  21   2.0000      -0.409998       -11.1566
  22   2.0000      -0.400463       -10.8971
  23   2.0000      -0.376335       -10.2406
  24   2.0000      -0.361443        -9.8354
  25   2.0000      -0.343604        -9.3499
  26   2.0000      -0.295966        -8.0536
  27   2.0000      -0.281188        -7.6515
  28   2.0000      -0.266493        -7.2516
  29   0.0000      -0.028212        -0.7677
  30   0.0000       0.012233         0.3329
  31   0.0000       0.021782         0.5927
  32   0.0000       0.026247         0.7142
  33   0.0000       0.030324         0.8252

MULLIKEN ATOMIC CHARGES
-----------------------
   0 C :    0.679514
   1 C :   -0.381140
   2 H :    0.033132
   3 H :    0.083589
   4 S :    1.400299
   5 O :   -0.680030
   6 O :   -0.627813
   7 F :   -0.407596
   8 H :   -0.014616
   9 H :   -0.061542
  10 H :   -0.023798
Sum of atomic charges:   -0.0000000

LOEWDIN ATOMIC CHARGES
----------------------
   0 C :    0.138370
   1 C :   -0.071358
   2 H :    0.025817
   3 H :    0.012194
   4 S :    1.110838
   5 O :   -0.474671
   6 O :   -0.449793
   7 F :   -0.260703
   8 H :   -0.014562
   9 H :   -0.008598
  10 H :   -0.007534

  Mayer bond orders larger than 0.100000
B(  0-C ,  1-C ) :   1.3341 B(  0-C ,  8-H ) :   0.8242 B(  0-C ,  9-H ) :   0.7800
B(  0-C , 10-H ) :   0.8394 B(  1-C ,  2-H ) :   0.9755 B(  1-C ,  3-H ) :   0.9639
B(  1-C ,  4-S ) :   0.9336 B(  1-C ,  8-H ) :   0.1846 B(  1-C ,  9-H ) :   0.2017
B(  1-C , 10-H ) :   0.1684 B(  4-S ,  5-O ) :   1.5043 B(  4-S ,  6-O ) :   1.5628
B(  4-S ,  7-F ) :   0.6678

Dispersion correction           -0.011376714
FINAL SINGLE POINT ENERGY      -727.345190647702

DIPOLE MOMENT
-------------
                                X             Y             Z
Electronic contribution:      2.41568      -7.65672      -4.01514
Nuclear contribution   :     -3.70606       8.55465       4.82350
                        -----------------------------------------
Total Dipole Moment    :     -1.29038       0.89793       0.80836
                        -----------------------------------------
Magnitude (a.u.)       :      1.76771
Magnitude (Debye)      :      4.49316

Rotational constants in cm-1:     0.153201     0.080978     0.077494
Rotational constants in MHz :  4592.852844  2427.650814  2323.207507

                             ****ORCA TERMINATED NORMALLY****
TOTAL RUN TIME: 0 days 0 hours 0 minutes 14 seconds 32 msec
