                         Program Version 5.0.0 -  RELEASE  -
|  1> !TPSS D3BJ RIJCOSX def2-SVPD def2/J TightSCF xyzfile
|  2>
|  3> *xyzfile 0 1 D1.xyz
|  4>
|  5> %MaxCore 64000
|  6>
|  7> %pal nprocs 4
|  8> end
|  9>
| 10> %scf
| 11>   MaxIter 150
| 12> end
| 13>
| 14>
| 15>                          ****END OF INPUT****

CARTESIAN COORDINATES (ANGSTROEM)
---------------------------------
  C      2.916324   -1.242589   -1.543125
  C      0.704661    1.443129   -4.503630
  C      1.728539    1.424320   -5.639443
  H      2.646718    1.953794   -5.381054
  H      1.299916    1.930613   -6.503614
  S      2.252625   -0.188115   -6.271840
  C      3.466585   -1.590971   -2.889082
  C      4.652275   -1.143164   -3.259692
  N      2.752264   -2.292043   -3.728029
  H      1.778364   -2.489604   -3.512738
  H      2.948612   -2.208544   -4.716813
  H      5.146723   -0.512508   -2.633852
  H      4.783030   -1.007203   -4.253498
  F      3.562607   -0.444464   -5.631552
  O      2.344944   -0.033742   -7.696501
  C      2.804084    0.290698   -1.359243
  C      1.052550    0.695659   -3.214915
  H     -0.232483    1.032925   -4.884449
  H      0.511700    2.495794   -4.267966
  C      2.388380    1.093669   -2.597108
  H      3.763425    0.674718   -0.999889
  H      2.094788    0.461222   -0.545756
  O      1.266058   -1.159177   -5.805365
  H      3.167316    1.013242   -3.359430
  H      2.357690    2.149375   -2.310997
  H      1.039284   -0.368429   -3.449329
  H      0.250787    0.865605   -2.488283
  H      1.940472   -1.716529   -1.441161
  H      3.558569   -1.663433   -0.766371

 Total Charge           Charge          ....    0
 Multiplicity           Mult            ....    1
 Number of Electrons    NEL             ....  112
 Basis Dimension        Dim             ....  404

ORBITAL ENERGIES
----------------

  NO   OCC          E(Eh)            E(eV)
   0   2.0000     -88.628642     -2411.7080
   1   2.0000     -24.531387      -667.5330
   2   2.0000     -18.921862      -514.8900
   3   2.0000     -18.918253      -514.7918
   4   2.0000     -14.116087      -384.1183
   5   2.0000     -10.064173      -273.8601
   6   2.0000     -10.031459      -272.9699
   7   2.0000     -10.013308      -272.4760
   8   2.0000     -10.009338      -272.3679
   9   2.0000     -10.006460      -272.2896
  10   2.0000     -10.004732      -272.2426
  11   2.0000     -10.004685      -272.2413
  12   2.0000      -9.928598      -270.1709
  13   2.0000      -7.988584      -217.3804
  14   2.0000      -5.978845      -162.6927
  15   2.0000      -5.972596      -162.5226
  16   2.0000      -5.970610      -162.4685
  17   2.0000      -1.271559       -34.6009
  18   2.0000      -1.048939       -28.5431
  19   2.0000      -0.958041       -26.0696
  20   2.0000      -0.862781       -23.4775
  21   2.0000      -0.777217       -21.1492
  22   2.0000      -0.741073       -20.1656
  23   2.0000      -0.703166       -19.1341
  24   2.0000      -0.673624       -18.3302
  25   2.0000      -0.641746       -17.4628
  26   2.0000      -0.631396       -17.1812
  27   2.0000      -0.582285       -15.8448
  28   2.0000      -0.547183       -14.8896
  29   2.0000      -0.524916       -14.2837
  30   2.0000      -0.518265       -14.1027
  31   2.0000      -0.512511       -13.9461
  32   2.0000      -0.501147       -13.6369
  33   2.0000      -0.471946       -12.8423
  34   2.0000      -0.456791       -12.4299
  35   2.0000      -0.451016       -12.2728
  36   2.0000      -0.435607       -11.8535
  37   2.0000      -0.430345       -11.7103
  38   2.0000      -0.416629       -11.3370
  39   2.0000      -0.405186       -11.0257
  40   2.0000      -0.393537       -10.7087
  41   2.0000      -0.384903       -10.4737
  42   2.0000      -0.359351        -9.7784
  43   2.0000      -0.355869        -9.6837
  44   2.0000      -0.349612        -9.5134
  45   2.0000      -0.345027        -9.3887
  46   2.0000      -0.338460        -9.2100
  47   2.0000      -0.320657        -8.7255
  48   2.0000      -0.316258        -8.6058
  49   2.0000      -0.303099        -8.2477
  50   2.0000      -0.301419        -8.2020
  51   2.0000      -0.292281        -7.9534
  52   2.0000      -0.291198        -7.9239
  53   2.0000      -0.282653        -7.6914
  54   2.0000      -0.279972        -7.6184
  55   2.0000      -0.157703        -4.2913
  56   0.0000      -0.020831        -0.5669
  57   0.0000      -0.005026        -0.1368
  58   0.0000       0.001770         0.0482
  59   0.0000       0.008862         0.2411
  60   0.0000       0.010830         0.2947

MULLIKEN ATOMIC CHARGES
-----------------------
   0 C :    0.551037
   1 C :    0.450620
   2 C :    0.079507
   3 H :    0.178919
   4 H :   -0.184157
   5 S :    1.489616
   6 C :   -0.480158
   7 C :    0.489470
   8 N :    0.342223
   9 H :    0.003201
  10 H :   -0.180929
  11 H :    0.091115
  12 H :   -0.558105
  13 F :   -0.558888
  14 O :   -0.657882
  15 C :    0.287754
  16 C :    0.191323
  17 H :    0.059806
  18 H :   -0.026961
  19 C :   -0.060415
  20 H :    0.019721
  21 H :   -0.107210
  22 O :   -0.781436
  23 H :   -0.033781
  24 H :   -0.147839
  25 H :   -0.312985
  26 H :   -0.055839
  27 H :    0.109946
  28 H :   -0.197671
Sum of atomic charges:   -0.0000000

LOEWDIN ATOMIC CHARGES
----------------------
   0 C :    0.035774
   1 C :   -0.017142
   2 C :   -0.024616
   3 H :    0.012716
   4 H :    0.018649
   5 S :    1.124719
   6 C :   -0.249510
   7 C :    0.175963
   8 N :    0.197580
   9 H :    0.007024
  10 H :   -0.039869
  11 H :   -0.074296
  12 H :   -0.119562
  13 F :   -0.279664
  14 O :   -0.434676
  15 C :   -0.000200
  16 C :   -0.009176
  17 H :    0.028207
  18 H :    0.031290
  19 C :   -0.017028
  20 H :    0.016334
  21 H :    0.013827
  22 O :   -0.451342
  23 H :   -0.009549
  24 H :    0.022398
  25 H :   -0.018738
  26 H :    0.029359
  27 H :    0.007640
  28 H :    0.023887

  Mayer bond orders larger than 0.100000
B(  0-C ,  6-C ) :   1.2542 B(  0-C ,  8-N ) :   0.1186 B(  0-C , 15-C ) :   1.1304
B(  0-C , 20-H ) :   0.1024 B(  0-C , 21-H ) :   0.1831 B(  0-C , 27-H ) :   0.5928
B(  0-C , 28-H ) :   0.7384 B(  1-C ,  2-C ) :   1.2481 B(  1-C ,  4-H ) :   0.2046
B(  1-C , 16-C ) :   1.2529 B(  1-C , 17-H ) :   0.6726 B(  1-C , 18-H ) :   0.7415
B(  2-C ,  3-H ) :   0.8473 B(  2-C ,  4-H ) :   0.9118 B(  2-C ,  5-S ) :   0.9235
B(  2-C , 17-H ) :   0.1162 B(  2-C , 18-H ) :   0.1500 B(  5-S , 13-F ) :   0.6312
B(  5-S , 14-O ) :   1.5377 B(  5-S , 22-O ) :   1.4620 B(  6-C ,  7-C ) :   2.1016
B(  6-C ,  8-N ) :   0.9668 B(  6-C , 11-H ) :   0.1221 B(  6-C , 12-H ) :   0.3425
B(  6-C , 27-H ) :   0.2573 B(  6-C , 28-H ) :   0.2426 B(  7-C ,  8-N ) :   0.3900
B(  7-C , 11-H ) :   0.5972 B(  7-C , 12-H ) :   0.4833 B(  8-N ,  9-H ) :   0.8957
B(  8-N , 10-H ) :   0.9515 B(  8-N , 11-H ) :   0.1589 B(  9-H , 10-H ) :  -0.1245
B( 10-H , 12-H ) :   0.1131 B( 12-H , 13-F ) :   0.2767 B( 15-C , 19-C ) :   1.2334
B( 15-C , 20-H ) :   0.6971 B( 15-C , 21-H ) :   0.8389 B( 15-C , 23-H ) :   0.1991
B( 15-C , 27-H ) :   0.1370 B( 16-C , 17-H ) :   0.2554 B( 16-C , 19-C ) :   1.2370
B( 16-C , 23-H ) :   0.1384 B( 16-C , 24-H ) :   0.1679 B( 16-C , 25-H ) :   0.9201
B( 16-C , 26-H ) :   0.7156 B( 19-C , 20-H ) :   0.2573 B( 19-C , 21-H ) :   0.1827
B( 19-C , 23-H ) :   0.8333 B( 19-C , 24-H ) :   0.8562 B( 19-C , 25-H ) :   0.1463
B( 19-C , 26-H ) :   0.2082 B( 20-H , 21-H ) :  -0.1190

Dispersion correction           -0.045950679
FINAL SINGLE POINT ENERGY     -1017.205684293903

DIPOLE MOMENT
-------------
                                X             Y             Z
Electronic contribution:      2.14324      -4.98937     -18.59756
Nuclear contribution   :     -2.89481       6.29550      19.36835
                        -----------------------------------------
Total Dipole Moment    :     -0.75157       1.30613       0.77080
                        -----------------------------------------
Magnitude (a.u.)       :      1.69262
Magnitude (Debye)      :      4.30231

Rotational constants in cm-1:     0.036515     0.018832     0.015081
Rotational constants in MHz :  1094.679513   564.567051   452.109105

                             ****ORCA TERMINATED NORMALLY****
TOTAL RUN TIME: 0 days 0 hours 1 minutes 6 seconds 864 msec
