                         Program Version 5.0.0 -  RELEASE  -
|  1> !TPSS D3BJ RIJCOSX def2-SVPD def2/J TightSCF xyzfile
|  2>
|  3> *xyzfile 0 1 D4.xyz
|  4>
|  5> %MaxCore 64000
|  6>
|  7> %pal nprocs 4
|  8> end
|  9>
| 10> %scf
| 11>   MaxIter 150
| 12> end
| 13>
| 14>
| 15>                          ****END OF INPUT****

CARTESIAN COORDINATES (ANGSTROEM)
---------------------------------
  C      2.916324   -1.242589   -1.543125
  C      0.704661    1.443129   -4.503630
  C      1.728539    1.424320   -5.639443
  H      2.646718    1.953794   -5.381054
  H      1.299916    1.930613   -6.503614
  S      2.252625   -0.188115   -6.271840
  C      3.466585   -1.590971   -2.889082
  N      4.652275   -1.143164   -3.259692
  C      2.752264   -2.292043   -3.728029
  H      1.778364   -2.489604   -3.512738
  H      2.948612   -2.208544   -4.716813
  H      5.146723   -0.512508   -2.633852
  H      4.783030   -1.007203   -4.253498
  O      3.562607   -0.444464   -5.631552
  F      2.344944   -0.033742   -7.696501
  C      2.804084    0.290698   -1.359243
  C      1.052550    0.695659   -3.214915
  H     -0.232483    1.032925   -4.884449
  H      0.511700    2.495794   -4.267966
  C      2.388380    1.093669   -2.597108
  H      3.763425    0.674718   -0.999889
  H      2.094788    0.461222   -0.545756
  O      1.266058   -1.159177   -5.805365
  H      3.167316    1.013242   -3.359430
  H      2.357690    2.149375   -2.310997
  H      1.039284   -0.368429   -3.449329
  H      0.250787    0.865605   -2.488283
  H      1.940472   -1.716529   -1.441161
  H      3.558569   -1.663433   -0.766371

 Total Charge           Charge          ....    0
 Multiplicity           Mult            ....    1
 Number of Electrons    NEL             ....  112
 Basis Dimension        Dim             ....  404

ORBITAL ENERGIES
----------------

  NO   OCC          E(Eh)            E(eV)
   0   2.0000     -88.630441     -2411.7569
   1   2.0000     -24.549924      -668.0374
   2   2.0000     -18.913082      -514.6511
   3   2.0000     -18.910316      -514.5759
   4   2.0000     -14.092861      -383.4862
   5   2.0000     -10.064535      -273.8699
   6   2.0000     -10.029230      -272.9092
   7   2.0000      -9.997902      -272.0568
   8   2.0000      -9.997560      -272.0474
   9   2.0000      -9.996465      -272.0176
  10   2.0000      -9.989817      -271.8367
  11   2.0000      -9.988116      -271.7905
  12   2.0000      -9.908223      -269.6165
  13   2.0000      -7.990156      -217.4232
  14   2.0000      -5.980533      -162.7386
  15   2.0000      -5.974096      -162.5634
  16   2.0000      -5.972034      -162.5073
  17   2.0000      -1.302892       -35.4535
  18   2.0000      -1.035327       -28.1727
  19   2.0000      -0.938373       -25.5344
  20   2.0000      -0.837520       -22.7901
  21   2.0000      -0.773268       -21.0417
  22   2.0000      -0.731816       -19.9137
  23   2.0000      -0.697797       -18.9880
  24   2.0000      -0.668095       -18.1798
  25   2.0000      -0.646280       -17.5862
  26   2.0000      -0.615125       -16.7384
  27   2.0000      -0.573749       -15.6125
  28   2.0000      -0.543469       -14.7886
  29   2.0000      -0.536896       -14.6097
  30   2.0000      -0.517555       -14.0834
  31   2.0000      -0.513600       -13.9758
  32   2.0000      -0.487292       -13.2599
  33   2.0000      -0.463368       -12.6089
  34   2.0000      -0.452483       -12.3127
  35   2.0000      -0.451073       -12.2743
  36   2.0000      -0.426405       -11.6031
  37   2.0000      -0.413914       -11.2632
  38   2.0000      -0.406252       -11.0547
  39   2.0000      -0.401161       -10.9162
  40   2.0000      -0.386888       -10.5278
  41   2.0000      -0.369920       -10.0660
  42   2.0000      -0.359826        -9.7914
  43   2.0000      -0.344484        -9.3739
  44   2.0000      -0.339234        -9.2310
  45   2.0000      -0.331061        -9.0086
  46   2.0000      -0.322135        -8.7657
  47   2.0000      -0.312971        -8.5164
  48   2.0000      -0.298869        -8.1326
  49   2.0000      -0.292774        -7.9668
  50   2.0000      -0.286287        -7.7903
  51   2.0000      -0.283612        -7.7175
  52   2.0000      -0.273615        -7.4454
  53   2.0000      -0.266003        -7.2383
  54   2.0000      -0.259413        -7.0590
  55   2.0000      -0.142996        -3.8911
  56   0.0000      -0.023873        -0.6496
  57   0.0000      -0.008820        -0.2400
  58   0.0000       0.009469         0.2577
  59   0.0000       0.015612         0.4248
  60   0.0000       0.017197         0.4680

MULLIKEN ATOMIC CHARGES
-----------------------
   0 C :    0.408937
   1 C :    0.392771
   2 C :    0.059203
   3 H :    0.189709
   4 H :   -0.148661
   5 S :    1.518156
   6 C :   -0.588221
   7 N :    0.343967
   8 C :    0.595590
   9 H :   -0.020093
  10 H :   -0.402249
  11 H :   -0.020580
  12 H :   -0.238160
  13 O :   -0.754414
  14 F :   -0.467807
  15 C :    0.412338
  16 C :    0.176249
  17 H :    0.056492
  18 H :   -0.033223
  19 C :   -0.121456
  20 H :    0.003704
  21 H :   -0.104738
  22 O :   -0.731839
  23 H :    0.031701
  24 H :   -0.203596
  25 H :   -0.366476
  26 H :   -0.039296
  27 H :    0.295066
  28 H :   -0.243073
Sum of atomic charges:   -0.0000000

LOEWDIN ATOMIC CHARGES
----------------------
   0 C :    0.031462
   1 C :   -0.012790
   2 C :   -0.031741
   3 H :    0.014723
   4 H :    0.006129
   5 S :    1.158372
   6 C :   -0.256950
   7 N :    0.198575
   8 C :    0.172977
   9 H :   -0.070653
  10 H :   -0.122286
  11 H :    0.001223
  12 H :   -0.053320
  13 O :   -0.470281
  14 F :   -0.243360
  15 C :   -0.006243
  16 C :   -0.002066
  17 H :    0.026967
  18 H :    0.031335
  19 C :   -0.016243
  20 H :    0.008201
  21 H :    0.012511
  22 O :   -0.435622
  23 H :   -0.007952
  24 H :    0.019162
  25 H :   -0.012283
  26 H :    0.028672
  27 H :    0.016819
  28 H :    0.014662

  Mayer bond orders larger than 0.100000
B(  0-C ,  6-C ) :   1.3136 B(  0-C ,  8-C ) :   0.1123 B(  0-C , 15-C ) :   1.1253
B(  0-C , 20-H ) :   0.1277 B(  0-C , 21-H ) :   0.2041 B(  0-C , 27-H ) :   0.7731
B(  0-C , 28-H ) :   0.6231 B(  1-C ,  2-C ) :   1.2853 B(  1-C ,  4-H ) :   0.2313
B(  1-C , 16-C ) :   1.2560 B(  1-C , 17-H ) :   0.6799 B(  1-C , 18-H ) :   0.7442
B(  2-C ,  3-H ) :   0.8596 B(  2-C ,  4-H ) :   0.8414 B(  2-C ,  5-S ) :   0.9413
B(  2-C , 17-H ) :   0.1108 B(  2-C , 18-H ) :   0.1536 B(  5-S , 13-O ) :   1.3711
B(  5-S , 14-F ) :   0.5567 B(  5-S , 22-O ) :   1.4676 B(  6-C ,  7-N ) :   0.9355
B(  6-C ,  8-C ) :   1.9786 B(  6-C ,  9-H ) :   0.1512 B(  6-C , 10-H ) :   0.5303
B(  6-C , 15-C ) :   0.2006 B(  6-C , 28-H ) :   0.3816 B(  7-N ,  8-C ) :   0.4735
B(  7-N ,  9-H ) :   0.1244 B(  7-N , 11-H ) :   0.9673 B(  7-N , 12-H ) :   0.9016
B(  8-C ,  9-H ) :   0.6166 B(  8-C , 10-H ) :   0.1862 B(  9-H , 10-H ) :   0.1053
B( 10-H , 12-H ) :   0.1691 B( 11-H , 12-H ) :  -0.1343 B( 12-H , 13-O ) :   0.1055
B( 13-O , 22-O ) :   0.1548 B( 15-C , 19-C ) :   1.2231 B( 15-C , 20-H ) :   0.6806
B( 15-C , 21-H ) :   0.8115 B( 15-C , 23-H ) :   0.1200 B( 15-C , 27-H ) :   0.1116
B( 16-C , 17-H ) :   0.2527 B( 16-C , 19-C ) :   1.2768 B( 16-C , 23-H ) :   0.1309
B( 16-C , 24-H ) :   0.1663 B( 16-C , 25-H ) :   0.9718 B( 16-C , 26-H ) :   0.6885
B( 19-C , 20-H ) :   0.2572 B( 19-C , 21-H ) :   0.1678 B( 19-C , 23-H ) :   0.8566
B( 19-C , 24-H ) :   0.8693 B( 19-C , 25-H ) :   0.1519 B( 19-C , 26-H ) :   0.1845
B( 20-H , 21-H ) :  -0.1243

Dispersion correction           -0.046522494
FINAL SINGLE POINT ENERGY     -1017.191612942000

DIPOLE MOMENT
-------------
                                X             Y             Z
Electronic contribution:      1.35892      -3.50996     -22.15681
Nuclear contribution   :     -1.74760       5.67788      21.66873
                        -----------------------------------------
Total Dipole Moment    :     -0.38869       2.16792      -0.48808
                        -----------------------------------------
Magnitude (a.u.)       :      2.25592
Magnitude (Debye)      :      5.73409

Rotational constants in cm-1:     0.036818     0.018222     0.014682
Rotational constants in MHz :  1103.783048   546.296792   440.157914

                             ****ORCA TERMINATED NORMALLY****
TOTAL RUN TIME: 0 days 0 hours 1 minutes 11 seconds 121 msec
