                         Program Version 5.0.0 -  RELEASE  -
|  1> !TPSS D3BJ RIJCOSX def2-SVPD def2/J TightSCF xyzfile
|  2>
|  3> *xyzfile 0 1 D5.xyz
|  4>
|  5> %MaxCore 64000
|  6>
|  7> %pal nprocs 4
|  8> end
|  9>
| 10> %scf
| 11>   MaxIter 150
| 12> end
| 13>
| 14>
| 15>                          ****END OF INPUT****

CARTESIAN COORDINATES (ANGSTROEM)
---------------------------------
  C      2.916324   -1.242589   -1.543125
  C      0.704661    1.443129   -4.503630
  C      1.728539    1.424320   -5.639443
  H      2.646718    1.953794   -5.381054
  H      1.299916    1.930613   -6.503614
  S      2.252625   -0.188115   -6.271840
  C      3.466585   -1.590971   -2.889082
  C      4.652275   -1.143164   -3.259692
  N      2.752264   -2.292043   -3.728029
  H      1.778364   -2.489604   -3.512738
  H      2.948612   -2.208544   -4.716813
  H      5.146723   -0.512508   -2.633852
  H      4.783030   -1.007203   -4.253498
  O      3.562607   -0.444464   -5.631552
  O      2.344944   -0.033742   -7.696501
  C      2.804084    0.290698   -1.359243
  C      1.052550    0.695659   -3.214915
  H     -0.232483    1.032925   -4.884449
  H      0.511700    2.495794   -4.267966
  C      2.388380    1.093669   -2.597108
  H      3.763425    0.674718   -0.999889
  H      2.094788    0.461222   -0.545756
  F      1.266058   -1.159177   -5.805365
  H      3.167316    1.013242   -3.359430
  H      2.357690    2.149375   -2.310997
  H      1.039284   -0.368429   -3.449329
  H      0.250787    0.865605   -2.488283
  H      1.940472   -1.716529   -1.441161
  H      3.558569   -1.663433   -0.766371

 Total Charge           Charge          ....    0
 Multiplicity           Mult            ....    1
 Number of Electrons    NEL             ....  112
 Basis Dimension        Dim             ....  404

ORBITAL ENERGIES
----------------

  NO   OCC          E(Eh)            E(eV)
   0   2.0000     -88.630652     -2411.7626
   1   2.0000     -24.544390      -667.8868
   2   2.0000     -18.923281      -514.9287
   3   2.0000     -18.910438      -514.5792
   4   2.0000     -14.110493      -383.9660
   5   2.0000     -10.065444      -273.8946
   6   2.0000     -10.037423      -273.1322
   7   2.0000     -10.015092      -272.5245
   8   2.0000     -10.001891      -272.1653
   9   2.0000     -10.001221      -272.1471
  10   2.0000     -10.000980      -272.1405
  11   2.0000      -9.998809      -272.0814
  12   2.0000      -9.913343      -269.7558
  13   2.0000      -7.990741      -217.4391
  14   2.0000      -5.981170      -162.7559
  15   2.0000      -5.974685      -162.5794
  16   2.0000      -5.972537      -162.5210
  17   2.0000      -1.289311       -35.0839
  18   2.0000      -1.046108       -28.4661
  19   2.0000      -0.949094       -25.8262
  20   2.0000      -0.855541       -23.2804
  21   2.0000      -0.781251       -21.2589
  22   2.0000      -0.738319       -20.0907
  23   2.0000      -0.702744       -19.1226
  24   2.0000      -0.668355       -18.1869
  25   2.0000      -0.647468       -17.6185
  26   2.0000      -0.623080       -16.9549
  27   2.0000      -0.586932       -15.9712
  28   2.0000      -0.550243       -14.9729
  29   2.0000      -0.536110       -14.5883
  30   2.0000      -0.525794       -14.3076
  31   2.0000      -0.507900       -13.8207
  32   2.0000      -0.497448       -13.5362
  33   2.0000      -0.468889       -12.7591
  34   2.0000      -0.457182       -12.4406
  35   2.0000      -0.452209       -12.3052
  36   2.0000      -0.433599       -11.7988
  37   2.0000      -0.428110       -11.6495
  38   2.0000      -0.413398       -11.2491
  39   2.0000      -0.408739       -11.1223
  40   2.0000      -0.393357       -10.7038
  41   2.0000      -0.380487       -10.3536
  42   2.0000      -0.360838        -9.8189
  43   2.0000      -0.352008        -9.5786
  44   2.0000      -0.349492        -9.5102
  45   2.0000      -0.340174        -9.2566
  46   2.0000      -0.332813        -9.0563
  47   2.0000      -0.315444        -8.5837
  48   2.0000      -0.313595        -8.5333
  49   2.0000      -0.300860        -8.1868
  50   2.0000      -0.296706        -8.0738
  51   2.0000      -0.291210        -7.9242
  52   2.0000      -0.287316        -7.8183
  53   2.0000      -0.274146        -7.4599
  54   2.0000      -0.267037        -7.2664
  55   2.0000      -0.147241        -4.0066
  56   0.0000      -0.033408        -0.9091
  57   0.0000      -0.000295        -0.0080
  58   0.0000       0.003252         0.0885
  59   0.0000       0.013061         0.3554
  60   0.0000       0.014704         0.4001

MULLIKEN ATOMIC CHARGES
-----------------------
   0 C :    0.546257
   1 C :    0.433058
   2 C :    0.098039
   3 H :    0.168838
   4 H :   -0.158404
   5 S :    1.393332
   6 C :   -0.467582
   7 C :    0.490831
   8 N :    0.317998
   9 H :   -0.001999
  10 H :   -0.211682
  11 H :    0.040356
  12 H :   -0.491912
  13 O :   -0.746898
  14 O :   -0.645311
  15 C :    0.288998
  16 C :    0.200506
  17 H :    0.040348
  18 H :   -0.018772
  19 C :   -0.060834
  20 H :    0.028210
  21 H :   -0.110013
  22 F :   -0.473658
  23 H :   -0.017200
  24 H :   -0.140767
  25 H :   -0.331409
  26 H :   -0.069494
  27 H :    0.098175
  28 H :   -0.199014
Sum of atomic charges:   -0.0000000

LOEWDIN ATOMIC CHARGES
----------------------
   0 C :    0.032876
   1 C :   -0.026089
   2 C :   -0.018057
   3 H :    0.025289
   4 H :    0.013782
   5 S :    1.138367
   6 C :   -0.252478
   7 C :    0.185289
   8 N :    0.187480
   9 H :   -0.002342
  10 H :   -0.044997
  11 H :   -0.073829
  12 H :   -0.129909
  13 O :   -0.455521
  14 O :   -0.432692
  15 C :   -0.001245
  16 C :   -0.012053
  17 H :    0.022591
  18 H :    0.031484
  19 C :   -0.011853
  20 H :    0.016880
  21 H :    0.011554
  22 F :   -0.259163
  23 H :   -0.003854
  24 H :    0.022442
  25 H :   -0.019657
  26 H :    0.029058
  27 H :    0.004170
  28 H :    0.022479

  Mayer bond orders larger than 0.100000
B(  0-C ,  6-C ) :   1.2371 B(  0-C ,  8-N ) :   0.1095 B(  0-C , 15-C ) :   1.1295
B(  0-C , 20-H ) :   0.1006 B(  0-C , 21-H ) :   0.1919 B(  0-C , 27-H ) :   0.6041
B(  0-C , 28-H ) :   0.7374 B(  1-C ,  2-C ) :   1.2465 B(  1-C ,  4-H ) :   0.2135
B(  1-C , 16-C ) :   1.2431 B(  1-C , 17-H ) :   0.6819 B(  1-C , 18-H ) :   0.7315
B(  2-C ,  3-H ) :   0.8660 B(  2-C ,  4-H ) :   0.9065 B(  2-C ,  5-S ) :   0.9446
B(  2-C , 17-H ) :   0.1055 B(  2-C , 18-H ) :   0.1575 B(  5-S , 13-O ) :   1.4287
B(  5-S , 14-O ) :   1.5415 B(  5-S , 22-F ) :   0.6171 B(  6-C ,  7-C ) :   2.1083
B(  6-C ,  8-N ) :   0.9521 B(  6-C , 11-H ) :   0.1209 B(  6-C , 12-H ) :   0.3593
B(  6-C , 27-H ) :   0.2533 B(  6-C , 28-H ) :   0.2456 B(  7-C ,  8-N ) :   0.3897
B(  7-C , 11-H ) :   0.5902 B(  7-C , 12-H ) :   0.5147 B(  8-N ,  9-H ) :   0.9081
B(  8-N , 10-H ) :   0.9384 B(  8-N , 11-H ) :   0.1558 B(  9-H , 10-H ) :  -0.1311
B( 10-H , 12-H ) :   0.1083 B( 10-H , 13-O ) :   0.1154 B( 12-H , 13-O ) :   0.2484
B( 13-O , 14-O ) :   0.1027 B( 15-C , 19-C ) :   1.2395 B( 15-C , 20-H ) :   0.6934
B( 15-C , 21-H ) :   0.8397 B( 15-C , 23-H ) :   0.1924 B( 15-C , 27-H ) :   0.1340
B( 16-C , 17-H ) :   0.2467 B( 16-C , 18-H ) :   0.1046 B( 16-C , 19-C ) :   1.2527
B( 16-C , 23-H ) :   0.1467 B( 16-C , 24-H ) :   0.1707 B( 16-C , 25-H ) :   0.9016
B( 16-C , 26-H ) :   0.7250 B( 19-C , 20-H ) :   0.2539 B( 19-C , 21-H ) :   0.1822
B( 19-C , 23-H ) :   0.8387 B( 19-C , 24-H ) :   0.8353 B( 19-C , 25-H ) :   0.1585
B( 19-C , 26-H ) :   0.2057 B( 20-H , 21-H ) :  -0.1188

Dispersion correction           -0.046061673
FINAL SINGLE POINT ENERGY     -1017.194015960942

DIPOLE MOMENT
-------------
                                X             Y             Z
Electronic contribution:     -1.66412      -6.09090     -19.03411
Nuclear contribution   :     -0.26930       7.11259      19.56706
                        -----------------------------------------
Total Dipole Moment    :     -1.93342       1.02169       0.53296
                        -----------------------------------------
Magnitude (a.u.)       :      2.25078
Magnitude (Debye)      :      5.72103

Rotational constants in cm-1:     0.036519     0.018683     0.015073
Rotational constants in MHz :  1094.801738   560.111127   451.890222

                             ****ORCA TERMINATED NORMALLY****
TOTAL RUN TIME: 0 days 0 hours 1 minutes 2 seconds 503 msec
