                         Program Version 5.0.0 -  RELEASE  -
|  1> !TPSS D3BJ RIJCOSX def2-SVPD def2/J TightSCF xyzfile
|  2>
|  3> *xyzfile 0 1 D6.xyz
|  4>
|  5> %MaxCore 64000
|  6>
|  7> %pal nprocs 4
|  8> end
|  9>
| 10> %scf
| 11>   MaxIter 150
| 12> end
| 13>
| 14>
| 15>                          ****END OF INPUT****

CARTESIAN COORDINATES (ANGSTROEM)
---------------------------------
  C      2.916324   -1.242589   -1.543125
  C      0.704661    1.443129   -4.503630
  C      1.728539    1.424320   -5.639443
  H      2.646718    1.953794   -5.381054
  H      1.299916    1.930613   -6.503614
  S      2.252625   -0.188115   -6.271840
  C      3.466585   -1.590971   -2.889082
  N      4.652275   -1.143164   -3.259692
  C      2.752264   -2.292043   -3.728029
  H      1.778364   -2.489604   -3.512738
  H      2.948612   -2.208544   -4.716813
  H      5.146723   -0.512508   -2.633852
  H      4.783030   -1.007203   -4.253498
  O      3.562607   -0.444464   -5.631552
  O      2.344944   -0.033742   -7.696501
  C      2.804084    0.290698   -1.359243
  C      1.052550    0.695659   -3.214915
  H     -0.232483    1.032925   -4.884449
  H      0.511700    2.495794   -4.267966
  C      2.388380    1.093669   -2.597108
  H      3.763425    0.674718   -0.999889
  H      2.094788    0.461222   -0.545756
  F      1.266058   -1.159177   -5.805365
  H      3.167316    1.013242   -3.359430
  H      2.357690    2.149375   -2.310997
  H      1.039284   -0.368429   -3.449329
  H      0.250787    0.865605   -2.488283
  H      1.940472   -1.716529   -1.441161
  H      3.558569   -1.663433   -0.766371

 Total Charge           Charge          ....    0
 Multiplicity           Mult            ....    1
 Number of Electrons    NEL             ....  112
 Basis Dimension        Dim             ....  404

ORBITAL ENERGIES
----------------

  NO   OCC          E(Eh)            E(eV)
   0   2.0000     -88.627913     -2411.6881
   1   2.0000     -24.533723      -667.5965
   2   2.0000     -18.919762      -514.8329
   3   2.0000     -18.906626      -514.4754
   4   2.0000     -14.101675      -383.7261
   5   2.0000     -10.062581      -273.8167
   6   2.0000     -10.033731      -273.0317
   7   2.0000     -10.009106      -272.3616
   8   2.0000     -10.006128      -272.2806
   9   2.0000     -10.004383      -272.2331
  10   2.0000     -10.003529      -272.2099
  11   2.0000      -9.997959      -272.0583
  12   2.0000      -9.923336      -270.0277
  13   2.0000      -7.987473      -217.3502
  14   2.0000      -5.977778      -162.6636
  15   2.0000      -5.971600      -162.4955
  16   2.0000      -5.969389      -162.4353
  17   2.0000      -1.278733       -34.7961
  18   2.0000      -1.041963       -28.3533
  19   2.0000      -0.945411       -25.7259
  20   2.0000      -0.847096       -23.0507
  21   2.0000      -0.777931       -21.1686
  22   2.0000      -0.737108       -20.0577
  23   2.0000      -0.697481       -18.9794
  24   2.0000      -0.670322       -18.2404
  25   2.0000      -0.649330       -17.6692
  26   2.0000      -0.622055       -16.9270
  27   2.0000      -0.579321       -15.7641
  28   2.0000      -0.545709       -14.8495
  29   2.0000      -0.526699       -14.3322
  30   2.0000      -0.520607       -14.1664
  31   2.0000      -0.510027       -13.8785
  32   2.0000      -0.493251       -13.4220
  33   2.0000      -0.465364       -12.6632
  34   2.0000      -0.453684       -12.3454
  35   2.0000      -0.449303       -12.2261
  36   2.0000      -0.431636       -11.7454
  37   2.0000      -0.421340       -11.4653
  38   2.0000      -0.414877       -11.2894
  39   2.0000      -0.402716       -10.9585
  40   2.0000      -0.396650       -10.7934
  41   2.0000      -0.378249       -10.2927
  42   2.0000      -0.365601        -9.9485
  43   2.0000      -0.352891        -9.6027
  44   2.0000      -0.346871        -9.4388
  45   2.0000      -0.343864        -9.3570
  46   2.0000      -0.329810        -8.9746
  47   2.0000      -0.322208        -8.7677
  48   2.0000      -0.311439        -8.4747
  49   2.0000      -0.297229        -8.0880
  50   2.0000      -0.294709        -8.0194
  51   2.0000      -0.290746        -7.9116
  52   2.0000      -0.284721        -7.7476
  53   2.0000      -0.270087        -7.3494
  54   2.0000      -0.264818        -7.2061
  55   2.0000      -0.156087        -4.2474
  56   0.0000      -0.027398        -0.7455
  57   0.0000       0.001088         0.0296
  58   0.0000       0.007370         0.2006
  59   0.0000       0.013802         0.3756
  60   0.0000       0.017420         0.4740

MULLIKEN ATOMIC CHARGES
-----------------------
   0 C :    0.409716
   1 C :    0.403149
   2 C :    0.095970
   3 H :    0.185999
   4 H :   -0.162991
   5 S :    1.351784
   6 C :   -0.555149
   7 N :    0.348409
   8 C :    0.583761
   9 H :   -0.006052
  10 H :   -0.454934
  11 H :   -0.014514
  12 H :   -0.243508
  13 O :   -0.704109
  14 O :   -0.648932
  15 C :    0.405770
  16 C :    0.206402
  17 H :    0.031983
  18 H :   -0.026422
  19 C :   -0.122543
  20 H :    0.007648
  21 H :   -0.105217
  22 F :   -0.452005
  23 H :    0.033726
  24 H :   -0.198315
  25 H :   -0.387785
  26 H :   -0.034193
  27 H :    0.291906
  28 H :   -0.239552
Sum of atomic charges:    0.0000000

LOEWDIN ATOMIC CHARGES
----------------------
   0 C :    0.032949
   1 C :   -0.025790
   2 C :   -0.020010
   3 H :    0.022574
   4 H :    0.013348
   5 S :    1.142113
   6 C :   -0.254348
   7 N :    0.204355
   8 C :    0.163457
   9 H :   -0.075505
  10 H :   -0.123415
  11 H :    0.004335
  12 H :   -0.050305
  13 O :   -0.465254
  14 O :   -0.433138
  15 C :   -0.004631
  16 C :   -0.008336
  17 H :    0.023493
  18 H :    0.029914
  19 C :   -0.014177
  20 H :    0.009812
  21 H :    0.013602
  22 F :   -0.246408
  23 H :   -0.006919
  24 H :    0.021657
  25 H :   -0.015911
  26 H :    0.029043
  27 H :    0.016628
  28 H :    0.016866

  Mayer bond orders larger than 0.100000
B(  0-C ,  6-C ) :   1.3178 B(  0-C ,  8-C ) :   0.1054 B(  0-C , 15-C ) :   1.1296
B(  0-C , 20-H ) :   0.1282 B(  0-C , 21-H ) :   0.2021 B(  0-C , 27-H ) :   0.7720
B(  0-C , 28-H ) :   0.6235 B(  1-C ,  2-C ) :   1.2496 B(  1-C ,  4-H ) :   0.2152
B(  1-C , 16-C ) :   1.2546 B(  1-C , 17-H ) :   0.6857 B(  1-C , 18-H ) :   0.7436
B(  2-C ,  3-H ) :   0.8575 B(  2-C ,  4-H ) :   0.9007 B(  2-C ,  5-S ) :   0.9387
B(  2-C , 17-H ) :   0.1080 B(  2-C , 18-H ) :   0.1533 B(  5-S , 13-O ) :   1.4255
B(  5-S , 14-O ) :   1.5281 B(  5-S , 22-F ) :   0.6493 B(  6-C ,  7-N ) :   0.9560
B(  6-C ,  8-C ) :   1.9773 B(  6-C ,  9-H ) :   0.1543 B(  6-C , 10-H ) :   0.5113
B(  6-C , 15-C ) :   0.2031 B(  6-C , 28-H ) :   0.3734 B(  7-N ,  8-C ) :   0.4647
B(  7-N ,  9-H ) :   0.1206 B(  7-N , 11-H ) :   0.9619 B(  7-N , 12-H ) :   0.9009
B(  8-C ,  9-H ) :   0.6058 B(  8-C , 10-H ) :   0.1761 B( 10-H , 12-H ) :   0.1604
B( 11-H , 12-H ) :  -0.1362 B( 12-H , 13-O ) :   0.1312 B( 13-O , 14-O ) :   0.1070
B( 15-C , 19-C ) :   1.2297 B( 15-C , 20-H ) :   0.6804 B( 15-C , 21-H ) :   0.8142
B( 15-C , 23-H ) :   0.1223 B( 15-C , 27-H ) :   0.1142 B( 16-C , 17-H ) :   0.2409
B( 16-C , 19-C ) :   1.2740 B( 16-C , 23-H ) :   0.1341 B( 16-C , 24-H ) :   0.1629
B( 16-C , 25-H ) :   0.9547 B( 16-C , 26-H ) :   0.6914 B( 19-C , 20-H ) :   0.2556
B( 19-C , 21-H ) :   0.1687 B( 19-C , 23-H ) :   0.8571 B( 19-C , 24-H ) :   0.8700
B( 19-C , 25-H ) :   0.1623 B( 19-C , 26-H ) :   0.1833 B( 20-H , 21-H ) :  -0.1235

Dispersion correction           -0.046127334
FINAL SINGLE POINT ENERGY     -1017.203023760909

DIPOLE MOMENT
-------------
                                X             Y             Z
Electronic contribution:     -0.38290      -5.37146     -18.68262
Nuclear contribution   :     -0.51418       6.96452      19.50670
                        -----------------------------------------
Total Dipole Moment    :     -0.89708       1.59306       0.82408
                        -----------------------------------------
Magnitude (a.u.)       :      2.00542
Magnitude (Debye)      :      5.09737

Rotational constants in cm-1:     0.036455     0.018603     0.015008
Rotational constants in MHz :  1092.895336   557.693628   449.926016

                             ****ORCA TERMINATED NORMALLY****
TOTAL RUN TIME: 0 days 0 hours 1 minutes 2 seconds 583 msec
