                         Program Version 5.0.0 -  RELEASE  -
|  1> !LC-BLYP RIJCOSX def2-SVPD def2/J TightSCF
|  2> *xyz -1 1
|  3> C         -0.05517        1.61942       -3.78858
|  4> C          1.22302        2.46987       -3.75691
|  5> H          1.11470        3.25807       -4.53300
|  6> H          1.23773        3.01124       -2.79216
|  7> O          2.35381        1.71203       -3.93448
|  8> H         -0.10198        1.08015       -4.71156
|  9> H         -0.91014        2.25726       -3.70441
| 10> H         -0.04403        0.92826       -2.97183
| 11> *
| 12>
| 13> %MaxCore 64000
| 14>
| 15> %pal nprocs 4
| 16> end
| 17>
| 18> %scf
| 19>   MaxIter 150
| 20> end
| 21>
| 22>
| 23>                          ****END OF INPUT****

CARTESIAN COORDINATES (ANGSTROEM)
---------------------------------
  C     -0.055170    1.619420   -3.788580
  C      1.223020    2.469870   -3.756910
  H      1.114700    3.258070   -4.533000
  H      1.237730    3.011240   -2.792160
  O      2.353810    1.712030   -3.934480
  H     -0.101980    1.080150   -4.711560
  H     -0.910140    2.257260   -3.704410
  H     -0.044030    0.928260   -2.971830

 Total Charge           Charge          ....   -1
 Multiplicity           Mult            ....    1
 Number of Electrons    NEL             ....   26
 Basis Dimension        Dim             ....  103

ORBITAL ENERGIES
----------------

  NO   OCC          E(Eh)            E(eV)
   0   2.0000     -18.622141      -506.7342
   1   2.0000      -9.900291      -269.4006
   2   2.0000      -9.877632      -268.7840
   3   2.0000      -0.765820       -20.8390
   4   2.0000      -0.627455       -17.0739
   5   2.0000      -0.474789       -12.9197
   6   2.0000      -0.358776        -9.7628
   7   2.0000      -0.332025        -9.0349
   8   2.0000      -0.277510        -7.5514
   9   2.0000      -0.257564        -7.0087
  10   2.0000      -0.210196        -5.7197
  11   2.0000      -0.065313        -1.7773
  12   2.0000      -0.063378        -1.7246
  13   0.0000       0.229659         6.2494
  14   0.0000       0.261187         7.1073
  15   0.0000       0.299945         8.1619
  16   0.0000       0.312751         8.5104
  17   0.0000       0.328541         8.9401

MULLIKEN ATOMIC CHARGES
-----------------------
   0 C :    0.539989
   1 C :    0.158091
   2 H :   -0.203600
   3 H :   -0.220410
   4 O :   -0.817330
   5 H :   -0.162176
   6 H :   -0.134937
   7 H :   -0.159628
Sum of atomic charges:   -1.0000000

LOEWDIN ATOMIC CHARGES
----------------------
   0 C :    0.050555
   1 C :   -0.285847
   2 H :   -0.025593
   3 H :   -0.027315
   4 O :   -0.580227
   5 H :   -0.037809
   6 H :   -0.055036
   7 H :   -0.038727

  Mayer bond orders larger than 0.100000
B(  0-C ,  1-C ) :   1.1647 B(  0-C ,  2-H ) :   0.1335 B(  0-C ,  3-H ) :   0.1324
B(  0-C ,  4-O ) :   0.1092 B(  0-C ,  5-H ) :   0.8581 B(  0-C ,  6-H ) :   0.8540
B(  0-C ,  7-H ) :   0.8578 B(  1-C ,  2-H ) :   0.9539 B(  1-C ,  3-H ) :   0.9613
B(  1-C ,  4-O ) :   1.2627 B(  1-C ,  5-H ) :   0.2041 B(  1-C ,  6-H ) :   0.1497
B(  1-C ,  7-H ) :   0.1961

FINAL SINGLE POINT ENERGY      -153.940691348609

DIPOLE MOMENT
-------------
                                X             Y             Z
Electronic contribution:      2.61583      -0.45624      -0.23235
Nuclear contribution   :     -4.28298       0.81046       0.39340
                        -----------------------------------------
Total Dipole Moment    :     -1.66714       0.35422       0.16105
                        -----------------------------------------
Magnitude (a.u.)       :      1.71195
Magnitude (Debye)      :      4.35144

Rotational constants in cm-1:     1.266793     0.328147     0.288309
Rotational constants in MHz : 37977.512300  9837.594308  8643.275638

                             ****ORCA TERMINATED NORMALLY****
TOTAL RUN TIME: 0 days 0 hours 0 minutes 11 seconds 195 msec
