                         Program Version 5.0.0 -  RELEASE  -
|  1> !LC-BLYP RIJCOSX def2-SVPD def2/J TightSCF
|  2> *xyz 1 1
|  3> C          1.63556       -1.67040       -5.29211
|  4> C          0.33848       -1.50091       -4.50540
|  5> N          2.48451       -0.50741       -5.14039
|  6> H          1.39834       -1.82924       -6.35259
|  7> H          2.15586       -2.56540       -4.93209
|  8> C          3.45115       -0.14953       -5.95259
|  9> N          3.92267        1.08956       -5.85071
| 10> N          3.96616       -1.00618       -6.86788
| 11> H          3.52139       -1.90647       -6.99527
| 12> H          4.44482       -0.62347       -7.67035
| 13> H          2.25200        0.24080       -4.49879
| 14> H          3.46428        1.64078       -5.13639
| 15> H          4.83447        1.31375       -6.22465
| 16> H         -0.17658       -0.62881       -4.85045
| 17> H          0.56384       -1.39374       -3.46490
| 18> H         -0.28102       -2.36136       -4.64938
| 19> *
| 20>
| 21> %MaxCore 64000
| 22>
| 23> %pal nprocs 4
| 24> end
| 25>
| 26> %scf
| 27>   MaxIter 150
| 28> end
| 29>
| 30>
| 31>                          ****END OF INPUT****

CARTESIAN COORDINATES (ANGSTROEM)
---------------------------------
  C      1.635560   -1.670400   -5.292110
  C      0.338480   -1.500910   -4.505400
  N      2.484510   -0.507410   -5.140390
  H      1.398340   -1.829240   -6.352590
  H      2.155860   -2.565400   -4.932090
  C      3.451150   -0.149530   -5.952590
  N      3.922670    1.089560   -5.850710
  N      3.966160   -1.006180   -6.867880
  H      3.521390   -1.906470   -6.995270
  H      4.444820   -0.623470   -7.670350
  H      2.252000    0.240800   -4.498790
  H      3.464280    1.640780   -5.136390
  H      4.834470    1.313750   -6.224650
  H     -0.176580   -0.628810   -4.850450
  H      0.563840   -1.393740   -3.464900
  H     -0.281020   -2.361360   -4.649380

 Total Charge           Charge          ....    1
 Multiplicity           Mult            ....    1
 Number of Electrons    NEL             ....   48
 Basis Dimension        Dim             ....  200

ORBITAL ENERGIES
----------------

  NO   OCC          E(Eh)            E(eV)
   0   2.0000     -14.416999      -392.3065
   1   2.0000     -14.412660      -392.1884
   2   2.0000     -14.411073      -392.1452
   3   2.0000     -10.422943      -283.6227
   4   2.0000     -10.295041      -280.1423
   5   2.0000     -10.225150      -278.2405
   6   2.0000      -1.315484       -35.7962
   7   2.0000      -1.202157       -32.7123
   8   2.0000      -1.188062       -32.3288
   9   2.0000      -1.041100       -28.3298
  10   2.0000      -0.934444       -25.4275
  11   2.0000      -0.921094       -25.0642
  12   2.0000      -0.884602       -24.0712
  13   2.0000      -0.850369       -23.1397
  14   2.0000      -0.793900       -21.6031
  15   2.0000      -0.788823       -21.4650
  16   2.0000      -0.772806       -21.0291
  17   2.0000      -0.746667       -20.3179
  18   2.0000      -0.711560       -19.3625
  19   2.0000      -0.649480       -17.6732
  20   2.0000      -0.632081       -17.1998
  21   2.0000      -0.621424       -16.9098
  22   2.0000      -0.579781       -15.7766
  23   2.0000      -0.551724       -15.0132
  24   0.0000      -0.095591        -2.6012
  25   0.0000      -0.094469        -2.5706
  26   0.0000      -0.066160        -1.8003
  27   0.0000      -0.051231        -1.3941
  28   0.0000      -0.031080        -0.8457

MULLIKEN ATOMIC CHARGES
-----------------------
   0 C :    0.116610
   1 C :    1.066380
   2 N :   -0.290708
   3 H :   -0.131903
   4 H :   -0.143482
   5 C :    0.842414
   6 N :    0.221152
   7 N :    0.137473
   8 H :   -0.056011
   9 H :   -0.110391
  10 H :   -0.115021
  11 H :   -0.010095
  12 H :   -0.134823
  13 H :   -0.116183
  14 H :   -0.110855
  15 H :   -0.164557
Sum of atomic charges:    1.0000000

LOEWDIN ATOMIC CHARGES
----------------------
   0 C :    0.004106
   1 C :    0.148775
   2 N :    0.052644
   3 H :    0.042961
   4 H :    0.048246
   5 C :   -0.062845
   6 N :    0.274039
   7 N :    0.292728
   8 H :    0.014682
   9 H :    0.036407
  10 H :    0.055879
  11 H :    0.033520
  12 H :    0.045003
  13 H :    0.001407
  14 H :    0.002556
  15 H :    0.009892

  Mayer bond orders larger than 0.100000
B(  0-C ,  1-C ) :   1.3083 B(  0-C ,  2-N ) :   1.0624 B(  0-C ,  3-H ) :   0.8120
B(  0-C ,  4-H ) :   0.8555 B(  0-C , 10-H ) :  -0.1206 B(  0-C , 13-H ) :   0.2520
B(  0-C , 14-H ) :   0.2865 B(  0-C , 15-H ) :   0.3411 B(  1-C , 13-H ) :   0.7142
B(  1-C , 14-H ) :   0.6524 B(  1-C , 15-H ) :   0.6587 B(  2-N ,  3-H ) :   0.1747
B(  2-N ,  4-H ) :   0.1580 B(  2-N ,  5-C ) :   1.1635 B(  2-N ,  6-N ) :   0.2792
B(  2-N ,  7-N ) :   0.2222 B(  2-N , 10-H ) :   1.1534 B(  5-C ,  6-N ) :   1.0486
B(  5-C ,  7-N ) :   1.0374 B(  5-C ,  8-H ) :  -0.1295 B(  5-C ,  9-H ) :  -0.1247
B(  5-C , 10-H ) :  -0.2403 B(  5-C , 12-H ) :  -0.1160 B(  6-N ,  7-N ) :   0.1511
B(  6-N , 11-H ) :   1.0725 B(  6-N , 12-H ) :   1.2109 B(  7-N ,  8-H ) :   1.0583
B(  7-N ,  9-H ) :   1.2134 B(  8-H ,  9-H ) :  -0.1628 B( 11-H , 12-H ) :  -0.1527

FINAL SINGLE POINT ENERGY      -283.479352945919

DIPOLE MOMENT
-------------
                                X             Y             Z
Electronic contribution:      4.70601       2.47717      -1.70688
Nuclear contribution   :     -3.96322      -1.85512       1.24891
                        -----------------------------------------
Total Dipole Moment    :      0.74279       0.62205      -0.45797
                        -----------------------------------------
Magnitude (a.u.)       :      1.07164
Magnitude (Debye)      :      2.72390

Rotational constants in cm-1:     0.261404     0.067000     0.054949
Rotational constants in MHz :  7836.702504  2008.609425  1647.329138

                             ****ORCA TERMINATED NORMALLY****
TOTAL RUN TIME: 0 days 0 hours 0 minutes 31 seconds 190 msec
