                         Program Version 5.0.0 -  RELEASE  -
|  1> !LC-BLYP RIJCOSX def2-SVPD def2/J TightSCF
|  2> *xyz 0 1
|  3> C         -0.05517        1.61942       -3.78858
|  4> C          1.22302        2.46987       -3.75691
|  5> H          1.11470        3.25807       -4.53300
|  6> H          1.23773        3.01124       -2.79216
|  7> F          2.35381        1.71203       -3.93448
|  8> H         -0.10198        1.08015       -4.71156
|  9> H         -0.91014        2.25726       -3.70441
| 10> H         -0.04403        0.92826       -2.97183
| 11> *
| 12>
| 13> %MaxCore 64000
| 14>
| 15> %pal nprocs 4
| 16> end
| 17>
| 18> %scf
| 19>   MaxIter 150
| 20> end
| 21>
| 22>
| 23>                          ****END OF INPUT****

CARTESIAN COORDINATES (ANGSTROEM)
---------------------------------
  C     -0.055170    1.619420   -3.788580
  C      1.223020    2.469870   -3.756910
  H      1.114700    3.258070   -4.533000
  H      1.237730    3.011240   -2.792160
  F      2.353810    1.712030   -3.934480
  H     -0.101980    1.080150   -4.711560
  H     -0.910140    2.257260   -3.704410
  H     -0.044030    0.928260   -2.971830

 Total Charge           Charge          ....    0
 Multiplicity           Mult            ....    1
 Number of Electrons    NEL             ....   26
 Basis Dimension        Dim             ....  103

ORBITAL ENERGIES
----------------

  NO   OCC          E(Eh)            E(eV)
   0   2.0000     -24.463636      -665.6894
   1   2.0000     -10.166857      -276.6543
   2   2.0000     -10.083076      -274.3744
   3   2.0000      -1.264268       -34.4025
   4   2.0000      -0.869805       -23.6686
   5   2.0000      -0.735283       -20.0081
   6   2.0000      -0.615811       -16.7571
   7   2.0000      -0.605627       -16.4800
   8   2.0000      -0.564027       -15.3480
   9   2.0000      -0.507636       -13.8135
  10   2.0000      -0.502951       -13.6860
  11   2.0000      -0.438409       -11.9297
  12   2.0000      -0.431155       -11.7323
  13   0.0000       0.073921         2.0115
  14   0.0000       0.104562         2.8453
  15   0.0000       0.134550         3.6613
  16   0.0000       0.139314         3.7909
  17   0.0000       0.168183         4.5765

MULLIKEN ATOMIC CHARGES
-----------------------
   0 C :    0.595826
   1 C :    0.462525
   2 H :   -0.128717
   3 H :   -0.146663
   4 F :   -0.375618
   5 H :   -0.146321
   6 H :   -0.119612
   7 H :   -0.141420
Sum of atomic charges:    0.0000000

LOEWDIN ATOMIC CHARGES
----------------------
   0 C :    0.124139
   1 C :    0.033317
   2 H :    0.037311
   3 H :    0.034773
   4 F :   -0.200156
   5 H :   -0.009712
   6 H :   -0.009095
   7 H :   -0.010576

  Mayer bond orders larger than 0.100000
B(  0-C ,  1-C ) :   1.3178 B(  0-C ,  5-H ) :   0.8411 B(  0-C ,  6-H ) :   0.8136
B(  0-C ,  7-H ) :   0.8439 B(  1-C ,  2-H ) :   0.9149 B(  1-C ,  3-H ) :   0.9191
B(  1-C ,  4-F ) :   0.8641 B(  1-C ,  5-H ) :   0.1688 B(  1-C ,  6-H ) :   0.1405
B(  1-C ,  7-H ) :   0.1621

FINAL SINGLE POINT ENERGY      -178.540390533493

DIPOLE MOMENT
-------------
                                X             Y             Z
Electronic contribution:      4.98493      -0.71343      -0.42686
Nuclear contribution   :     -5.66833       1.07099       0.52006
                        -----------------------------------------
Total Dipole Moment    :     -0.68340       0.35756       0.09320
                        -----------------------------------------
Magnitude (a.u.)       :      0.77689
Magnitude (Debye)      :      1.97471

Rotational constants in cm-1:     1.245689     0.305293     0.269541
Rotational constants in MHz : 37344.801915  9152.442838  8080.640229

                             ****ORCA TERMINATED NORMALLY****
TOTAL RUN TIME: 0 days 0 hours 0 minutes 11 seconds 322 msec
