                         Program Version 5.0.0 -  RELEASE  -
|  1> !LC-BLYP RIJCOSX def2-SVPD def2/J TightSCF
|  2> *xyz 0 1
|  3> C          1.63556       -1.67040       -5.29211
|  4> C          0.33848       -1.50091       -4.50540
|  5> C          2.48451       -0.50741       -5.14039
|  6> H          1.39834       -1.82924       -6.35259
|  7> H          2.15586       -2.56540       -4.93209
|  8> C          3.45115       -0.14953       -5.95259
|  9> N          3.92267        1.08956       -5.85071
| 10> N          3.96616       -1.00618       -6.86788
| 11> H          3.52139       -1.90647       -6.99527
| 12> H          4.44482       -0.62347       -7.67035
| 13> H          2.25200        0.24080       -4.49879
| 14> H          3.46428        1.64078       -5.13639
| 15> H          4.83447        1.31375       -6.22465
| 16> H         -0.17658       -0.62881       -4.85045
| 17> H          0.56384       -1.39374       -3.46490
| 18> H         -0.28102       -2.36136       -4.64938
| 19> *
| 20>
| 21> %MaxCore 64000
| 22>
| 23> %pal nprocs 4
| 24> end
| 25>
| 26> %scf
| 27>   MaxIter 150
| 28> end
| 29>
| 30>
| 31>                          ****END OF INPUT****

CARTESIAN COORDINATES (ANGSTROEM)
---------------------------------
  C      1.635560   -1.670400   -5.292110
  C      0.338480   -1.500910   -4.505400
  C      2.484510   -0.507410   -5.140390
  H      1.398340   -1.829240   -6.352590
  H      2.155860   -2.565400   -4.932090
  C      3.451150   -0.149530   -5.952590
  N      3.922670    1.089560   -5.850710
  N      3.966160   -1.006180   -6.867880
  H      3.521390   -1.906470   -6.995270
  H      4.444820   -0.623470   -7.670350
  H      2.252000    0.240800   -4.498790
  H      3.464280    1.640780   -5.136390
  H      4.834470    1.313750   -6.224650
  H     -0.176580   -0.628810   -4.850450
  H      0.563840   -1.393740   -3.464900
  H     -0.281020   -2.361360   -4.649380

 Total Charge           Charge          ....    0
 Multiplicity           Mult            ....    1
 Number of Electrons    NEL             ....   48
 Basis Dimension        Dim             ....  200

ORBITAL ENERGIES
----------------

  NO   OCC          E(Eh)            E(eV)
   0   2.0000     -14.189838      -386.1251
   1   2.0000     -14.184239      -385.9728
   2   2.0000     -10.126615      -275.5592
   3   2.0000     -10.063160      -273.8325
   4   2.0000     -10.054431      -273.5950
   5   2.0000     -10.009392      -272.3694
   6   2.0000      -1.052562       -28.6417
   7   2.0000      -0.963536       -26.2192
   8   2.0000      -0.880565       -23.9614
   9   2.0000      -0.800607       -21.7856
  10   2.0000      -0.714706       -19.4481
  11   2.0000      -0.685944       -18.6655
  12   2.0000      -0.639394       -17.3988
  13   2.0000      -0.616739       -16.7823
  14   2.0000      -0.568099       -15.4588
  15   2.0000      -0.549491       -14.9524
  16   2.0000      -0.532646       -14.4940
  17   2.0000      -0.502166       -13.6646
  18   2.0000      -0.482886       -13.1400
  19   2.0000      -0.441767       -12.0211
  20   2.0000      -0.430734       -11.7209
  21   2.0000      -0.429533       -11.6882
  22   2.0000      -0.365571        -9.9477
  23   2.0000      -0.257576        -7.0090
  24   0.0000       0.073596         2.0026
  25   0.0000       0.094511         2.5718
  26   0.0000       0.099057         2.6955
  27   0.0000       0.124207         3.3798
  28   0.0000       0.133849         3.6422

MULLIKEN ATOMIC CHARGES
-----------------------
   0 C :   -0.076165
   1 C :    1.230542
   2 C :   -0.073101
   3 H :   -0.233913
   4 H :   -0.152096
   5 C :    0.257060
   6 N :    0.252614
   7 N :    0.133663
   8 H :   -0.050385
   9 H :   -0.203797
  10 H :   -0.490832
  11 H :    0.037288
  12 H :   -0.242846
  13 H :   -0.088705
  14 H :   -0.087142
  15 H :   -0.212185
Sum of atomic charges:   -0.0000000

LOEWDIN ATOMIC CHARGES
----------------------
   0 C :   -0.127107
   1 C :    0.099967
   2 C :   -0.045455
   3 H :    0.021932
   4 H :    0.024374
   5 C :   -0.247569
   6 N :    0.186362
   7 N :    0.215733
   8 H :   -0.017537
   9 H :   -0.013489
  10 H :   -0.047051
  11 H :   -0.000021
  12 H :   -0.008225
  13 H :   -0.011092
  14 H :   -0.011090
  15 H :   -0.019731

  Mayer bond orders larger than 0.100000
B(  0-C ,  1-C ) :   1.1788 B(  0-C ,  2-C ) :   1.0251 B(  0-C ,  3-H ) :   0.7989
B(  0-C ,  4-H ) :   0.6887 B(  0-C , 10-H ) :   0.2459 B(  0-C , 13-H ) :   0.2627
B(  0-C , 14-H ) :   0.2778 B(  0-C , 15-H ) :   0.3944 B(  1-C ,  2-C ) :   0.1374
B(  1-C , 10-H ) :  -0.1412 B(  1-C , 13-H ) :   0.6943 B(  1-C , 14-H ) :   0.6520
B(  1-C , 15-H ) :   0.5721 B(  2-C ,  3-H ) :   0.1466 B(  2-C ,  4-H ) :   0.2818
B(  2-C ,  5-C ) :   1.6142 B(  2-C ,  6-N ) :   0.3543 B(  2-C ,  7-N ) :   0.2474
B(  2-C ,  8-H ) :  -0.1303 B(  2-C , 10-H ) :   0.7644 B(  2-C , 11-H ) :  -0.1006
B(  3-H , 10-H ) :   0.1528 B(  5-C ,  6-N ) :   1.0323 B(  5-C ,  7-N ) :   1.0640
B(  6-N ,  7-N ) :   0.1023 B(  6-N , 11-H ) :   1.0468 B(  6-N , 12-H ) :   1.1942
B(  7-N ,  8-H ) :   1.0597 B(  7-N ,  9-H ) :   1.1964 B(  8-H ,  9-H ) :  -0.1398
B( 11-H , 12-H ) :  -0.1528

FINAL SINGLE POINT ENERGY      -267.016597825337

DIPOLE MOMENT
-------------
                                X             Y             Z
Electronic contribution:      4.50271       2.14502      -1.89620
Nuclear contribution   :     -3.99655      -1.83277       1.34879
                        -----------------------------------------
Total Dipole Moment    :      0.50617       0.31225      -0.54742
                        -----------------------------------------
Magnitude (a.u.)       :      0.80831
Magnitude (Debye)      :      2.05457

Rotational constants in cm-1:     0.262971     0.067064     0.055026
Rotational constants in MHz :  7883.664566  2010.513309  1649.636654

                             ****ORCA TERMINATED NORMALLY****
TOTAL RUN TIME: 0 days 0 hours 0 minutes 35 seconds 427 msec
