                         Program Version 5.0.0 -  RELEASE  -
|  1> !LC-BLYP RIJCOSX def2-SVPD def2/J TightSCF
|  2> *xyz 0 1
|  3> C          1.63556       -1.67040       -5.29211
|  4> C          0.33848       -1.50091       -4.50540
|  5> N          2.48451       -0.50741       -5.14039
|  6> H          1.39834       -1.82924       -6.35259
|  7> H          2.15586       -2.56540       -4.93209
|  8> C          3.45115       -0.14953       -5.95259
|  9> C          3.92267        1.08956       -5.85071
| 10> N          3.96616       -1.00618       -6.86788
| 11> H          3.52139       -1.90647       -6.99527
| 12> H          4.44482       -0.62347       -7.67035
| 13> H          2.25200        0.24080       -4.49879
| 14> H          3.46428        1.64078       -5.13639
| 15> H          4.83447        1.31375       -6.22465
| 16> H         -0.17658       -0.62881       -4.85045
| 17> H          0.56384       -1.39374       -3.46490
| 18> H         -0.28102       -2.36136       -4.64938
| 19> *
| 20>
| 21> %MaxCore 64000
| 22>
| 23> %pal nprocs 4
| 24> end
| 25>
| 26> %scf
| 27>   MaxIter 150
| 28> end
| 29>
| 30>
| 31>                          ****END OF INPUT****

CARTESIAN COORDINATES (ANGSTROEM)
---------------------------------
  C      1.635560   -1.670400   -5.292110
  C      0.338480   -1.500910   -4.505400
  N      2.484510   -0.507410   -5.140390
  H      1.398340   -1.829240   -6.352590
  H      2.155860   -2.565400   -4.932090
  C      3.451150   -0.149530   -5.952590
  C      3.922670    1.089560   -5.850710
  N      3.966160   -1.006180   -6.867880
  H      3.521390   -1.906470   -6.995270
  H      4.444820   -0.623470   -7.670350
  H      2.252000    0.240800   -4.498790
  H      3.464280    1.640780   -5.136390
  H      4.834470    1.313750   -6.224650
  H     -0.176580   -0.628810   -4.850450
  H      0.563840   -1.393740   -3.464900
  H     -0.281020   -2.361360   -4.649380

 Total Charge           Charge          ....    0
 Multiplicity           Mult            ....    1
 Number of Electrons    NEL             ....   48
 Basis Dimension        Dim             ....  200

ORBITAL ENERGIES
----------------

  NO   OCC          E(Eh)            E(eV)
   0   2.0000     -14.188537      -386.0897
   1   2.0000     -14.188270      -386.0825
   2   2.0000     -10.131505      -275.6923
   3   2.0000     -10.127757      -275.5903
   4   2.0000     -10.086332      -274.4631
   5   2.0000      -9.995378      -271.9881
   6   2.0000      -1.065505       -28.9939
   7   2.0000      -0.977783       -26.6068
   8   2.0000      -0.882967       -24.0267
   9   2.0000      -0.805853       -21.9284
  10   2.0000      -0.731748       -19.9119
  11   2.0000      -0.702090       -19.1048
  12   2.0000      -0.642161       -17.4741
  13   2.0000      -0.601081       -16.3562
  14   2.0000      -0.589879       -16.0514
  15   2.0000      -0.565826       -15.3969
  16   2.0000      -0.522422       -14.2158
  17   2.0000      -0.502177       -13.6649
  18   2.0000      -0.481600       -13.1050
  19   2.0000      -0.477741       -13.0000
  20   2.0000      -0.475347       -12.9348
  21   2.0000      -0.451577       -12.2880
  22   2.0000      -0.358098        -9.7443
  23   2.0000      -0.256381        -6.9765
  24   0.0000       0.066886         1.8201
  25   0.0000       0.086326         2.3491
  26   0.0000       0.096958         2.6384
  27   0.0000       0.126670         3.4469
  28   0.0000       0.136595         3.7169

MULLIKEN ATOMIC CHARGES
-----------------------
   0 C :    0.125326
   1 C :    1.074765
   2 N :   -0.182871
   3 H :   -0.184222
   4 H :   -0.214055
   5 C :    0.345094
   6 C :    0.641153
   7 N :    0.203196
   8 H :   -0.181544
   9 H :   -0.097684
  10 H :   -0.136966
  11 H :   -0.346347
  12 H :   -0.575751
  13 H :   -0.142178
  14 H :   -0.133590
  15 H :   -0.194328
Sum of atomic charges:    0.0000000

LOEWDIN ATOMIC CHARGES
----------------------
   0 C :   -0.026549
   1 C :    0.119143
   2 N :   -0.008379
   3 H :    0.025000
   4 H :    0.025494
   5 C :   -0.251229
   6 C :    0.131945
   7 N :    0.212774
   8 H :   -0.029808
   9 H :    0.002848
  10 H :    0.029244
  11 H :   -0.103118
  12 H :   -0.097127
  13 H :   -0.008755
  14 H :   -0.010189
  15 H :   -0.011295

  Mayer bond orders larger than 0.100000
B(  0-C ,  1-C ) :   1.2678 B(  0-C ,  2-N ) :   1.0274 B(  0-C ,  3-H ) :   0.8329
B(  0-C ,  4-H ) :   0.8630 B(  0-C , 10-H ) :  -0.1336 B(  0-C , 13-H ) :   0.2739
B(  0-C , 14-H ) :   0.2964 B(  0-C , 15-H ) :   0.3498 B(  1-C , 13-H ) :   0.7050
B(  1-C , 14-H ) :   0.6516 B(  1-C , 15-H ) :   0.6501 B(  2-N ,  3-H ) :   0.1627
B(  2-N ,  4-H ) :   0.1891 B(  2-N ,  5-C ) :   1.2182 B(  2-N ,  6-C ) :   0.2661
B(  2-N ,  7-N ) :   0.1267 B(  2-N , 10-H ) :   1.1185 B(  5-C ,  6-C ) :   1.5867
B(  5-C ,  7-N ) :   1.0005 B(  5-C ,  9-H ) :  -0.1064 B(  5-C , 10-H ) :  -0.1779
B(  5-C , 11-H ) :   0.2511 B(  5-C , 12-H ) :   0.3015 B(  6-C ,  7-N ) :   0.2463
B(  6-C , 11-H ) :   0.7596 B(  6-C , 12-H ) :   0.5339 B(  7-N ,  8-H ) :   1.0485
B(  7-N ,  9-H ) :   1.1768 B(  8-H ,  9-H ) :  -0.1540

FINAL SINGLE POINT ENERGY      -267.005121886163

DIPOLE MOMENT
-------------
                                X             Y             Z
Electronic contribution:      2.95595       0.55873      -1.29245
Nuclear contribution   :     -3.69145      -1.49398       1.19810
                        -----------------------------------------
Total Dipole Moment    :     -0.73550      -0.93525      -0.09435
                        -----------------------------------------
Magnitude (a.u.)       :      1.19355
Magnitude (Debye)      :      3.03377

Rotational constants in cm-1:     0.270790     0.068966     0.056679
Rotational constants in MHz :  8118.084803  2067.559423  1699.196934

                             ****ORCA TERMINATED NORMALLY****
TOTAL RUN TIME: 0 days 0 hours 0 minutes 34 seconds 548 msec
