                         Program Version 5.0.0 -  RELEASE  -
|  1> !LC-BLYP RIJCOSX def2-SVPD def2/J TightSCF
|  2> *xyz 0 1
|  3> C          1.63556       -1.67040       -5.29211
|  4> C          0.33848       -1.50091       -4.50540
|  5> N          2.48451       -0.50741       -5.14039
|  6> H          1.39834       -1.82924       -6.35259
|  7> H          2.15586       -2.56540       -4.93209
|  8> C          3.45115       -0.14953       -5.95259
|  9> N          3.92267        1.08956       -5.85071
| 10> C          3.96616       -1.00618       -6.86788
| 11> H          3.52139       -1.90647       -6.99527
| 12> H          4.44482       -0.62347       -7.67035
| 13> H          2.25200        0.24080       -4.49879
| 14> H          3.46428        1.64078       -5.13639
| 15> H          4.83447        1.31375       -6.22465
| 16> H         -0.17658       -0.62881       -4.85045
| 17> H          0.56384       -1.39374       -3.46490
| 18> H         -0.28102       -2.36136       -4.64938
| 19> *
| 20>
| 21> %MaxCore 64000
| 22>
| 23> %pal nprocs 4
| 24> end
| 25>
| 26> %scf
| 27>   MaxIter 150
| 28> end
| 29>
| 30>
| 31>                          ****END OF INPUT****

CARTESIAN COORDINATES (ANGSTROEM)
---------------------------------
  C      1.635560   -1.670400   -5.292110
  C      0.338480   -1.500910   -4.505400
  N      2.484510   -0.507410   -5.140390
  H      1.398340   -1.829240   -6.352590
  H      2.155860   -2.565400   -4.932090
  C      3.451150   -0.149530   -5.952590
  N      3.922670    1.089560   -5.850710
  C      3.966160   -1.006180   -6.867880
  H      3.521390   -1.906470   -6.995270
  H      4.444820   -0.623470   -7.670350
  H      2.252000    0.240800   -4.498790
  H      3.464280    1.640780   -5.136390
  H      4.834470    1.313750   -6.224650
  H     -0.176580   -0.628810   -4.850450
  H      0.563840   -1.393740   -3.464900
  H     -0.281020   -2.361360   -4.649380

 Total Charge           Charge          ....    0
 Multiplicity           Mult            ....    1
 Number of Electrons    NEL             ....   48
 Basis Dimension        Dim             ....  200

ORBITAL ENERGIES
----------------

  NO   OCC          E(Eh)            E(eV)
   0   2.0000     -14.195265      -386.2728
   1   2.0000     -14.190320      -386.1382
   2   2.0000     -10.133340      -275.7422
   3   2.0000     -10.120635      -275.3965
   4   2.0000     -10.082484      -274.3583
   5   2.0000      -9.997744      -272.0524
   6   2.0000      -1.073840       -29.2207
   7   2.0000      -0.983339       -26.7580
   8   2.0000      -0.868277       -23.6270
   9   2.0000      -0.807312       -21.9681
  10   2.0000      -0.749897       -20.4057
  11   2.0000      -0.672873       -18.3098
  12   2.0000      -0.642338       -17.4789
  13   2.0000      -0.628367       -17.0987
  14   2.0000      -0.584400       -15.9023
  15   2.0000      -0.571265       -15.5449
  16   2.0000      -0.508346       -13.8328
  17   2.0000      -0.497256       -13.5310
  18   2.0000      -0.495907       -13.4943
  19   2.0000      -0.472315       -12.8523
  20   2.0000      -0.462610       -12.5883
  21   2.0000      -0.451438       -12.2843
  22   2.0000      -0.350912        -9.5488
  23   2.0000      -0.261445        -7.1143
  24   0.0000       0.067301         1.8313
  25   0.0000       0.084095         2.2883
  26   0.0000       0.099571         2.7095
  27   0.0000       0.124839         3.3971
  28   0.0000       0.135148         3.6776

MULLIKEN ATOMIC CHARGES
-----------------------
   0 C :    0.141477
   1 C :    1.073515
   2 N :   -0.228958
   3 H :   -0.135734
   4 H :   -0.166347
   5 C :    0.201643
   6 N :    0.310279
   7 C :    0.621313
   8 H :   -0.229873
   9 H :   -0.557789
  10 H :   -0.251564
  11 H :   -0.161421
  12 H :   -0.140318
  13 H :   -0.141103
  14 H :   -0.140515
  15 H :   -0.194604
Sum of atomic charges:   -0.0000000

LOEWDIN ATOMIC CHARGES
----------------------
   0 C :   -0.014607
   1 C :    0.116308
   2 N :   -0.009001
   3 H :    0.032029
   4 H :    0.033522
   5 C :   -0.260768
   6 N :    0.197823
   7 C :    0.153456
   8 H :   -0.122218
   9 H :   -0.105842
  10 H :    0.018409
  11 H :   -0.014358
  12 H :    0.011205
  13 H :   -0.011919
  14 H :   -0.013379
  15 H :   -0.010660

  Mayer bond orders larger than 0.100000
B(  0-C ,  1-C ) :   1.2668 B(  0-C ,  2-N ) :   1.0720 B(  0-C ,  3-H ) :   0.8143
B(  0-C ,  4-H ) :   0.8516 B(  0-C , 10-H ) :  -0.1236 B(  0-C , 13-H ) :   0.2547
B(  0-C , 14-H ) :   0.2997 B(  0-C , 15-H ) :   0.3427 B(  1-C , 13-H ) :   0.7165
B(  1-C , 14-H ) :   0.6393 B(  1-C , 15-H ) :   0.6487 B(  2-N ,  3-H ) :   0.1941
B(  2-N ,  4-H ) :   0.1563 B(  2-N ,  5-C ) :   1.2105 B(  2-N ,  6-N ) :   0.1913
B(  2-N ,  7-C ) :   0.3530 B(  2-N , 10-H ) :   1.1637 B(  5-C ,  6-N ) :   1.0161
B(  5-C ,  7-C ) :   1.7732 B(  5-C ,  8-H ) :   0.3168 B(  5-C ,  9-H ) :   0.2510
B(  5-C , 10-H ) :  -0.2318 B(  6-N ,  7-C ) :   0.2609 B(  6-N , 11-H ) :   1.0645
B(  6-N , 12-H ) :   1.2016 B(  7-C ,  8-H ) :   0.6227 B(  7-C ,  9-H ) :   0.6128
B(  8-H ,  9-H ) :   0.2192 B( 11-H , 12-H ) :  -0.1430

FINAL SINGLE POINT ENERGY      -267.006013125162

DIPOLE MOMENT
-------------
                                X             Y             Z
Electronic contribution:      3.02877       2.60795      -0.21525
Nuclear contribution   :     -3.68222      -1.93858       0.98231
                        -----------------------------------------
Total Dipole Moment    :     -0.65345       0.66937       0.76706
                        -----------------------------------------
Magnitude (a.u.)       :      1.20972
Magnitude (Debye)      :      3.07487

Rotational constants in cm-1:     0.275407     0.068040     0.056255
Rotational constants in MHz :  8256.498401  2039.796466  1686.484500

                             ****ORCA TERMINATED NORMALLY****
TOTAL RUN TIME: 0 days 0 hours 0 minutes 35 seconds 427 msec
