                         Program Version 5.0.0 -  RELEASE  -
|  1> !LC-BLYP RIJCOSX def2-SVPD def2/J TightSCF xyzfile
|  2>
|  3> *xyzfile 0 1 D2.xyz
|  4>
|  5> %MaxCore 64000
|  6>
|  7> %pal nprocs 4
|  8> end
|  9>
| 10> %scf
| 11>   MaxIter 150
| 12> end
| 13>
| 14>
| 15>                          ****END OF INPUT****

CARTESIAN COORDINATES (ANGSTROEM)
---------------------------------
  C      1.635557   -1.670396   -5.292109
  C      0.338484   -1.500907   -4.505398
  N      2.484511   -0.507410   -5.140392
  C     -0.684873   -0.528026   -5.099889
  C     -0.290406    0.951335   -5.153423
  H      0.607991    1.070692   -5.764412
  C     -0.055168    1.619420   -3.788577
  H     -1.080912    1.483775   -5.689436
  H      0.045006    0.862302   -3.003015
  H     -0.922936    2.230329   -3.517028
  C      1.223022    2.469865   -3.756911
  H      1.114701    3.258074   -4.532999
  H      1.237732    3.011242   -2.792157
  F      2.353815    1.712032   -3.934477
  H      1.398337   -1.829239   -6.352591
  H      2.155864   -2.565398   -4.932091
  C      3.451149   -0.149530   -5.952589
  C      3.922667    1.089559   -5.850711
  N      3.966162   -1.006183   -6.867880
  H      3.521391   -1.906467   -6.995270
  H      4.444824   -0.623472   -7.670348
  H      2.251995    0.240804   -4.498792
  H      3.464277    1.640782   -5.136392
  H      4.834470    1.313745   -6.224653
  H     -0.937999   -0.869056   -6.110838
  H     -1.604638   -0.622496   -4.513132
  H      0.594887   -1.211578   -3.482312
  H     -0.126530   -2.487656   -4.434176

 Total Charge           Charge          ....    0
 Multiplicity           Mult            ....    1
 Number of Electrons    NEL             ....   88
 Basis Dimension        Dim             ....  359

ORBITAL ENERGIES
----------------

  NO   OCC          E(Eh)            E(eV)
   0   2.0000     -24.492030      -666.4620
   1   2.0000     -14.173361      -385.6768
   2   2.0000     -14.159805      -385.3079
   3   2.0000     -10.176804      -276.9249
   4   2.0000     -10.113179      -275.1936
   5   2.0000     -10.112621      -275.1784
   6   2.0000     -10.100828      -274.8575
   7   2.0000     -10.089027      -274.5364
   8   2.0000     -10.088614      -274.5252
   9   2.0000     -10.086759      -274.4747
  10   2.0000      -9.969076      -271.2723
  11   2.0000      -1.301099       -35.4047
  12   2.0000      -1.047430       -28.5020
  13   2.0000      -0.963810       -26.2266
  14   2.0000      -0.923820       -25.1384
  15   2.0000      -0.880955       -23.9720
  16   2.0000      -0.842419       -22.9234
  17   2.0000      -0.787918       -21.4403
  18   2.0000      -0.755907       -20.5693
  19   2.0000      -0.727185       -19.7877
  20   2.0000      -0.690684       -18.7945
  21   2.0000      -0.672663       -18.3041
  22   2.0000      -0.652638       -17.7592
  23   2.0000      -0.624817       -17.0021
  24   2.0000      -0.616064       -16.7640
  25   2.0000      -0.609877       -16.5956
  26   2.0000      -0.590695       -16.0736
  27   2.0000      -0.580791       -15.8041
  28   2.0000      -0.554844       -15.0981
  29   2.0000      -0.545036       -14.8312
  30   2.0000      -0.527019       -14.3409
  31   2.0000      -0.514040       -13.9878
  32   2.0000      -0.501499       -13.6465
  33   2.0000      -0.483771       -13.1641
  34   2.0000      -0.471493       -12.8300
  35   2.0000      -0.464491       -12.6394
  36   2.0000      -0.454672       -12.3723
  37   2.0000      -0.447630       -12.1806
  38   2.0000      -0.431495       -11.7416
  39   2.0000      -0.421736       -11.4760
  40   2.0000      -0.419703       -11.4207
  41   2.0000      -0.417220       -11.3531
  42   2.0000      -0.338918        -9.2224
  43   2.0000      -0.237614        -6.4658
  44   0.0000       0.067634         1.8404
  45   0.0000       0.077443         2.1073
  46   0.0000       0.087232         2.3737
  47   0.0000       0.090604         2.4655
  48   0.0000       0.109886         2.9902

MULLIKEN ATOMIC CHARGES
-----------------------
   0 C :    0.771336
   1 C :    0.379053
   2 N :    0.156622
   3 C :    0.351540
   4 C :    0.324497
   5 H :   -0.031473
   6 C :    0.230457
   7 H :   -0.386112
   8 H :   -0.154039
   9 H :   -0.272448
  10 C :    1.088572
  11 H :   -0.150039
  12 H :   -0.163465
  13 F :   -0.743794
  14 H :   -0.076883
  15 H :   -0.329355
  16 C :    0.476412
  17 C :    0.945850
  18 N :    0.206585
  19 H :   -0.115022
  20 H :   -0.105248
  21 H :   -0.596878
  22 H :   -0.533897
  23 H :   -0.677663
  24 H :    0.018398
  25 H :   -0.212963
  26 H :   -0.115288
  27 H :   -0.284753
Sum of atomic charges:    0.0000000

LOEWDIN ATOMIC CHARGES
----------------------
   0 C :    0.027161
   1 C :   -0.035100
   2 N :    0.015012
   3 C :   -0.036670
   4 C :   -0.030544
   5 H :    0.015562
   6 C :   -0.011921
   7 H :    0.025280
   8 H :    0.019827
   9 H :    0.035634
  10 C :    0.133586
  11 H :    0.055580
  12 H :    0.043659
  13 F :   -0.195648
  14 H :    0.025281
  15 H :    0.023570
  16 C :   -0.228775
  17 C :    0.155897
  18 N :    0.210290
  19 H :   -0.032660
  20 H :   -0.000443
  21 H :   -0.063220
  22 H :   -0.157503
  23 H :   -0.097078
  24 H :    0.029891
  25 H :    0.027197
  26 H :    0.019008
  27 H :    0.027126

  Mayer bond orders larger than 0.100000
B(  0-C ,  1-C ) :   1.1979 B(  0-C ,  2-N ) :   1.0390 B(  0-C , 14-H ) :   0.7082
B(  0-C , 15-H ) :   0.7974 B(  0-C , 21-H ) :  -0.2123 B(  0-C , 26-H ) :   0.1603
B(  0-C , 27-H ) :   0.2401 B(  1-C ,  3-C ) :   1.2051 B(  1-C ,  4-C ) :   0.1322
B(  1-C , 24-H ) :   0.1772 B(  1-C , 25-H ) :   0.2233 B(  1-C , 26-H ) :   0.7074
B(  1-C , 27-H ) :   0.6899 B(  2-N , 14-H ) :   0.3638 B(  2-N , 15-H ) :   0.1875
B(  2-N , 16-C ) :   1.0797 B(  2-N , 17-C ) :   0.3089 B(  2-N , 18-N ) :   0.1447
B(  2-N , 21-H ) :   0.9600 B(  3-C ,  4-C ) :   1.2910 B(  3-C ,  5-H ) :   0.1756
B(  3-C ,  6-C ) :   0.1031 B(  3-C ,  7-H ) :   0.1396 B(  3-C , 24-H ) :   0.6137
B(  3-C , 25-H ) :   0.7713 B(  3-C , 26-H ) :   0.1807 B(  3-C , 27-H ) :   0.1472
B(  4-C ,  5-H ) :   0.7974 B(  4-C ,  6-C ) :   1.1874 B(  4-C ,  7-H ) :   0.7100
B(  4-C ,  8-H ) :   0.1266 B(  4-C ,  9-H ) :   0.1942 B(  4-C , 10-C ) :   0.1183
B(  4-C , 24-H ) :   0.2711 B(  4-C , 25-H ) :   0.1236 B(  5-H ,  6-C ) :   0.1019
B(  5-H ,  7-H ) :  -0.1238 B(  6-C ,  7-H ) :   0.1069 B(  6-C ,  8-H ) :   0.8164
B(  6-C ,  9-H ) :   0.8439 B(  6-C , 10-C ) :   1.1577 B(  6-C , 11-H ) :   0.1146
B(  6-C , 12-H ) :   0.2145 B(  6-C , 13-F ) :   0.1097 B(  8-H ,  9-H ) :  -0.1058
B( 10-C , 11-H ) :   0.7808 B( 10-C , 12-H ) :   0.7431 B( 10-C , 13-F ) :   0.7229
B( 11-H , 13-F ) :   0.2481 B( 13-F , 21-H ) :   0.1612 B( 13-F , 22-H ) :   0.2675
B( 14-H , 15-H ) :  -0.1074 B( 14-H , 25-H ) :  -0.1197 B( 16-C , 17-C ) :   1.4956
B( 16-C , 18-N ) :   0.8843 B( 16-C , 20-H ) :  -0.1353 B( 16-C , 21-H ) :  -0.4750
B( 16-C , 22-H ) :   0.3072 B( 16-C , 23-H ) :   0.4639 B( 17-C , 18-N ) :   0.3238
B( 17-C , 22-H ) :   0.4711 B( 17-C , 23-H ) :   0.2270 B( 18-N , 19-H ) :   0.9872
B( 18-N , 20-H ) :   1.1981 B( 19-H , 20-H ) :  -0.1633 B( 21-H , 22-H ) :  -0.1561
B( 24-H , 25-H ) :  -0.1329

FINAL SINGLE POINT ENERGY      -522.694359474440

DIPOLE MOMENT
-------------
                                X             Y             Z
Electronic contribution:      6.31301       2.46344       1.71589
Nuclear contribution   :     -7.85451      -2.70006      -1.48294
                        -----------------------------------------
Total Dipole Moment    :     -1.54150      -0.23662       0.23294
                        -----------------------------------------
Magnitude (a.u.)       :      1.57686
Magnitude (Debye)      :      4.00805

Rotational constants in cm-1:     0.044065     0.029250     0.019826
Rotational constants in MHz :  1321.026981   876.903192   594.367265

                             ****ORCA TERMINATED NORMALLY****
TOTAL RUN TIME: 0 days 0 hours 2 minutes 11 seconds 438 msec
