                         Program Version 5.0.0 -  RELEASE  -
|  1> !PBE D3BJ RIJCOSX def2-TZVP def2/J TightSCF
|  2> *xyz -1 1
|  3> C          3.76678       -2.26611       -6.51175
|  4> C          2.49670       -1.84416       -5.73570
|  5> H          1.62642       -2.21743       -6.30895
|  6> H          2.48182       -2.45607       -4.79341
|  7> O          2.45973       -0.50920       -5.50576
|  8> H          3.82914       -1.70941       -7.42340
|  9> H          3.71764       -3.31144       -6.73483
| 10> H          4.63199       -2.06931       -5.91377
| 11> *
| 12>
| 13> %MaxCore 64000
| 14>
| 15> %pal nprocs 4
| 16> end
| 17>
| 18> %scf
| 19>   MaxIter 150
| 20> end
| 21>
| 22>
| 23>                          ****END OF INPUT****

CARTESIAN COORDINATES (ANGSTROEM)
---------------------------------
  C      3.766780   -2.266110   -6.511750
  C      2.496700   -1.844160   -5.735700
  H      1.626420   -2.217430   -6.308950
  H      2.481820   -2.456070   -4.793410
  O      2.459730   -0.509200   -5.505760
  H      3.829140   -1.709410   -7.423400
  H      3.717640   -3.311440   -6.734830
  H      4.631990   -2.069310   -5.913770

 Total Charge           Charge          ....   -1
 Multiplicity           Mult            ....    1
 Number of Electrons    NEL             ....   26
 Basis Dimension        Dim             ....  123

ORBITAL ENERGIES
----------------

  NO   OCC          E(Eh)            E(eV)
   0   2.0000     -18.405368      -500.8355
   1   2.0000      -9.684553      -263.5301
   2   2.0000      -9.661949      -262.9150
   3   2.0000      -0.592929       -16.1344
   4   2.0000      -0.446927       -12.1615
   5   2.0000      -0.303912        -8.2699
   6   2.0000      -0.192734        -5.2446
   7   2.0000      -0.171923        -4.6783
   8   2.0000      -0.121266        -3.2998
   9   2.0000      -0.103992        -2.8298
  10   2.0000      -0.061871        -1.6836
  11   2.0000       0.081182         2.2091
  12   2.0000       0.084134         2.2894
  13   0.0000       0.199994         5.4421
  14   0.0000       0.233758         6.3609
  15   0.0000       0.257112         6.9964
  16   0.0000       0.263330         7.1656
  17   0.0000       0.294342         8.0095

MULLIKEN ATOMIC CHARGES
-----------------------
   0 C :   -0.099286
   1 C :    0.005252
   2 H :   -0.075754
   3 H :   -0.090466
   4 O :   -0.697180
   5 H :    0.008162
   6 H :   -0.062834
   7 H :    0.012106
Sum of atomic charges:   -1.0000000

LOEWDIN ATOMIC CHARGES
----------------------
   0 C :   -0.374196
   1 C :   -0.578725
   2 H :    0.046148
   3 H :    0.045017
   4 O :   -0.368251
   5 H :    0.082064
   6 H :    0.065110
   7 H :    0.082834

  Mayer bond orders larger than 0.100000
B(  0-C ,  1-C ) :   0.8782 B(  0-C ,  4-O ) :  -0.3420 B(  0-C ,  5-H ) :   0.9467
B(  0-C ,  6-H ) :   0.8848 B(  0-C ,  7-H ) :   0.9537 B(  1-C ,  2-H ) :   0.9003
B(  1-C ,  3-H ) :   0.8847 B(  1-C ,  4-O ) :   1.6990 B(  4-O ,  6-H ) :   0.1473

Dispersion correction           -0.003763250
FINAL SINGLE POINT ENERGY      -154.291018789952

DIPOLE MOMENT
-------------
                                X             Y             Z
Electronic contribution:     -1.13598       2.90153       1.05052
Nuclear contribution   :      1.63615      -3.79938      -1.48621
                        -----------------------------------------
Total Dipole Moment    :      0.50018      -0.89785      -0.43569
                        -----------------------------------------
Magnitude (a.u.)       :      1.11631
Magnitude (Debye)      :      2.83744

Rotational constants in cm-1:     1.265582     0.329289     0.289024
Rotational constants in MHz : 37941.194363  9871.829581  8664.719106

                             ****ORCA TERMINATED NORMALLY****
TOTAL RUN TIME: 0 days 0 hours 0 minutes 7 seconds 216 msec
