                         Program Version 5.0.0 -  RELEASE  -
|  1> !PBE D3BJ RIJCOSX def2-TZVP def2/J TightSCF
|  2> *xyz 1 1
|  3> C          4.99986       -1.59613       -5.92488
|  4> N          5.28156       -1.97413       -4.53576
|  5> C          3.76678       -2.26611       -6.51175
|  6> C          4.79250       -1.36132       -3.45730
|  7> N          3.93990       -0.37492       -3.55736
|  8> N          5.25986       -1.75422       -2.23913
|  9> H          5.92282       -2.52145       -2.18672
| 10> H          4.65468       -1.64040       -1.44202
| 11> H          5.70914       -2.87560       -4.38702
| 12> H          3.33010       -0.31764       -4.36125
| 13> H          3.69849        0.11447       -2.70833
| 14> H          4.84333       -0.51793       -5.94302
| 15> H          5.90170       -1.82250       -6.49647
| 16> H          3.63046       -1.94025       -7.52177
| 17> H          2.90710       -2.00116       -5.93240
| 18> H          3.89538       -3.32820       -6.49392
| 19> *
| 20>
| 21> %MaxCore 64000
| 22>
| 23> %pal nprocs 4
| 24> end
| 25>
| 26> %scf
| 27>   MaxIter 150
| 28> end
| 29>
| 30>
| 31>                          ****END OF INPUT****

CARTESIAN COORDINATES (ANGSTROEM)
---------------------------------
  C      4.999860   -1.596130   -5.924880
  N      5.281560   -1.974130   -4.535760
  C      3.766780   -2.266110   -6.511750
  C      4.792500   -1.361320   -3.457300
  N      3.939900   -0.374920   -3.557360
  N      5.259860   -1.754220   -2.239130
  H      5.922820   -2.521450   -2.186720
  H      4.654680   -1.640400   -1.442020
  H      5.709140   -2.875600   -4.387020
  H      3.330100   -0.317640   -4.361250
  H      3.698490    0.114470   -2.708330
  H      4.843330   -0.517930   -5.943020
  H      5.901700   -1.822500   -6.496470
  H      3.630460   -1.940250   -7.521770
  H      2.907100   -2.001160   -5.932400
  H      3.895380   -3.328200   -6.493920

 Total Charge           Charge          ....    1
 Multiplicity           Mult            ....    1
 Number of Electrons    NEL             ....   48
 Basis Dimension        Dim             ....  246

ORBITAL ENERGIES
----------------

  NO   OCC          E(Eh)            E(eV)
   0   2.0000     -14.209623      -386.6635
   1   2.0000     -14.208233      -386.6257
   2   2.0000     -14.201056      -386.4304
   3   2.0000     -10.202848      -277.6336
   4   2.0000     -10.086450      -274.4663
   5   2.0000     -10.019927      -272.6561
   6   2.0000      -1.129535       -30.7362
   7   2.0000      -1.027736       -27.9661
   8   2.0000      -1.013147       -27.5691
   9   2.0000      -0.862631       -23.4734
  10   2.0000      -0.781659       -21.2700
  11   2.0000      -0.744134       -20.2489
  12   2.0000      -0.733750       -19.9664
  13   2.0000      -0.685837       -18.6626
  14   2.0000      -0.646181       -17.5835
  15   2.0000      -0.642690       -17.4885
  16   2.0000      -0.595394       -16.2015
  17   2.0000      -0.579927       -15.7806
  18   2.0000      -0.559783       -15.2325
  19   2.0000      -0.517773       -14.0893
  20   2.0000      -0.490767       -13.3545
  21   2.0000      -0.472312       -12.8523
  22   2.0000      -0.438488       -11.9319
  23   2.0000      -0.413284       -11.2460
  24   0.0000      -0.206462        -5.6181
  25   0.0000      -0.172637        -4.6977
  26   0.0000      -0.142779        -3.8852
  27   0.0000      -0.129904        -3.5349
  28   0.0000      -0.115803        -3.1512

MULLIKEN ATOMIC CHARGES
-----------------------
   0 C :   -0.224703
   1 N :   -0.202763
   2 C :   -0.292667
   3 C :    0.386421
   4 N :   -0.353729
   5 N :   -0.384926
   6 H :    0.270485
   7 H :    0.271047
   8 H :    0.243752
   9 H :    0.281608
  10 H :    0.271109
  11 H :    0.155279
  12 H :    0.170175
  13 H :    0.164978
  14 H :    0.104347
  15 H :    0.139588
Sum of atomic charges:    1.0000000

LOEWDIN ATOMIC CHARGES
----------------------
   0 C :   -0.287023
   1 N :    0.182099
   2 C :   -0.288877
   3 C :   -0.429142
   4 N :    0.099148
   5 N :    0.051424
   6 H :    0.193656
   7 H :    0.188643
   8 H :    0.204490
   9 H :    0.198989
  10 H :    0.201464
  11 H :    0.145597
  12 H :    0.152182
  13 H :    0.140585
  14 H :    0.117696
  15 H :    0.129070

  Mayer bond orders larger than 0.100000
B(  0-C ,  1-N ) :   0.9066 B(  0-C ,  2-C ) :   1.0077 B(  0-C , 11-H ) :   0.9568
B(  0-C , 12-H ) :   0.9429 B(  1-N ,  3-C ) :   1.3787 B(  1-N ,  8-H ) :   0.8995
B(  2-C , 13-H ) :   0.9577 B(  2-C , 14-H ) :   0.9502 B(  2-C , 15-H ) :   0.9634
B(  3-C ,  4-N ) :   1.3617 B(  3-C ,  5-N ) :   1.3010 B(  4-N ,  9-H ) :   0.8824
B(  4-N , 10-H ) :   0.8954 B(  5-N ,  6-H ) :   0.9008 B(  5-N ,  7-H ) :   0.8928

Dispersion correction           -0.012363524
FINAL SINGLE POINT ENERGY      -284.154417014875

DIPOLE MOMENT
-------------
                                X             Y             Z
Electronic contribution:      1.76274       1.08342       4.73308
Nuclear contribution   :     -1.95709      -1.20097      -3.70214
                        -----------------------------------------
Total Dipole Moment    :     -0.19435      -0.11755       1.03094
                        -----------------------------------------
Magnitude (a.u.)       :      1.05567
Magnitude (Debye)      :      2.68329

Rotational constants in cm-1:     0.241661     0.071598     0.061743
Rotational constants in MHz :  7244.800091  2146.442409  1851.001864

                             ****ORCA TERMINATED NORMALLY****
TOTAL RUN TIME: 0 days 0 hours 0 minutes 14 seconds 548 msec
