                         Program Version 5.0.0 -  RELEASE  -
|  1> !PBE D3BJ RIJCOSX def2-TZVP def2/J TightSCF xyzfile
|  2>
|  3> *xyzfile 0 1 B.xyz
|  4>
|  5> %MaxCore 64000
|  6>
|  7> %pal nprocs 18
|  8> end
|  9>
| 10> %scf
| 11>   MaxIter 150
| 12> end
| 13>
| 14>
| 15>                          ****END OF INPUT****

CARTESIAN COORDINATES (ANGSTROEM)
---------------------------------
  C      4.999862   -1.596133   -5.924876
  N      5.281560   -1.974132   -4.535764
  C      3.766779   -2.266110   -6.511752
  C      2.496702   -1.844161   -5.735704
  H      1.626416   -2.217434   -6.308950
  H      2.481824   -2.456069   -4.793414
  O      2.459729   -0.509204   -5.505757
  C      4.792500   -1.361316   -3.457295
  N      3.939898   -0.374925   -3.557359
  N      5.259860   -1.754224   -2.239133
  H      5.922824   -2.521451   -2.186720
  H      4.654678   -1.640404   -1.442016
  H      5.709139   -2.875599   -4.387021
  H      3.330101   -0.317639   -4.361247
  H      3.698494    0.114468   -2.708333
  H      4.843333   -0.517930   -5.943019
  H      5.901695   -1.822503   -6.496467
  H      3.886191   -3.357076   -6.533604
  H      3.685602   -1.922168   -7.547128

 Total Charge           Charge          ....    0
 Multiplicity           Mult            ....    1
 Number of Electrons    NEL             ....   64
 Basis Dimension        Dim             ....  314

ORBITAL ENERGIES
----------------

  NO   OCC          E(Eh)            E(eV)
   0   2.0000     -18.608738      -506.3695
   1   2.0000     -14.042459      -382.1147
   2   2.0000     -14.037317      -381.9748
   3   2.0000     -13.993966      -380.7952
   4   2.0000     -10.022795      -272.7341
   5   2.0000      -9.911698      -269.7110
   6   2.0000      -9.861593      -268.3476
   7   2.0000      -9.849317      -268.0135
   8   2.0000      -0.952833       -25.9279
   9   2.0000      -0.854303       -23.2468
  10   2.0000      -0.837473       -22.7888
  11   2.0000      -0.799477       -21.7549
  12   2.0000      -0.685761       -18.6605
  13   2.0000      -0.612109       -16.6563
  14   2.0000      -0.571637       -15.5550
  15   2.0000      -0.554093       -15.0776
  16   2.0000      -0.528544       -14.3824
  17   2.0000      -0.484930       -13.1956
  18   2.0000      -0.469048       -12.7634
  19   2.0000      -0.449171       -12.2226
  20   2.0000      -0.419984       -11.4283
  21   2.0000      -0.406672       -11.0661
  22   2.0000      -0.385224       -10.4825
  23   2.0000      -0.357258        -9.7215
  24   2.0000      -0.316693        -8.6177
  25   2.0000      -0.296464        -8.0672
  26   2.0000      -0.285820        -7.7776
  27   2.0000      -0.264353        -7.1934
  28   2.0000      -0.255439        -6.9508
  29   2.0000      -0.236861        -6.4453
  30   2.0000      -0.125819        -3.4237
  31   2.0000      -0.118906        -3.2356
  32   0.0000      -0.038734        -1.0540
  33   0.0000      -0.022997        -0.6258
  34   0.0000       0.003542         0.0964
  35   0.0000       0.020908         0.5689
  36   0.0000       0.053129         1.4457

MULLIKEN ATOMIC CHARGES
-----------------------
   0 C :   -0.152413
   1 N :   -0.239732
   2 C :   -0.081981
   3 C :   -0.038522
   4 H :    0.048481
   5 H :   -0.002117
   6 O :   -0.599223
   7 C :    0.342137
   8 N :   -0.336884
   9 N :   -0.427846
  10 H :    0.230862
  11 H :    0.244756
  12 H :    0.204217
  13 H :    0.256587
  14 H :    0.203461
  15 H :    0.132098
  16 H :    0.108007
  17 H :    0.038739
  18 H :    0.069373
Sum of atomic charges:   -0.0000000

LOEWDIN ATOMIC CHARGES
----------------------
   0 C :   -0.285116
   1 N :    0.162780
   2 C :   -0.296617
   3 C :   -0.511047
   4 H :    0.104680
   5 H :    0.081383
   6 O :   -0.234862
   7 C :   -0.462304
   8 N :    0.101459
   9 N :   -0.000843
  10 H :    0.170942
  11 H :    0.172639
  12 H :    0.185876
  13 H :    0.104445
  14 H :    0.171392
  15 H :    0.147745
  16 H :    0.130342
  17 H :    0.119045
  18 H :    0.138060

  Mayer bond orders larger than 0.100000
B(  0-C ,  1-N ) :   0.9011 B(  0-C ,  2-C ) :   1.0170 B(  0-C , 15-H ) :   0.9347
B(  0-C , 16-H ) :   0.9515 B(  1-N ,  7-C ) :   1.3267 B(  1-N , 12-H ) :   0.9148
B(  2-C ,  3-C ) :   0.9416 B(  2-C ,  6-O ) :  -0.1456 B(  2-C , 17-H ) :   0.9210
B(  2-C , 18-H ) :   0.9218 B(  3-C ,  4-H ) :   0.9378 B(  3-C ,  5-H ) :   0.9282
B(  3-C ,  6-O ) :   1.3556 B(  6-O , 13-H ) :   0.3783 B(  7-C ,  8-N ) :   1.5101
B(  7-C ,  9-N ) :   1.2104 B(  8-N , 13-H ) :   0.6556 B(  8-N , 14-H ) :   0.9133
B(  9-N , 10-H ) :   0.9114 B(  9-N , 11-H ) :   0.9075

Dispersion correction           -0.017606166
FINAL SINGLE POINT ENERGY      -398.180942732140

DIPOLE MOMENT
-------------
                                X             Y             Z
Electronic contribution:      1.76007       2.09218       3.62476
Nuclear contribution   :      0.51577      -3.31768      -1.36804
                        -----------------------------------------
Total Dipole Moment    :      2.27583      -1.22550       2.25673
                        -----------------------------------------
Magnitude (a.u.)       :      3.43134
Magnitude (Debye)      :      8.72177

Rotational constants in cm-1:     0.111492     0.050787     0.040163
Rotational constants in MHz :  3342.457536  1522.560798  1204.057148

                             ****ORCA TERMINATED NORMALLY****
TOTAL RUN TIME: 0 days 0 hours 0 minutes 10 seconds 709 msec
