                         Program Version 5.0.0 -  RELEASE  -
|  1> !PBE D3BJ RIJCOSX def2-TZVP def2/J TightSCF
|  2> *xyz 0 1
|  3> C          3.76678       -2.26611       -6.51175
|  4> C          2.49670       -1.84416       -5.73570
|  5> H          1.62642       -2.21743       -6.30895
|  6> H          2.48182       -2.45607       -4.79341
|  7> F          2.45973       -0.50920       -5.50576
|  8> H          3.82914       -1.70941       -7.42340
|  9> H          3.71764       -3.31144       -6.73483
| 10> H          4.63199       -2.06931       -5.91377
| 11> *
| 12>
| 13> %MaxCore 64000
| 14>
| 15> %pal nprocs 4
| 16> end
| 17>
| 18> %scf
| 19>   MaxIter 150
| 20> end
| 21>
| 22>
| 23>                          ****END OF INPUT****

CARTESIAN COORDINATES (ANGSTROEM)
---------------------------------
  C      3.766780   -2.266110   -6.511750
  C      2.496700   -1.844160   -5.735700
  H      1.626420   -2.217430   -6.308950
  H      2.481820   -2.456070   -4.793410
  F      2.459730   -0.509200   -5.505760
  H      3.829140   -1.709410   -7.423400
  H      3.717640   -3.311440   -6.734830
  H      4.631990   -2.069310   -5.913770

 Total Charge           Charge          ....    0
 Multiplicity           Mult            ....    1
 Number of Electrons    NEL             ....   26
 Basis Dimension        Dim             ....  123

ORBITAL ENERGIES
----------------

  NO   OCC          E(Eh)            E(eV)
   0   2.0000     -24.245529      -659.7544
   1   2.0000      -9.956115      -270.9197
   2   2.0000      -9.873275      -268.6655
   3   2.0000      -1.104246       -30.0481
   4   2.0000      -0.690181       -18.7808
   5   2.0000      -0.568293       -15.4640
   6   2.0000      -0.457915       -12.4605
   7   2.0000      -0.438909       -11.9433
   8   2.0000      -0.404098       -10.9961
   9   2.0000      -0.354578        -9.6486
  10   2.0000      -0.353410        -9.6168
  11   2.0000      -0.284592        -7.7441
  12   2.0000      -0.280085        -7.6215
  13   0.0000       0.022911         0.6234
  14   0.0000       0.060146         1.6366
  15   0.0000       0.069285         1.8853
  16   0.0000       0.076703         2.0872
  17   0.0000       0.093110         2.5336

MULLIKEN ATOMIC CHARGES
-----------------------
   0 C :   -0.329553
   1 C :    0.007649
   2 H :    0.089380
   3 H :    0.085107
   4 F :   -0.196728
   5 H :    0.118149
   6 H :    0.107731
   7 H :    0.118265
Sum of atomic charges:   -0.0000000

LOEWDIN ATOMIC CHARGES
----------------------
   0 C :   -0.317136
   1 C :   -0.401103
   2 H :    0.114337
   3 H :    0.117412
   4 F :    0.131587
   5 H :    0.116949
   6 H :    0.121615
   7 H :    0.116340

  Mayer bond orders larger than 0.100000
B(  0-C ,  1-C ) :   1.0045 B(  0-C ,  5-H ) :   0.9649 B(  0-C ,  6-H ) :   0.9513
B(  0-C ,  7-H ) :   0.9667 B(  1-C ,  2-H ) :   0.9591 B(  1-C ,  3-H ) :   0.9569
B(  1-C ,  4-F ) :   1.0456

Dispersion correction           -0.003481210
FINAL SINGLE POINT ENERGY      -178.921986266734

DIPOLE MOMENT
-------------
                                X             Y             Z
Electronic contribution:     -2.08447       4.40642       1.82517
Nuclear contribution   :      2.16248      -5.01128      -1.96962
                        -----------------------------------------
Total Dipole Moment    :      0.07800      -0.60487      -0.14445
                        -----------------------------------------
Magnitude (a.u.)       :      0.62675
Magnitude (Debye)      :      1.59307

Rotational constants in cm-1:     1.244010     0.306580     0.270375
Rotational constants in MHz : 37294.476802  9191.037795  8105.639967

                             ****ORCA TERMINATED NORMALLY****
TOTAL RUN TIME: 0 days 0 hours 0 minutes 6 seconds 611 msec
