                         Program Version 5.0.0 -  RELEASE  -
|  1> !PBE D3BJ RIJCOSX def2-TZVP def2/J TightSCF
|  2> *xyz 0 1
|  3> C          4.99986       -1.59613       -5.92488
|  4> C          5.28156       -1.97413       -4.53576
|  5> C          3.76678       -2.26611       -6.51175
|  6> C          4.79250       -1.36132       -3.45730
|  7> N          3.93990       -0.37492       -3.55736
|  8> N          5.25986       -1.75422       -2.23913
|  9> H          5.92282       -2.52145       -2.18672
| 10> H          4.65468       -1.64040       -1.44202
| 11> H          5.70914       -2.87560       -4.38702
| 12> H          3.33010       -0.31764       -4.36125
| 13> H          3.69849        0.11447       -2.70833
| 14> H          4.84333       -0.51793       -5.94302
| 15> H          5.90170       -1.82250       -6.49647
| 16> H          3.63046       -1.94025       -7.52177
| 17> H          2.90710       -2.00116       -5.93240
| 18> H          3.89538       -3.32820       -6.49392
| 19> *
| 20>
| 21> %MaxCore 64000
| 22>
| 23> %pal nprocs 4
| 24> end
| 25>
| 26> %scf
| 27>   MaxIter 150
| 28> end
| 29>
| 30>
| 31>                          ****END OF INPUT****

CARTESIAN COORDINATES (ANGSTROEM)
---------------------------------
  C      4.999860   -1.596130   -5.924880
  C      5.281560   -1.974130   -4.535760
  C      3.766780   -2.266110   -6.511750
  C      4.792500   -1.361320   -3.457300
  N      3.939900   -0.374920   -3.557360
  N      5.259860   -1.754220   -2.239130
  H      5.922820   -2.521450   -2.186720
  H      4.654680   -1.640400   -1.442020
  H      5.709140   -2.875600   -4.387020
  H      3.330100   -0.317640   -4.361250
  H      3.698490    0.114470   -2.708330
  H      4.843330   -0.517930   -5.943020
  H      5.901700   -1.822500   -6.496470
  H      3.630460   -1.940250   -7.521770
  H      2.907100   -2.001160   -5.932400
  H      3.895380   -3.328200   -6.493920

 Total Charge           Charge          ....    0
 Multiplicity           Mult            ....    1
 Number of Electrons    NEL             ....   48
 Basis Dimension        Dim             ....  246

ORBITAL ENERGIES
----------------

  NO   OCC          E(Eh)            E(eV)
   0   2.0000     -13.986843      -380.6013
   1   2.0000     -13.978321      -380.3694
   2   2.0000      -9.915320      -269.8096
   3   2.0000      -9.852809      -268.1086
   4   2.0000      -9.846517      -267.9373
   5   2.0000      -9.804211      -266.7862
   6   2.0000      -0.879078       -23.9209
   7   2.0000      -0.793829       -21.6012
   8   2.0000      -0.698611       -19.0102
   9   2.0000      -0.625517       -17.0212
  10   2.0000      -0.553871       -15.0716
  11   2.0000      -0.519991       -14.1497
  12   2.0000      -0.492600       -13.4043
  13   2.0000      -0.450863       -12.2686
  14   2.0000      -0.428943       -11.6721
  15   2.0000      -0.393653       -10.7118
  16   2.0000      -0.366918        -9.9843
  17   2.0000      -0.346111        -9.4182
  18   2.0000      -0.335762        -9.1365
  19   2.0000      -0.307486        -8.3671
  20   2.0000      -0.282707        -7.6928
  21   2.0000      -0.275399        -7.4940
  22   2.0000      -0.221509        -6.0276
  23   2.0000      -0.130764        -3.5583
  24   0.0000      -0.002631        -0.0716
  25   0.0000       0.026974         0.7340
  26   0.0000       0.042990         1.1698
  27   0.0000       0.052674         1.4333
  28   0.0000       0.066121         1.7992

MULLIKEN ATOMIC CHARGES
-----------------------
   0 C :   -0.221871
   1 C :   -0.298019
   2 C :   -0.276557
   3 C :    0.301964
   4 N :   -0.435144
   5 N :   -0.451444
   6 H :    0.227891
   7 H :    0.194480
   8 H :    0.074446
   9 H :    0.238805
  10 H :    0.204856
  11 H :    0.079110
  12 H :    0.087748
  13 H :    0.098367
  14 H :    0.079027
  15 H :    0.096341
Sum of atomic charges:   -0.0000000

LOEWDIN ATOMIC CHARGES
----------------------
   0 C :   -0.314588
   1 C :   -0.271538
   2 C :   -0.312136
   3 C :   -0.475828
   4 N :    0.018293
   5 N :   -0.028217
   6 H :    0.172546
   7 H :    0.146936
   8 H :    0.116690
   9 H :    0.177311
  10 H :    0.164683
  11 H :    0.134221
  12 H :    0.138310
  13 H :    0.110450
  14 H :    0.108095
  15 H :    0.114772

  Mayer bond orders larger than 0.100000
B(  0-C ,  1-C ) :   1.0936 B(  0-C ,  2-C ) :   0.9812 B(  0-C , 11-H ) :   0.9582
B(  0-C , 12-H ) :   0.9571 B(  1-C ,  3-C ) :   1.6484 B(  1-C ,  8-H ) :   0.9675
B(  2-C , 13-H ) :   0.9619 B(  2-C , 14-H ) :   0.9698 B(  2-C , 15-H ) :   0.9733
B(  3-C ,  4-N ) :   1.1480 B(  3-C ,  5-N ) :   1.1436 B(  4-N ,  9-H ) :   0.9115
B(  4-N , 10-H ) :   0.9200 B(  5-N ,  6-H ) :   0.9205 B(  5-N ,  7-H ) :   0.9142

Dispersion correction           -0.012825878
FINAL SINGLE POINT ENERGY      -267.674989769947

DIPOLE MOMENT
-------------
                                X             Y             Z
Electronic contribution:      1.22679       1.42205       4.58779
Nuclear contribution   :     -1.82485      -1.28952      -3.74132
                        -----------------------------------------
Total Dipole Moment    :     -0.59806       0.13253       0.84647
                        -----------------------------------------
Magnitude (a.u.)       :      1.04487
Magnitude (Debye)      :      2.65585

Rotational constants in cm-1:     0.245790     0.071632     0.062004
Rotational constants in MHz :  7368.599517  2147.482078  1858.844841

                             ****ORCA TERMINATED NORMALLY****
TOTAL RUN TIME: 0 days 0 hours 0 minutes 14 seconds 196 msec
