                         Program Version 5.0.0 -  RELEASE  -
|  1> !PBE D3BJ RIJCOSX def2-TZVP def2/J TightSCF
|  2> *xyz 0 1
|  3> C          4.99986       -1.59613       -5.92488
|  4> N          5.28156       -1.97413       -4.53576
|  5> C          3.76678       -2.26611       -6.51175
|  6> C          4.79250       -1.36132       -3.45730
|  7> C          3.93990       -0.37492       -3.55736
|  8> N          5.25986       -1.75422       -2.23913
|  9> H          5.92282       -2.52145       -2.18672
| 10> H          4.65468       -1.64040       -1.44202
| 11> H          5.70914       -2.87560       -4.38702
| 12> H          3.33010       -0.31764       -4.36125
| 13> H          3.69849        0.11447       -2.70833
| 14> H          4.84333       -0.51793       -5.94302
| 15> H          5.90170       -1.82250       -6.49647
| 16> H          3.63046       -1.94025       -7.52177
| 17> H          2.90710       -2.00116       -5.93240
| 18> H          3.89538       -3.32820       -6.49392
| 19> *
| 20>
| 21> %MaxCore 64000
| 22>
| 23> %pal nprocs 4
| 24> end
| 25>
| 26> %scf
| 27>   MaxIter 150
| 28> end
| 29>
| 30>
| 31>                          ****END OF INPUT****

CARTESIAN COORDINATES (ANGSTROEM)
---------------------------------
  C      4.999860   -1.596130   -5.924880
  N      5.281560   -1.974130   -4.535760
  C      3.766780   -2.266110   -6.511750
  C      4.792500   -1.361320   -3.457300
  C      3.939900   -0.374920   -3.557360
  N      5.259860   -1.754220   -2.239130
  H      5.922820   -2.521450   -2.186720
  H      4.654680   -1.640400   -1.442020
  H      5.709140   -2.875600   -4.387020
  H      3.330100   -0.317640   -4.361250
  H      3.698490    0.114470   -2.708330
  H      4.843330   -0.517930   -5.943020
  H      5.901700   -1.822500   -6.496470
  H      3.630460   -1.940250   -7.521770
  H      2.907100   -2.001160   -5.932400
  H      3.895380   -3.328200   -6.493920

 Total Charge           Charge          ....    0
 Multiplicity           Mult            ....    1
 Number of Electrons    NEL             ....   48
 Basis Dimension        Dim             ....  246

ORBITAL ENERGIES
----------------

  NO   OCC          E(Eh)            E(eV)
   0   2.0000     -13.986546      -380.5933
   1   2.0000     -13.979749      -380.4083
   2   2.0000      -9.916844      -269.8510
   3   2.0000      -9.910031      -269.6656
   4   2.0000      -9.863722      -268.4055
   5   2.0000      -9.792564      -266.4692
   6   2.0000      -0.878900       -23.9161
   7   2.0000      -0.801446       -21.8085
   8   2.0000      -0.685530       -18.6542
   9   2.0000      -0.645830       -17.5739
  10   2.0000      -0.575404       -15.6575
  11   2.0000      -0.507812       -13.8183
  12   2.0000      -0.490007       -13.3338
  13   2.0000      -0.459941       -12.5156
  14   2.0000      -0.409690       -11.1482
  15   2.0000      -0.396996       -10.8028
  16   2.0000      -0.376266       -10.2387
  17   2.0000      -0.351087        -9.5536
  18   2.0000      -0.337413        -9.1815
  19   2.0000      -0.327487        -8.9114
  20   2.0000      -0.308938        -8.4066
  21   2.0000      -0.301494        -8.2041
  22   2.0000      -0.208112        -5.6630
  23   2.0000      -0.140927        -3.8348
  24   0.0000       0.000293         0.0080
  25   0.0000       0.030817         0.8386
  26   0.0000       0.038295         1.0421
  27   0.0000       0.054112         1.4725
  28   0.0000       0.068206         1.8560

MULLIKEN ATOMIC CHARGES
-----------------------
   0 C :   -0.131843
   1 N :   -0.271384
   2 C :   -0.301195
   3 C :    0.372467
   4 C :   -0.549712
   5 N :   -0.461643
   6 H :    0.201250
   7 H :    0.231644
   8 H :    0.173935
   9 H :    0.104668
  10 H :    0.076569
  11 H :    0.124291
  12 H :    0.104904
  13 H :    0.107294
  14 H :    0.126181
  15 H :    0.092573
Sum of atomic charges:   -0.0000000

LOEWDIN ATOMIC CHARGES
----------------------
   0 C :   -0.305441
   1 N :    0.126409
   2 C :   -0.312211
   3 C :   -0.473318
   4 C :   -0.330920
   5 N :   -0.023612
   6 H :    0.155589
   7 H :    0.167519
   8 H :    0.169251
   9 H :    0.102578
  10 H :    0.101855
  11 H :    0.141351
  12 H :    0.128253
  13 H :    0.119076
  14 H :    0.120842
  15 H :    0.112778

  Mayer bond orders larger than 0.100000
B(  0-C ,  1-N ) :   0.9643 B(  0-C ,  2-C ) :   0.9930 B(  0-C , 11-H ) :   0.9492
B(  0-C , 12-H ) :   0.9627 B(  1-N ,  3-C ) :   1.1695 B(  1-N ,  8-H ) :   0.9190
B(  2-C , 13-H ) :   0.9611 B(  2-C , 14-H ) :   0.9689 B(  2-C , 15-H ) :   0.9679
B(  3-C ,  4-C ) :   1.6370 B(  3-C ,  5-N ) :   1.0983 B(  4-C ,  9-H ) :   0.9743
B(  4-C , 10-H ) :   0.9971 B(  5-N ,  6-H ) :   0.9278 B(  5-N ,  7-H ) :   0.9184

Dispersion correction           -0.012782707
FINAL SINGLE POINT ENERGY      -267.667532279658

DIPOLE MOMENT
-------------
                                X             Y             Z
Electronic contribution:      2.45610      -0.12903       3.54814
Nuclear contribution   :     -2.10948      -0.95026      -3.53375
                        -----------------------------------------
Total Dipole Moment    :      0.34662      -1.07929       0.01439
                        -----------------------------------------
Magnitude (a.u.)       :      1.13367
Magnitude (Debye)      :      2.88157

Rotational constants in cm-1:     0.255209     0.072067     0.062929
Rotational constants in MHz :  7650.964615  2160.525743  1886.569524

                             ****ORCA TERMINATED NORMALLY****
TOTAL RUN TIME: 0 days 0 hours 0 minutes 13 seconds 770 msec
