                         Program Version 5.0.0 -  RELEASE  -
|  1> !PBE D3BJ RIJCOSX def2-TZVP def2/J TightSCF
|  2> *xyz 0 1
|  3> C          4.99986       -1.59613       -5.92488
|  4> N          5.28156       -1.97413       -4.53576
|  5> C          3.76678       -2.26611       -6.51175
|  6> C          4.79250       -1.36132       -3.45730
|  7> N          3.93990       -0.37492       -3.55736
|  8> C          5.25986       -1.75422       -2.23913
|  9> H          5.92282       -2.52145       -2.18672
| 10> H          4.65468       -1.64040       -1.44202
| 11> H          5.70914       -2.87560       -4.38702
| 12> H          3.33010       -0.31764       -4.36125
| 13> H          3.69849        0.11447       -2.70833
| 14> H          4.84333       -0.51793       -5.94302
| 15> H          5.90170       -1.82250       -6.49647
| 16> H          3.63046       -1.94025       -7.52177
| 17> H          2.90710       -2.00116       -5.93240
| 18> H          3.89538       -3.32820       -6.49392
| 19> *
| 20>
| 21> %MaxCore 64000
| 22>
| 23> %pal nprocs 4
| 24> end
| 25>
| 26> %scf
| 27>   MaxIter 150
| 28> end
| 29>
| 30>
| 31>                          ****END OF INPUT****

CARTESIAN COORDINATES (ANGSTROEM)
---------------------------------
  C      4.999860   -1.596130   -5.924880
  N      5.281560   -1.974130   -4.535760
  C      3.766780   -2.266110   -6.511750
  C      4.792500   -1.361320   -3.457300
  N      3.939900   -0.374920   -3.557360
  C      5.259860   -1.754220   -2.239130
  H      5.922820   -2.521450   -2.186720
  H      4.654680   -1.640400   -1.442020
  H      5.709140   -2.875600   -4.387020
  H      3.330100   -0.317640   -4.361250
  H      3.698490    0.114470   -2.708330
  H      4.843330   -0.517930   -5.943020
  H      5.901700   -1.822500   -6.496470
  H      3.630460   -1.940250   -7.521770
  H      2.907100   -2.001160   -5.932400
  H      3.895380   -3.328200   -6.493920

 Total Charge           Charge          ....    0
 Multiplicity           Mult            ....    1
 Number of Electrons    NEL             ....   48
 Basis Dimension        Dim             ....  246

ORBITAL ENERGIES
----------------

  NO   OCC          E(Eh)            E(eV)
   0   2.0000     -13.987158      -380.6099
   1   2.0000     -13.987099      -380.6083
   2   2.0000      -9.920956      -269.9629
   3   2.0000      -9.918971      -269.9089
   4   2.0000      -9.874562      -268.7005
   5   2.0000      -9.790481      -266.4125
   6   2.0000      -0.888864       -24.1872
   7   2.0000      -0.812197       -22.1010
   8   2.0000      -0.701988       -19.1021
   9   2.0000      -0.628683       -17.1073
  10   2.0000      -0.566839       -15.4245
  11   2.0000      -0.546847       -14.8805
  12   2.0000      -0.492361       -13.3978
  13   2.0000      -0.449520       -12.2321
  14   2.0000      -0.433945       -11.8082
  15   2.0000      -0.398655       -10.8479
  16   2.0000      -0.383064       -10.4237
  17   2.0000      -0.358212        -9.7475
  18   2.0000      -0.340574        -9.2675
  19   2.0000      -0.323453        -8.8016
  20   2.0000      -0.320354        -8.7173
  21   2.0000      -0.302852        -8.2410
  22   2.0000      -0.215402        -5.8614
  23   2.0000      -0.129430        -3.5220
  24   0.0000      -0.003185        -0.0867
  25   0.0000       0.028906         0.7866
  26   0.0000       0.035593         0.9685
  27   0.0000       0.047357         1.2886
  28   0.0000       0.061877         1.6838

MULLIKEN ATOMIC CHARGES
-----------------------
   0 C :   -0.195561
   1 N :   -0.257795
   2 C :   -0.268248
   3 C :    0.351592
   4 N :   -0.432878
   5 C :   -0.536238
   6 H :    0.068469
   7 H :    0.084917
   8 H :    0.207814
   9 H :    0.209169
  10 H :    0.230394
  11 H :    0.117280
  12 H :    0.115319
  13 H :    0.107211
  14 H :    0.095302
  15 H :    0.103254
Sum of atomic charges:    0.0000000

LOEWDIN ATOMIC CHARGES
----------------------
   0 C :   -0.321753
   1 N :    0.133004
   2 C :   -0.314559
   3 C :   -0.482599
   4 N :    0.021573
   5 C :   -0.362397
   6 H :    0.093718
   7 H :    0.091796
   8 H :    0.188625
   9 H :    0.160413
  10 H :    0.180876
  11 H :    0.133748
  12 H :    0.131111
  13 H :    0.118565
  14 H :    0.111680
  15 H :    0.116199

  Mayer bond orders larger than 0.100000
B(  0-C ,  1-N ) :   0.9794 B(  0-C ,  2-C ) :   0.9870 B(  0-C , 11-H ) :   0.9622
B(  0-C , 12-H ) :   0.9623 B(  1-N ,  3-C ) :   1.1850 B(  1-N ,  8-H ) :   0.9213
B(  2-C , 13-H ) :   0.9588 B(  2-C , 14-H ) :   0.9619 B(  2-C , 15-H ) :   0.9677
B(  3-C ,  4-N ) :   1.1788 B(  3-C ,  5-C ) :   1.5661 B(  4-N ,  9-H ) :   0.9074
B(  4-N , 10-H ) :   0.9164 B(  5-C ,  6-H ) :   1.0143 B(  5-C ,  7-H ) :   0.9680

Dispersion correction           -0.012709443
FINAL SINGLE POINT ENERGY      -267.663010535663

DIPOLE MOMENT
-------------
                                X             Y             Z
Electronic contribution:      1.17028       1.25832       2.16869
Nuclear contribution   :     -1.82946      -1.24287      -3.25410
                        -----------------------------------------
Total Dipole Moment    :     -0.65917       0.01545      -1.08541
                        -----------------------------------------
Magnitude (a.u.)       :      1.26999
Magnitude (Debye)      :      3.22805

Rotational constants in cm-1:     0.244672     0.074506     0.064043
Rotational constants in MHz :  7335.067153  2233.624025  1919.970379

                             ****ORCA TERMINATED NORMALLY****
TOTAL RUN TIME: 0 days 0 hours 0 minutes 13 seconds 906 msec
