                         Program Version 5.0.0 -  RELEASE  -
|  1> !PBE D3BJ RIJCOSX def2-TZVP def2/J TightSCF xyzfile
|  2>
|  3> *xyzfile 0 1 D1.xyz
|  4>
|  5> %MaxCore 64000
|  6>
|  7> %pal nprocs 18
|  8> end
|  9>
| 10> %scf
| 11>   MaxIter 150
| 12> end
| 13>
| 14>
| 15>                          ****END OF INPUT****

CARTESIAN COORDINATES (ANGSTROEM)
---------------------------------
  C      4.999862   -1.596133   -5.924876
  C      5.281560   -1.974132   -4.535764
  C      3.766779   -2.266110   -6.511752
  C      2.496702   -1.844161   -5.735704
  H      1.626416   -2.217434   -6.308950
  H      2.481824   -2.456069   -4.793414
  F      2.459729   -0.509204   -5.505757
  C      4.792500   -1.361316   -3.457295
  N      3.939898   -0.374925   -3.557359
  N      5.259860   -1.754224   -2.239133
  H      5.922824   -2.521451   -2.186720
  H      4.654678   -1.640404   -1.442016
  H      5.709139   -2.875599   -4.387021
  H      3.330101   -0.317639   -4.361247
  H      3.698494    0.114468   -2.708333
  H      4.843333   -0.517930   -5.943019
  H      5.901695   -1.822503   -6.496467
  H      3.886191   -3.357076   -6.533604
  H      3.685602   -1.922168   -7.547128

 Total Charge           Charge          ....    0
 Multiplicity           Mult            ....    1
 Number of Electrons    NEL             ....   64
 Basis Dimension        Dim             ....  314

ORBITAL ENERGIES
----------------

  NO   OCC          E(Eh)            E(eV)
   0   2.0000     -24.279566      -660.6806
   1   2.0000     -13.972774      -380.2185
   2   2.0000     -13.959322      -379.8524
   3   2.0000      -9.958751      -270.9914
   4   2.0000      -9.909340      -269.6469
   5   2.0000      -9.874561      -268.7005
   6   2.0000      -9.855115      -268.1713
   7   2.0000      -9.800538      -266.6862
   8   2.0000      -1.144608       -31.1464
   9   2.0000      -0.867606       -23.6088
  10   2.0000      -0.783596       -21.3227
  11   2.0000      -0.719774       -19.5861
  12   2.0000      -0.652931       -17.7672
  13   2.0000      -0.605344       -16.4722
  14   2.0000      -0.539688       -14.6857
  15   2.0000      -0.528318       -14.3763
  16   2.0000      -0.487673       -13.2703
  17   2.0000      -0.473328       -12.8799
  18   2.0000      -0.459616       -12.5068
  19   2.0000      -0.443695       -12.0735
  20   2.0000      -0.432384       -11.7658
  21   2.0000      -0.404588       -11.0094
  22   2.0000      -0.373056       -10.1514
  23   2.0000      -0.354594        -9.6490
  24   2.0000      -0.346206        -9.4208
  25   2.0000      -0.323270        -8.7966
  26   2.0000      -0.303996        -8.2722
  27   2.0000      -0.290979        -7.9179
  28   2.0000      -0.280957        -7.6452
  29   2.0000      -0.271707        -7.3935
  30   2.0000      -0.210556        -5.7295
  31   2.0000      -0.127131        -3.4594
  32   0.0000       0.008923         0.2428
  33   0.0000       0.030590         0.8324
  34   0.0000       0.042051         1.1443
  35   0.0000       0.052130         1.4185
  36   0.0000       0.053940         1.4678

MULLIKEN ATOMIC CHARGES
-----------------------
   0 C :   -0.224065
   1 C :   -0.349003
   2 C :   -0.095603
   3 C :   -0.066866
   4 H :    0.110375
   5 H :    0.123873
   6 F :   -0.177459
   7 C :    0.280179
   8 N :   -0.445912
   9 N :   -0.450539
  10 H :    0.223683
  11 H :    0.194191
  12 H :    0.071717
  13 H :    0.254310
  14 H :    0.192230
  15 H :    0.104699
  16 H :    0.093251
  17 H :    0.081428
  18 H :    0.079510
Sum of atomic charges:   -0.0000000

LOEWDIN ATOMIC CHARGES
----------------------
   0 C :   -0.294002
   1 C :   -0.282049
   2 C :   -0.276685
   3 C :   -0.375402
   4 H :    0.123622
   5 H :    0.133725
   6 F :    0.183736
   7 C :   -0.482859
   8 N :    0.020787
   9 N :   -0.028572
  10 H :    0.170023
  11 H :    0.146840
  12 H :    0.115250
  13 H :    0.129242
  14 H :    0.159114
  15 H :    0.143351
  16 H :    0.142221
  17 H :    0.140346
  18 H :    0.131310

  Mayer bond orders larger than 0.100000
B(  0-C ,  1-C ) :   1.0891 B(  0-C ,  2-C ) :   0.9741 B(  0-C , 15-H ) :   0.9610
B(  0-C , 16-H ) :   0.9528 B(  1-C ,  7-C ) :   1.6164 B(  1-C , 12-H ) :   0.9658
B(  2-C ,  3-C ) :   1.0145 B(  2-C , 17-H ) :   0.9280 B(  2-C , 18-H ) :   0.9299
B(  3-C ,  4-H ) :   0.9551 B(  3-C ,  5-H ) :   0.9696 B(  3-C ,  6-F ) :   0.9598
B(  6-F , 13-H ) :   0.1325 B(  7-C ,  8-N ) :   1.1976 B(  7-C ,  9-N ) :   1.1520
B(  8-N , 13-H ) :   0.8417 B(  8-N , 14-H ) :   0.9239 B(  9-N , 10-H ) :   0.9197
B(  9-N , 11-H ) :   0.9150

Dispersion correction           -0.017554553
FINAL SINGLE POINT ENERGY      -406.128287080718

DIPOLE MOMENT
-------------
                                X             Y             Z
Electronic contribution:     -3.33664       4.07179       0.87193
Nuclear contribution   :      2.63975      -4.51113      -0.34926
                        -----------------------------------------
Total Dipole Moment    :     -0.69690      -0.43934       0.52267
                        -----------------------------------------
Magnitude (a.u.)       :      0.97564
Magnitude (Debye)      :      2.47988

Rotational constants in cm-1:     0.109429     0.049838     0.039337
Rotational constants in MHz :  3280.611039  1494.113088  1179.280063

                             ****ORCA TERMINATED NORMALLY****
TOTAL RUN TIME: 0 days 0 hours 0 minutes 8 seconds 725 msec
