                         Program Version 5.0.0 -  RELEASE  -
|  1> !wB97X-D3 RIJCOSX def2-SVPD def2/J TightSCF CPCM(Water)
|  2> *xyz -1 1
|  3> C          0.84888        2.66797       -4.30235
|  4> C          2.09343        1.86104       -4.65684
|  5> H          2.44481        2.04157       -5.67499
|  6> H          2.90175        2.13786       -3.98034
|  7> S          1.87964        0.07859       -4.46297
|  8> O          3.20757       -0.46611       -4.42026
|  9> O          1.07506       -0.05616       -3.26876
| 10> O          1.13166       -0.31996       -5.67903
| 11> H          0.05064        2.40112       -4.96303
| 12> H          1.06043        3.71210       -4.40203
| 13> H          0.56237        2.45684       -3.29327
| 14> *
| 15>
| 16> %MaxCore 64000
| 17>
| 18> %pal nprocs 18
| 19> end
| 20>
| 21> %scf
| 22>   MaxIter 150
| 23> end
| 24>
| 25>
| 26>                          ****END OF INPUT****

CARTESIAN COORDINATES (ANGSTROEM)
---------------------------------
  C      0.848880    2.667970   -4.302350
  C      2.093430    1.861040   -4.656840
  H      2.444810    2.041570   -5.674990
  H      2.901750    2.137860   -3.980340
  S      1.879640    0.078590   -4.462970
  O      3.207570   -0.466110   -4.420260
  O      1.075060   -0.056160   -3.268760
  O      1.131660   -0.319960   -5.679030
  H      0.050640    2.401120   -4.963030
  H      1.060430    3.712100   -4.402030
  H      0.562370    2.456840   -3.293270

 Total Charge           Charge          ....   -1
 Multiplicity           Mult            ....    1
 Number of Electrons    NEL             ....   58
 Basis Dimension        Dim             ....  176

ORBITAL ENERGIES
----------------

  NO   OCC          E(Eh)            E(eV)
   0   2.0000     -89.151596     -2425.9383
   1   2.0000     -19.210905      -522.7553
   2   2.0000     -19.206575      -522.6375
   3   2.0000     -19.197365      -522.3868
   4   2.0000     -10.295181      -280.1461
   5   2.0000     -10.272761      -279.5360
   6   2.0000      -8.226142      -223.8447
   7   2.0000      -6.185952      -168.3283
   8   2.0000      -6.185931      -168.3277
   9   2.0000      -6.184287      -168.2830
  10   2.0000      -1.231965       -33.5235
  11   2.0000      -1.092524       -29.7291
  12   2.0000      -1.068003       -29.0618
  13   2.0000      -0.883331       -24.0367
  14   2.0000      -0.756343       -20.5811
  15   2.0000      -0.652275       -17.7493
  16   2.0000      -0.591214       -16.0878
  17   2.0000      -0.568824       -15.4785
  18   2.0000      -0.555749       -15.1227
  19   2.0000      -0.538152       -14.6439
  20   2.0000      -0.501217       -13.6388
  21   2.0000      -0.466986       -12.7073
  22   2.0000      -0.449852       -12.2411
  23   2.0000      -0.437586       -11.9073
  24   2.0000      -0.435599       -11.8533
  25   2.0000      -0.394806       -10.7432
  26   2.0000      -0.383467       -10.4347
  27   2.0000      -0.367182        -9.9915
  28   2.0000      -0.347861        -9.4658
  29   0.0000       0.080846         2.1999
  30   0.0000       0.101402         2.7593
  31   0.0000       0.102197         2.7809
  32   0.0000       0.103240         2.8093
  33   0.0000       0.144293         3.9264

MULLIKEN ATOMIC CHARGES
-----------------------
   0 C :    0.673198
   1 C :   -0.379365
   2 H :   -0.019137
   3 H :    0.025791
   4 S :    1.311538
   5 O :   -0.806699
   6 O :   -0.823717
   7 O :   -0.865025
   8 H :   -0.037447
   9 H :   -0.048490
  10 H :   -0.030646
Sum of atomic charges:   -1.0000000

LOEWDIN ATOMIC CHARGES
----------------------
   0 C :    0.111440
   1 C :   -0.119673
   2 H :    0.018965
   3 H :    0.013094
   4 S :    0.850916
   5 O :   -0.598735
   6 O :   -0.599247
   7 O :   -0.634756
   8 H :   -0.010821
   9 H :   -0.009531
  10 H :   -0.021652

  Mayer bond orders larger than 0.100000
B(  0-C ,  1-C ) :   1.2840 B(  0-C ,  8-H ) :   0.8277 B(  0-C ,  9-H ) :   0.7987
B(  0-C , 10-H ) :   0.8343 B(  1-C ,  2-H ) :   0.9997 B(  1-C ,  3-H ) :   0.9913
B(  1-C ,  4-S ) :   0.9390 B(  1-C ,  8-H ) :   0.1664 B(  1-C ,  9-H ) :   0.1846
B(  1-C , 10-H ) :   0.1856 B(  4-S ,  5-O ) :   1.3592 B(  4-S ,  6-O ) :   1.3123
B(  4-S ,  7-O ) :   1.2605

Dispersion correction           -0.002879580
FINAL SINGLE POINT ENERGY      -702.795210017013

DIPOLE MOMENT
-------------
                                X             Y             Z
Electronic contribution:      1.68443      -6.81535       0.06354
Nuclear contribution   :     -1.55288       9.51857       0.00420
                        -----------------------------------------
Total Dipole Moment    :      0.13155       2.70323       0.06774
                        -----------------------------------------
Magnitude (a.u.)       :      2.70727
Magnitude (Debye)      :      6.88134

Rotational constants in cm-1:     0.163401     0.083833     0.082462
Rotational constants in MHz :  4898.624208  2513.264548  2472.149188

                             ****ORCA TERMINATED NORMALLY****
TOTAL RUN TIME: 0 days 0 hours 0 minutes 10 seconds 307 msec
