                         Program Version 5.0.0 -  RELEASE  -
|  1> !wB97X-D3 RIJCOSX def2-SVPD def2/J TightSCF CPCM(Water)
|  2> *xyz 1 1
|  3> C         -0.46129        2.23469       -4.98962
|  4> C          0.84888        2.66797       -4.30235
|  5> C         -0.42384        2.39877       -6.47432
|  6> N         -0.95947        3.49265       -7.00740
|  7> N          0.14558        1.48689       -7.20399
|  8> H          0.56537        0.69681       -6.72386
|  9> H          0.22068        1.58177       -8.20752
| 10> H         -1.40624        4.18151       -6.40326
| 11> H         -0.93421        3.68160       -7.99947
| 12> H         -1.28888        2.82674       -4.59500
| 13> H         -0.65170        1.18634       -4.75655
| 14> H          1.66208        2.08894       -4.68750
| 15> H          0.76716        2.51042       -3.24717
| 16> H          1.02677        3.70527       -4.49537
| 17> *
| 18>
| 19> %MaxCore 64000
| 20>
| 21> %pal nprocs 18
| 22> end
| 23>
| 24> %scf
| 25>   MaxIter 150
| 26> end
| 27>
| 28>
| 29>                          ****END OF INPUT****

CARTESIAN COORDINATES (ANGSTROEM)
---------------------------------
  C     -0.461290    2.234690   -4.989620
  C      0.848880    2.667970   -4.302350
  C     -0.423840    2.398770   -6.474320
  N     -0.959470    3.492650   -7.007400
  N      0.145580    1.486890   -7.203990
  H      0.565370    0.696810   -6.723860
  H      0.220680    1.581770   -8.207520
  H     -1.406240    4.181510   -6.403260
  H     -0.934210    3.681600   -7.999470
  H     -1.288880    2.826740   -4.595000
  H     -0.651700    1.186340   -4.756550
  H      1.662080    2.088940   -4.687500
  H      0.767160    2.510420   -3.247170
  H      1.026770    3.705270   -4.495370

 Total Charge           Charge          ....    1
 Multiplicity           Mult            ....    1
 Number of Electrons    NEL             ....   40
 Basis Dimension        Dim             ....  172

ORBITAL ENERGIES
----------------

  NO   OCC          E(Eh)            E(eV)
   0   2.0000     -14.500102      -394.5678
   1   2.0000     -14.496707      -394.4755
   2   2.0000     -10.435196      -283.9561
   3   2.0000     -10.320060      -280.8231
   4   2.0000     -10.290328      -280.0140
   5   2.0000      -1.131609       -30.7926
   6   2.0000      -1.032098       -28.0848
   7   2.0000      -0.910942       -24.7880
   8   2.0000      -0.796090       -21.6627
   9   2.0000      -0.744895       -20.2696
  10   2.0000      -0.697545       -18.9812
  11   2.0000      -0.675618       -18.3845
  12   2.0000      -0.614467       -16.7205
  13   2.0000      -0.579188       -15.7605
  14   2.0000      -0.558222       -15.1900
  15   2.0000      -0.541879       -14.7453
  16   2.0000      -0.479793       -13.0558
  17   2.0000      -0.468088       -12.7373
  18   2.0000      -0.462098       -12.5743
  19   2.0000      -0.403548       -10.9811
  20   0.0000       0.049729         1.3532
  21   0.0000       0.088914         2.4195
  22   0.0000       0.121777         3.3137
  23   0.0000       0.131449         3.5769
  24   0.0000       0.134579         3.6621

MULLIKEN ATOMIC CHARGES
-----------------------
   0 C :   -0.423963
   1 C :    0.479373
   2 C :    0.650782
   3 N :   -0.102963
   4 N :    0.029671
   5 H :    0.143504
   6 H :   -0.080859
   7 H :    0.121964
   8 H :   -0.065421
   9 H :    0.082518
  10 H :    0.094996
  11 H :    0.011509
  12 H :    0.057716
  13 H :    0.001173
Sum of atomic charges:    1.0000000

LOEWDIN ATOMIC CHARGES
----------------------
   0 C :    0.010859
   1 C :    0.155329
   2 C :   -0.042390
   3 N :    0.281218
   4 N :    0.288313
   5 H :    0.065313
   6 H :    0.063309
   7 H :    0.059325
   8 H :    0.053048
   9 H :    0.040255
  10 H :    0.044865
  11 H :   -0.009471
  12 H :   -0.003269
  13 H :   -0.006704

  Mayer bond orders larger than 0.100000
B(  0-C ,  1-C ) :   1.2661 B(  0-C ,  2-C ) :   1.1633 B(  0-C ,  9-H ) :   0.9079
B(  0-C , 10-H ) :   0.9088 B(  0-C , 11-H ) :   0.1725 B(  0-C , 12-H ) :   0.1363
B(  0-C , 13-H ) :   0.1529 B(  1-C , 11-H ) :   0.8350 B(  1-C , 12-H ) :   0.8477
B(  1-C , 13-H ) :   0.8723 B(  2-C ,  3-N ) :   1.0323 B(  2-C ,  4-N ) :   1.2135
B(  2-C ,  6-H ) :  -0.1433 B(  2-C ,  8-H ) :  -0.1788 B(  2-C ,  9-H ) :   0.1138
B(  3-N ,  4-N ) :   0.1430 B(  3-N ,  7-H ) :   1.0450 B(  3-N ,  8-H ) :   1.3094
B(  4-N ,  5-H ) :   1.0186 B(  4-N ,  6-H ) :   1.2956 B(  5-H ,  6-H ) :  -0.1582
B(  7-H ,  8-H ) :  -0.1679

Dispersion correction           -0.003018431
FINAL SINGLE POINT ENERGY      -228.921047538771

DIPOLE MOMENT
-------------
                                X             Y             Z
Electronic contribution:     -1.64641      -0.29630      -4.20792
Nuclear contribution   :      1.33202       0.27544       2.83701
                        -----------------------------------------
Total Dipole Moment    :     -0.31439      -0.02086      -1.37091
                        -----------------------------------------
Magnitude (a.u.)       :      1.40665
Magnitude (Debye)      :      3.57543

Rotational constants in cm-1:     0.258570     0.126296     0.098869
Rotational constants in MHz :  7751.748523  3786.267300  2964.011691

                             ****ORCA TERMINATED NORMALLY****
TOTAL RUN TIME: 0 days 0 hours 0 minutes 10 seconds 469 msec
