                         Program Version 5.0.0 -  RELEASE  -
|  1> !wB97X-D3 RIJCOSX def2-SVPD def2/J TightSCF CPCM(Water)
|  2> *xyz 0 1
|  3> C          0.84888        2.66797       -4.30235
|  4> C          2.09343        1.86104       -4.65684
|  5> H          2.44481        2.04157       -5.67499
|  6> H          2.90175        2.13786       -3.98034
|  7> S          1.87964        0.07859       -4.46297
|  8> F          3.20757       -0.46611       -4.42026
|  9> O          1.07506       -0.05616       -3.26876
| 10> O          1.13166       -0.31996       -5.67903
| 11> H          0.05064        2.40112       -4.96303
| 12> H          1.06043        3.71210       -4.40203
| 13> H          0.56237        2.45684       -3.29327
| 14> *
| 15>
| 16> %MaxCore 64000
| 17>
| 18> %pal nprocs 18
| 19> end
| 20>
| 21> %scf
| 22>   MaxIter 150
| 23> end
| 24>
| 25>
| 26>                          ****END OF INPUT****

CARTESIAN COORDINATES (ANGSTROEM)
---------------------------------
  C      0.848880    2.667970   -4.302350
  C      2.093430    1.861040   -4.656840
  H      2.444810    2.041570   -5.674990
  H      2.901750    2.137860   -3.980340
  S      1.879640    0.078590   -4.462970
  F      3.207570   -0.466110   -4.420260
  O      1.075060   -0.056160   -3.268760
  O      1.131660   -0.319960   -5.679030
  H      0.050640    2.401120   -4.963030
  H      1.060430    3.712100   -4.402030
  H      0.562370    2.456840   -3.293270

 Total Charge           Charge          ....    0
 Multiplicity           Mult            ....    1
 Number of Electrons    NEL             ....   58
 Basis Dimension        Dim             ....  176

ORBITAL ENERGIES
----------------

  NO   OCC          E(Eh)            E(eV)
   0   2.0000     -89.240071     -2428.3458
   1   2.0000     -24.921505      -678.1486
   2   2.0000     -19.267913      -524.3066
   3   2.0000     -19.257663      -524.0276
   4   2.0000     -10.336572      -281.2724
   5   2.0000     -10.291736      -280.0524
   6   2.0000      -8.314639      -226.2528
   7   2.0000      -6.278248      -170.8398
   8   2.0000      -6.272321      -170.6785
   9   2.0000      -6.270154      -170.6196
  10   2.0000      -1.496533       -40.7227
  11   2.0000      -1.232837       -33.5472
  12   2.0000      -1.128304       -30.7027
  13   2.0000      -0.921877       -25.0855
  14   2.0000      -0.844679       -22.9849
  15   2.0000      -0.774714       -21.0810
  16   2.0000      -0.697400       -18.9772
  17   2.0000      -0.689806       -18.7706
  18   2.0000      -0.665591       -18.1116
  19   2.0000      -0.589833       -16.0502
  20   2.0000      -0.583998       -15.8914
  21   2.0000      -0.553919       -15.0729
  22   2.0000      -0.523388       -14.2421
  23   2.0000      -0.493975       -13.4418
  24   2.0000      -0.488155       -13.2834
  25   2.0000      -0.468265       -12.7421
  26   2.0000      -0.441147       -12.0042
  27   2.0000      -0.421231       -11.4623
  28   2.0000      -0.414952       -11.2914
  29   0.0000       0.068367         1.8604
  30   0.0000       0.097755         2.6600
  31   0.0000       0.098241         2.6733
  32   0.0000       0.100018         2.7216
  33   0.0000       0.123448         3.3592

MULLIKEN ATOMIC CHARGES
-----------------------
   0 C :    0.619449
   1 C :   -0.472025
   2 H :    0.056018
   3 H :    0.109159
   4 S :    1.564494
   5 F :   -0.397854
   6 O :   -0.707777
   7 O :   -0.749289
   8 H :   -0.011016
   9 H :   -0.014408
  10 H :    0.003249
Sum of atomic charges:    0.0000000

LOEWDIN ATOMIC CHARGES
----------------------
   0 C :    0.139130
   1 C :   -0.078694
   2 H :    0.035670
   3 H :    0.030626
   4 S :    1.138238
   5 F :   -0.235633
   6 O :   -0.497512
   7 O :   -0.527326
   8 H :   -0.000030
   9 H :    0.005626
  10 H :   -0.010095

  Mayer bond orders larger than 0.100000
B(  0-C ,  1-C ) :   1.3229 B(  0-C ,  8-H ) :   0.8381 B(  0-C ,  9-H ) :   0.8120
B(  0-C , 10-H ) :   0.8389 B(  1-C ,  2-H ) :   0.9967 B(  1-C ,  3-H ) :   0.9673
B(  1-C ,  4-S ) :   0.9756 B(  1-C ,  8-H ) :   0.1589 B(  1-C ,  9-H ) :   0.1756
B(  1-C , 10-H ) :   0.1786 B(  4-S ,  5-F ) :   0.7094 B(  4-S ,  6-O ) :   1.4963
B(  4-S ,  7-O ) :   1.4410

Dispersion correction           -0.002877013
FINAL SINGLE POINT ENERGY      -727.186542997561

DIPOLE MOMENT
-------------
                                X             Y             Z
Electronic contribution:      4.59346      -8.92888       0.12302
Nuclear contribution   :     -3.08754      10.54185      -0.04092
                        -----------------------------------------
Total Dipole Moment    :      1.50592       1.61297       0.08211
                        -----------------------------------------
Magnitude (a.u.)       :      2.20822
Magnitude (Debye)      :      5.61284

Rotational constants in cm-1:     0.158925     0.081210     0.079022
Rotational constants in MHz :  4764.450166  2434.603461  2369.014434

                             ****ORCA TERMINATED NORMALLY****
TOTAL RUN TIME: 0 days 0 hours 0 minutes 11 seconds 225 msec
