                         Program Version 5.0.0 -  RELEASE  -
|  1> !wB97X-D3 RIJCOSX def2-SVPD def2/J TightSCF CPCM(Water)
|  2> *xyz 0 1
|  3> C         -0.46129        2.23469       -4.98962
|  4> C          0.84888        2.66797       -4.30235
|  5> C         -0.42384        2.39877       -6.47432
|  6> C         -0.95947        3.49265       -7.00740
|  7> N          0.14558        1.48689       -7.20399
|  8> H          0.56537        0.69681       -6.72386
|  9> H          0.22068        1.58177       -8.20752
| 10> H         -1.40624        4.18151       -6.40326
| 11> H         -0.93421        3.68160       -7.99947
| 12> H         -1.28888        2.82674       -4.59500
| 13> H         -0.65170        1.18634       -4.75655
| 14> H          1.66208        2.08894       -4.68750
| 15> H          0.76716        2.51042       -3.24717
| 16> H          1.02677        3.70527       -4.49537
| 17> *
| 18>
| 19> %MaxCore 64000
| 20>
| 21> %pal nprocs 18
| 22> end
| 23>
| 24> %scf
| 25>   MaxIter 150
| 26> end
| 27>
| 28>
| 29>                          ****END OF INPUT****

CARTESIAN COORDINATES (ANGSTROEM)
---------------------------------
  C     -0.461290    2.234690   -4.989620
  C      0.848880    2.667970   -4.302350
  C     -0.423840    2.398770   -6.474320
  C     -0.959470    3.492650   -7.007400
  N      0.145580    1.486890   -7.203990
  H      0.565370    0.696810   -6.723860
  H      0.220680    1.581770   -8.207520
  H     -1.406240    4.181510   -6.403260
  H     -0.934210    3.681600   -7.999470
  H     -1.288880    2.826740   -4.595000
  H     -0.651700    1.186340   -4.756550
  H      1.662080    2.088940   -4.687500
  H      0.767160    2.510420   -3.247170
  H      1.026770    3.705270   -4.495370

 Total Charge           Charge          ....    0
 Multiplicity           Mult            ....    1
 Number of Electrons    NEL             ....   40
 Basis Dimension        Dim             ....  172

ORBITAL ENERGIES
----------------

  NO   OCC          E(Eh)            E(eV)
   0   2.0000     -14.433816      -392.7641
   1   2.0000     -10.314711      -280.6776
   2   2.0000     -10.285415      -279.8804
   3   2.0000     -10.271830      -279.5107
   4   2.0000     -10.223249      -278.1888
   5   2.0000      -1.042191       -28.3595
   6   2.0000      -0.886095       -24.1119
   7   2.0000      -0.823226       -22.4011
   8   2.0000      -0.740681       -20.1550
   9   2.0000      -0.669997       -18.2315
  10   2.0000      -0.626521       -17.0485
  11   2.0000      -0.583005       -15.8644
  12   2.0000      -0.533437       -14.5156
  13   2.0000      -0.519541       -14.1374
  14   2.0000      -0.491856       -13.3841
  15   2.0000      -0.480239       -13.0680
  16   2.0000      -0.443305       -12.0629
  17   2.0000      -0.428801       -11.6683
  18   2.0000      -0.425662       -11.5828
  19   2.0000      -0.280176        -7.6240
  20   0.0000       0.094574         2.5735
  21   0.0000       0.117542         3.1985
  22   0.0000       0.126409         3.4398
  23   0.0000       0.133965         3.6454
  24   0.0000       0.142874         3.8878

MULLIKEN ATOMIC CHARGES
-----------------------
   0 C :   -0.226589
   1 C :    0.531432
   2 C :   -0.223746
   3 C :    0.418071
   4 N :    0.180195
   5 H :   -0.017645
   6 H :   -0.135541
   7 H :   -0.115221
   8 H :   -0.440136
   9 H :    0.094739
  10 H :   -0.015965
  11 H :   -0.023895
  12 H :    0.030593
  13 H :   -0.056291
Sum of atomic charges:    0.0000000

LOEWDIN ATOMIC CHARGES
----------------------
   0 C :   -0.033154
   1 C :    0.132336
   2 C :   -0.282425
   3 C :    0.146478
   4 N :    0.176006
   5 H :    0.023399
   6 H :    0.027181
   7 H :   -0.089599
   8 H :   -0.095076
   9 H :    0.023006
  10 H :    0.024412
  11 H :   -0.018925
  12 H :   -0.015951
  13 H :   -0.017688

  Mayer bond orders larger than 0.100000
B(  0-C ,  1-C ) :   1.2583 B(  0-C ,  2-C ) :   1.1913 B(  0-C ,  3-C ) :   0.1632
B(  0-C ,  9-H ) :   0.8515 B(  0-C , 10-H ) :   0.8745 B(  0-C , 11-H ) :   0.1942
B(  0-C , 12-H ) :   0.1502 B(  0-C , 13-H ) :   0.1628 B(  1-C , 11-H ) :   0.8292
B(  1-C , 12-H ) :   0.8304 B(  1-C , 13-H ) :   0.8767 B(  2-C ,  3-C ) :   1.7721
B(  2-C ,  4-N ) :   1.3161 B(  2-C ,  8-H ) :   0.1605 B(  2-C ,  9-H ) :   0.1361
B(  2-C , 10-H ) :   0.1566 B(  3-C ,  4-N ) :   0.2184 B(  3-C ,  7-H ) :   0.9114
B(  3-C ,  8-H ) :   0.7755 B(  4-N ,  5-H ) :   1.0648 B(  4-N ,  6-H ) :   1.2430
B(  5-H ,  6-H ) :  -0.1307

Dispersion correction           -0.003017054
FINAL SINGLE POINT ENERGY      -212.372350513185

DIPOLE MOMENT
-------------
                                X             Y             Z
Electronic contribution:     -0.54201      -1.48076      -2.53522
Nuclear contribution   :      1.14741       0.51394       2.60761
                        -----------------------------------------
Total Dipole Moment    :      0.60540      -0.96682       0.07239
                        -----------------------------------------
Magnitude (a.u.)       :      1.14302
Magnitude (Debye)      :      2.90532

Rotational constants in cm-1:     0.269157     0.129188     0.102123
Rotational constants in MHz :  8069.118715  3872.945231  3061.580645

                             ****ORCA TERMINATED NORMALLY****
TOTAL RUN TIME: 0 days 0 hours 0 minutes 11 seconds 952 msec
