                         Program Version 5.0.0 -  RELEASE  -
|  1> !wB97X-D3 RIJCOSX def2-SVPD def2/J TightSCF CPCM(Water)
|  2> *xyz 0 1
|  3> C          0.84888        2.66797       -4.30235
|  4> C          2.09343        1.86104       -4.65684
|  5> H          2.44481        2.04157       -5.67499
|  6> H          2.90175        2.13786       -3.98034
|  7> S          1.87964        0.07859       -4.46297
|  8> O          3.20757       -0.46611       -4.42026
|  9> F          1.07506       -0.05616       -3.26876
| 10> O          1.13166       -0.31996       -5.67903
| 11> H          0.05064        2.40112       -4.96303
| 12> H          1.06043        3.71210       -4.40203
| 13> H          0.56237        2.45684       -3.29327
| 14> *
| 15>
| 16> %MaxCore 64000
| 17>
| 18> %pal nprocs 18
| 19> end
| 20>
| 21> %scf
| 22>   MaxIter 150
| 23> end
| 24>
| 25>
| 26>                          ****END OF INPUT****

CARTESIAN COORDINATES (ANGSTROEM)
---------------------------------
  C      0.848880    2.667970   -4.302350
  C      2.093430    1.861040   -4.656840
  H      2.444810    2.041570   -5.674990
  H      2.901750    2.137860   -3.980340
  S      1.879640    0.078590   -4.462970
  O      3.207570   -0.466110   -4.420260
  F      1.075060   -0.056160   -3.268760
  O      1.131660   -0.319960   -5.679030
  H      0.050640    2.401120   -4.963030
  H      1.060430    3.712100   -4.402030
  H      0.562370    2.456840   -3.293270

 Total Charge           Charge          ....    0
 Multiplicity           Mult            ....    1
 Number of Electrons    NEL             ....   58
 Basis Dimension        Dim             ....  176

ORBITAL ENERGIES
----------------

  NO   OCC          E(Eh)            E(eV)
   0   2.0000     -89.239939     -2428.3422
   1   2.0000     -24.916933      -678.0242
   2   2.0000     -19.272263      -524.4249
   3   2.0000     -19.258141      -524.0407
   4   2.0000     -10.336922      -281.2819
   5   2.0000     -10.291380      -280.0427
   6   2.0000      -8.314528      -226.2498
   7   2.0000      -6.278238      -170.8395
   8   2.0000      -6.272199      -170.6752
   9   2.0000      -6.270003      -170.6155
  10   2.0000      -1.488716       -40.5100
  11   2.0000      -1.237458       -33.6730
  12   2.0000      -1.132147       -30.8073
  13   2.0000      -0.925058       -25.1721
  14   2.0000      -0.837225       -22.7821
  15   2.0000      -0.775446       -21.1010
  16   2.0000      -0.699697       -19.0397
  17   2.0000      -0.691141       -18.8069
  18   2.0000      -0.657679       -17.8964
  19   2.0000      -0.587494       -15.9865
  20   2.0000      -0.575718       -15.6661
  21   2.0000      -0.558724       -15.2036
  22   2.0000      -0.532074       -14.4785
  23   2.0000      -0.505946       -13.7675
  24   2.0000      -0.485186       -13.2026
  25   2.0000      -0.470946       -12.8151
  26   2.0000      -0.439808       -11.9678
  27   2.0000      -0.422129       -11.4867
  28   2.0000      -0.418835       -11.3971
  29   0.0000       0.067160         1.8275
  30   0.0000       0.096774         2.6333
  31   0.0000       0.098222         2.6727
  32   0.0000       0.100095         2.7237
  33   0.0000       0.129724         3.5300

MULLIKEN ATOMIC CHARGES
-----------------------
   0 C :    0.601947
   1 C :   -0.449179
   2 H :    0.055669
   3 H :    0.092040
   4 S :    1.533536
   5 O :   -0.686714
   6 F :   -0.398290
   7 O :   -0.750436
   8 H :   -0.003494
   9 H :   -0.014663
  10 H :    0.019584
Sum of atomic charges:    0.0000000

LOEWDIN ATOMIC CHARGES
----------------------
   0 C :    0.130912
   1 C :   -0.072118
   2 H :    0.043945
   3 H :    0.030839
   4 S :    1.131027
   5 O :   -0.491857
   6 F :   -0.241507
   7 O :   -0.526175
   8 H :   -0.002093
   9 H :    0.003422
  10 H :   -0.006396

  Mayer bond orders larger than 0.100000
B(  0-C ,  1-C ) :   1.2943 B(  0-C ,  8-H ) :   0.8463 B(  0-C ,  9-H ) :   0.8057
B(  0-C , 10-H ) :   0.8393 B(  1-C ,  2-H ) :   0.9991 B(  1-C ,  3-H ) :   0.9933
B(  1-C ,  4-S ) :   1.0000 B(  1-C ,  8-H ) :   0.1587 B(  1-C ,  9-H ) :   0.1806
B(  1-C , 10-H ) :   0.1684 B(  4-S ,  5-O ) :   1.5384 B(  4-S ,  6-F ) :   0.6969
B(  4-S ,  7-O ) :   1.4566

Dispersion correction           -0.002881376
FINAL SINGLE POINT ENERGY      -727.191088250736

DIPOLE MOMENT
-------------
                                X             Y             Z
Electronic contribution:      0.52327      -8.14145       2.31497
Nuclear contribution   :     -0.86540      10.11467      -1.24082
                        -----------------------------------------
Total Dipole Moment    :     -0.34213       1.97322       1.07416
                        -----------------------------------------
Magnitude (a.u.)       :      2.27255
Magnitude (Debye)      :      5.77636

Rotational constants in cm-1:     0.154065     0.083345     0.080357
Rotational constants in MHz :  4618.752213  2498.631937  2409.037217

                             ****ORCA TERMINATED NORMALLY****
TOTAL RUN TIME: 0 days 0 hours 0 minutes 12 seconds 144 msec
