                         Program Version 5.0.0 -  RELEASE  -
|  1> !wB97X-D3 RIJCOSX def2-SVPD def2/J TightSCF CPCM(Water)
|  2> *xyz 0 1
|  3> C         -0.46129        2.23469       -4.98962
|  4> C          0.84888        2.66797       -4.30235
|  5> C         -0.42384        2.39877       -6.47432
|  6> N         -0.95947        3.49265       -7.00740
|  7> C          0.14558        1.48689       -7.20399
|  8> H          0.56537        0.69681       -6.72386
|  9> H          0.22068        1.58177       -8.20752
| 10> H         -1.40624        4.18151       -6.40326
| 11> H         -0.93421        3.68160       -7.99947
| 12> H         -1.28888        2.82674       -4.59500
| 13> H         -0.65170        1.18634       -4.75655
| 14> H          1.66208        2.08894       -4.68750
| 15> H          0.76716        2.51042       -3.24717
| 16> H          1.02677        3.70527       -4.49537
| 17> *
| 18>
| 19> %MaxCore 64000
| 20>
| 21> %pal nprocs 18
| 22> end
| 23>
| 24> %scf
| 25>   MaxIter 150
| 26> end
| 27>
| 28>
| 29>                          ****END OF INPUT****

CARTESIAN COORDINATES (ANGSTROEM)
---------------------------------
  C     -0.461290    2.234690   -4.989620
  C      0.848880    2.667970   -4.302350
  C     -0.423840    2.398770   -6.474320
  N     -0.959470    3.492650   -7.007400
  C      0.145580    1.486890   -7.203990
  H      0.565370    0.696810   -6.723860
  H      0.220680    1.581770   -8.207520
  H     -1.406240    4.181510   -6.403260
  H     -0.934210    3.681600   -7.999470
  H     -1.288880    2.826740   -4.595000
  H     -0.651700    1.186340   -4.756550
  H      1.662080    2.088940   -4.687500
  H      0.767160    2.510420   -3.247170
  H      1.026770    3.705270   -4.495370

 Total Charge           Charge          ....    0
 Multiplicity           Mult            ....    1
 Number of Electrons    NEL             ....   40
 Basis Dimension        Dim             ....  172

ORBITAL ENERGIES
----------------

  NO   OCC          E(Eh)            E(eV)
   0   2.0000     -14.431207      -392.6931
   1   2.0000     -10.311811      -280.5986
   2   2.0000     -10.284904      -279.8665
   3   2.0000     -10.271488      -279.5014
   4   2.0000     -10.221717      -278.1471
   5   2.0000      -1.030223       -28.0338
   6   2.0000      -0.887978       -24.1631
   7   2.0000      -0.826770       -22.4975
   8   2.0000      -0.741767       -20.1845
   9   2.0000      -0.665034       -18.0965
  10   2.0000      -0.616849       -16.7853
  11   2.0000      -0.585339       -15.9279
  12   2.0000      -0.536424       -14.5968
  13   2.0000      -0.514259       -13.9937
  14   2.0000      -0.492371       -13.3981
  15   2.0000      -0.480596       -13.0777
  16   2.0000      -0.441175       -12.0050
  17   2.0000      -0.430516       -11.7149
  18   2.0000      -0.423694       -11.5293
  19   2.0000      -0.283984        -7.7276
  20   0.0000       0.095071         2.5870
  21   0.0000       0.118854         3.2342
  22   0.0000       0.126994         3.4557
  23   0.0000       0.131588         3.5807
  24   0.0000       0.144339         3.9277

MULLIKEN ATOMIC CHARGES
-----------------------
   0 C :   -0.219022
   1 C :    0.508390
   2 C :   -0.078003
   3 N :    0.029397
   4 C :    0.383959
   5 H :   -0.096050
   6 H :   -0.388808
   7 H :   -0.016930
   8 H :   -0.120210
   9 H :   -0.039344
  10 H :    0.094421
  11 H :   -0.053201
  12 H :    0.032277
  13 H :   -0.036876
Sum of atomic charges:   -0.0000000

LOEWDIN ATOMIC CHARGES
----------------------
   0 C :   -0.032812
   1 C :    0.132152
   2 C :   -0.276422
   3 N :    0.171069
   4 C :    0.142873
   5 H :   -0.078506
   6 H :   -0.083366
   7 H :    0.015632
   8 H :    0.015921
   9 H :    0.020370
  10 H :    0.025971
  11 H :   -0.020762
  12 H :   -0.016400
  13 H :   -0.015720

  Mayer bond orders larger than 0.100000
B(  0-C ,  1-C ) :   1.2684 B(  0-C ,  2-C ) :   1.1338 B(  0-C ,  4-C ) :   0.1670
B(  0-C ,  9-H ) :   0.8824 B(  0-C , 10-H ) :   0.8518 B(  0-C , 11-H ) :   0.1766
B(  0-C , 12-H ) :   0.1403 B(  0-C , 13-H ) :   0.1765 B(  1-C , 11-H ) :   0.8629
B(  1-C , 12-H ) :   0.8315 B(  1-C , 13-H ) :   0.8607 B(  2-C ,  3-N ) :   1.1582
B(  2-C ,  4-C ) :   1.8657 B(  2-C ,  5-H ) :   0.1381 B(  2-C ,  6-H ) :   0.1997
B(  2-C ,  8-H ) :  -0.1059 B(  2-C ,  9-H ) :   0.1462 B(  2-C , 10-H ) :   0.1064
B(  3-N ,  4-C ) :   0.2366 B(  3-N ,  7-H ) :   1.0772 B(  3-N ,  8-H ) :   1.2724
B(  4-C ,  5-H ) :   0.8019 B(  4-C ,  6-H ) :   0.7658 B(  7-H ,  8-H ) :  -0.1541

Dispersion correction           -0.003006437
FINAL SINGLE POINT ENERGY      -212.371809812841

DIPOLE MOMENT
-------------
                                X             Y             Z
Electronic contribution:     -1.82962       0.82901      -2.30993
Nuclear contribution   :      1.40335       0.04939       2.56207
                        -----------------------------------------
Total Dipole Moment    :     -0.42626       0.87840       0.25214
                        -----------------------------------------
Magnitude (a.u.)       :      1.00840
Magnitude (Debye)      :      2.56315

Rotational constants in cm-1:     0.271383     0.128194     0.101873
Rotational constants in MHz :  8135.853259  3843.152748  3054.074278

                             ****ORCA TERMINATED NORMALLY****
TOTAL RUN TIME: 0 days 0 hours 0 minutes 11 seconds 148 msec
