                         Program Version 5.0.0 -  RELEASE  -
|  1> !wB97X-D3 RIJCOSX def2-SVPD def2/J TightSCF CPCM(Water)
|  2> *xyz 0 1
|  3> C          0.84888        2.66797       -4.30235
|  4> C          2.09343        1.86104       -4.65684
|  5> H          2.44481        2.04157       -5.67499
|  6> H          2.90175        2.13786       -3.98034
|  7> S          1.87964        0.07859       -4.46297
|  8> O          3.20757       -0.46611       -4.42026
|  9> O          1.07506       -0.05616       -3.26876
| 10> F          1.13166       -0.31996       -5.67903
| 11> H          0.05064        2.40112       -4.96303
| 12> H          1.06043        3.71210       -4.40203
| 13> H          0.56237        2.45684       -3.29327
| 14> *
| 15>
| 16> %MaxCore 64000
| 17>
| 18> %pal nprocs 18
| 19> end
| 20>
| 21> %scf
| 22>   MaxIter 150
| 23> end
| 24>
| 25>
| 26>                          ****END OF INPUT****

CARTESIAN COORDINATES (ANGSTROEM)
---------------------------------
  C      0.848880    2.667970   -4.302350
  C      2.093430    1.861040   -4.656840
  H      2.444810    2.041570   -5.674990
  H      2.901750    2.137860   -3.980340
  S      1.879640    0.078590   -4.462970
  O      3.207570   -0.466110   -4.420260
  O      1.075060   -0.056160   -3.268760
  F      1.131660   -0.319960   -5.679030
  H      0.050640    2.401120   -4.963030
  H      1.060430    3.712100   -4.402030
  H      0.562370    2.456840   -3.293270

 Total Charge           Charge          ....    0
 Multiplicity           Mult            ....    1
 Number of Electrons    NEL             ....   58
 Basis Dimension        Dim             ....  176

ORBITAL ENERGIES
----------------

  NO   OCC          E(Eh)            E(eV)
   0   2.0000     -89.236935     -2428.2604
   1   2.0000     -24.899539      -677.5509
   2   2.0000     -19.271336      -524.3997
   3   2.0000     -19.267516      -524.2958
   4   2.0000     -10.335623      -281.2466
   5   2.0000     -10.288940      -279.9763
   6   2.0000      -8.311495      -226.1673
   7   2.0000      -6.275001      -170.7515
   8   2.0000      -6.269312      -170.5967
   9   2.0000      -6.267170      -170.5384
  10   2.0000      -1.459003       -39.7015
  11   2.0000      -1.244088       -33.8533
  12   2.0000      -1.149362       -31.2757
  13   2.0000      -0.921374       -25.0719
  14   2.0000      -0.827051       -22.5052
  15   2.0000      -0.769280       -20.9332
  16   2.0000      -0.680354       -18.5134
  17   2.0000      -0.671446       -18.2710
  18   2.0000      -0.659297       -17.9404
  19   2.0000      -0.592694       -16.1280
  20   2.0000      -0.569757       -15.5039
  21   2.0000      -0.568692       -15.4749
  22   2.0000      -0.524157       -14.2630
  23   2.0000      -0.508116       -13.8265
  24   2.0000      -0.486374       -13.2349
  25   2.0000      -0.465129       -12.6568
  26   2.0000      -0.447522       -12.1777
  27   2.0000      -0.430810       -11.7229
  28   2.0000      -0.426985       -11.6188
  29   0.0000       0.068580         1.8662
  30   0.0000       0.097248         2.6463
  31   0.0000       0.098178         2.6715
  32   0.0000       0.100976         2.7477
  33   0.0000       0.126161         3.4330

MULLIKEN ATOMIC CHARGES
-----------------------
   0 C :    0.637589
   1 C :   -0.472051
   2 H :    0.053606
   3 H :    0.102979
   4 S :    1.540338
   5 O :   -0.697635
   6 O :   -0.721337
   7 F :   -0.416880
   8 H :   -0.011392
   9 H :   -0.016851
  10 H :    0.001634
Sum of atomic charges:    0.0000000

LOEWDIN ATOMIC CHARGES
----------------------
   0 C :    0.129956
   1 C :   -0.072591
   2 H :    0.036009
   3 H :    0.037695
   4 S :    1.130029
   5 O :   -0.493052
   6 O :   -0.495508
   7 F :   -0.262666
   8 H :   -0.000412
   9 H :    0.002533
  10 H :   -0.011993

  Mayer bond orders larger than 0.100000
B(  0-C ,  1-C ) :   1.3054 B(  0-C ,  8-H ) :   0.8308 B(  0-C ,  9-H ) :   0.8038
B(  0-C , 10-H ) :   0.8422 B(  1-C ,  2-H ) :   0.9935 B(  1-C ,  3-H ) :   0.9862
B(  1-C ,  4-S ) :   0.9956 B(  1-C ,  8-H ) :   0.1649 B(  1-C ,  9-H ) :   0.1768
B(  1-C , 10-H ) :   0.1808 B(  4-S ,  5-O ) :   1.5331 B(  4-S ,  6-O ) :   1.5040
B(  4-S ,  7-F ) :   0.6410

Dispersion correction           -0.002844617
FINAL SINGLE POINT ENERGY      -727.204912333286

DIPOLE MOMENT
-------------
                                X             Y             Z
Electronic contribution:      0.60355      -8.67728      -2.33271
Nuclear contribution   :     -0.92438      10.38956       1.27076
                        -----------------------------------------
Total Dipole Moment    :     -0.32083       1.71228      -1.06195
                        -----------------------------------------
Magnitude (a.u.)       :      2.04024
Magnitude (Debye)      :      5.18587

Rotational constants in cm-1:     0.154243     0.082247     0.080562
Rotational constants in MHz :  4624.087322  2465.703680  2415.175852

                             ****ORCA TERMINATED NORMALLY****
TOTAL RUN TIME: 0 days 0 hours 0 minutes 11 seconds 152 msec
