                         Program Version 5.0.0 -  RELEASE  -
|  1> !wB97X-D3 RIJCOSX def2-SVPD def2/J TightSCF CPCM(Water) xyzfile
|  2>
|  3> *xyzfile 0 1 D1.xyz
|  4>
|  5> %MaxCore 64000
|  6>
|  7> %pal nprocs 18
|  8> end
|  9>
| 10> %scf
| 11>   MaxIter 150
| 12> end
| 13>
| 14>
| 15>                          ****END OF INPUT****

CARTESIAN COORDINATES (ANGSTROEM)
---------------------------------
  C     -0.461293    2.234686   -4.989619
  C      0.848883    2.667967   -4.302351
  C      2.093434    1.861037   -4.656845
  H      2.444814    2.041567   -5.674990
  H      2.901748    2.137864   -3.980338
  S      1.879644    0.078594   -4.462965
  C     -0.423841    2.398772   -6.474317
  C     -0.959467    3.492647   -7.007401
  N      0.145585    1.486891   -7.203987
  H      0.565371    0.696807   -6.723858
  H      0.220682    1.581768   -8.207520
  H     -1.406243    4.181507   -6.403261
  H     -0.934215    3.681601   -7.999468
  F      3.207574   -0.466111   -4.420259
  O      1.075064   -0.056160   -3.268758
  O      1.131661   -0.319960   -5.679031
  H      0.668432    2.559427   -3.232850
  H      1.034074    3.729426   -4.497081
  H     -1.288884    2.826737   -4.594997
  H     -0.651696    1.186343   -4.756552

 Total Charge           Charge          ....    0
 Multiplicity           Mult            ....    1
 Number of Electrons    NEL             ....   88
 Basis Dimension        Dim             ....  296

ORBITAL ENERGIES
----------------

  NO   OCC          E(Eh)            E(eV)
   0   2.0000     -89.251276     -2428.6507
   1   2.0000     -24.927638      -678.3155
   2   2.0000     -19.275197      -524.5048
   3   2.0000     -19.270563      -524.3787
   4   2.0000     -14.414818      -392.2471
   5   2.0000     -10.340589      -281.3817
   6   2.0000     -10.312459      -280.6163
   7   2.0000     -10.308862      -280.5184
   8   2.0000     -10.289981      -280.0046
   9   2.0000     -10.220631      -278.1175
  10   2.0000      -8.324949      -226.5334
  11   2.0000      -6.288414      -171.1164
  12   2.0000      -6.282886      -170.9660
  13   2.0000      -6.280572      -170.9030
  14   2.0000      -1.502240       -40.8780
  15   2.0000      -1.243906       -33.8484
  16   2.0000      -1.143631       -31.1198
  17   2.0000      -1.035047       -28.1651
  18   2.0000      -0.937426       -25.5087
  19   2.0000      -0.876245       -23.8438
  20   2.0000      -0.844216       -22.9723
  21   2.0000      -0.801674       -21.8146
  22   2.0000      -0.750007       -20.4087
  23   2.0000      -0.707758       -19.2591
  24   2.0000      -0.695921       -18.9370
  25   2.0000      -0.681706       -18.5502
  26   2.0000      -0.662049       -18.0153
  27   2.0000      -0.626824       -17.0568
  28   2.0000      -0.600915       -16.3517
  29   2.0000      -0.589190       -16.0327
  30   2.0000      -0.577757       -15.7216
  31   2.0000      -0.555665       -15.1204
  32   2.0000      -0.544434       -14.8148
  33   2.0000      -0.513705       -13.9786
  34   2.0000      -0.492176       -13.3928
  35   2.0000      -0.489123       -13.3097
  36   2.0000      -0.482526       -13.1302
  37   2.0000      -0.455894       -12.4055
  38   2.0000      -0.447326       -12.1724
  39   2.0000      -0.442711       -12.0468
  40   2.0000      -0.427406       -11.6303
  41   2.0000      -0.422929       -11.5085
  42   2.0000      -0.413718       -11.2578
  43   2.0000      -0.275545        -7.4980
  44   0.0000       0.068263         1.8575
  45   0.0000       0.093063         2.5324
  46   0.0000       0.095092         2.5876
  47   0.0000       0.098449         2.6789
  48   0.0000       0.111547         3.0353

MULLIKEN ATOMIC CHARGES
-----------------------
   0 C :    0.368916
   1 C :    0.052238
   2 C :   -0.025331
   3 H :    0.225189
   4 H :   -0.002560
   5 S :    1.675479
   6 C :   -0.200694
   7 C :    0.305337
   8 N :    0.581264
   9 H :   -0.398801
  10 H :   -0.151222
  11 H :   -0.082367
  12 H :   -0.380230
  13 F :   -0.460669
  14 O :   -0.716123
  15 O :   -0.846499
  16 H :    0.184458
  17 H :   -0.140948
  18 H :    0.046077
  19 H :   -0.033514
Sum of atomic charges:   -0.0000000

LOEWDIN ATOMIC CHARGES
----------------------
   0 C :    0.024369
   1 C :    0.000479
   2 C :   -0.021230
   3 H :    0.034372
   4 H :    0.034327
   5 S :    1.192973
   6 C :   -0.256234
   7 C :    0.144640
   8 N :    0.200045
   9 H :   -0.137966
  10 H :    0.031249
  11 H :   -0.091529
  12 H :   -0.095383
  13 F :   -0.223096
  14 O :   -0.475536
  15 O :   -0.479426
  16 H :    0.029504
  17 H :    0.044761
  18 H :    0.034069
  19 H :    0.009613

  Mayer bond orders larger than 0.100000
B(  0-C ,  1-C ) :   1.1772 B(  0-C ,  6-C ) :   1.1659 B(  0-C ,  8-N ) :   0.1091
B(  0-C , 16-H ) :   0.1360 B(  0-C , 17-H ) :   0.1030 B(  0-C , 18-H ) :   0.7493
B(  0-C , 19-H ) :   0.7462 B(  1-C ,  2-C ) :   1.3758 B(  1-C ,  3-H ) :   0.1156
B(  1-C ,  4-H ) :   0.1930 B(  1-C , 16-H ) :   0.7845 B(  1-C , 17-H ) :   0.9367
B(  1-C , 18-H ) :   0.1458 B(  1-C , 19-H ) :   0.1454 B(  2-C ,  3-H ) :   0.8629
B(  2-C ,  4-H ) :   0.8469 B(  2-C ,  5-S ) :   0.9563 B(  2-C , 15-O ) :   0.1173
B(  2-C , 16-H ) :   0.1193 B(  2-C , 17-H ) :   0.1039 B(  5-S , 13-F ) :   0.6626
B(  5-S , 14-O ) :   1.5006 B(  5-S , 15-O ) :   1.3444 B(  6-C ,  7-C ) :   1.7583
B(  6-C ,  8-N ) :   1.1765 B(  6-C , 10-H ) :  -0.1198 B(  6-C , 12-H ) :   0.1543
B(  6-C , 18-H ) :   0.1444 B(  6-C , 19-H ) :   0.1801 B(  7-C ,  8-N ) :   0.1655
B(  7-C , 11-H ) :   0.9037 B(  7-C , 12-H ) :   0.7095 B(  8-N ,  9-H ) :   0.9445
B(  8-N , 10-H ) :   1.2437 B(  9-H , 10-H ) :  -0.2110 B(  9-H , 15-O ) :   0.1704

Dispersion correction           -0.008655788
FINAL SINGLE POINT ENERGY      -899.081563096874

DIPOLE MOMENT
-------------
                                X             Y             Z
Electronic contribution:     10.79500     -13.76551       5.55246
Nuclear contribution   :     -8.53047      14.15581      -5.17613
                        -----------------------------------------
Total Dipole Moment    :      2.26453       0.39030       0.37632
                        -----------------------------------------
Magnitude (a.u.)       :      2.32853
Magnitude (Debye)      :      5.91865

Rotational constants in cm-1:     0.081196     0.024861     0.022477
Rotational constants in MHz :  2434.181666   745.320670   673.846846

                             ****ORCA TERMINATED NORMALLY****
TOTAL RUN TIME: 0 days 0 hours 0 minutes 30 seconds 522 msec
