                         Program Version 5.0.0 -  RELEASE  -
|  1> !wB97X-D3 RIJCOSX def2-SVPD def2/J TightSCF CPCM(Water) xyzfile
|  2>
|  3> *xyzfile 0 1 D6.xyz
|  4>
|  5> %MaxCore 64000
|  6>
|  7> %pal nprocs 18
|  8> end
|  9>
| 10> %scf
| 11>   MaxIter 150
| 12> end
| 13>
| 14>
| 15>                          ****END OF INPUT****

CARTESIAN COORDINATES (ANGSTROEM)
---------------------------------
  C     -0.461293    2.234686   -4.989619
  C      0.848883    2.667967   -4.302351
  C      2.093434    1.861037   -4.656845
  H      2.444814    2.041567   -5.674990
  H      2.901748    2.137864   -3.980338
  S      1.879644    0.078594   -4.462965
  C     -0.423841    2.398772   -6.474317
  N     -0.959467    3.492647   -7.007401
  C      0.145585    1.486891   -7.203987
  H      0.565371    0.696807   -6.723858
  H      0.220682    1.581768   -8.207520
  H     -1.406243    4.181507   -6.403261
  H     -0.934215    3.681601   -7.999468
  O      3.207574   -0.466111   -4.420259
  O      1.075064   -0.056160   -3.268758
  F      1.131661   -0.319960   -5.679031
  H      0.668432    2.559427   -3.232850
  H      1.034074    3.729426   -4.497081
  H     -1.288884    2.826737   -4.594997
  H     -0.651696    1.186343   -4.756552

 Total Charge           Charge          ....    0
 Multiplicity           Mult            ....    1
 Number of Electrons    NEL             ....   88
 Basis Dimension        Dim             ....  296

ORBITAL ENERGIES
----------------

  NO   OCC          E(Eh)            E(eV)
   0   2.0000     -89.241115     -2428.3742
   1   2.0000     -24.905171      -677.7041
   2   2.0000     -19.273562      -524.4603
   3   2.0000     -19.269609      -524.3527
   4   2.0000     -14.431642      -392.7050
   5   2.0000     -10.336049      -281.2582
   6   2.0000     -10.312948      -280.6296
   7   2.0000     -10.305676      -280.4317
   8   2.0000     -10.293268      -280.0941
   9   2.0000     -10.214939      -277.9626
  10   2.0000      -8.314895      -226.2598
  11   2.0000      -6.278599      -170.8494
  12   2.0000      -6.272642      -170.6873
  13   2.0000      -6.270569      -170.6308
  14   2.0000      -1.469174       -39.9783
  15   2.0000      -1.247200       -33.9380
  16   2.0000      -1.151370       -31.3304
  17   2.0000      -1.031732       -28.0749
  18   2.0000      -0.937252       -25.5039
  19   2.0000      -0.877021       -23.8650
  20   2.0000      -0.828198       -22.5364
  21   2.0000      -0.820808       -22.3353
  22   2.0000      -0.741655       -20.1815
  23   2.0000      -0.701389       -19.0858
  24   2.0000      -0.680896       -18.5281
  25   2.0000      -0.664632       -18.0856
  26   2.0000      -0.651980       -17.7413
  27   2.0000      -0.626352       -17.0439
  28   2.0000      -0.597059       -16.2468
  29   2.0000      -0.584515       -15.9055
  30   2.0000      -0.569493       -15.4967
  31   2.0000      -0.565953       -15.4004
  32   2.0000      -0.548615       -14.9286
  33   2.0000      -0.515635       -14.0311
  34   2.0000      -0.496372       -13.5070
  35   2.0000      -0.485197       -13.2029
  36   2.0000      -0.472700       -12.8628
  37   2.0000      -0.466734       -12.7005
  38   2.0000      -0.449002       -12.2180
  39   2.0000      -0.435288       -11.8448
  40   2.0000      -0.428326       -11.6553
  41   2.0000      -0.425304       -11.5731
  42   2.0000      -0.420693       -11.4476
  43   2.0000      -0.284407        -7.7391
  44   0.0000       0.070461         1.9173
  45   0.0000       0.091975         2.5028
  46   0.0000       0.094412         2.5691
  47   0.0000       0.102052         2.7770
  48   0.0000       0.115398         3.1401

MULLIKEN ATOMIC CHARGES
-----------------------
   0 C :    0.241073
   1 C :    0.108382
   2 C :   -0.005306
   3 H :    0.281886
   4 H :   -0.073340
   5 S :    1.503589
   6 C :    0.114820
   7 N :   -0.046270
   8 C :    0.893623
   9 H :   -0.196552
  10 H :   -0.627531
  11 H :   -0.036575
  12 H :   -0.139265
  13 O :   -0.725658
  14 O :   -0.748115
  15 F :   -0.571550
  16 H :    0.170523
  17 H :   -0.126567
  18 H :   -0.117782
  19 H :    0.100616
Sum of atomic charges:    0.0000000

LOEWDIN ATOMIC CHARGES
----------------------
   0 C :    0.026161
   1 C :   -0.009140
   2 C :   -0.021078
   3 H :    0.029680
   4 H :    0.039372
   5 S :    1.141965
   6 C :   -0.240487
   7 N :    0.172994
   8 C :    0.177090
   9 H :   -0.153779
  10 H :   -0.070716
  11 H :    0.016288
  12 H :    0.016995
  13 O :   -0.481134
  14 O :   -0.483078
  15 F :   -0.278592
  16 H :    0.028407
  17 H :    0.043532
  18 H :    0.032876
  19 H :    0.012642

  Mayer bond orders larger than 0.100000
B(  0-C ,  1-C ) :   1.1813 B(  0-C ,  6-C ) :   1.1032 B(  0-C ,  7-N ) :   0.1022
B(  0-C ,  8-C ) :   0.1616 B(  0-C , 16-H ) :   0.1167 B(  0-C , 18-H ) :   0.8218
B(  0-C , 19-H ) :   0.8459 B(  1-C ,  2-C ) :   1.3583 B(  1-C ,  3-H ) :   0.1112
B(  1-C ,  4-H ) :   0.1686 B(  1-C , 16-H ) :   0.7736 B(  1-C , 17-H ) :   0.9095
B(  1-C , 18-H ) :   0.1509 B(  1-C , 19-H ) :   0.1313 B(  2-C ,  3-H ) :   0.8457
B(  2-C ,  4-H ) :   0.8931 B(  2-C ,  5-S ) :   1.0102 B(  2-C , 15-F ) :   0.1183
B(  2-C , 16-H ) :   0.1231 B(  4-H ,  9-H ) :  -0.1058 B(  5-S , 13-O ) :   1.5299
B(  5-S , 14-O ) :   1.5040 B(  5-S , 15-F ) :   0.6959 B(  6-C ,  7-N ) :   1.0098
B(  6-C ,  8-C ) :   1.8858 B(  6-C ,  9-H ) :   0.3137 B(  6-C , 10-H ) :   0.2349
B(  6-C , 12-H ) :  -0.1163 B(  6-C , 18-H ) :   0.1498 B(  7-N ,  8-C ) :   0.2644
B(  7-N , 11-H ) :   1.1429 B(  7-N , 12-H ) :   1.3370 B(  8-C ,  9-H ) :   0.4000
B(  8-C , 10-H ) :   0.8030 B(  9-H , 10-H ) :  -0.2755 B(  9-H , 15-F ) :   0.1216
B( 11-H , 12-H ) :  -0.1527

Dispersion correction           -0.008588891
FINAL SINGLE POINT ENERGY      -899.082023048021

DIPOLE MOMENT
-------------
                                X             Y             Z
Electronic contribution:      5.44610     -11.32640       3.05955
Nuclear contribution   :     -6.15577      13.80449      -3.81895
                        -----------------------------------------
Total Dipole Moment    :     -0.70967       2.47809      -0.75940
                        -----------------------------------------
Magnitude (a.u.)       :      2.68724
Magnitude (Debye)      :      6.83042

Rotational constants in cm-1:     0.081431     0.024887     0.022470
Rotational constants in MHz :  2441.231544   746.086417   673.646914

                             ****ORCA TERMINATED NORMALLY****
TOTAL RUN TIME: 0 days 0 hours 0 minutes 30 seconds 328 msec
