                         Program Version 5.0.0 -  RELEASE  -
|  1> !LC-PBE RIJCOSX def2-SVPD def2/J TightSCF
|  2> *xyz -1 1
|  3> C         -0.50835        1.72268       -4.12430
|  4> S         -1.32861        0.14674       -4.43578
|  5> O         -2.57135        0.47573       -5.06834
|  6> O         -1.51496       -0.40051       -3.06342
|  7> O         -0.37793       -0.62756       -5.20114
|  8> H         -0.31967        2.21655       -5.05456
|  9> H          0.41835        1.54859       -3.61852
| 10> H         -1.13714        2.33776       -3.51504
| 11> *
| 12> %MaxCore 64000
| 13>
| 14> %pal nprocs 4
| 15> end
| 16>
| 17> %scf
| 18>   MaxIter 150
| 19> end
| 20>
| 21>
| 22>                          ****END OF INPUT****

CARTESIAN COORDINATES (ANGSTROEM)
---------------------------------
  C     -0.508350    1.722680   -4.124300
  S     -1.328610    0.146740   -4.435780
  O     -2.571350    0.475730   -5.068340
  O     -1.514960   -0.400510   -3.063420
  O     -0.377930   -0.627560   -5.201140
  H     -0.319670    2.216550   -5.054560
  H      0.418350    1.548590   -3.618520
  H     -1.137140    2.337760   -3.515040

 Total Charge           Charge          ....   -1
 Multiplicity           Mult            ....    1
 Number of Electrons    NEL             ....   50
 Basis Dimension        Dim             ....  140

ORBITAL ENERGIES
----------------

  NO   OCC          E(Eh)            E(eV)
   0   2.0000     -88.315970     -2403.1997
   1   2.0000     -18.777639      -510.9655
   2   2.0000     -18.774584      -510.8824
   3   2.0000     -18.758600      -510.4475
   4   2.0000      -9.978583      -271.5310
   5   2.0000      -7.937696      -215.9957
   6   2.0000      -5.959975      -162.1792
   7   2.0000      -5.959926      -162.1778
   8   2.0000      -5.959741      -162.1728
   9   2.0000      -1.111599       -30.2481
  10   2.0000      -0.960275       -26.1304
  11   2.0000      -0.929305       -25.2877
  12   2.0000      -0.751067       -20.4376
  13   2.0000      -0.538974       -14.6662
  14   2.0000      -0.458719       -12.4824
  15   2.0000      -0.436354       -11.8738
  16   2.0000      -0.435512       -11.8509
  17   2.0000      -0.392766       -10.6877
  18   2.0000      -0.391245       -10.6463
  19   2.0000      -0.297233        -8.0881
  20   2.0000      -0.294549        -8.0151
  21   2.0000      -0.256528        -6.9805
  22   2.0000      -0.243983        -6.6391
  23   2.0000      -0.232441        -6.3250
  24   2.0000      -0.199234        -5.4214
  25   0.0000       0.211807         5.7636
  26   0.0000       0.232403         6.3240
  27   0.0000       0.232921         6.3381
  28   0.0000       0.236999         6.4491
  29   0.0000       0.272721         7.4211

MULLIKEN ATOMIC CHARGES
-----------------------
   0 C :    0.229788
   1 S :    0.991459
   2 O :   -0.712264
   3 O :   -0.779396
   4 O :   -0.728147
   5 H :   -0.007233
   6 H :    0.003329
   7 H :    0.002465
Sum of atomic charges:   -1.0000000

LOEWDIN ATOMIC CHARGES
----------------------
   0 C :    0.021193
   1 S :    0.815037
   2 O :   -0.573374
   3 O :   -0.606676
   4 O :   -0.579927
   5 H :   -0.027403
   6 H :   -0.024208
   7 H :   -0.024642

  Mayer bond orders larger than 0.100000
B(  0-C ,  1-S ) :   0.9734 B(  0-C ,  5-H ) :   0.9411 B(  0-C ,  6-H ) :   0.9413
B(  0-C ,  7-H ) :   0.9409 B(  1-S ,  2-O ) :   1.3848 B(  1-S ,  3-O ) :   1.3340
B(  1-S ,  4-O ) :   1.3725 B(  1-S ,  6-H ) :   0.1014

FINAL SINGLE POINT ENERGY      -662.427346745055

DIPOLE MOMENT
-------------
                                X             Y             Z
Electronic contribution:     -1.95440      -3.66878      -0.90009
Nuclear contribution   :      2.60425       5.03732       0.91691
                        -----------------------------------------
Total Dipole Moment    :      0.64985       1.36853       0.01682
                        -----------------------------------------
Magnitude (a.u.)       :      1.51508
Magnitude (Debye)      :      3.85102

Rotational constants in cm-1:     0.171343     0.157827     0.155747
Rotational constants in MHz :  5136.740483  4731.521814  4669.189064

                             ****ORCA TERMINATED NORMALLY****
TOTAL RUN TIME: 0 days 0 hours 0 minutes 11 seconds 147 msec
