                         Program Version 5.0.0 -  RELEASE  -
|  1> !LC-PBE RIJCOSX def2-SVPD def2/J TightSCF
|  2> *xyz 1 1
|  3> C          1.36401        0.46874       -2.81376
|  4> N          0.42884        0.32140       -1.65531
|  5> H          0.74858       -0.40054       -1.00134
|  6> H         -0.46105        0.02333       -2.07773
|  7> H          0.31026        1.20137       -1.13495
|  8> H          0.99872        1.22859       -3.47261
|  9> H          1.42772       -0.46011       -3.34109
| 10> H          2.33442        0.74312       -2.45611
| 11> *
| 12> %MaxCore 64000
| 13>
| 14> %pal nprocs 4
| 15> end
| 16>
| 17> %scf
| 18>   MaxIter 150
| 19> end
| 20>
| 21>
| 22>                          ****END OF INPUT****

CARTESIAN COORDINATES (ANGSTROEM)
---------------------------------
  C      1.364010    0.468740   -2.813760
  N      0.428840    0.321400   -1.655310
  H      0.748580   -0.400540   -1.001340
  H     -0.461050    0.023330   -2.077730
  H      0.310260    1.201370   -1.134950
  H      0.998720    1.228590   -3.472610
  H      1.427720   -0.460110   -3.341090
  H      2.334420    0.743120   -2.456110

 Total Charge           Charge          ....    1
 Multiplicity           Mult            ....    1
 Number of Electrons    NEL             ....   18
 Basis Dimension        Dim             ....   88

ORBITAL ENERGIES
----------------

  NO   OCC          E(Eh)            E(eV)
   0   2.0000     -14.579033      -396.7157
   1   2.0000     -10.385109      -282.5932
   2   2.0000      -1.390942       -37.8494
   3   2.0000      -1.099629       -29.9224
   4   2.0000      -0.962194       -26.1826
   5   2.0000      -0.957471       -26.0541
   6   2.0000      -0.852917       -23.2091
   7   2.0000      -0.764091       -20.7920
   8   2.0000      -0.762212       -20.7408
   9   0.0000      -0.119266        -3.2454
  10   0.0000      -0.055293        -1.5046
  11   0.0000      -0.045482        -1.2376
  12   0.0000      -0.045277        -1.2320
  13   0.0000      -0.003382        -0.0920

MULLIKEN ATOMIC CHARGES
-----------------------
   0 C :    0.577714
   1 N :   -0.839120
   2 H :    0.383258
   3 H :    0.419889
   4 H :    0.387699
   5 H :    0.028053
   6 H :    0.030940
   7 H :    0.011567
Sum of atomic charges:    1.0000000

LOEWDIN ATOMIC CHARGES
----------------------
   0 C :    0.249239
   1 N :    0.297748
   2 H :    0.115240
   3 H :    0.115301
   4 H :    0.120073
   5 H :    0.034796
   6 H :    0.034982
   7 H :    0.032621

  Mayer bond orders larger than 0.100000
B(  0-C ,  1-N ) :   0.8468 B(  0-C ,  5-H ) :   0.9279 B(  0-C ,  6-H ) :   0.9245
B(  0-C ,  7-H ) :   0.9518 B(  1-N ,  2-H ) :   0.7918 B(  1-N ,  3-H ) :   0.7451
B(  1-N ,  4-H ) :   0.7851

FINAL SINGLE POINT ENERGY       -95.836054454481

DIPOLE MOMENT
-------------
                                X             Y             Z
Electronic contribution:     -0.68878      -0.09635       0.89171
Nuclear contribution   :      0.14628      -0.00095      -0.25828
                        -----------------------------------------
Total Dipole Moment    :     -0.54250      -0.09729       0.63344
                        -----------------------------------------
Magnitude (a.u.)       :      0.83965
Magnitude (Debye)      :      2.13423

Rotational constants in cm-1:     2.853706     0.682028     0.680630
Rotational constants in MHz : 85551.942317 20446.672693 20404.761959

                             ****ORCA TERMINATED NORMALLY****
TOTAL RUN TIME: 0 days 0 hours 0 minutes 4 seconds 852 msec
