                         Program Version 5.0.0 -  RELEASE  -
|  1> !LC-PBE RIJCOSX def2-SVPD def2/J TightSCF
|  2> *xyz 0 1
|  3> C         -0.50835        1.72268       -4.12430
|  4> S         -1.32861        0.14674       -4.43578
|  5> F         -2.57135        0.47573       -5.06834
|  6> O         -1.51496       -0.40051       -3.06342
|  7> O         -0.37793       -0.62756       -5.20114
|  8> H         -0.31967        2.21655       -5.05456
|  9> H          0.41835        1.54859       -3.61852
| 10> H         -1.13714        2.33776       -3.51504
| 11> *
| 12> %MaxCore 64000
| 13>
| 14> %pal nprocs 4
| 15> end
| 16>
| 17> %scf
| 18>   MaxIter 150
| 19> end
| 20>
| 21>
| 22>                          ****END OF INPUT****

CARTESIAN COORDINATES (ANGSTROEM)
---------------------------------
  C     -0.508350    1.722680   -4.124300
  S     -1.328610    0.146740   -4.435780
  F     -2.571350    0.475730   -5.068340
  O     -1.514960   -0.400510   -3.063420
  O     -0.377930   -0.627560   -5.201140
  H     -0.319670    2.216550   -5.054560
  H      0.418350    1.548590   -3.618520
  H     -1.137140    2.337760   -3.515040

 Total Charge           Charge          ....    0
 Multiplicity           Mult            ....    1
 Number of Electrons    NEL             ....   50
 Basis Dimension        Dim             ....  140

ORBITAL ENERGIES
----------------

  NO   OCC          E(Eh)            E(eV)
   0   2.0000     -88.584901     -2410.5177
   1   2.0000     -24.642778      -670.5641
   2   2.0000     -19.015524      -517.4387
   3   2.0000     -18.999045      -516.9903
   4   2.0000     -10.189796      -277.2784
   5   2.0000      -8.207273      -223.3313
   6   2.0000      -6.234414      -169.6470
   7   2.0000      -6.226850      -169.4412
   8   2.0000      -6.226083      -169.4203
   9   2.0000      -1.557469       -42.3809
  10   2.0000      -1.286287       -35.0016
  11   2.0000      -1.171659       -31.8825
  12   2.0000      -0.975762       -26.5518
  13   2.0000      -0.888880       -24.1876
  14   2.0000      -0.774588       -21.0776
  15   2.0000      -0.759906       -20.6781
  16   2.0000      -0.712713       -19.3939
  17   2.0000      -0.629830       -17.1385
  18   2.0000      -0.625415       -17.0184
  19   2.0000      -0.611554       -16.6412
  20   2.0000      -0.583046       -15.8655
  21   2.0000      -0.536195       -14.5906
  22   2.0000      -0.479600       -13.0506
  23   2.0000      -0.463659       -12.6168
  24   2.0000      -0.448044       -12.1919
  25   0.0000       0.057339         1.5603
  26   0.0000       0.088024         2.3953
  27   0.0000       0.094275         2.5654
  28   0.0000       0.096657         2.6302
  29   0.0000       0.119597         3.2544

MULLIKEN ATOMIC CHARGES
-----------------------
   0 C :    0.177592
   1 S :    1.159969
   2 F :   -0.324693
   3 O :   -0.635094
   4 O :   -0.585535
   5 H :    0.065661
   6 H :    0.069169
   7 H :    0.072932
Sum of atomic charges:   -0.0000000

LOEWDIN ATOMIC CHARGES
----------------------
   0 C :    0.090913
   1 S :    1.084882
   2 F :   -0.237238
   3 O :   -0.487578
   4 O :   -0.462077
   5 H :   -0.002308
   6 H :    0.013363
   7 H :    0.000043

  Mayer bond orders larger than 0.100000
B(  0-C ,  1-S ) :   1.0266 B(  0-C ,  5-H ) :   0.9307 B(  0-C ,  6-H ) :   0.9337
B(  0-C ,  7-H ) :   0.9304 B(  1-S ,  2-F ) :   0.7631 B(  1-S ,  3-O ) :   1.5428
B(  1-S ,  4-O ) :   1.5800

FINAL SINGLE POINT ENERGY      -686.875062215523

DIPOLE MOMENT
-------------
                                X             Y             Z
Electronic contribution:     -4.05429      -3.10423      -2.00824
Nuclear contribution   :      3.90013       4.80063       1.59574
                        -----------------------------------------
Total Dipole Moment    :     -0.15416       1.69640      -0.41251
                        -----------------------------------------
Magnitude (a.u.)       :      1.75263
Magnitude (Debye)      :      4.45482

Rotational constants in cm-1:     0.163395     0.155047     0.147447
Rotational constants in MHz :  4898.460101  4648.206837  4420.340547

                             ****ORCA TERMINATED NORMALLY****
TOTAL RUN TIME: 0 days 0 hours 0 minutes 11 seconds 845 msec
