                         Program Version 5.0.0 -  RELEASE  -
|  1> !LC-PBE RIJCOSX def2-SVPD def2/J TightSCF
|  2> *xyz 0 1
|  3> C          1.36401        0.46874       -2.81376
|  4> C          0.42884        0.32140       -1.65531
|  5> H          0.74858       -0.40054       -1.00134
|  6> H         -0.46105        0.02333       -2.07773
|  7> H          0.31026        1.20137       -1.13495
|  8> H          0.99872        1.22859       -3.47261
|  9> H          1.42772       -0.46011       -3.34109
| 10> H          2.33442        0.74312       -2.45611
| 11> *
| 12> %MaxCore 64000
| 13>
| 14> %pal nprocs 4
| 15> end
| 16>
| 17> %scf
| 18>   MaxIter 150
| 19> end
| 20>
| 21>
| 22>                          ****END OF INPUT****

CARTESIAN COORDINATES (ANGSTROEM)
---------------------------------
  C      1.364010    0.468740   -2.813760
  C      0.428840    0.321400   -1.655310
  H      0.748580   -0.400540   -1.001340
  H     -0.461050    0.023330   -2.077730
  H      0.310260    1.201370   -1.134950
  H      0.998720    1.228590   -3.472610
  H      1.427720   -0.460110   -3.341090
  H      2.334420    0.743120   -2.456110

 Total Charge           Charge          ....    0
 Multiplicity           Mult            ....    1
 Number of Electrons    NEL             ....   18
 Basis Dimension        Dim             ....   88

ORBITAL ENERGIES
----------------

  NO   OCC          E(Eh)            E(eV)
   0   2.0000     -10.103143      -274.9205
   1   2.0000     -10.090146      -274.5668
   2   2.0000      -0.939803       -25.5733
   3   2.0000      -0.777302       -21.1515
   4   2.0000      -0.596264       -16.2252
   5   2.0000      -0.592292       -16.1171
   6   2.0000      -0.501851       -13.6560
   7   2.0000      -0.477410       -12.9910
   8   2.0000      -0.473614       -12.8877
   9   0.0000       0.096438         2.6242
  10   0.0000       0.125772         3.4224
  11   0.0000       0.180667         4.9162
  12   0.0000       0.181413         4.9365
  13   0.0000       0.200465         5.4549

MULLIKEN ATOMIC CHARGES
-----------------------
   0 C :   -0.009665
   1 C :    0.311088
   2 H :   -0.111819
   3 H :   -0.068193
   4 H :   -0.105079
   5 H :   -0.002343
   6 H :    0.000293
   7 H :   -0.014282
Sum of atomic charges:    0.0000000

LOEWDIN ATOMIC CHARGES
----------------------
   0 C :    0.041485
   1 C :    0.050719
   2 H :   -0.025690
   3 H :   -0.024064
   4 H :   -0.021775
   5 H :   -0.005972
   6 H :   -0.005606
   7 H :   -0.009096

  Mayer bond orders larger than 0.100000
B(  0-C ,  1-C ) :   1.4299 B(  0-C ,  2-H ) :   0.1224 B(  0-C ,  3-H ) :   0.1491
B(  0-C ,  4-H ) :   0.1196 B(  0-C ,  5-H ) :   0.9041 B(  0-C ,  6-H ) :   0.9011
B(  0-C ,  7-H ) :   0.9317 B(  1-C ,  2-H ) :   0.8604 B(  1-C ,  3-H ) :   0.8483
B(  1-C ,  4-H ) :   0.8689 B(  1-C ,  5-H ) :   0.1115 B(  1-C ,  6-H ) :   0.1138

FINAL SINGLE POINT ENERGY       -79.466537231696

DIPOLE MOMENT
-------------
                                X             Y             Z
Electronic contribution:      0.00047       0.01861       0.06613
Nuclear contribution   :     -0.01491      -0.02598      -0.05743
                        -----------------------------------------
Total Dipole Moment    :     -0.01445      -0.00737       0.00871
                        -----------------------------------------
Magnitude (a.u.)       :      0.01841
Magnitude (Debye)      :      0.04679

Rotational constants in cm-1:     2.853707     0.712330     0.710805
Rotational constants in MHz : 85551.986377 21355.123158 21309.410122

                             ****ORCA TERMINATED NORMALLY****
TOTAL RUN TIME: 0 days 0 hours 0 minutes 4 seconds 567 msec
