                         Program Version 5.0.0 -  RELEASE  -
|  1> !LC-PBE RIJCOSX def2-SVPD def2/J TightSCF
|  2> *xyz 0 1
|  3> C         -0.50835        1.72268       -4.12430
|  4> S         -1.32861        0.14674       -4.43578
|  5> O         -2.57135        0.47573       -5.06834
|  6> F         -1.51496       -0.40051       -3.06342
|  7> O         -0.37793       -0.62756       -5.20114
|  8> H         -0.31967        2.21655       -5.05456
|  9> H          0.41835        1.54859       -3.61852
| 10> H         -1.13714        2.33776       -3.51504
| 11> *
| 12> %MaxCore 64000
| 13>
| 14> %pal nprocs 4
| 15> end
| 16>
| 17> %scf
| 18>   MaxIter 150
| 19> end
| 20>
| 21>
| 22>                          ****END OF INPUT****

CARTESIAN COORDINATES (ANGSTROEM)
---------------------------------
  C     -0.508350    1.722680   -4.124300
  S     -1.328610    0.146740   -4.435780
  O     -2.571350    0.475730   -5.068340
  F     -1.514960   -0.400510   -3.063420
  O     -0.377930   -0.627560   -5.201140
  H     -0.319670    2.216550   -5.054560
  H      0.418350    1.548590   -3.618520
  H     -1.137140    2.337760   -3.515040

 Total Charge           Charge          ....    0
 Multiplicity           Mult            ....    1
 Number of Electrons    NEL             ....   50
 Basis Dimension        Dim             ....  140

ORBITAL ENERGIES
----------------

  NO   OCC          E(Eh)            E(eV)
   0   2.0000     -88.582067     -2410.4406
   1   2.0000     -24.614260      -669.7881
   2   2.0000     -19.017949      -517.5047
   3   2.0000     -19.014708      -517.4165
   4   2.0000     -10.188600      -277.2459
   5   2.0000      -8.204285      -223.2499
   6   2.0000      -6.231131      -169.5577
   7   2.0000      -6.224198      -169.3690
   8   2.0000      -6.223376      -169.3467
   9   2.0000      -1.510609       -41.1058
  10   2.0000      -1.299811       -35.3697
  11   2.0000      -1.197672       -32.5903
  12   2.0000      -0.973896       -26.5011
  13   2.0000      -0.864805       -23.5325
  14   2.0000      -0.751397       -20.4465
  15   2.0000      -0.726935       -19.7809
  16   2.0000      -0.709273       -19.3003
  17   2.0000      -0.634559       -17.2672
  18   2.0000      -0.626114       -17.0374
  19   2.0000      -0.608049       -16.5458
  20   2.0000      -0.591768       -16.1028
  21   2.0000      -0.545066       -14.8320
  22   2.0000      -0.490084       -13.3359
  23   2.0000      -0.477763       -13.0006
  24   2.0000      -0.466865       -12.7040
  25   0.0000       0.060910         1.6574
  26   0.0000       0.090024         2.4497
  27   0.0000       0.095709         2.6044
  28   0.0000       0.096083         2.6146
  29   0.0000       0.120910         3.2901

MULLIKEN ATOMIC CHARGES
-----------------------
   0 C :    0.175285
   1 S :    1.167308
   2 O :   -0.585748
   3 F :   -0.361448
   4 O :   -0.599656
   5 H :    0.060783
   6 H :    0.072067
   7 H :    0.071409
Sum of atomic charges:   -0.0000000

LOEWDIN ATOMIC CHARGES
----------------------
   0 C :    0.091442
   1 S :    1.080775
   2 O :   -0.456619
   3 F :   -0.264072
   4 O :   -0.462580
   5 H :    0.011015
   6 H :    0.000225
   7 H :   -0.000185

  Mayer bond orders larger than 0.100000
B(  0-C ,  1-S ) :   1.0251 B(  0-C ,  5-H ) :   0.9327 B(  0-C ,  6-H ) :   0.9327
B(  0-C ,  7-H ) :   0.9321 B(  1-S ,  2-O ) :   1.5887 B(  1-S ,  3-F ) :   0.7043
B(  1-S ,  4-O ) :   1.5777

FINAL SINGLE POINT ENERGY      -686.899853230040

DIPOLE MOMENT
-------------
                                X             Y             Z
Electronic contribution:     -2.27572      -4.59504       1.40619
Nuclear contribution   :      2.84473       5.67605      -0.40731
                        -----------------------------------------
Total Dipole Moment    :      0.56901       1.08102       0.99888
                        -----------------------------------------
Magnitude (a.u.)       :      1.57802
Magnitude (Debye)      :      4.01100

Rotational constants in cm-1:     0.162669     0.154016     0.148818
Rotational constants in MHz :  4876.699308  4617.284822  4461.441982

                             ****ORCA TERMINATED NORMALLY****
TOTAL RUN TIME: 0 days 0 hours 0 minutes 11 seconds 996 msec
