                         Program Version 5.0.0 -  RELEASE  -
|  1> !LC-PBE RIJCOSX def2-SVPD def2/J TightSCF
|  2> *xyz 0 1
|  3> C         -0.50835        1.72268       -4.12430
|  4> S         -1.32861        0.14674       -4.43578
|  5> O         -2.57135        0.47573       -5.06834
|  6> O         -1.51496       -0.40051       -3.06342
|  7> F         -0.37793       -0.62756       -5.20114
|  8> H         -0.31967        2.21655       -5.05456
|  9> H          0.41835        1.54859       -3.61852
| 10> H         -1.13714        2.33776       -3.51504
| 11> *
| 12> %MaxCore 64000
| 13>
| 14> %pal nprocs 4
| 15> end
| 16>
| 17> %scf
| 18>   MaxIter 150
| 19> end
| 20>
| 21>
| 22>                          ****END OF INPUT****

CARTESIAN COORDINATES (ANGSTROEM)
---------------------------------
  C     -0.508350    1.722680   -4.124300
  S     -1.328610    0.146740   -4.435780
  O     -2.571350    0.475730   -5.068340
  O     -1.514960   -0.400510   -3.063420
  F     -0.377930   -0.627560   -5.201140
  H     -0.319670    2.216550   -5.054560
  H      0.418350    1.548590   -3.618520
  H     -1.137140    2.337760   -3.515040

 Total Charge           Charge          ....    0
 Multiplicity           Mult            ....    1
 Number of Electrons    NEL             ....   50
 Basis Dimension        Dim             ....  140

ORBITAL ENERGIES
----------------

  NO   OCC          E(Eh)            E(eV)
   0   2.0000     -88.584114     -2410.4963
   1   2.0000     -24.637322      -670.4156
   2   2.0000     -19.018552      -517.5211
   3   2.0000     -18.998846      -516.9849
   4   2.0000     -10.189664      -277.2748
   5   2.0000      -8.206505      -223.3104
   6   2.0000      -6.233557      -169.6237
   7   2.0000      -6.226178      -169.4229
   8   2.0000      -6.225359      -169.4006
   9   2.0000      -1.547187       -42.1011
  10   2.0000      -1.291728       -35.1497
  11   2.0000      -1.174510       -31.9600
  12   2.0000      -0.975331       -26.5401
  13   2.0000      -0.884093       -24.0574
  14   2.0000      -0.769113       -20.9286
  15   2.0000      -0.752834       -20.4857
  16   2.0000      -0.712080       -19.3767
  17   2.0000      -0.631853       -17.1936
  18   2.0000      -0.625649       -17.0248
  19   2.0000      -0.611132       -16.6297
  20   2.0000      -0.585039       -15.9197
  21   2.0000      -0.539116       -14.6701
  22   2.0000      -0.483210       -13.1488
  23   2.0000      -0.464006       -12.6263
  24   2.0000      -0.450094       -12.2477
  25   0.0000       0.057787         1.5725
  26   0.0000       0.088318         2.4033
  27   0.0000       0.094478         2.5709
  28   0.0000       0.096581         2.6281
  29   0.0000       0.119572         3.2537

MULLIKEN ATOMIC CHARGES
-----------------------
   0 C :    0.177466
   1 S :    1.160234
   2 O :   -0.573237
   3 O :   -0.636631
   4 F :   -0.334964
   5 H :    0.065465
   6 H :    0.072996
   7 H :    0.068671
Sum of atomic charges:    0.0000000

LOEWDIN ATOMIC CHARGES
----------------------
   0 C :    0.091156
   1 S :    1.084238
   2 O :   -0.456116
   3 O :   -0.487526
   4 F :   -0.242872
   5 H :   -0.002274
   6 H :    0.000338
   7 H :    0.013055

  Mayer bond orders larger than 0.100000
B(  0-C ,  1-S ) :   1.0262 B(  0-C ,  5-H ) :   0.9310 B(  0-C ,  6-H ) :   0.9310
B(  0-C ,  7-H ) :   0.9332 B(  1-S ,  2-O ) :   1.5910 B(  1-S ,  3-O ) :   1.5427
B(  1-S ,  4-F ) :   0.7491

FINAL SINGLE POINT ENERGY      -686.879575988198

DIPOLE MOMENT
-------------
                                X             Y             Z
Electronic contribution:     -0.35122      -4.96731      -2.23373
Nuclear contribution   :      1.70876       5.90289       1.72841
                        -----------------------------------------
Total Dipole Moment    :      1.35755       0.93558      -0.50532
                        -----------------------------------------
Magnitude (a.u.)       :      1.72441
Magnitude (Debye)      :      4.38310

Rotational constants in cm-1:     0.163253     0.155214     0.147311
Rotational constants in MHz :  4894.200006  4653.189727  4416.272537

                             ****ORCA TERMINATED NORMALLY****
TOTAL RUN TIME: 0 days 0 hours 0 minutes 12 seconds 122 msec
