                         Program Version 5.0.0 -  RELEASE  -
|  1> !LC-PBE RIJCOSX def2-SVPD def2/J TightSCF xyzfile
|  2>
|  3> *xyzfile 0 1 D1.xyz
|  4>
|  5> %MaxCore 64000
|  6>
|  7> %pal nprocs 4
|  8> end
|  9>
| 10> %scf
| 11>   MaxIter 150
| 12> end
| 13>
| 14>
| 15>                          ****END OF INPUT****

CARTESIAN COORDINATES (ANGSTROEM)
---------------------------------
  C      1.364014    0.468742   -2.813764
  C      0.428844    0.321402   -1.655312
  C      0.968045    1.630639   -3.715749
  C     -0.508347    1.722679   -4.124300
  S     -1.328608    0.146737   -4.435781
  H     -0.591511    2.294958   -5.047219
  H     -1.114114    2.235610   -3.374362
  H      0.748578   -0.400542   -1.001345
  H     -0.461053    0.023332   -2.077731
  H      0.310258    1.201375   -1.134948
  F     -2.571347    0.475733   -5.068341
  O     -1.514963   -0.400512   -3.063420
  H      1.294847   -0.468742   -3.364684
  H      2.376216    0.597400   -2.431495
  H      1.578688    1.520652   -4.612733
  H      1.266653    2.575988   -3.250448
  O     -0.377928   -0.627558   -5.201141

 Total Charge           Charge          ....    0
 Multiplicity           Mult            ....    1
 Number of Electrons    NEL             ....   74
 Basis Dimension        Dim             ....  248

ORBITAL ENERGIES
----------------

  NO   OCC          E(Eh)            E(eV)
   0   2.0000     -88.585149     -2410.5245
   1   2.0000     -24.643829      -670.5927
   2   2.0000     -19.017125      -517.4823
   3   2.0000     -19.003532      -517.1124
   4   2.0000     -10.195866      -277.4436
   5   2.0000     -10.152446      -276.2621
   6   2.0000     -10.114534      -275.2305
   7   2.0000     -10.054187      -273.5883
   8   2.0000      -8.207294      -223.3318
   9   2.0000      -6.234395      -169.6465
  10   2.0000      -6.227275      -169.4528
  11   2.0000      -6.225721      -169.4105
  12   2.0000      -1.557823       -42.3905
  13   2.0000      -1.291584       -35.1458
  14   2.0000      -1.181380       -32.1470
  15   2.0000      -1.010939       -27.5091
  16   2.0000      -0.947806       -25.7911
  17   2.0000      -0.889020       -24.1915
  18   2.0000      -0.845625       -23.0106
  19   2.0000      -0.773655       -21.0522
  20   2.0000      -0.762051       -20.7365
  21   2.0000      -0.735225       -20.0065
  22   2.0000      -0.700657       -19.0658
  23   2.0000      -0.663249       -18.0479
  24   2.0000      -0.647424       -17.6173
  25   2.0000      -0.613520       -16.6947
  26   2.0000      -0.605216       -16.4688
  27   2.0000      -0.566839       -15.4245
  28   2.0000      -0.546231       -14.8637
  29   2.0000      -0.542579       -14.7643
  30   2.0000      -0.527461       -14.3529
  31   2.0000      -0.494323       -13.4512
  32   2.0000      -0.482174       -13.1206
  33   2.0000      -0.456602       -12.4248
  34   2.0000      -0.453011       -12.3271
  35   2.0000      -0.446605       -12.1527
  36   2.0000      -0.405832       -11.0433
  37   0.0000       0.060009         1.6329
  38   0.0000       0.081624         2.2211
  39   0.0000       0.086741         2.3603
  40   0.0000       0.097853         2.6627
  41   0.0000       0.115185         3.1343

MULLIKEN ATOMIC CHARGES
-----------------------
   0 C :   -0.473012
   1 C :    1.742078
   2 C :    0.082495
   3 C :   -0.140895
   4 S :    1.518474
   5 H :   -0.057632
   6 H :    0.299750
   7 H :   -0.036046
   8 H :   -1.124248
   9 H :   -0.083840
  10 F :   -0.438478
  11 O :   -0.779537
  12 H :    0.138929
  13 H :   -0.202192
  14 H :    0.112428
  15 H :    0.071761
  16 O :   -0.630037
Sum of atomic charges:    0.0000000

LOEWDIN ATOMIC CHARGES
----------------------
   0 C :   -0.069966
   1 C :    0.109500
   2 C :   -0.040428
   3 C :   -0.056775
   4 S :    1.154598
   5 H :    0.028143
   6 H :    0.041387
   7 H :   -0.010825
   8 H :   -0.172435
   9 H :   -0.010266
  10 F :   -0.229417
  11 O :   -0.449429
  12 H :    0.027999
  13 H :    0.035339
  14 H :    0.039422
  15 H :    0.048899
  16 O :   -0.445745

  Mayer bond orders larger than 0.100000
B(  0-C ,  1-C ) :   1.0486 B(  0-C ,  2-C ) :   1.2167 B(  0-C ,  7-H ) :   0.1940
B(  0-C ,  8-H ) :   0.4623 B(  0-C ,  9-H ) :   0.2387 B(  0-C , 12-H ) :   0.8536
B(  0-C , 13-H ) :   1.0305 B(  0-C , 14-H ) :   0.1216 B(  0-C , 15-H ) :   0.1348
B(  1-C ,  7-H ) :   0.5779 B(  1-C ,  8-H ) :  -0.3506 B(  1-C ,  9-H ) :   0.3188
B(  1-C , 11-O ) :  -0.1380 B(  1-C , 12-H ) :   0.1108 B(  2-C ,  3-C ) :   1.3085
B(  2-C ,  5-H ) :   0.1784 B(  2-C , 12-H ) :   0.1162 B(  2-C , 14-H ) :   0.8602
B(  2-C , 15-H ) :   0.8310 B(  3-C ,  4-S ) :   0.9581 B(  3-C ,  5-H ) :   0.9070
B(  3-C ,  6-H ) :   0.8387 B(  3-C ,  8-H ) :   0.1049 B(  3-C , 11-O ) :   0.1257
B(  3-C , 14-H ) :   0.1083 B(  4-S ,  8-H ) :  -0.1247 B(  4-S , 10-F ) :   0.7310
B(  4-S , 11-O ) :   1.3740 B(  4-S , 16-O ) :   1.5473 B(  7-H ,  8-H ) :   0.2368
B(  7-H ,  9-H ) :  -0.1706 B(  8-H ,  9-H ) :   0.5039 B(  8-H , 11-O ) :   0.3123

FINAL SINGLE POINT ENERGY      -804.282098469159

DIPOLE MOMENT
-------------
                                X             Y             Z
Electronic contribution:    -12.46259      -3.98055      -9.74572
Nuclear contribution   :     12.25227       5.48563       9.26621
                        -----------------------------------------
Total Dipole Moment    :     -0.21032       1.50508      -0.47951
                        -----------------------------------------
Magnitude (a.u.)       :      1.59356
Magnitude (Debye)      :      4.05050

Rotational constants in cm-1:     0.103176     0.044975     0.040960
Rotational constants in MHz :  3093.138469  1348.317425  1227.945122

                             ****ORCA TERMINATED NORMALLY****
TOTAL RUN TIME: 0 days 0 hours 0 minutes 44 seconds 818 msec
