                         Program Version 5.0.0 -  RELEASE  -
|  1> !LC-PBE RIJCOSX def2-SVPD def2/J TightSCF xyzfile
|  2>
|  3> *xyzfile 0 1 D2.xyz
|  4>
|  5> %MaxCore 64000
|  6>
|  7> %pal nprocs 4
|  8> end
|  9>
| 10> %scf
| 11>   MaxIter 150
| 12> end
| 13>
| 14>
| 15>                          ****END OF INPUT****

CARTESIAN COORDINATES (ANGSTROEM)
---------------------------------
  C      1.364014    0.468742   -2.813764
  C      0.428844    0.321402   -1.655312
  C      0.968045    1.630639   -3.715749
  C     -0.508347    1.722679   -4.124300
  S     -1.328608    0.146737   -4.435781
  H     -0.591511    2.294958   -5.047219
  H     -1.114114    2.235610   -3.374362
  H      0.748578   -0.400542   -1.001345
  H     -0.461053    0.023332   -2.077731
  H      0.310258    1.201375   -1.134948
  O     -2.571347    0.475733   -5.068341
  F     -1.514963   -0.400512   -3.063420
  H      1.294847   -0.468742   -3.364684
  H      2.376216    0.597400   -2.431495
  H      1.578688    1.520652   -4.612733
  H      1.266653    2.575988   -3.250448
  O     -0.377928   -0.627558   -5.201141

 Total Charge           Charge          ....    0
 Multiplicity           Mult            ....    1
 Number of Electrons    NEL             ....   74
 Basis Dimension        Dim             ....  248

ORBITAL ENERGIES
----------------

  NO   OCC          E(Eh)            E(eV)
   0   2.0000     -88.579623     -2410.3741
   1   2.0000     -24.617303      -669.8709
   2   2.0000     -19.018214      -517.5119
   3   2.0000     -19.014395      -517.4080
   4   2.0000     -10.193417      -277.3770
   5   2.0000     -10.154426      -276.3160
   6   2.0000     -10.130069      -275.6532
   7   2.0000     -10.087360      -274.4910
   8   2.0000      -8.201657      -223.1784
   9   2.0000      -6.228792      -169.4940
  10   2.0000      -6.221607      -169.2985
  11   2.0000      -6.220314      -169.2634
  12   2.0000      -1.519572       -41.3497
  13   2.0000      -1.300966       -35.4011
  14   2.0000      -1.197584       -32.5879
  15   2.0000      -1.019175       -27.7332
  16   2.0000      -0.952562       -25.9205
  17   2.0000      -0.879572       -23.9344
  18   2.0000      -0.864046       -23.5119
  19   2.0000      -0.763537       -20.7769
  20   2.0000      -0.747884       -20.3510
  21   2.0000      -0.730453       -19.8766
  22   2.0000      -0.703684       -19.1482
  23   2.0000      -0.653171       -17.7737
  24   2.0000      -0.633735       -17.2448
  25   2.0000      -0.628099       -17.0914
  26   2.0000      -0.610117       -16.6021
  27   2.0000      -0.574979       -15.6460
  28   2.0000      -0.556095       -15.1321
  29   2.0000      -0.544158       -14.8073
  30   2.0000      -0.540034       -14.6951
  31   2.0000      -0.493587       -13.4312
  32   2.0000      -0.490504       -13.3473
  33   2.0000      -0.474001       -12.8982
  34   2.0000      -0.466753       -12.7010
  35   2.0000      -0.463046       -12.6001
  36   2.0000      -0.448657       -12.2086
  37   0.0000       0.068874         1.8742
  38   0.0000       0.084189         2.2909
  39   0.0000       0.089968         2.4482
  40   0.0000       0.096704         2.6315
  41   0.0000       0.118278         3.2185

MULLIKEN ATOMIC CHARGES
-----------------------
   0 C :   -0.479922
   1 C :    1.799985
   2 C :    0.130868
   3 C :   -0.101716
   4 S :    1.373813
   5 H :   -0.074726
   6 H :    0.284512
   7 H :   -0.008299
   8 H :   -1.154216
   9 H :   -0.056570
  10 O :   -0.646399
  11 F :   -0.535751
  12 H :    0.124065
  13 H :   -0.195068
  14 H :    0.114694
  15 H :    0.074518
  16 O :   -0.649786
Sum of atomic charges:    0.0000000

LOEWDIN ATOMIC CHARGES
----------------------
   0 C :   -0.073127
   1 C :    0.119151
   2 C :   -0.049737
   3 C :   -0.050350
   4 S :    1.115792
   5 H :    0.042045
   6 H :    0.040411
   7 H :   -0.008034
   8 H :   -0.129072
   9 H :   -0.004920
  10 O :   -0.443604
  11 F :   -0.264198
  12 H :    0.025088
  13 H :    0.038410
  14 H :    0.040471
  15 H :    0.045944
  16 O :   -0.444272

  Mayer bond orders larger than 0.100000
B(  0-C ,  1-C ) :   1.0405 B(  0-C ,  2-C ) :   1.2187 B(  0-C ,  7-H ) :   0.1961
B(  0-C ,  8-H ) :   0.4432 B(  0-C ,  9-H ) :   0.2368 B(  0-C , 12-H ) :   0.8692
B(  0-C , 13-H ) :   1.0328 B(  0-C , 14-H ) :   0.1180 B(  0-C , 15-H ) :   0.1361
B(  1-C ,  7-H ) :   0.5824 B(  1-C ,  8-H ) :  -0.4797 B(  1-C ,  9-H ) :   0.2994
B(  1-C , 11-F ) :  -0.1582 B(  1-C , 12-H ) :   0.1030 B(  2-C ,  3-C ) :   1.2700
B(  2-C ,  5-H ) :   0.1543 B(  2-C , 12-H ) :   0.1109 B(  2-C , 14-H ) :   0.8644
B(  2-C , 15-H ) :   0.8238 B(  3-C ,  4-S ) :   0.9991 B(  3-C ,  5-H ) :   0.9436
B(  3-C ,  6-H ) :   0.8537 B(  3-C , 11-F ) :   0.1124 B(  3-C , 14-H ) :   0.1130
B(  4-S ,  8-H ) :  -0.1076 B(  4-S , 10-O ) :   1.6274 B(  4-S , 11-F ) :   0.6626
B(  4-S , 16-O ) :   1.5657 B(  7-H ,  8-H ) :   0.2055 B(  7-H ,  9-H ) :  -0.1754
B(  8-H ,  9-H ) :   0.5344 B(  8-H , 11-F ) :   0.3333

FINAL SINGLE POINT ENERGY      -804.305490038761

DIPOLE MOMENT
-------------
                                X             Y             Z
Electronic contribution:    -10.44965      -5.48815      -6.11086
Nuclear contribution   :     11.08796       6.45140       7.05645
                        -----------------------------------------
Total Dipole Moment    :      0.63831       0.96325       0.94559
                        -----------------------------------------
Magnitude (a.u.)       :      1.49313
Magnitude (Debye)      :      3.79524

Rotational constants in cm-1:     0.100113     0.046890     0.041843
Rotational constants in MHz :  3001.313402  1405.711946  1254.411771

                             ****ORCA TERMINATED NORMALLY****
TOTAL RUN TIME: 0 days 0 hours 0 minutes 45 seconds 749 msec
