                         Program Version 5.0.0 -  RELEASE  -
|  1> !LC-PBE RIJCOSX def2-SVPD def2/J TightSCF xyzfile
|  2>
|  3> *xyzfile 0 1 D3.xyz
|  4>
|  5> %MaxCore 64000
|  6>
|  7> %pal nprocs 4
|  8> end
|  9>
| 10> %scf
| 11>   MaxIter 150
| 12> end
| 13>
| 14>
| 15>                          ****END OF INPUT****

CARTESIAN COORDINATES (ANGSTROEM)
---------------------------------
  C      1.364014    0.468742   -2.813764
  C      0.428844    0.321402   -1.655312
  C      0.968045    1.630639   -3.715749
  C     -0.508347    1.722679   -4.124300
  S     -1.328608    0.146737   -4.435781
  H     -0.591511    2.294958   -5.047219
  H     -1.114114    2.235610   -3.374362
  H      0.748578   -0.400542   -1.001345
  H     -0.461053    0.023332   -2.077731
  H      0.310258    1.201375   -1.134948
  O     -2.571347    0.475733   -5.068341
  O     -1.514963   -0.400512   -3.063420
  H      1.294847   -0.468742   -3.364684
  H      2.376216    0.597400   -2.431495
  H      1.578688    1.520652   -4.612733
  H      1.266653    2.575988   -3.250448
  F     -0.377928   -0.627558   -5.201141

 Total Charge           Charge          ....    0
 Multiplicity           Mult            ....    1
 Number of Electrons    NEL             ....   74
 Basis Dimension        Dim             ....  248

ORBITAL ENERGIES
----------------

  NO   OCC          E(Eh)            E(eV)
   0   2.0000     -88.584934     -2410.5186
   1   2.0000     -24.638042      -670.4352
   2   2.0000     -19.020588      -517.5765
   3   2.0000     -19.002250      -517.0775
   4   2.0000     -10.195395      -277.4308
   5   2.0000     -10.157257      -276.3930
   6   2.0000     -10.127546      -275.5845
   7   2.0000     -10.059066      -273.7211
   8   2.0000      -8.206945      -223.3223
   9   2.0000      -6.234110      -169.6388
  10   2.0000      -6.227011      -169.4456
  11   2.0000      -6.225314      -169.3994
  12   2.0000      -1.547664       -42.1141
  13   2.0000      -1.295730       -35.2586
  14   2.0000      -1.185302       -32.2537
  15   2.0000      -1.017583       -27.6898
  16   2.0000      -0.946607       -25.7585
  17   2.0000      -0.888210       -24.1694
  18   2.0000      -0.847826       -23.0705
  19   2.0000      -0.778727       -21.1902
  20   2.0000      -0.755308       -20.5530
  21   2.0000      -0.743193       -20.2233
  22   2.0000      -0.697984       -18.9931
  23   2.0000      -0.657079       -17.8800
  24   2.0000      -0.648176       -17.6378
  25   2.0000      -0.622342       -16.9348
  26   2.0000      -0.607003       -16.5174
  27   2.0000      -0.572663       -15.5830
  28   2.0000      -0.555691       -15.1211
  29   2.0000      -0.537590       -14.6286
  30   2.0000      -0.534792       -14.5524
  31   2.0000      -0.507376       -13.8064
  32   2.0000      -0.480400       -13.0723
  33   2.0000      -0.470159       -12.7937
  34   2.0000      -0.463357       -12.6086
  35   2.0000      -0.453324       -12.3356
  36   2.0000      -0.402040       -10.9401
  37   0.0000       0.061185         1.6649
  38   0.0000       0.082258         2.2384
  39   0.0000       0.090054         2.4505
  40   0.0000       0.096092         2.6148
  41   0.0000       0.115873         3.1531

MULLIKEN ATOMIC CHARGES
-----------------------
   0 C :   -0.444657
   1 C :    1.744733
   2 C :    0.110391
   3 C :   -0.128060
   4 S :    1.424964
   5 H :   -0.075938
   6 H :    0.295514
   7 H :   -0.032070
   8 H :   -1.104445
   9 H :   -0.083956
  10 O :   -0.631389
  11 O :   -0.753884
  12 H :    0.097695
  13 H :   -0.207336
  14 H :    0.087793
  15 H :    0.071366
  16 F :   -0.370722
Sum of atomic charges:   -0.0000000

LOEWDIN ATOMIC CHARGES
----------------------
   0 C :   -0.077047
   1 C :    0.108565
   2 C :   -0.055474
   3 C :   -0.043822
   4 S :    1.147420
   5 H :    0.031419
   6 H :    0.054140
   7 H :   -0.010737
   8 H :   -0.175303
   9 H :   -0.008283
  10 O :   -0.441097
  11 O :   -0.442232
  12 H :    0.025260
  13 H :    0.036354
  14 H :    0.033837
  15 H :    0.047646
  16 F :   -0.230645

  Mayer bond orders larger than 0.100000
B(  0-C ,  1-C ) :   1.0517 B(  0-C ,  2-C ) :   1.2035 B(  0-C ,  7-H ) :   0.1888
B(  0-C ,  8-H ) :   0.4575 B(  0-C ,  9-H ) :   0.2419 B(  0-C , 12-H ) :   0.8567
B(  0-C , 13-H ) :   1.0326 B(  0-C , 14-H ) :   0.1196 B(  0-C , 15-H ) :   0.1357
B(  1-C ,  7-H ) :   0.5740 B(  1-C ,  8-H ) :  -0.3112 B(  1-C ,  9-H ) :   0.3192
B(  1-C , 11-O ) :  -0.1273 B(  1-C , 12-H ) :   0.1102 B(  2-C ,  3-C ) :   1.2736
B(  2-C ,  5-H ) :   0.1646 B(  2-C , 12-H ) :   0.1130 B(  2-C , 14-H ) :   0.8733
B(  2-C , 15-H ) :   0.8236 B(  3-C ,  4-S ) :   0.9901 B(  3-C ,  5-H ) :   0.9591
B(  3-C ,  6-H ) :   0.8427 B(  3-C , 11-O ) :   0.1158 B(  3-C , 14-H ) :   0.1047
B(  4-S ,  8-H ) :  -0.1147 B(  4-S , 10-O ) :   1.6512 B(  4-S , 11-O ) :   1.4227
B(  4-S , 16-F ) :   0.7049 B(  7-H ,  8-H ) :   0.2443 B(  7-H ,  9-H ) :  -0.1688
B(  8-H ,  9-H ) :   0.5054 B(  8-H , 11-O ) :   0.2919

FINAL SINGLE POINT ENERGY      -804.286673064377

DIPOLE MOMENT
-------------
                                X             Y             Z
Electronic contribution:     -8.57995      -5.89345      -9.92309
Nuclear contribution   :      9.83476       6.70164       9.41257
                        -----------------------------------------
Total Dipole Moment    :      1.25482       0.80819      -0.51052
                        -----------------------------------------
Magnitude (a.u.)       :      1.57745
Magnitude (Debye)      :      4.00957

Rotational constants in cm-1:     0.099832     0.045916     0.042219
Rotational constants in MHz :  2992.874960  1376.530174  1265.693813

                             ****ORCA TERMINATED NORMALLY****
TOTAL RUN TIME: 0 days 0 hours 0 minutes 49 seconds 740 msec
