                         Program Version 5.0.0 -  RELEASE  -
|  1> !CAM-B3LYP RIJCOSX def2-SVPD def2/J TightSCF
|  2> *xyz -1 1
|  3> C          4.99986       -1.59613       -5.92488
|  4> C          3.76678       -2.26611       -6.51175
|  5> C          2.49670       -1.84416       -5.73570
|  6> H          1.62642       -2.21743       -6.30895
|  7> H          2.48182       -2.45607       -4.79341
|  8> O          2.45973       -0.50920       -5.50576
|  9> H          3.88619       -3.35708       -6.53360
| 10> H          3.68560       -1.92217       -7.54713
| 11> H          5.86637       -1.89999       -6.47418
| 12> H          5.10830       -1.88372       -4.89997
| 13> H          4.89230       -0.53341       -5.98765
| 14> *
| 15>
| 16> %MaxCore 64000
| 17>
| 18> %pal nprocs 4
| 19> end
| 20>
| 21> %scf
| 22>   MaxIter 150
| 23> end
| 24>
| 25>
| 26>                          ****END OF INPUT****

CARTESIAN COORDINATES (ANGSTROEM)
---------------------------------
  C      4.999860   -1.596130   -5.924880
  C      3.766780   -2.266110   -6.511750
  C      2.496700   -1.844160   -5.735700
  H      1.626420   -2.217430   -6.308950
  H      2.481820   -2.456070   -4.793410
  O      2.459730   -0.509200   -5.505760
  H      3.886190   -3.357080   -6.533600
  H      3.685600   -1.922170   -7.547130
  H      5.866370   -1.899990   -6.474180
  H      5.108300   -1.883720   -4.899970
  H      4.892300   -0.533410   -5.987650

 Total Charge           Charge          ....   -1
 Multiplicity           Mult            ....    1
 Number of Electrons    NEL             ....   34
 Basis Dimension        Dim             ....  139

ORBITAL ENERGIES
----------------

  NO   OCC          E(Eh)            E(eV)
   0   2.0000     -18.883188      -513.8377
   1   2.0000     -10.075835      -274.1774
   2   2.0000     -10.068332      -273.9733
   3   2.0000     -10.064495      -273.8688
   4   2.0000      -0.762869       -20.7587
   5   2.0000      -0.655270       -17.8308
   6   2.0000      -0.536138       -14.5891
   7   2.0000      -0.433447       -11.7947
   8   2.0000      -0.344694        -9.3796
   9   2.0000      -0.334341        -9.0979
  10   2.0000      -0.279289        -7.5998
  11   2.0000      -0.254183        -6.9167
  12   2.0000      -0.224255        -6.1023
  13   2.0000      -0.213783        -5.8173
  14   2.0000      -0.181871        -4.9490
  15   2.0000      -0.038506        -1.0478
  16   2.0000      -0.035444        -0.9645
  17   0.0000       0.196030         5.3342
  18   0.0000       0.219452         5.9716
  19   0.0000       0.236954         6.4478
  20   0.0000       0.263187         7.1617
  21   0.0000       0.284781         7.7493

MULLIKEN ATOMIC CHARGES
-----------------------
   0 C :    0.787598
   1 C :   -0.334244
   2 C :    0.520425
   3 H :   -0.248993
   4 H :   -0.143611
   5 O :   -0.851593
   6 H :   -0.190723
   7 H :   -0.115533
   8 H :   -0.202939
   9 H :   -0.148893
  10 H :   -0.071495
Sum of atomic charges:   -1.0000000

LOEWDIN ATOMIC CHARGES
----------------------
   0 C :    0.076831
   1 C :   -0.113301
   2 C :   -0.220804
   3 H :   -0.035056
   4 H :   -0.025199
   5 O :   -0.550492
   6 H :   -0.011358
   7 H :   -0.002392
   8 H :   -0.050931
   9 H :   -0.030719
  10 H :   -0.036579

  Mayer bond orders larger than 0.100000
B(  0-C ,  1-C ) :   1.2765 B(  0-C ,  7-H ) :   0.1089 B(  0-C ,  8-H ) :   0.7568
B(  0-C ,  9-H ) :   0.7855 B(  0-C , 10-H ) :   0.7870 B(  1-C ,  2-C ) :   1.0208
B(  1-C ,  3-H ) :   0.1552 B(  1-C ,  4-H ) :   0.1480 B(  1-C ,  6-H ) :   0.9920
B(  1-C ,  7-H ) :   0.9153 B(  1-C ,  8-H ) :   0.2251 B(  1-C ,  9-H ) :   0.2038
B(  1-C , 10-H ) :   0.2191 B(  2-C ,  3-H ) :   0.9415 B(  2-C ,  4-H ) :   0.9193
B(  2-C ,  5-O ) :   1.2072 B(  2-C ,  7-H ) :   0.1040

FINAL SINGLE POINT ENERGY      -193.511171607142

DIPOLE MOMENT
-------------
                                X             Y             Z
Electronic contribution:     -1.98080       1.93053       0.53016
Nuclear contribution   :      3.33375      -3.25054      -1.09297
                        -----------------------------------------
Total Dipole Moment    :      1.35295      -1.32001      -0.56281
                        -----------------------------------------
Magnitude (a.u.)       :      1.97222
Magnitude (Debye)      :      5.01299

Rotational constants in cm-1:     0.478390     0.193336     0.154822
Rotational constants in MHz : 14341.777399  5796.063993  4641.443060

                             ****ORCA TERMINATED NORMALLY****
TOTAL RUN TIME: 0 days 0 hours 0 minutes 15 seconds 852 msec
