                         Program Version 5.0.0 -  RELEASE  -
|  1> !CAM-B3LYP RIJCOSX def2-SVPD def2/J TightSCF
|  2> *xyz 1 1
|  3> C          4.99986       -1.59613       -5.92488
|  4> N          5.28156       -1.97413       -4.53576
|  5> C          3.76678       -2.26611       -6.51175
|  6> C          2.49670       -1.84416       -5.73570
|  7> C          4.79250       -1.36132       -3.45730
|  8> N          3.93990       -0.37492       -3.55736
|  9> N          5.25986       -1.75422       -2.23913
| 10> H          5.92282       -2.52145       -2.18672
| 11> H          4.65468       -1.64040       -1.44202
| 12> H          5.70914       -2.87560       -4.38702
| 13> H          3.33010       -0.31764       -4.36125
| 14> H          3.69849        0.11447       -2.70833
| 15> H          4.84333       -0.51793       -5.94302
| 16> H          5.90170       -1.82250       -6.49647
| 17> H          3.88619       -3.35708       -6.53360
| 18> H          3.68560       -1.92217       -7.54713
| 19> H          1.64155       -2.32499       -6.16281
| 20> H          2.37707       -0.78268       -5.79763
| 21> H          2.59306       -2.13299       -4.70994
| 22> *
| 23>
| 24> %MaxCore 64000
| 25>
| 26> %pal nprocs 4
| 27> end
| 28>
| 29> %scf
| 30>   MaxIter 150
| 31> end
| 32>
| 33>
| 34>                          ****END OF INPUT****

CARTESIAN COORDINATES (ANGSTROEM)
---------------------------------
  C      4.999860   -1.596130   -5.924880
  N      5.281560   -1.974130   -4.535760
  C      3.766780   -2.266110   -6.511750
  C      2.496700   -1.844160   -5.735700
  C      4.792500   -1.361320   -3.457300
  N      3.939900   -0.374920   -3.557360
  N      5.259860   -1.754220   -2.239130
  H      5.922820   -2.521450   -2.186720
  H      4.654680   -1.640400   -1.442020
  H      5.709140   -2.875600   -4.387020
  H      3.330100   -0.317640   -4.361250
  H      3.698490    0.114470   -2.708330
  H      4.843330   -0.517930   -5.943020
  H      5.901700   -1.822500   -6.496470
  H      3.886190   -3.357080   -6.533600
  H      3.685600   -1.922170   -7.547130
  H      1.641550   -2.324990   -6.162810
  H      2.377070   -0.782680   -5.797630
  H      2.593060   -2.132990   -4.709940

 Total Charge           Charge          ....    1
 Multiplicity           Mult            ....    1
 Number of Electrons    NEL             ....   56
 Basis Dimension        Dim             ....  236

ORBITAL ENERGIES
----------------

  NO   OCC          E(Eh)            E(eV)
   0   2.0000     -14.626279      -398.0013
   1   2.0000     -14.625883      -397.9905
   2   2.0000     -14.621798      -397.8794
   3   2.0000     -10.595626      -288.3216
   4   2.0000     -10.460148      -284.6351
   5   2.0000     -10.408522      -283.2303
   6   2.0000     -10.396465      -282.9022
   7   2.0000      -1.289347       -35.0849
   8   2.0000      -1.177140       -32.0316
   9   2.0000      -1.162394       -31.6303
  10   2.0000      -1.023135       -27.8409
  11   2.0000      -0.942996       -25.6602
  12   2.0000      -0.900812       -24.5123
  13   2.0000      -0.862208       -23.4619
  14   2.0000      -0.835893       -22.7458
  15   2.0000      -0.804973       -21.9044
  16   2.0000      -0.766597       -20.8602
  17   2.0000      -0.759592       -20.6696
  18   2.0000      -0.713121       -19.4050
  19   2.0000      -0.702711       -19.1217
  20   2.0000      -0.676932       -18.4203
  21   2.0000      -0.648765       -17.6538
  22   2.0000      -0.628793       -17.1103
  23   2.0000      -0.588348       -16.0098
  24   2.0000      -0.566479       -15.4147
  25   2.0000      -0.562789       -15.3143
  26   2.0000      -0.539015       -14.6673
  27   2.0000      -0.510533       -13.8923
  28   0.0000      -0.128092        -3.4856
  29   0.0000      -0.111841        -3.0434
  30   0.0000      -0.080635        -2.1942
  31   0.0000      -0.070440        -1.9168
  32   0.0000      -0.055347        -1.5061

MULLIKEN ATOMIC CHARGES
-----------------------
   0 C :    0.833498
   1 N :   -0.332580
   2 C :    0.104631
   3 C :    0.720236
   4 C :    1.056944
   5 N :    0.345599
   6 N :    0.045311
   7 H :   -0.068238
   8 H :   -0.049521
   9 H :   -0.256896
  10 H :   -0.408750
  11 H :   -0.110898
  12 H :   -0.008312
  13 H :   -0.426964
  14 H :   -0.186683
  15 H :   -0.039953
  16 H :   -0.419038
  17 H :    0.152546
  18 H :    0.049068
Sum of atomic charges:    1.0000000

LOEWDIN ATOMIC CHARGES
----------------------
   0 C :    0.071292
   1 N :    0.058811
   2 C :   -0.024667
   3 C :    0.137630
   4 C :   -0.040115
   5 N :    0.297278
   6 N :    0.264618
   7 H :    0.032020
   8 H :    0.026698
   9 H :    0.056185
  10 H :   -0.035079
  11 H :    0.049086
  12 H :    0.032619
  13 H :    0.040870
  14 H :    0.033779
  15 H :    0.039073
  16 H :    0.002284
  17 H :   -0.012612
  18 H :   -0.029770

  Mayer bond orders larger than 0.100000
B(  0-C ,  1-N ) :   0.9707 B(  0-C ,  2-C ) :   1.0972 B(  0-C ,  9-H ) :  -0.2025
B(  0-C , 12-H ) :   0.7143 B(  0-C , 13-H ) :   0.9055 B(  0-C , 14-H ) :   0.1443
B(  0-C , 15-H ) :   0.1188 B(  1-N ,  4-C ) :   1.0616 B(  1-N ,  5-N ) :   0.1579
B(  1-N ,  6-N ) :   0.1911 B(  1-N ,  9-H ) :   1.2880 B(  1-N , 12-H ) :   0.1844
B(  1-N , 13-H ) :   0.1321 B(  2-C ,  3-C ) :   1.2568 B(  2-C , 12-H ) :   0.1225
B(  2-C , 14-H ) :   0.9175 B(  2-C , 15-H ) :   0.8463 B(  2-C , 16-H ) :   0.1893
B(  2-C , 17-H ) :   0.1471 B(  2-C , 18-H ) :   0.1586 B(  3-C , 10-H ) :   0.1435
B(  3-C , 15-H ) :   0.1069 B(  3-C , 16-H ) :   0.9250 B(  3-C , 17-H ) :   0.6851
B(  3-C , 18-H ) :   0.8088 B(  4-C ,  5-N ) :   1.1260 B(  4-C ,  6-N ) :   0.8913
B(  4-C ,  7-H ) :  -0.1062 B(  4-C ,  9-H ) :  -0.2222 B(  4-C , 10-H ) :  -0.1150
B(  4-C , 11-H ) :  -0.1182 B(  5-N ,  6-N ) :   0.1565 B(  5-N , 10-H ) :   1.1658
B(  5-N , 11-H ) :   1.2123 B(  5-N , 12-H ) :   0.1057 B(  6-N ,  7-H ) :   1.1003
B(  6-N ,  8-H ) :   1.1466 B(  7-H ,  8-H ) :  -0.1433 B( 10-H , 11-H ) :  -0.2169
B( 10-H , 17-H ) :   0.1867 B( 12-H , 13-H ) :  -0.1643 B( 16-H , 17-H ) :  -0.1370

FINAL SINGLE POINT ENERGY      -323.324739099034

DIPOLE MOMENT
-------------
                                X             Y             Z
Electronic contribution:      3.86634       0.80173       4.83595
Nuclear contribution   :     -3.69451      -0.93313      -3.60402
                        -----------------------------------------
Total Dipole Moment    :      0.17182      -0.13139       1.23193
                        -----------------------------------------
Magnitude (a.u.)       :      1.25077
Magnitude (Debye)      :      3.17922

Rotational constants in cm-1:     0.152547     0.057272     0.048491
Rotational constants in MHz :  4573.230603  1716.968614  1453.721796

                             ****ORCA TERMINATED NORMALLY****
TOTAL RUN TIME: 0 days 0 hours 0 minutes 50 seconds 525 msec
