                         Program Version 5.0.0 -  RELEASE  -
|  1> !CAM-B3LYP RIJCOSX def2-SVPD def2/J TightSCF xyzfile
|  2>
|  3> *xyzfile 0 1 B.xyz
|  4>
|  5> %MaxCore 64000
|  6>
|  7> %pal nprocs 4
|  8> end
|  9>
| 10> %scf
| 11>   MaxIter 150
| 12> end
| 13>
| 14>
| 15>                          ****END OF INPUT****

CARTESIAN COORDINATES (ANGSTROEM)
---------------------------------
  C      4.999862   -1.596133   -5.924876
  N      5.281560   -1.974132   -4.535764
  C      3.766779   -2.266110   -6.511752
  C      2.496702   -1.844161   -5.735704
  H      1.626416   -2.217434   -6.308950
  H      2.481824   -2.456069   -4.793414
  O      2.459729   -0.509204   -5.505757
  C      4.792500   -1.361316   -3.457295
  N      3.939898   -0.374925   -3.557359
  N      5.259860   -1.754224   -2.239133
  H      5.922824   -2.521451   -2.186720
  H      4.654678   -1.640404   -1.442016
  H      5.709139   -2.875599   -4.387021
  H      3.330101   -0.317639   -4.361247
  H      3.698494    0.114468   -2.708333
  H      4.843333   -0.517930   -5.943019
  H      5.901695   -1.822503   -6.496467
  H      3.886191   -3.357076   -6.533604
  H      3.685602   -1.922168   -7.547128

 Total Charge           Charge          ....    0
 Multiplicity           Mult            ....    1
 Number of Electrons    NEL             ....   64
 Basis Dimension        Dim             ....  251

ORBITAL ENERGIES
----------------

  NO   OCC          E(Eh)            E(eV)
   0   2.0000     -19.066234      -518.8186
   1   2.0000     -14.472311      -393.8116
   2   2.0000     -14.463136      -393.5619
   3   2.0000     -14.420416      -392.3995
   4   2.0000     -10.424701      -283.6705
   5   2.0000     -10.292499      -280.0731
   6   2.0000     -10.242855      -278.7223
   7   2.0000     -10.227840      -278.3137
   8   2.0000      -1.120855       -30.5000
   9   2.0000      -1.012169       -27.5425
  10   2.0000      -0.994614       -27.0648
  11   2.0000      -0.952383       -25.9157
  12   2.0000      -0.833603       -22.6835
  13   2.0000      -0.751827       -20.4582
  14   2.0000      -0.707378       -19.2487
  15   2.0000      -0.688702       -18.7405
  16   2.0000      -0.660206       -17.9651
  17   2.0000      -0.614780       -16.7290
  18   2.0000      -0.595015       -16.1912
  19   2.0000      -0.577265       -15.7082
  20   2.0000      -0.541300       -14.7295
  21   2.0000      -0.532892       -14.5007
  22   2.0000      -0.506604       -13.7854
  23   2.0000      -0.476169       -12.9572
  24   2.0000      -0.430066       -11.7027
  25   2.0000      -0.410163       -11.1611
  26   2.0000      -0.398245       -10.8368
  27   2.0000      -0.376281       -10.2391
  28   2.0000      -0.364224        -9.9110
  29   2.0000      -0.342724        -9.3260
  30   2.0000      -0.230005        -6.2587
  31   2.0000      -0.225442        -6.1346
  32   0.0000       0.012022         0.3271
  33   0.0000       0.039683         1.0798
  34   0.0000       0.049505         1.3471
  35   0.0000       0.066259         1.8030
  36   0.0000       0.087100         2.3701

MULLIKEN ATOMIC CHARGES
-----------------------
   0 C :    0.840481
   1 N :   -0.378791
   2 C :    0.206039
   3 C :    0.669215
   4 H :   -0.491151
   5 H :    0.064836
   6 O :   -0.659284
   7 C :    0.963762
   8 N :    0.459984
   9 N :    0.042985
  10 H :   -0.107240
  11 H :   -0.072130
  12 H :   -0.275309
  13 H :   -0.467440
  14 H :   -0.173217
  15 H :    0.129584
  16 H :   -0.487088
  17 H :   -0.210550
  18 H :   -0.054686
Sum of atomic charges:   -0.0000000

LOEWDIN ATOMIC CHARGES
----------------------
   0 C :    0.061516
   1 N :    0.043511
   2 C :   -0.023259
   3 C :   -0.103783
   4 H :    0.004014
   5 H :   -0.002525
   6 O :   -0.423119
   7 C :   -0.054656
   8 N :    0.304165
   9 N :    0.228537
  10 H :    0.006724
  11 H :    0.007158
  12 H :    0.036033
  13 H :   -0.190466
  14 H :    0.027708
  15 H :    0.025655
  16 H :    0.018567
  17 H :    0.010245
  18 H :    0.023973

  Mayer bond orders larger than 0.100000
B(  0-C ,  1-N ) :   0.9664 B(  0-C ,  2-C ) :   1.1382 B(  0-C , 12-H ) :  -0.1940
B(  0-C , 15-H ) :   0.6879 B(  0-C , 16-H ) :   0.8329 B(  0-C , 17-H ) :   0.1674
B(  0-C , 18-H ) :   0.1188 B(  1-N ,  7-C ) :   1.0694 B(  1-N ,  8-N ) :   0.1581
B(  1-N ,  9-N ) :   0.1759 B(  1-N , 12-H ) :   1.2903 B(  1-N , 15-H ) :   0.1925
B(  1-N , 16-H ) :   0.1448 B(  2-C ,  3-C ) :   1.0657 B(  2-C ,  4-H ) :   0.1598
B(  2-C ,  5-H ) :   0.1346 B(  2-C , 15-H ) :   0.1281 B(  2-C , 17-H ) :   0.8532
B(  2-C , 18-H ) :   0.8325 B(  3-C ,  4-H ) :   0.9573 B(  3-C ,  5-H ) :   0.8178
B(  3-C ,  6-O ) :   1.1308 B(  3-C , 17-H ) :   0.1126 B(  3-C , 18-H ) :   0.1223
B(  6-O , 13-H ) :   0.3983 B(  7-C ,  8-N ) :   1.1955 B(  7-C ,  9-N ) :   0.8513
B(  7-C , 10-H ) :  -0.1136 B(  7-C , 12-H ) :  -0.2142 B(  7-C , 13-H ) :  -0.1544
B(  7-C , 14-H ) :  -0.1074 B(  8-N ,  9-N ) :   0.1521 B(  8-N , 13-H ) :   1.1606
B(  8-N , 14-H ) :   1.1550 B(  9-N , 10-H ) :   1.1276 B(  9-N , 11-H ) :   1.1425
B( 10-H , 11-H ) :  -0.1433 B( 13-H , 14-H ) :  -0.2201 B( 15-H , 16-H ) :  -0.1699

FINAL SINGLE POINT ENERGY      -398.047222540901

DIPOLE MOMENT
-------------
                                X             Y             Z
Electronic contribution:      1.94592       1.89902       3.70958
Nuclear contribution   :      0.51577      -3.31768      -1.36804
                        -----------------------------------------
Total Dipole Moment    :      2.46169      -1.41866       2.34154
                        -----------------------------------------
Magnitude (a.u.)       :      3.68175
Magnitude (Debye)      :      9.35827

Rotational constants in cm-1:     0.111492     0.050787     0.040163
Rotational constants in MHz :  3342.457536  1522.560798  1204.057148

                             ****ORCA TERMINATED NORMALLY****
TOTAL RUN TIME: 0 days 0 hours 1 minutes 8 seconds 779 msec
