                         Program Version 5.0.0 -  RELEASE  -
|  1> !CAM-B3LYP RIJCOSX def2-SVPD def2/J TightSCF
|  2> *xyz 0 1
|  3> C          4.99986       -1.59613       -5.92488
|  4> C          3.76678       -2.26611       -6.51175
|  5> C          2.49670       -1.84416       -5.73570
|  6> H          1.62642       -2.21743       -6.30895
|  7> H          2.48182       -2.45607       -4.79341
|  8> F          2.45973       -0.50920       -5.50576
|  9> H          3.88619       -3.35708       -6.53360
| 10> H          3.68560       -1.92217       -7.54713
| 11> H          5.86637       -1.89999       -6.47418
| 12> H          5.10830       -1.88372       -4.89997
| 13> H          4.89230       -0.53341       -5.98765
| 14> *
| 15>
| 16> %MaxCore 64000
| 17>
| 18> %pal nprocs 4
| 19> end
| 20>
| 21> %scf
| 22>   MaxIter 150
| 23> end
| 24>
| 25>
| 26>                          ****END OF INPUT****

CARTESIAN COORDINATES (ANGSTROEM)
---------------------------------
  C      4.999860   -1.596130   -5.924880
  C      3.766780   -2.266110   -6.511750
  C      2.496700   -1.844160   -5.735700
  H      1.626420   -2.217430   -6.308950
  H      2.481820   -2.456070   -4.793410
  F      2.459730   -0.509200   -5.505760
  H      3.886190   -3.357080   -6.533600
  H      3.685600   -1.922170   -7.547130
  H      5.866370   -1.899990   -6.474180
  H      5.108300   -1.883720   -4.899970
  H      4.892300   -0.533410   -5.987650

 Total Charge           Charge          ....    0
 Multiplicity           Mult            ....    1
 Number of Electrons    NEL             ....   34
 Basis Dimension        Dim             ....  139

ORBITAL ENERGIES
----------------

  NO   OCC          E(Eh)            E(eV)
   0   2.0000     -24.767212      -673.9501
   1   2.0000     -10.339525      -281.3528
   2   2.0000     -10.264009      -279.2979
   3   2.0000     -10.242858      -278.7223
   4   2.0000      -1.275761       -34.7152
   5   2.0000      -0.865940       -23.5634
   6   2.0000      -0.763986       -20.7891
   7   2.0000      -0.668760       -18.1979
   8   2.0000      -0.588365       -16.0102
   9   2.0000      -0.573250       -15.5989
  10   2.0000      -0.551959       -15.0196
  11   2.0000      -0.508874       -13.8472
  12   2.0000      -0.467993       -12.7347
  13   2.0000      -0.442073       -12.0294
  14   2.0000      -0.422691       -11.5020
  15   2.0000      -0.393147       -10.6981
  16   2.0000      -0.389447       -10.5974
  17   0.0000       0.051259         1.3948
  18   0.0000       0.075909         2.0656
  19   0.0000       0.085963         2.3392
  20   0.0000       0.103052         2.8042
  21   0.0000       0.126404         3.4396

MULLIKEN ATOMIC CHARGES
-----------------------
   0 C :    0.793583
   1 C :   -0.295827
   2 C :    0.817599
   3 H :   -0.167063
   4 H :   -0.063451
   5 F :   -0.420068
   6 H :   -0.168897
   7 H :   -0.113342
   8 H :   -0.173702
   9 H :   -0.134374
  10 H :   -0.074457
Sum of atomic charges:    0.0000000

LOEWDIN ATOMIC CHARGES
----------------------
   0 C :    0.113554
   1 C :   -0.064234
   2 C :    0.090397
   3 H :    0.028057
   4 H :    0.040111
   5 F :   -0.202978
   6 H :    0.026960
   7 H :    0.020012
   8 H :   -0.018956
   9 H :   -0.014942
  10 H :   -0.017980

  Mayer bond orders larger than 0.100000
B(  0-C ,  1-C ) :   1.3051 B(  0-C ,  8-H ) :   0.7875 B(  0-C ,  9-H ) :   0.7865
B(  0-C , 10-H ) :   0.7892 B(  1-C ,  2-C ) :   1.1544 B(  1-C ,  3-H ) :   0.1206
B(  1-C ,  4-H ) :   0.1182 B(  1-C ,  6-H ) :   0.9585 B(  1-C ,  7-H ) :   0.9064
B(  1-C ,  8-H ) :   0.2095 B(  1-C ,  9-H ) :   0.1849 B(  1-C , 10-H ) :   0.1880
B(  2-C ,  3-H ) :   0.9047 B(  2-C ,  4-H ) :   0.8760 B(  2-C ,  5-F ) :   0.7601

FINAL SINGLE POINT ENERGY      -218.121799218536

DIPOLE MOMENT
-------------
                                X             Y             Z
Electronic contribution:     -4.39662       3.83869       1.41523
Nuclear contribution   :      4.50596      -4.50325      -1.58424
                        -----------------------------------------
Total Dipole Moment    :      0.10934      -0.66455      -0.16901
                        -----------------------------------------
Magnitude (a.u.)       :      0.69437
Magnitude (Debye)      :      1.76496

Rotational constants in cm-1:     0.464063     0.182606     0.146573
Rotational constants in MHz : 13912.251583  5474.398056  4394.141907

                             ****ORCA TERMINATED NORMALLY****
TOTAL RUN TIME: 0 days 0 hours 0 minutes 14 seconds 76 msec
