                         Program Version 5.0.0 -  RELEASE  -
|  1> !CAM-B3LYP RIJCOSX def2-SVPD def2/J TightSCF
|  2> *xyz 0 1
|  3> C          4.99986       -1.59613       -5.92488
|  4> C          5.28156       -1.97413       -4.53576
|  5> C          3.76678       -2.26611       -6.51175
|  6> C          2.49670       -1.84416       -5.73570
|  7> C          4.79250       -1.36132       -3.45730
|  8> N          3.93990       -0.37492       -3.55736
|  9> N          5.25986       -1.75422       -2.23913
| 10> H          5.92282       -2.52145       -2.18672
| 11> H          4.65468       -1.64040       -1.44202
| 12> H          5.70914       -2.87560       -4.38702
| 13> H          3.33010       -0.31764       -4.36125
| 14> H          3.69849        0.11447       -2.70833
| 15> H          4.84333       -0.51793       -5.94302
| 16> H          5.90170       -1.82250       -6.49647
| 17> H          3.88619       -3.35708       -6.53360
| 18> H          3.68560       -1.92217       -7.54713
| 19> H          1.64155       -2.32499       -6.16281
| 20> H          2.37707       -0.78268       -5.79763
| 21> H          2.59306       -2.13299       -4.70994
| 22> *
| 23>
| 24> %MaxCore 64000
| 25>
| 26> %pal nprocs 4
| 27> end
| 28>
| 29> %scf
| 30>   MaxIter 150
| 31> end
| 32>
| 33>
| 34>                          ****END OF INPUT****

CARTESIAN COORDINATES (ANGSTROEM)
---------------------------------
  C      4.999860   -1.596130   -5.924880
  C      5.281560   -1.974130   -4.535760
  C      3.766780   -2.266110   -6.511750
  C      2.496700   -1.844160   -5.735700
  C      4.792500   -1.361320   -3.457300
  N      3.939900   -0.374920   -3.557360
  N      5.259860   -1.754220   -2.239130
  H      5.922820   -2.521450   -2.186720
  H      4.654680   -1.640400   -1.442020
  H      5.709140   -2.875600   -4.387020
  H      3.330100   -0.317640   -4.361250
  H      3.698490    0.114470   -2.708330
  H      4.843330   -0.517930   -5.943020
  H      5.901700   -1.822500   -6.496470
  H      3.886190   -3.357080   -6.533600
  H      3.685600   -1.922170   -7.547130
  H      1.641550   -2.324990   -6.162810
  H      2.377070   -0.782680   -5.797630
  H      2.593060   -2.132990   -4.709940

 Total Charge           Charge          ....    0
 Multiplicity           Mult            ....    1
 Number of Electrons    NEL             ....   56
 Basis Dimension        Dim             ....  236

ORBITAL ENERGIES
----------------

  NO   OCC          E(Eh)            E(eV)
   0   2.0000     -14.404950      -391.9786
   1   2.0000     -14.401317      -391.8797
   2   2.0000     -10.302832      -280.3543
   3   2.0000     -10.241313      -278.6803
   4   2.0000     -10.239907      -278.6420
   5   2.0000     -10.229724      -278.3650
   6   2.0000     -10.182687      -277.0850
   7   2.0000      -1.037523       -28.2324
   8   2.0000      -0.943475       -25.6733
   9   2.0000      -0.866089       -23.5675
  10   2.0000      -0.798894       -21.7390
  11   2.0000      -0.733914       -19.9708
  12   2.0000      -0.678310       -18.4578
  13   2.0000      -0.633924       -17.2499
  14   2.0000      -0.615915       -16.7599
  15   2.0000      -0.578433       -15.7400
  16   2.0000      -0.550390       -14.9769
  17   2.0000      -0.518845       -14.1185
  18   2.0000      -0.506674       -13.7873
  19   2.0000      -0.488466       -13.2918
  20   2.0000      -0.458129       -12.4663
  21   2.0000      -0.441066       -12.0020
  22   2.0000      -0.423109       -11.5134
  23   2.0000      -0.400644       -10.9021
  24   2.0000      -0.384631       -10.4663
  25   2.0000      -0.380704       -10.3595
  26   2.0000      -0.329487        -8.9658
  27   2.0000      -0.221314        -6.0223
  28   0.0000       0.048414         1.3174
  29   0.0000       0.069732         1.8975
  30   0.0000       0.077845         2.1183
  31   0.0000       0.091032         2.4771
  32   0.0000       0.097934         2.6649

MULLIKEN ATOMIC CHARGES
-----------------------
   0 C :    0.322854
   1 C :   -0.193669
   2 C :    0.070433
   3 C :    0.731497
   4 C :    0.756526
   5 N :    0.426697
   6 N :    0.009497
   7 H :   -0.074340
   8 H :   -0.120569
   9 H :   -0.396433
  10 H :   -0.444105
  11 H :   -0.242950
  12 H :   -0.012729
  13 H :   -0.258802
  14 H :   -0.211906
  15 H :   -0.115060
  16 H :   -0.414140
  17 H :    0.143765
  18 H :    0.023434
Sum of atomic charges:    0.0000000

LOEWDIN ATOMIC CHARGES
----------------------
   0 C :   -0.066752
   1 C :   -0.019092
   2 C :   -0.055803
   3 C :    0.120380
   4 C :   -0.225952
   5 N :    0.215484
   6 N :    0.184640
   7 H :   -0.001143
   8 H :   -0.023551
   9 H :   -0.053478
  10 H :   -0.060262
  11 H :    0.001269
  12 H :    0.010969
  13 H :    0.013304
  14 H :    0.021706
  15 H :    0.012796
  16 H :   -0.020395
  17 H :   -0.023390
  18 H :   -0.030730

  Mayer bond orders larger than 0.100000
B(  0-C ,  1-C ) :   1.1512 B(  0-C ,  2-C ) :   1.1095 B(  0-C ,  9-H ) :   0.2607
B(  0-C , 12-H ) :   0.7230 B(  0-C , 13-H ) :   0.8422 B(  0-C , 14-H ) :   0.1754
B(  0-C , 15-H ) :   0.1397 B(  1-C ,  4-C ) :   1.5421 B(  1-C ,  5-N ) :   0.2713
B(  1-C ,  6-N ) :   0.3108 B(  1-C ,  9-H ) :   0.8440 B(  1-C , 12-H ) :   0.2897
B(  1-C , 13-H ) :   0.1862 B(  2-C ,  3-C ) :   1.2614 B(  2-C , 12-H ) :   0.1149
B(  2-C , 14-H ) :   0.9207 B(  2-C , 15-H ) :   0.8344 B(  2-C , 16-H ) :   0.2107
B(  2-C , 17-H ) :   0.1599 B(  2-C , 18-H ) :   0.1890 B(  3-C , 10-H ) :   0.1326
B(  3-C , 15-H ) :   0.1223 B(  3-C , 16-H ) :   0.8669 B(  3-C , 17-H ) :   0.6918
B(  3-C , 18-H ) :   0.7932 B(  4-C ,  5-N ) :   1.0322 B(  4-C ,  6-N ) :   0.7776
B(  4-C ,  9-H ) :   0.1084 B(  4-C , 11-H ) :  -0.1279 B(  4-C , 12-H ) :  -0.1432
B(  5-N ,  6-N ) :   0.1025 B(  5-N , 10-H ) :   1.1126 B(  5-N , 11-H ) :   1.2380
B(  6-N ,  7-H ) :   1.1210 B(  6-N ,  8-H ) :   1.1241 B(  7-H ,  8-H ) :  -0.1327
B( 10-H , 11-H ) :  -0.2006 B( 10-H , 17-H ) :   0.1823 B( 16-H , 17-H ) :  -0.1082

FINAL SINGLE POINT ENERGY      -306.853270903262

DIPOLE MOMENT
-------------
                                X             Y             Z
Electronic contribution:      2.88410       1.02984       4.30652
Nuclear contribution   :     -3.49027      -1.01686      -3.60427
                        -----------------------------------------
Total Dipole Moment    :     -0.60617       0.01298       0.70224
                        -----------------------------------------
Magnitude (a.u.)       :      0.92777
Magnitude (Debye)      :      2.35820

Rotational constants in cm-1:     0.155200     0.057307     0.048781
Rotational constants in MHz :  4652.781345  1718.017305  1462.410307

                             ****ORCA TERMINATED NORMALLY****
TOTAL RUN TIME: 0 days 0 hours 0 minutes 51 seconds 681 msec
