                         Program Version 5.0.0 -  RELEASE  -
|  1> !CAM-B3LYP RIJCOSX def2-SVPD def2/J TightSCF
|  2> *xyz 0 1
|  3> C          4.99986       -1.59613       -5.92488
|  4> N          5.28156       -1.97413       -4.53576
|  5> C          3.76678       -2.26611       -6.51175
|  6> C          2.49670       -1.84416       -5.73570
|  7> C          4.79250       -1.36132       -3.45730
|  8> C          3.93990       -0.37492       -3.55736
|  9> N          5.25986       -1.75422       -2.23913
| 10> H          5.92282       -2.52145       -2.18672
| 11> H          4.65468       -1.64040       -1.44202
| 12> H          5.70914       -2.87560       -4.38702
| 13> H          3.33010       -0.31764       -4.36125
| 14> H          3.69849        0.11447       -2.70833
| 15> H          4.84333       -0.51793       -5.94302
| 16> H          5.90170       -1.82250       -6.49647
| 17> H          3.88619       -3.35708       -6.53360
| 18> H          3.68560       -1.92217       -7.54713
| 19> H          1.64155       -2.32499       -6.16281
| 20> H          2.37707       -0.78268       -5.79763
| 21> H          2.59306       -2.13299       -4.70994
| 22> *
| 23>
| 24> %MaxCore 64000
| 25>
| 26> %pal nprocs 4
| 27> end
| 28>
| 29> %scf
| 30>   MaxIter 150
| 31> end
| 32>
| 33>
| 34>                          ****END OF INPUT****

CARTESIAN COORDINATES (ANGSTROEM)
---------------------------------
  C      4.999860   -1.596130   -5.924880
  N      5.281560   -1.974130   -4.535760
  C      3.766780   -2.266110   -6.511750
  C      2.496700   -1.844160   -5.735700
  C      4.792500   -1.361320   -3.457300
  C      3.939900   -0.374920   -3.557360
  N      5.259860   -1.754220   -2.239130
  H      5.922820   -2.521450   -2.186720
  H      4.654680   -1.640400   -1.442020
  H      5.709140   -2.875600   -4.387020
  H      3.330100   -0.317640   -4.361250
  H      3.698490    0.114470   -2.708330
  H      4.843330   -0.517930   -5.943020
  H      5.901700   -1.822500   -6.496470
  H      3.886190   -3.357080   -6.533600
  H      3.685600   -1.922170   -7.547130
  H      1.641550   -2.324990   -6.162810
  H      2.377070   -0.782680   -5.797630
  H      2.593060   -2.132990   -4.709940

 Total Charge           Charge          ....    0
 Multiplicity           Mult            ....    1
 Number of Electrons    NEL             ....   56
 Basis Dimension        Dim             ....  236

ORBITAL ENERGIES
----------------

  NO   OCC          E(Eh)            E(eV)
   0   2.0000     -14.406033      -392.0081
   1   2.0000     -14.402330      -391.9073
   2   2.0000     -10.304525      -280.4004
   3   2.0000     -10.286920      -279.9213
   4   2.0000     -10.255245      -279.0594
   5   2.0000     -10.235200      -278.5139
   6   2.0000     -10.169434      -276.7244
   7   2.0000      -1.038677       -28.2638
   8   2.0000      -0.953605       -25.9489
   9   2.0000      -0.852633       -23.2013
  10   2.0000      -0.799774       -21.7630
  11   2.0000      -0.754965       -20.5436
  12   2.0000      -0.679558       -18.4917
  13   2.0000      -0.634257       -17.2590
  14   2.0000      -0.610130       -16.6025
  15   2.0000      -0.583773       -15.8853
  16   2.0000      -0.537229       -14.6187
  17   2.0000      -0.529064       -14.3966
  18   2.0000      -0.502234       -13.6665
  19   2.0000      -0.474218       -12.9041
  20   2.0000      -0.461853       -12.5677
  21   2.0000      -0.444448       -12.0940
  22   2.0000      -0.442984       -12.0542
  23   2.0000      -0.410142       -11.1605
  24   2.0000      -0.405778       -11.0418
  25   2.0000      -0.394070       -10.7232
  26   2.0000      -0.315006        -8.5718
  27   2.0000      -0.231525        -6.3001
  28   0.0000       0.046378         1.2620
  29   0.0000       0.067805         1.8451
  30   0.0000       0.073284         1.9942
  31   0.0000       0.085465         2.3256
  32   0.0000       0.099862         2.7174

MULLIKEN ATOMIC CHARGES
-----------------------
   0 C :    0.818936
   1 N :   -0.362530
   2 C :    0.054480
   3 C :    0.595344
   4 C :    0.645137
   5 C :    0.875805
   6 N :    0.122419
   7 H :   -0.147854
   8 H :   -0.042339
   9 H :   -0.357534
  10 H :   -1.020380
  11 H :   -0.477773
  12 H :    0.055355
  13 H :   -0.460500
  14 H :   -0.207536
  15 H :   -0.090521
  16 H :   -0.492300
  17 H :    0.342279
  18 H :    0.149512
Sum of atomic charges:   -0.0000000

LOEWDIN ATOMIC CHARGES
----------------------
   0 C :    0.046062
   1 N :   -0.006764
   2 C :   -0.048037
   3 C :    0.122748
   4 C :   -0.230031
   5 C :    0.163363
   6 N :    0.189339
   7 H :   -0.016347
   8 H :   -0.006315
   9 H :    0.016574
  10 H :   -0.146954
  11 H :   -0.086978
  12 H :    0.023588
  13 H :    0.016515
  14 H :    0.017006
  15 H :    0.017020
  16 H :   -0.022291
  17 H :   -0.018862
  18 H :   -0.029639

  Mayer bond orders larger than 0.100000
B(  0-C ,  1-N ) :   0.9702 B(  0-C ,  2-C ) :   1.0743 B(  0-C ,  4-C ) :  -0.1085
B(  0-C ,  9-H ) :  -0.1931 B(  0-C , 12-H ) :   0.7027 B(  0-C , 13-H ) :   0.9120
B(  0-C , 14-H ) :   0.1357 B(  0-C , 15-H ) :   0.1224 B(  1-N ,  4-C ) :   0.9668
B(  1-N ,  5-C ) :   0.3066 B(  1-N ,  6-N ) :   0.1375 B(  1-N ,  9-H ) :   1.3547
B(  1-N , 12-H ) :   0.1642 B(  1-N , 13-H ) :   0.1289 B(  2-C ,  3-C ) :   1.2755
B(  2-C , 12-H ) :   0.1449 B(  2-C , 14-H ) :   0.9221 B(  2-C , 15-H ) :   0.8501
B(  2-C , 16-H ) :   0.1948 B(  2-C , 17-H ) :   0.1351 B(  2-C , 18-H ) :   0.1539
B(  3-C , 10-H ) :   0.3047 B(  3-C , 15-H ) :   0.1168 B(  3-C , 16-H ) :   0.9263
B(  3-C , 17-H ) :   0.6273 B(  3-C , 18-H ) :   0.8173 B(  4-C ,  5-C ) :   1.7453
B(  4-C ,  6-N ) :   0.8686 B(  4-C ,  9-H ) :  -0.2519 B(  4-C , 11-H ) :   0.4007
B(  5-C ,  6-N ) :   0.3181 B(  5-C , 10-H ) :   0.2950 B(  5-C , 11-H ) :   0.4871
B(  6-N ,  7-H ) :   1.0410 B(  6-N ,  8-H ) :   1.0828 B(  6-N , 11-H ) :   0.1836
B(  7-H ,  8-H ) :  -0.1411 B( 10-H , 12-H ) :   0.1036 B( 10-H , 17-H ) :   0.1712
B( 12-H , 13-H ) :  -0.1770 B( 16-H , 17-H ) :  -0.1949 B( 16-H , 18-H ) :  -0.1011

FINAL SINGLE POINT ENERGY      -306.841439344766

DIPOLE MOMENT
-------------
                                X             Y             Z
Electronic contribution:      4.03720      -0.35707       3.36003
Nuclear contribution   :     -3.78417      -0.66655      -3.38995
                        -----------------------------------------
Total Dipole Moment    :      0.25303      -1.02362      -0.02992
                        -----------------------------------------
Magnitude (a.u.)       :      1.05486
Magnitude (Debye)      :      2.68123

Rotational constants in cm-1:     0.157710     0.057795     0.049101
Rotational constants in MHz :  4728.033540  1732.635996  1472.015132

                             ****ORCA TERMINATED NORMALLY****
TOTAL RUN TIME: 0 days 0 hours 0 minutes 51 seconds 461 msec
