                         Program Version 5.0.0 -  RELEASE  -
|  1> !CAM-B3LYP RIJCOSX def2-SVPD def2/J TightSCF
|  2> *xyz 0 1
|  3> C          4.99986       -1.59613       -5.92488
|  4> N          5.28156       -1.97413       -4.53576
|  5> C          3.76678       -2.26611       -6.51175
|  6> C          2.49670       -1.84416       -5.73570
|  7> C          4.79250       -1.36132       -3.45730
|  8> N          3.93990       -0.37492       -3.55736
|  9> C          5.25986       -1.75422       -2.23913
| 10> H          5.92282       -2.52145       -2.18672
| 11> H          4.65468       -1.64040       -1.44202
| 12> H          5.70914       -2.87560       -4.38702
| 13> H          3.33010       -0.31764       -4.36125
| 14> H          3.69849        0.11447       -2.70833
| 15> H          4.84333       -0.51793       -5.94302
| 16> H          5.90170       -1.82250       -6.49647
| 17> H          3.88619       -3.35708       -6.53360
| 18> H          3.68560       -1.92217       -7.54713
| 19> H          1.64155       -2.32499       -6.16281
| 20> H          2.37707       -0.78268       -5.79763
| 21> H          2.59306       -2.13299       -4.70994
| 22> *
| 23>
| 24> %MaxCore 64000
| 25>
| 26> %pal nprocs 4
| 27> end
| 28>
| 29> %scf
| 30>   MaxIter 150
| 31> end
| 32>
| 33>
| 34>                          ****END OF INPUT****

CARTESIAN COORDINATES (ANGSTROEM)
---------------------------------
  C      4.999860   -1.596130   -5.924880
  N      5.281560   -1.974130   -4.535760
  C      3.766780   -2.266110   -6.511750
  C      2.496700   -1.844160   -5.735700
  C      4.792500   -1.361320   -3.457300
  N      3.939900   -0.374920   -3.557360
  C      5.259860   -1.754220   -2.239130
  H      5.922820   -2.521450   -2.186720
  H      4.654680   -1.640400   -1.442020
  H      5.709140   -2.875600   -4.387020
  H      3.330100   -0.317640   -4.361250
  H      3.698490    0.114470   -2.708330
  H      4.843330   -0.517930   -5.943020
  H      5.901700   -1.822500   -6.496470
  H      3.886190   -3.357080   -6.533600
  H      3.685600   -1.922170   -7.547130
  H      1.641550   -2.324990   -6.162810
  H      2.377070   -0.782680   -5.797630
  H      2.593060   -2.132990   -4.709940

 Total Charge           Charge          ....    0
 Multiplicity           Mult            ....    1
 Number of Electrons    NEL             ....   56
 Basis Dimension        Dim             ....  236

ORBITAL ENERGIES
----------------

  NO   OCC          E(Eh)            E(eV)
   0   2.0000     -14.405134      -391.9836
   1   2.0000     -14.404329      -391.9617
   2   2.0000     -10.308449      -280.5072
   3   2.0000     -10.295920      -280.1662
   4   2.0000     -10.267141      -279.3831
   5   2.0000     -10.257990      -279.1341
   6   2.0000     -10.165667      -276.6219
   7   2.0000      -1.048089       -28.5200
   8   2.0000      -0.962319       -26.1860
   9   2.0000      -0.873276       -23.7631
  10   2.0000      -0.793349       -21.5881
  11   2.0000      -0.750038       -20.4096
  12   2.0000      -0.677953       -18.4481
  13   2.0000      -0.672485       -18.2992
  14   2.0000      -0.618754       -16.8372
  15   2.0000      -0.573675       -15.6105
  16   2.0000      -0.550372       -14.9764
  17   2.0000      -0.532902       -14.5010
  18   2.0000      -0.523849       -14.2547
  19   2.0000      -0.475574       -12.9410
  20   2.0000      -0.464395       -12.6368
  21   2.0000      -0.454300       -12.3621
  22   2.0000      -0.441991       -12.0272
  23   2.0000      -0.420465       -11.4414
  24   2.0000      -0.416402       -11.3309
  25   2.0000      -0.410671       -11.1749
  26   2.0000      -0.319647        -8.6980
  27   2.0000      -0.216681        -5.8962
  28   0.0000       0.044516         1.2113
  29   0.0000       0.064070         1.7434
  30   0.0000       0.074354         2.0233
  31   0.0000       0.078540         2.1372
  32   0.0000       0.101457         2.7608

MULLIKEN ATOMIC CHARGES
-----------------------
   0 C :    0.831313
   1 N :   -0.136949
   2 C :    0.089319
   3 C :    0.703287
   4 C :    0.222496
   5 N :    0.501957
   6 C :    0.534330
   7 H :   -0.379367
   8 H :   -0.371147
   9 H :   -0.332699
  10 H :   -0.515167
  11 H :   -0.114602
  12 H :   -0.040450
  13 H :   -0.494293
  14 H :   -0.202912
  15 H :   -0.072952
  16 H :   -0.453313
  17 H :    0.141812
  18 H :    0.089336
Sum of atomic charges:    0.0000000

LOEWDIN ATOMIC CHARGES
----------------------
   0 C :    0.041049
   1 N :    0.003671
   2 C :   -0.049067
   3 C :    0.124994
   4 C :   -0.240782
   5 N :    0.214739
   6 C :    0.141932
   7 H :   -0.112681
   8 H :   -0.117977
   9 H :    0.031325
  10 H :   -0.068068
  11 H :    0.017543
  12 H :    0.017773
  13 H :    0.017561
  14 H :    0.021756
  15 H :    0.018675
  16 H :   -0.016763
  17 H :   -0.021106
  18 H :   -0.024574

  Mayer bond orders larger than 0.100000
B(  0-C ,  1-N ) :   0.9846 B(  0-C ,  2-C ) :   1.0792 B(  0-C ,  9-H ) :  -0.2235
B(  0-C , 12-H ) :   0.7302 B(  0-C , 13-H ) :   0.8950 B(  0-C , 14-H ) :   0.1575
B(  0-C , 15-H ) :   0.1308 B(  1-N ,  4-C ) :   1.1226 B(  1-N ,  5-N ) :   0.1073
B(  1-N ,  6-C ) :   0.1917 B(  1-N ,  9-H ) :   1.1916 B(  1-N , 12-H ) :   0.1916
B(  1-N , 13-H ) :   0.1310 B(  2-C ,  3-C ) :   1.2513 B(  2-C , 12-H ) :   0.1231
B(  2-C , 14-H ) :   0.9091 B(  2-C , 15-H ) :   0.8421 B(  2-C , 16-H ) :   0.1925
B(  2-C , 17-H ) :   0.1526 B(  2-C , 18-H ) :   0.1675 B(  3-C , 10-H ) :   0.1311
B(  3-C , 15-H ) :   0.1061 B(  3-C , 16-H ) :   0.8955 B(  3-C , 17-H ) :   0.6972
B(  3-C , 18-H ) :   0.8093 B(  4-C ,  5-N ) :   1.1309 B(  4-C ,  6-C ) :   1.7642
B(  4-C ,  7-H ) :   0.1942 B(  4-C ,  8-H ) :   0.2252 B(  4-C ,  9-H ) :  -0.1617
B(  5-N ,  6-C ) :   0.1494 B(  5-N , 10-H ) :   1.0495 B(  5-N , 11-H ) :   1.1888
B(  5-N , 12-H ) :   0.1112 B(  6-C ,  7-H ) :   0.6870 B(  6-C ,  8-H ) :   0.7289
B(  7-H ,  8-H ) :   0.1980 B( 10-H , 11-H ) :  -0.2006 B( 10-H , 17-H ) :   0.1723
B( 12-H , 13-H ) :  -0.1729 B( 16-H , 17-H ) :  -0.1415

FINAL SINGLE POINT ENERGY      -306.839792777887

DIPOLE MOMENT
-------------
                                X             Y             Z
Electronic contribution:      2.73990       0.91593       1.91913
Nuclear contribution   :     -3.49502      -0.96869      -3.10119
                        -----------------------------------------
Total Dipole Moment    :     -0.75512      -0.05276      -1.18206
                        -----------------------------------------
Magnitude (a.u.)       :      1.40366
Magnitude (Debye)      :      3.56781

Rotational constants in cm-1:     0.153385     0.059790     0.050215
Rotational constants in MHz :  4598.376479  1792.462869  1505.410199

                             ****ORCA TERMINATED NORMALLY****
TOTAL RUN TIME: 0 days 0 hours 0 minutes 51 seconds 426 msec
