                         Program Version 5.0.0 -  RELEASE  -
|  1> !CAM-B3LYP RIJCOSX def2-SVPD def2/J TightSCF xyzfile
|  2>
|  3> *xyzfile 0 1 D2.xyz
|  4>
|  5> %MaxCore 64000
|  6>
|  7> %pal nprocs 4
|  8> end
|  9>
| 10> %scf
| 11>   MaxIter 150
| 12> end
| 13>
| 14>
| 15>                          ****END OF INPUT****

CARTESIAN COORDINATES (ANGSTROEM)
---------------------------------
  C      4.999862   -1.596133   -5.924876
  N      5.281560   -1.974132   -4.535764
  C      3.766779   -2.266110   -6.511752
  C      2.496702   -1.844161   -5.735704
  H      1.626416   -2.217434   -6.308950
  H      2.481824   -2.456069   -4.793414
  F      2.459729   -0.509204   -5.505757
  C      4.792500   -1.361316   -3.457295
  C      3.939898   -0.374925   -3.557359
  N      5.259860   -1.754224   -2.239133
  H      5.922824   -2.521451   -2.186720
  H      4.654678   -1.640404   -1.442016
  H      5.709139   -2.875599   -4.387021
  H      3.330101   -0.317639   -4.361247
  H      3.698494    0.114468   -2.708333
  H      4.843333   -0.517930   -5.943019
  H      5.901695   -1.822503   -6.496467
  H      3.886191   -3.357076   -6.533604
  H      3.685602   -1.922168   -7.547128

 Total Charge           Charge          ....    0
 Multiplicity           Mult            ....    1
 Number of Electrons    NEL             ....   64
 Basis Dimension        Dim             ....  251

ORBITAL ENERGIES
----------------

  NO   OCC          E(Eh)            E(eV)
   0   2.0000     -24.774837      -674.1576
   1   2.0000     -14.403013      -391.9259
   2   2.0000     -14.394833      -391.7033
   3   2.0000     -10.343757      -281.4679
   4   2.0000     -10.293876      -280.1106
   5   2.0000     -10.292066      -280.0613
   6   2.0000     -10.270179      -279.4658
   7   2.0000     -10.146510      -276.1006
   8   2.0000      -1.294201       -35.2170
   9   2.0000      -1.033620       -28.1262
  10   2.0000      -0.949533       -25.8381
  11   2.0000      -0.861295       -23.4370
  12   2.0000      -0.786554       -21.4032
  13   2.0000      -0.768766       -20.9192
  14   2.0000      -0.687627       -18.7113
  15   2.0000      -0.642586       -17.4856
  16   2.0000      -0.623719       -16.9723
  17   2.0000      -0.593474       -16.1493
  18   2.0000      -0.589721       -16.0471
  19   2.0000      -0.568825       -15.4785
  20   2.0000      -0.558262       -15.1911
  21   2.0000      -0.527913       -14.3652
  22   2.0000      -0.498454       -13.5636
  23   2.0000      -0.479559       -13.0495
  24   2.0000      -0.456444       -12.4205
  25   2.0000      -0.447995       -12.1906
  26   2.0000      -0.426987       -11.6189
  27   2.0000      -0.412111       -11.2141
  28   2.0000      -0.403770       -10.9871
  29   2.0000      -0.373561       -10.1651
  30   2.0000      -0.312255        -8.4969
  31   2.0000      -0.221540        -6.0284
  32   0.0000       0.042735         1.1629
  33   0.0000       0.064983         1.7683
  34   0.0000       0.071191         1.9372
  35   0.0000       0.082464         2.2440
  36   0.0000       0.097582         2.6553

MULLIKEN ATOMIC CHARGES
-----------------------
   0 C :    0.828011
   1 N :   -0.334012
   2 C :    0.116232
   3 C :    0.894489
   4 H :   -0.430715
   5 H :    0.181076
   6 F :   -0.469570
   7 C :    0.632286
   8 C :    1.113119
   9 N :    0.081497
  10 H :   -0.160094
  11 H :   -0.041431
  12 H :   -0.361943
  13 H :   -1.005935
  14 H :   -0.426834
  15 H :    0.145441
  16 H :   -0.501129
  17 H :   -0.190395
  18 H :   -0.070094
Sum of atomic charges:   -0.0000000

LOEWDIN ATOMIC CHARGES
----------------------
   0 C :    0.058823
   1 N :   -0.011061
   2 C :   -0.002068
   3 C :    0.135011
   4 H :    0.030701
   5 H :    0.044799
   6 F :   -0.201118
   7 C :   -0.229954
   8 C :    0.188522
   9 N :    0.183994
  10 H :   -0.020548
  11 H :   -0.008378
  12 H :    0.013250
  13 H :   -0.192522
  14 H :   -0.084844
  15 H :    0.025997
  16 H :    0.019433
  17 H :    0.027325
  18 H :    0.022635

  Mayer bond orders larger than 0.100000
B(  0-C ,  1-N ) :   0.9801 B(  0-C ,  2-C ) :   1.1104 B(  0-C , 12-H ) :  -0.1889
B(  0-C , 15-H ) :   0.6860 B(  0-C , 16-H ) :   0.8817 B(  0-C , 17-H ) :   0.1283
B(  0-C , 18-H ) :   0.1237 B(  1-N ,  7-C ) :   1.0074 B(  1-N ,  8-C ) :   0.3190
B(  1-N ,  9-N ) :   0.1282 B(  1-N , 12-H ) :   1.3321 B(  1-N , 15-H ) :   0.1571
B(  1-N , 16-H ) :   0.1360 B(  2-C ,  3-C ) :   1.2001 B(  2-C ,  4-H ) :   0.1594
B(  2-C ,  5-H ) :   0.1237 B(  2-C , 15-H ) :   0.1197 B(  2-C , 17-H ) :   0.8992
B(  2-C , 18-H ) :   0.8478 B(  3-C ,  4-H ) :   0.9258 B(  3-C ,  5-H ) :   0.8021
B(  3-C ,  6-F ) :   0.6767 B(  3-C , 13-H ) :   0.1437 B(  6-F , 13-H ) :   0.3111
B(  7-C ,  8-C ) :   1.7964 B(  7-C ,  9-N ) :   0.8171 B(  7-C , 12-H ) :  -0.2426
B(  7-C , 14-H ) :   0.4341 B(  8-C ,  9-N ) :   0.3403 B(  8-C , 14-H ) :   0.5130
B(  9-N , 10-H ) :   1.0709 B(  9-N , 11-H ) :   1.0893 B(  9-N , 14-H ) :   0.1713
B( 10-H , 11-H ) :  -0.1436 B( 13-H , 15-H ) :   0.1291 B( 15-H , 16-H ) :  -0.1943

FINAL SINGLE POINT ENERGY      -405.961890800258

DIPOLE MOMENT
-------------
                                X             Y             Z
Electronic contribution:     -2.28097       2.67549      -0.16064
Nuclear contribution   :      2.43398      -4.26587      -0.19921
                        -----------------------------------------
Total Dipole Moment    :      0.15301      -1.59038      -0.35985
                        -----------------------------------------
Magnitude (a.u.)       :      1.63775
Magnitude (Debye)      :      4.16283

Rotational constants in cm-1:     0.110089     0.049944     0.039407
Rotational constants in MHz :  3300.378855  1497.273856  1181.385913

                             ****ORCA TERMINATED NORMALLY****
TOTAL RUN TIME: 0 days 0 hours 1 minutes 9 seconds 491 msec
