                         Program Version 5.0.0 -  RELEASE  -
|  1> !CAM-B3LYP RIJCOSX def2-SVPD def2/J TightSCF xyzfile
|  2>
|  3> *xyzfile 0 1 D3.xyz
|  4>
|  5> %MaxCore 64000
|  6>
|  7> %pal nprocs 4
|  8> end
|  9>
| 10> %scf
| 11>   MaxIter 150
| 12> end
| 13>
| 14>
| 15>                          ****END OF INPUT****

CARTESIAN COORDINATES (ANGSTROEM)
---------------------------------
  C      4.999862   -1.596133   -5.924876
  N      5.281560   -1.974132   -4.535764
  C      3.766779   -2.266110   -6.511752
  C      2.496702   -1.844161   -5.735704
  H      1.626416   -2.217434   -6.308950
  H      2.481824   -2.456069   -4.793414
  F      2.459729   -0.509204   -5.505757
  C      4.792500   -1.361316   -3.457295
  N      3.939898   -0.374925   -3.557359
  C      5.259860   -1.754224   -2.239133
  H      5.922824   -2.521451   -2.186720
  H      4.654678   -1.640404   -1.442016
  H      5.709139   -2.875599   -4.387021
  H      3.330101   -0.317639   -4.361247
  H      3.698494    0.114468   -2.708333
  H      4.843333   -0.517930   -5.943019
  H      5.901695   -1.822503   -6.496467
  H      3.886191   -3.357076   -6.533604
  H      3.685602   -1.922168   -7.547128

 Total Charge           Charge          ....    0
 Multiplicity           Mult            ....    1
 Number of Electrons    NEL             ....   64
 Basis Dimension        Dim             ....  251

ORBITAL ENERGIES
----------------

  NO   OCC          E(Eh)            E(eV)
   0   2.0000     -24.811864      -675.1652
   1   2.0000     -14.404130      -391.9563
   2   2.0000     -14.379655      -391.2903
   3   2.0000     -10.363707      -282.0108
   4   2.0000     -10.301073      -280.3065
   5   2.0000     -10.300710      -280.2966
   6   2.0000     -10.282257      -279.7944
   7   2.0000     -10.158129      -276.4168
   8   2.0000      -1.329003       -36.1640
   9   2.0000      -1.040624       -28.3168
  10   2.0000      -0.955871       -26.0106
  11   2.0000      -0.877196       -23.8697
  12   2.0000      -0.805482       -21.9183
  13   2.0000      -0.746269       -20.3070
  14   2.0000      -0.695976       -18.9385
  15   2.0000      -0.671312       -18.2673
  16   2.0000      -0.652187       -17.7469
  17   2.0000      -0.621421       -16.9097
  18   2.0000      -0.591800       -16.1037
  19   2.0000      -0.578469       -15.7410
  20   2.0000      -0.544744       -14.8232
  21   2.0000      -0.541863       -14.7448
  22   2.0000      -0.509054       -13.8521
  23   2.0000      -0.496659       -13.5148
  24   2.0000      -0.458064       -12.4646
  25   2.0000      -0.448939       -12.2162
  26   2.0000      -0.439151       -11.9499
  27   2.0000      -0.425271       -11.5722
  28   2.0000      -0.413315       -11.2469
  29   2.0000      -0.408169       -11.1069
  30   2.0000      -0.313254        -8.5241
  31   2.0000      -0.209903        -5.7117
  32   0.0000       0.039131         1.0648
  33   0.0000       0.063719         1.7339
  34   0.0000       0.070135         1.9085
  35   0.0000       0.074093         2.0162
  36   0.0000       0.099739         2.7140

MULLIKEN ATOMIC CHARGES
-----------------------
   0 C :    0.855182
   1 N :   -0.144602
   2 C :    0.155663
   3 C :    0.895354
   4 H :   -0.433227
   5 H :    0.175786
   6 F :   -0.372953
   7 C :    0.172428
   8 N :    0.651778
   9 C :    0.532238
  10 H :   -0.372131
  11 H :   -0.385775
  12 H :   -0.326627
  13 H :   -0.537188
  14 H :   -0.153268
  15 H :    0.067387
  16 H :   -0.529827
  17 H :   -0.197044
  18 H :   -0.053175
Sum of atomic charges:    0.0000000

LOEWDIN ATOMIC CHARGES
----------------------
   0 C :    0.053622
   1 N :    0.002772
   2 C :   -0.002215
   3 C :    0.137766
   4 H :    0.035165
   5 H :    0.051408
   6 F :   -0.179698
   7 C :   -0.238327
   8 N :    0.233655
   9 C :    0.135830
  10 H :   -0.117565
  11 H :   -0.120636
  12 H :    0.029029
  13 H :   -0.133880
  14 H :    0.016362
  15 H :    0.020560
  16 H :    0.020529
  17 H :    0.031708
  18 H :    0.023916

  Mayer bond orders larger than 0.100000
B(  0-C ,  1-N ) :   0.9873 B(  0-C ,  2-C ) :   1.1169 B(  0-C , 12-H ) :  -0.2179
B(  0-C , 15-H ) :   0.7147 B(  0-C , 16-H ) :   0.8571 B(  0-C , 17-H ) :   0.1464
B(  0-C , 18-H ) :   0.1153 B(  1-N ,  7-C ) :   1.1438 B(  1-N ,  8-N ) :   0.1056
B(  1-N ,  9-C ) :   0.1855 B(  1-N , 12-H ) :   1.1834 B(  1-N , 15-H ) :   0.1886
B(  1-N , 16-H ) :   0.1428 B(  2-C ,  3-C ) :   1.1892 B(  2-C ,  4-H ) :   0.1605
B(  2-C ,  5-H ) :   0.1170 B(  2-C , 15-H ) :   0.1026 B(  2-C , 17-H ) :   0.8836
B(  2-C , 18-H ) :   0.8477 B(  3-C ,  4-H ) :   0.9333 B(  3-C ,  5-H ) :   0.7960
B(  3-C ,  6-F ) :   0.6360 B(  6-F , 13-H ) :   0.1227 B(  7-C ,  8-N ) :   1.1230
B(  7-C ,  9-C ) :   1.7362 B(  7-C , 10-H ) :   0.1979 B(  7-C , 11-H ) :   0.2074
B(  7-C , 12-H ) :  -0.1484 B(  8-N ,  9-C ) :   0.1134 B(  8-N , 13-H ) :   1.0782
B(  8-N , 14-H ) :   1.1232 B(  9-C , 10-H ) :   0.6949 B(  9-C , 11-H ) :   0.7444
B( 10-H , 11-H ) :   0.2125 B( 13-H , 14-H ) :  -0.1957 B( 15-H , 16-H ) :  -0.1884

FINAL SINGLE POINT ENERGY      -405.976873305416

DIPOLE MOMENT
-------------
                                X             Y             Z
Electronic contribution:     -3.48889       3.83833      -1.52617
Nuclear contribution   :      2.63642      -4.47741       0.00296
                        -----------------------------------------
Total Dipole Moment    :     -0.85247      -0.63908      -1.52322
                        -----------------------------------------
Magnitude (a.u.)       :      1.85885
Magnitude (Debye)      :      4.72481

Rotational constants in cm-1:     0.108041     0.051979     0.040387
Rotational constants in MHz :  3238.993235  1558.297571  1210.782552

                             ****ORCA TERMINATED NORMALLY****
TOTAL RUN TIME: 0 days 0 hours 1 minutes 12 seconds 335 msec
