                         Program Version 5.0.0 -  RELEASE  -
|  1> !DLPNO-CCSD(T) aug-cc-pVTZ aug-cc-pVTZ/C TightSCF TightPNO RIJCOSX def2/J
|  2> *xyz -1 1
|  3> C         -2.12050        0.88520        1.78951
|  4> C         -0.77894        0.17197        1.80496
|  5> H          0.01569        0.91077        1.93915
|  6> H         -0.74355       -0.50683        2.66542
|  7> C         -0.60249       -0.63071        0.49224
|  8> H          0.31389       -1.24035        0.60350
|  9> H         -0.36383        0.11332       -0.30117
| 10> O         -1.71206       -1.37684        0.20253
| 11> H         -2.16160        1.54956        0.95175
| 12> H         -2.23761        1.44436        2.69423
| 13> H         -2.90702        0.16393        1.71165
| 14> *
| 15> %MaxCore 64000
| 16>
| 17> %pal nprocs 8
| 18> end
| 19> %scf
| 20>   MaxIter 150
| 21> end
| 22>
| 23>                          ****END OF INPUT****

CARTESIAN COORDINATES (ANGSTROEM)
---------------------------------
  C     -2.120500    0.885200    1.789510
  C     -0.778940    0.171970    1.804960
  H      0.015690    0.910770    1.939150
  H     -0.743550   -0.506830    2.665420
  C     -0.602490   -0.630710    0.492240
  H      0.313890   -1.240350    0.603500
  H     -0.363830    0.113320   -0.301170
  O     -1.712060   -1.376840    0.202530
  H     -2.161600    1.549560    0.951750
  H     -2.237610    1.444360    2.694230
  H     -2.907020    0.163930    1.711650

 Total Charge           Charge          ....   -1
 Multiplicity           Mult            ....    1
 Number of Electrons    NEL             ....   34
 Basis Dimension        Dim             ....  345

ORBITAL ENERGIES
----------------

  NO   OCC          E(Eh)            E(eV)
   0   2.0000     -20.207072      -549.8624
   1   2.0000     -11.039246      -300.3932
   2   2.0000     -11.029189      -300.1195
   3   2.0000     -11.027687      -300.0786
   4   2.0000      -1.000665       -27.2295
   5   2.0000      -0.847975       -23.0746
   6   2.0000      -0.699840       -19.0436
   7   2.0000      -0.574240       -15.6259
   8   2.0000      -0.438891       -11.9428
   9   2.0000      -0.425190       -11.5700
  10   2.0000      -0.365558        -9.9473
  11   2.0000      -0.333919        -9.0864
  12   2.0000      -0.297937        -8.1073
  13   2.0000      -0.292582        -7.9616
  14   2.0000      -0.258972        -7.0470
  15   2.0000      -0.117261        -3.1908
  16   2.0000      -0.114218        -3.1080
  17   0.0000       0.123561         3.3623
  18   0.0000       0.134696         3.6653
  19   0.0000       0.138194         3.7604
  20   0.0000       0.148600         4.0436
  21   0.0000       0.154930         4.2159

MULLIKEN ATOMIC CHARGES
-----------------------
   0 C :   -0.945978
   1 C :   -0.494904
   2 H :    0.224460
   3 H :    0.258822
   4 C :   -0.202251
   5 H :    0.232051
   6 H :    0.177713
   7 O :   -1.130166
   8 H :    0.280227
   9 H :    0.257958
  10 H :    0.342069
Sum of atomic charges:   -1.0000000

LOEWDIN ATOMIC CHARGES
----------------------
   0 C :    0.520939
   1 C :    0.179955
   2 H :   -0.187315
   3 H :   -0.175025
   4 C :   -0.382649
   5 H :   -0.233517
   6 H :   -0.224358
   7 O :    0.135805
   8 H :   -0.196911
   9 H :   -0.216651
  10 H :   -0.220273

  Mayer bond orders larger than 0.100000
B(  0-C ,  1-C ) :   0.8016 B(  0-C ,  8-H ) :   0.9474 B(  0-C ,  9-H ) :   0.9795
B(  0-C , 10-H ) :   0.9003 B(  1-C ,  2-H ) :   0.9587 B(  1-C ,  3-H ) :   0.9398
B(  1-C ,  4-C ) :   0.8679 B(  4-C ,  5-H ) :   1.0044 B(  4-C ,  6-H ) :   1.0163
B(  4-C ,  7-O ) :   1.1033

E(0)                                       ...   -192.558185959
E(0)                                       ...   -192.558185959
E(CORR)(strong-pairs)                      ...     -0.839014428
E(CORR)(weak-pairs)                        ...     -0.000696158
E(CORR)(corrected)                         ...     -0.839710587
E(TOT)                                     ...   -193.397896546
E(CCSD(T))                                 ...   -193.432030103
FINAL SINGLE POINT ENERGY      -193.432030102775

DIPOLE MOMENT
-------------
                                X             Y             Z
Electronic contribution:     -0.53510      -2.30967      -1.43503
Nuclear contribution   :      1.03476       3.87369       2.65163
                        -----------------------------------------
Total Dipole Moment    :      0.49966       1.56401       1.21660
                        -----------------------------------------
Magnitude (a.u.)       :      2.04351
Magnitude (Debye)      :      5.19418

Rotational constants in cm-1:     0.475803     0.193433     0.155403
Rotational constants in MHz : 14264.216647  5798.988361  4658.874800

                             ****ORCA TERMINATED NORMALLY****
TOTAL RUN TIME: 0 days 0 hours 5 minutes 32 seconds 754 msec
