                         Program Version 5.0.0 -  RELEASE  -
|  1> !DLPNO-CCSD(T) aug-cc-pVTZ aug-cc-pVTZ/C TightSCF TightPNO RIJCOSX def2/J
|  2> *xyz 1 1
|  3> C         -2.12050        0.88520        1.78951
|  4> C         -0.77894        0.17197        1.80496
|  5> H         -2.32419        1.47265        2.68608
|  6> H         -2.18770        1.54127        0.91948
|  7> N         -3.17690       -0.15948        1.61070
|  8> H          0.01569        0.91077        1.93915
|  9> H         -0.74355       -0.50683        2.66542
| 10> C         -0.60249       -0.63071        0.49224
| 11> H         -4.06474        0.23127        1.28675
| 12> H         -3.34407       -0.67151        2.48493
| 13> H         -2.71686       -0.78189        0.93588
| 14> H         -0.63812        0.03805       -0.34226
| 15> H         -1.38918       -1.35085        0.40604
| 16> H          0.34172       -1.13388        0.50602
| 17> *
| 18> %MaxCore 64000
| 19>
| 20> %pal nprocs 8
| 21> end
| 22>
| 23> %scf
| 24>   MaxIter 150
| 25> end
| 26>
| 27>
| 28>                          ****END OF INPUT****

CARTESIAN COORDINATES (ANGSTROEM)
---------------------------------
  C     -2.120500    0.885200    1.789510
  C     -0.778940    0.171970    1.804960
  H     -2.324190    1.472650    2.686080
  H     -2.187700    1.541270    0.919480
  N     -3.176900   -0.159480    1.610700
  H      0.015690    0.910770    1.939150
  H     -0.743550   -0.506830    2.665420
  C     -0.602490   -0.630710    0.492240
  H     -4.064740    0.231270    1.286750
  H     -3.344070   -0.671510    2.484930
  H     -2.716860   -0.781890    0.935880
  H     -0.638120    0.038050   -0.342260
  H     -1.389180   -1.350850    0.406040
  H      0.341720   -1.133880    0.506020

 Total Charge           Charge          ....    1
 Multiplicity           Mult            ....    1
 Number of Electrons    NEL             ....   34
 Basis Dimension        Dim             ....  414

ORBITAL ENERGIES
----------------

  NO   OCC          E(Eh)            E(eV)
   0   2.0000     -15.885723      -432.2725
   1   2.0000     -11.473906      -312.2209
   2   2.0000     -11.408275      -310.4349
   3   2.0000     -11.384901      -309.7989
   4   2.0000      -1.512657       -41.1615
   5   2.0000      -1.245144       -33.8821
   6   2.0000      -1.130463       -30.7615
   7   2.0000      -1.009725       -27.4760
   8   2.0000      -0.982667       -26.7397
   9   2.0000      -0.957162       -26.0457
  10   2.0000      -0.845892       -23.0179
  11   2.0000      -0.803037       -21.8517
  12   2.0000      -0.769446       -20.9377
  13   2.0000      -0.742193       -20.1961
  14   2.0000      -0.685684       -18.6584
  15   2.0000      -0.671979       -18.2855
  16   2.0000      -0.665793       -18.1171
  17   0.0000      -0.110391        -3.0039
  18   0.0000      -0.080623        -2.1939
  19   0.0000      -0.076981        -2.0948
  20   0.0000      -0.068153        -1.8545
  21   0.0000      -0.045942        -1.2501

MULLIKEN ATOMIC CHARGES
-----------------------
   0 C :   -0.356454
   1 C :   -0.528519
   2 H :    0.389492
   3 H :    0.323523
   4 N :    0.101338
   5 H :    0.344569
   6 H :    0.255018
   7 C :   -0.884084
   8 H :    0.080621
   9 H :    0.113883
  10 H :    0.229358
  11 H :    0.305813
  12 H :    0.292476
  13 H :    0.332965
Sum of atomic charges:    1.0000000

LOEWDIN ATOMIC CHARGES
----------------------
   0 C :    0.340241
   1 C :    0.341340
   2 H :   -0.101719
   3 H :   -0.109658
   4 N :    1.119622
   5 H :   -0.118084
   6 H :   -0.128816
   7 C :    0.665134
   8 H :   -0.112028
   9 H :   -0.112634
  10 H :   -0.283676
  11 H :   -0.153547
  12 H :   -0.201819
  13 H :   -0.144354

  Mayer bond orders larger than 0.100000
B(  0-C ,  1-C ) :   0.9069 B(  0-C ,  2-H ) :   0.8479 B(  0-C ,  3-H ) :   0.9082
B(  0-C ,  4-N ) :   0.7724 B(  1-C ,  5-H ) :   0.8977 B(  1-C ,  6-H ) :   0.9515
B(  1-C ,  7-C ) :   0.8947 B(  4-N ,  8-H ) :   1.1016 B(  4-N ,  9-H ) :   1.0155
B(  4-N , 10-H ) :   0.9281 B(  7-C , 11-H ) :   0.9173 B(  7-C , 12-H ) :   0.9023
B(  7-C , 13-H ) :   0.9457

E(0)                                       ...   -173.712191446
E(0)                                       ...   -173.712191446
E(CORR)(strong-pairs)                      ...     -0.805665763
E(CORR)(weak-pairs)                        ...     -0.000743443
E(CORR)(corrected)                         ...     -0.806409206
E(TOT)                                     ...   -174.518600652
E(CCSD(T))                                 ...   -174.547632240
FINAL SINGLE POINT ENERGY      -174.547632239626

DIPOLE MOMENT
-------------
                                X             Y             Z
Electronic contribution:     -1.88069       0.51588       0.94062
Nuclear contribution   :      0.18509      -0.64781      -0.64735
                        -----------------------------------------
Total Dipole Moment    :     -1.69560      -0.13194       0.29327
                        -----------------------------------------
Magnitude (a.u.)       :      1.72583
Magnitude (Debye)      :      4.38670

Rotational constants in cm-1:     0.411855     0.178330     0.145265
Rotational constants in MHz : 12347.103052  5346.196801  4354.936890

                             ****ORCA TERMINATED NORMALLY****
TOTAL RUN TIME: 0 days 0 hours 6 minutes 23 seconds 700 msec
