                         Program Version 5.0.0 -  RELEASE  -
|  1> !DLPNO-CCSD(T) aug-cc-pVTZ aug-cc-pVTZ/C TightSCF TightPNO RIJCOSX def2/J
|  2> *xyz 0 1
|  3> C         -2.12050        0.88520        1.78951
|  4> C         -0.77894        0.17197        1.80496
|  5> H          0.01569        0.91077        1.93915
|  6> H         -0.74355       -0.50683        2.66542
|  7> C         -0.60249       -0.63071        0.49224
|  8> H          0.31389       -1.24035        0.60350
|  9> H         -0.36383        0.11332       -0.30117
| 10> F         -1.71206       -1.37684        0.20253
| 11> H         -2.16160        1.54956        0.95175
| 12> H         -2.23761        1.44436        2.69423
| 13> H         -2.90702        0.16393        1.71165
| 14> *
| 15> %MaxCore 64000
| 16>
| 17> %pal nprocs 8
| 18> end
| 19> %scf
| 20>   MaxIter 150
| 21> end
| 22>
| 23>                          ****END OF INPUT****

CARTESIAN COORDINATES (ANGSTROEM)
---------------------------------
  C     -2.120500    0.885200    1.789510
  C     -0.778940    0.171970    1.804960
  H      0.015690    0.910770    1.939150
  H     -0.743550   -0.506830    2.665420
  C     -0.602490   -0.630710    0.492240
  H      0.313890   -1.240350    0.603500
  H     -0.363830    0.113320   -0.301170
  F     -1.712060   -1.376840    0.202530
  H     -2.161600    1.549560    0.951750
  H     -2.237610    1.444360    2.694230
  H     -2.907020    0.163930    1.711650

 Total Charge           Charge          ....    0
 Multiplicity           Mult            ....    1
 Number of Electrons    NEL             ....   34
 Basis Dimension        Dim             ....  345

ORBITAL ENERGIES
----------------

  NO   OCC          E(Eh)            E(eV)
   0   2.0000     -26.285304      -715.2595
   1   2.0000     -11.309397      -307.7443
   2   2.0000     -11.228553      -305.5445
   3   2.0000     -11.204379      -304.8867
   4   2.0000      -1.598209       -43.4895
   5   2.0000      -1.062806       -28.9204
   6   2.0000      -0.936230       -25.4761
   7   2.0000      -0.816177       -22.2093
   8   2.0000      -0.705943       -19.2097
   9   2.0000      -0.702548       -19.1173
  10   2.0000      -0.669222       -18.2105
  11   2.0000      -0.610364       -16.6089
  12   2.0000      -0.572610       -15.5815
  13   2.0000      -0.535605       -14.5746
  14   2.0000      -0.501764       -13.6537
  15   2.0000      -0.476117       -12.9558
  16   2.0000      -0.470000       -12.7893
  17   0.0000       0.030400         0.8272
  18   0.0000       0.038811         1.0561
  19   0.0000       0.040324         1.0973
  20   0.0000       0.045613         1.2412
  21   0.0000       0.062205         1.6927

MULLIKEN ATOMIC CHARGES
-----------------------
   0 C :   -0.942072
   1 C :   -0.514660
   2 H :    0.292007
   3 H :    0.274541
   4 C :   -0.123564
   5 H :    0.334311
   6 H :    0.270616
   7 F :   -0.501497
   8 H :    0.289520
   9 H :    0.297233
  10 H :    0.323566
Sum of atomic charges:   -0.0000000

LOEWDIN ATOMIC CHARGES
----------------------
   0 C :    0.571263
   1 C :    0.249438
   2 H :   -0.150884
   3 H :   -0.154398
   4 C :   -0.097341
   5 H :   -0.168835
   6 H :   -0.160136
   7 F :    0.473979
   8 H :   -0.183770
   9 H :   -0.185169
  10 H :   -0.194148

  Mayer bond orders larger than 0.100000
B(  0-C ,  1-C ) :   0.8230 B(  0-C ,  8-H ) :   0.9343 B(  0-C ,  9-H ) :   0.9565
B(  0-C , 10-H ) :   0.9189 B(  1-C ,  2-H ) :   0.9186 B(  1-C ,  3-H ) :   0.9287
B(  1-C ,  4-C ) :   0.9343 B(  4-C ,  5-H ) :   0.9178 B(  4-C ,  6-H ) :   0.9592
B(  4-C ,  7-F ) :   0.6394

E(0)                                       ...   -217.192946841
E(0)                                       ...   -217.192946841
E(CORR)(strong-pairs)                      ...     -0.832243012
E(CORR)(weak-pairs)                        ...     -0.000659512
E(CORR)(corrected)                         ...     -0.832902524
E(TOT)                                     ...   -218.025849365
E(CCSD(T))                                 ...   -218.054638743
FINAL SINGLE POINT ENERGY      -218.054638742506

DIPOLE MOMENT
-------------
                                X             Y             Z
Electronic contribution:     -0.96392      -4.80642      -3.45443
Nuclear contribution   :      1.51874       5.24801       3.69322
                        -----------------------------------------
Total Dipole Moment    :      0.55482       0.44159       0.23879
                        -----------------------------------------
Magnitude (a.u.)       :      0.74823
Magnitude (Debye)      :      1.90185

Rotational constants in cm-1:     0.461913     0.182549     0.147043
Rotational constants in MHz : 13847.794369  5472.673442  4408.246847

                             ****ORCA TERMINATED NORMALLY****
TOTAL RUN TIME: 0 days 0 hours 4 minutes 0 seconds 357 msec
