                         Program Version 5.0.0 -  RELEASE  -
|  1> !DLPNO-CCSD(T) aug-cc-pVTZ aug-cc-pVTZ/C TightSCF TightPNO RIJCOSX def2/J
|  2> *xyz 0 1
|  3> C         -2.12050        0.88520        1.78951
|  4> C         -0.77894        0.17197        1.80496
|  5> H         -2.32419        1.47265        2.68608
|  6> H         -2.18770        1.54127        0.91948
|  7> C         -3.17690       -0.15948        1.61070
|  8> H          0.01569        0.91077        1.93915
|  9> H         -0.74355       -0.50683        2.66542
| 10> C         -0.60249       -0.63071        0.49224
| 11> H         -4.06474        0.23127        1.28675
| 12> H         -3.34407       -0.67151        2.48493
| 13> H         -2.71686       -0.78189        0.93588
| 14> H         -0.63812        0.03805       -0.34226
| 15> H         -1.38918       -1.35085        0.40604
| 16> H          0.34172       -1.13388        0.50602
| 17> *
| 18> %MaxCore 64000
| 19>
| 20> %pal nprocs 8
| 21> end
| 22>
| 23> %scf
| 24>   MaxIter 150
| 25> end
| 26>
| 27>
| 28>                          ****END OF INPUT****

CARTESIAN COORDINATES (ANGSTROEM)
---------------------------------
  C     -2.120500    0.885200    1.789510
  C     -0.778940    0.171970    1.804960
  H     -2.324190    1.472650    2.686080
  H     -2.187700    1.541270    0.919480
  C     -3.176900   -0.159480    1.610700
  H      0.015690    0.910770    1.939150
  H     -0.743550   -0.506830    2.665420
  C     -0.602490   -0.630710    0.492240
  H     -4.064740    0.231270    1.286750
  H     -3.344070   -0.671510    2.484930
  H     -2.716860   -0.781890    0.935880
  H     -0.638120    0.038050   -0.342260
  H     -1.389180   -1.350850    0.406040
  H      0.341720   -1.133880    0.506020

 Total Charge           Charge          ....    0
 Multiplicity           Mult            ....    1
 Number of Electrons    NEL             ....   34
 Basis Dimension        Dim             ....  414

ORBITAL ENERGIES
----------------

  NO   OCC          E(Eh)            E(eV)
   0   2.0000     -11.213992      -305.1482
   1   2.0000     -11.204831      -304.8990
   2   2.0000     -11.202639      -304.8393
   3   2.0000     -11.172027      -304.0063
   4   2.0000      -1.087807       -29.6007
   5   2.0000      -0.978083       -26.6150
   6   2.0000      -0.883829       -24.0502
   7   2.0000      -0.777071       -21.1452
   8   2.0000      -0.654435       -17.8081
   9   2.0000      -0.629234       -17.1223
  10   2.0000      -0.582402       -15.8480
  11   2.0000      -0.542224       -14.7547
  12   2.0000      -0.528625       -14.3846
  13   2.0000      -0.505017       -13.7422
  14   2.0000      -0.463523       -12.6131
  15   2.0000      -0.462872       -12.5954
  16   2.0000      -0.447531       -12.1779
  17   0.0000       0.032670         0.8890
  18   0.0000       0.038963         1.0602
  19   0.0000       0.039911         1.0860
  20   0.0000       0.041340         1.1249
  21   0.0000       0.059154         1.6097

MULLIKEN ATOMIC CHARGES
-----------------------
   0 C :   -0.420862
   1 C :   -0.509826
   2 H :    0.336340
   3 H :    0.171268
   4 C :   -1.132641
   5 H :    0.293774
   6 H :    0.232230
   7 C :   -0.967572
   8 H :    0.282745
   9 H :    0.184732
  10 H :    0.574560
  11 H :    0.289213
  12 H :    0.387675
  13 H :    0.278364
Sum of atomic charges:   -0.0000000

LOEWDIN ATOMIC CHARGES
----------------------
   0 C :    0.274515
   1 C :    0.294468
   2 H :   -0.135510
   3 H :   -0.141384
   4 C :    0.633605
   5 H :   -0.146399
   6 H :   -0.138788
   7 C :    0.626433
   8 H :   -0.188495
   9 H :   -0.186105
  10 H :   -0.327314
  11 H :   -0.165956
  12 H :   -0.225081
  13 H :   -0.173990

  Mayer bond orders larger than 0.100000
B(  0-C ,  1-C ) :   0.8690 B(  0-C ,  2-H ) :   0.8883 B(  0-C ,  3-H ) :   1.0234
B(  0-C ,  4-C ) :   0.7917 B(  1-C ,  5-H ) :   0.9389 B(  1-C ,  6-H ) :   0.9633
B(  1-C ,  7-C ) :   0.8608 B(  4-C ,  8-H ) :   0.9917 B(  4-C ,  9-H ) :   1.0876
B(  4-C , 10-H ) :   0.6628 B(  7-C , 11-H ) :   0.9439 B(  7-C , 12-H ) :   0.8573
B(  7-C , 13-H ) :   0.9912

E(0)                                       ...   -157.326572533
E(0)                                       ...   -157.326572533
E(CORR)(strong-pairs)                      ...     -0.781175435
E(CORR)(weak-pairs)                        ...     -0.000738166
E(CORR)(corrected)                         ...     -0.781913601
E(TOT)                                     ...   -158.108486134
E(CCSD(T))                                 ...   -158.137158175
FINAL SINGLE POINT ENERGY      -158.137158174593

DIPOLE MOMENT
-------------
                                X             Y             Z
Electronic contribution:      0.29817       0.70256       0.58118
Nuclear contribution   :     -0.27446      -0.71220      -0.58629
                        -----------------------------------------
Total Dipole Moment    :      0.02371      -0.00963      -0.00510
                        -----------------------------------------
Magnitude (a.u.)       :      0.02610
Magnitude (Debye)      :      0.06634

Rotational constants in cm-1:     0.419751     0.185753     0.151088
Rotational constants in MHz : 12583.819928  5568.732483  4529.512437

                             ****ORCA TERMINATED NORMALLY****
TOTAL RUN TIME: 0 days 0 hours 6 minutes 40 seconds 966 msec
