                         Program Version 5.0.0 -  RELEASE  -
|  1> !DLPNO-CCSD(T) aug-cc-pVTZ aug-cc-pVTZ/C TightSCF TightPNO RIJCOSX def2/J
|  2>
|  3> *xyzfile 0 1 D.xyz
|  4>
|  5> %MaxCore 64000
|  6>
|  7> %pal nprocs 18
|  8> end
|  9>
| 10> %scf
| 11>   MaxIter 150
| 12> end
| 13>
| 14>
| 15>                          ****END OF INPUT****

CARTESIAN COORDINATES (ANGSTROEM)
---------------------------------
  C     -2.120502    0.885196    1.789506
  C     -0.778939    0.171966    1.804965
  H     -2.324193    1.472649    2.686078
  H     -2.187698    1.541272    0.919482
  C     -3.176900   -0.159484    1.610700
  H      0.015695    0.910767    1.939153
  H     -0.743553   -0.506827    2.665420
  C     -0.602493   -0.630712    0.492240
  H      0.313894   -1.240346    0.603498
  H     -0.363829    0.113322   -0.301169
  F     -1.712061   -1.376836    0.202535
  H     -4.064736    0.231272    1.286754
  H     -3.344073   -0.671511    2.484928
  H     -2.716861   -0.781886    0.935880

 Total Charge           Charge          ....    0
 Multiplicity           Mult            ....    1
 Number of Electrons    NEL             ....   42
 Basis Dimension        Dim             ....  437

ORBITAL ENERGIES
----------------

  NO   OCC          E(Eh)            E(eV)
   0   2.0000     -26.300242      -715.6660
   1   2.0000     -11.319160      -308.0100
   2   2.0000     -11.228563      -305.5447
   3   2.0000     -11.205518      -304.9176
   4   2.0000     -11.138613      -303.0971
   5   2.0000      -1.631234       -44.3881
   6   2.0000      -1.085167       -29.5289
   7   2.0000      -0.995018       -27.0758
   8   2.0000      -0.872960       -23.7545
   9   2.0000      -0.813434       -22.1347
  10   2.0000      -0.743181       -20.2230
  11   2.0000      -0.723702       -19.6929
  12   2.0000      -0.691749       -18.8235
  13   2.0000      -0.607612       -16.5340
  14   2.0000      -0.588106       -16.0032
  15   2.0000      -0.572086       -15.5673
  16   2.0000      -0.530544       -14.4368
  17   2.0000      -0.501025       -13.6336
  18   2.0000      -0.464443       -12.6381
  19   2.0000      -0.464301       -12.6343
  20   2.0000      -0.422725       -11.5029
  21   0.0000       0.029158         0.7934
  22   0.0000       0.038365         1.0440
  23   0.0000       0.039619         1.0781
  24   0.0000       0.042565         1.1582
  25   0.0000       0.058112         1.5813

MULLIKEN ATOMIC CHARGES
-----------------------
   0 C :   -0.452843
   1 C :   -0.555204
   2 H :    0.333325
   3 H :    0.186872
   4 C :   -1.051884
   5 H :    0.333890
   6 H :    0.237849
   7 C :   -0.210193
   8 H :    0.350848
   9 H :    0.255912
  10 F :   -0.478857
  11 H :    0.266698
  12 H :    0.149079
  13 H :    0.634507
Sum of atomic charges:   -0.0000000

LOEWDIN ATOMIC CHARGES
----------------------
   0 C :    0.268971
   1 C :    0.289486
   2 H :   -0.136459
   3 H :   -0.142623
   4 C :    0.605485
   5 H :   -0.143867
   6 H :   -0.142251
   7 C :    0.019913
   8 H :   -0.152798
   9 H :   -0.141802
  10 F :    0.711987
  11 H :   -0.193029
  12 H :   -0.190582
  13 H :   -0.652430

  Mayer bond orders larger than 0.100000
B(  0-C ,  1-C ) :   0.8542 B(  0-C ,  2-H ) :   0.9022 B(  0-C ,  3-H ) :   1.0107
B(  0-C ,  4-C ) :   0.7929 B(  1-C ,  5-H ) :   0.8953 B(  1-C ,  6-H ) :   0.9550
B(  1-C ,  7-C ) :   0.9261 B(  4-C , 10-F ) :  -0.1237 B(  4-C , 11-H ) :   1.0074
B(  4-C , 12-H ) :   1.1222 B(  4-C , 13-H ) :   0.6400 B(  7-C ,  8-H ) :   0.9209
B(  7-C ,  9-H ) :   0.9813 B(  7-C , 10-F ) :   0.6477

E(0)                                       ...   -256.174997723
E(0)                                       ...   -256.174997723
E(CORR)(strong-pairs)                      ...     -1.024954112
E(CORR)(weak-pairs)                        ...     -0.001009353
E(CORR)(corrected)                         ...     -1.025963465
E(TOT)                                     ...   -257.200961188
E(CCSD(T))                                 ...   -257.237836356
FINAL SINGLE POINT ENERGY      -257.237836355716

DIPOLE MOMENT
-------------
                                X             Y             Z
Electronic contribution:      0.93805      -4.17677      -3.73037
Nuclear contribution   :     -0.20666       4.43855       3.76066
                        -----------------------------------------
Total Dipole Moment    :      0.73138       0.26178       0.03029
                        -----------------------------------------
Magnitude (a.u.)       :      0.77741
Magnitude (Debye)      :      1.97602

Rotational constants in cm-1:     0.236353     0.155239     0.105045
Rotational constants in MHz :  7085.692869  4653.957069  3149.180346

                             ****ORCA TERMINATED NORMALLY****
TOTAL RUN TIME: 0 days 0 hours 7 minutes 27 seconds 345 msec
