                         Program Version 5.0.0 -  RELEASE  -
|  1> !B3LYP D3BJ RIJCOSX def2-SVPD def2/J TightSCF
|  2> *xyz -1 1
|  3> C          4.08422        1.74208       -2.11472
|  4> C          4.26524        2.50052       -0.79589
|  5> H          4.86853        3.39267       -0.98113
|  6> H          3.30764        2.82457       -0.38781
|  7> C          4.98224        1.65026        0.24742
|  8> O          4.36806        1.38927        1.31371
|  9> O          6.12892        1.23351       -0.04562
| 10> H          3.57911        2.36849       -2.81997
| 11> H          3.50424        0.85965       -1.94198
| 12> H          5.04288        1.46841       -2.50327
| 13> *
| 14> %MaxCore 64000
| 15> %pal nprocs 8
| 16> end
| 17> %scf
| 18>   MaxIter 150
| 19> end
| 20>
| 21>
| 22>                          ****END OF INPUT****

CARTESIAN COORDINATES (ANGSTROEM)
---------------------------------
  C      4.084220    1.742080   -2.114720
  C      4.265240    2.500520   -0.795890
  H      4.868530    3.392670   -0.981130
  H      3.307640    2.824570   -0.387810
  C      4.982240    1.650260    0.247420
  O      4.368060    1.389270    1.313710
  O      6.128920    1.233510   -0.045620
  H      3.579110    2.368490   -2.819970
  H      3.504240    0.859650   -1.941980
  H      5.042880    1.468410   -2.503270

 Total Charge           Charge          ....   -1
 Multiplicity           Mult            ....    1
 Number of Electrons    NEL             ....   40
 Basis Dimension        Dim             ....  146

ORBITAL ENERGIES
----------------

  NO   OCC          E(Eh)            E(eV)
   0   2.0000     -18.877369      -513.6793
   1   2.0000     -18.877331      -513.6783
   2   2.0000     -10.067956      -273.9630
   3   2.0000     -10.022444      -272.7246
   4   2.0000     -10.009320      -272.3675
   5   2.0000      -0.811484       -22.0816
   6   2.0000      -0.718486       -19.5510
   7   2.0000      -0.599478       -16.3126
   8   2.0000      -0.469131       -12.7657
   9   2.0000      -0.319192        -8.6856
  10   2.0000      -0.292594        -7.9619
  11   2.0000      -0.257899        -7.0178
  12   2.0000      -0.231397        -6.2966
  13   2.0000      -0.215192        -5.8557
  14   2.0000      -0.209595        -5.7034
  15   2.0000      -0.179762        -4.8916
  16   2.0000      -0.164029        -4.4634
  17   2.0000      -0.051171        -1.3924
  18   2.0000      -0.044086        -1.1996
  19   2.0000      -0.029453        -0.8015
  20   0.0000       0.153835         4.1861
  21   0.0000       0.187038         5.0896
  22   0.0000       0.204053         5.5526
  23   0.0000       0.217390         5.9155
  24   0.0000       0.241122         6.5613

MULLIKEN ATOMIC CHARGES
-----------------------
   0 C :    0.752778
   1 C :   -0.099192
   2 H :   -0.082410
   3 H :   -0.148625
   4 C :    0.416778
   5 O :   -0.686967
   6 O :   -0.715871
   7 H :   -0.168918
   8 H :   -0.157990
   9 H :   -0.109585
Sum of atomic charges:   -1.0000000

LOEWDIN ATOMIC CHARGES
----------------------
   0 C :    0.109577
   1 C :   -0.034112
   2 H :    0.004278
   3 H :   -0.004865
   4 C :   -0.312587
   5 O :   -0.332202
   6 O :   -0.324857
   7 H :   -0.048046
   8 H :   -0.026025
   9 H :   -0.031160

  Mayer bond orders larger than 0.100000
B(  0-C ,  1-C ) :   1.2715 B(  0-C ,  2-H ) :   0.1029 B(  0-C ,  7-H ) :   0.8076
B(  0-C ,  8-H ) :   0.8116 B(  0-C ,  9-H ) :   0.7955 B(  1-C ,  2-H ) :   0.8552
B(  1-C ,  3-H ) :   0.9409 B(  1-C ,  4-C ) :   1.0266 B(  1-C ,  7-H ) :   0.1795
B(  1-C ,  8-H ) :   0.1890 B(  1-C ,  9-H ) :   0.2112 B(  3-H ,  4-C ) :   0.2003
B(  4-C ,  5-O ) :   1.4502 B(  4-C ,  6-O ) :   1.4844

Dispersion correction           -0.010991650
FINAL SINGLE POINT ENERGY      -267.525597837535

DIPOLE MOMENT
-------------
                                X             Y             Z
Electronic contribution:      2.42419      -1.45512       5.08674
Nuclear contribution   :     -3.31311       2.28398      -6.76358
                        -----------------------------------------
Total Dipole Moment    :     -0.88892       0.82886      -1.67684
                        -----------------------------------------
Magnitude (a.u.)       :      2.07099
Magnitude (Debye)      :      5.26403

Rotational constants in cm-1:     0.309287     0.135287     0.107346
Rotational constants in MHz :  9272.201029  4055.789113  3218.155789

                             ****ORCA TERMINATED NORMALLY****
TOTAL RUN TIME: 0 days 0 hours 0 minutes 15 seconds 210 msec
