                         Program Version 5.0.0 -  RELEASE  -
|  1> !B3LYP D3BJ RIJCOSX def2-SVPD def2/J TightSCF
|  2> *xyz 1 1
|  3> C          3.91385       -1.65829        3.01513
|  4> N          5.03927       -0.90115        2.49282
|  5> C          6.21038       -1.41726        2.17824
|  6> N          6.53591       -2.67712        2.55608
|  7> N          7.07675       -0.70082        1.47891
|  8> H          7.95464       -1.12155        1.20755
|  9> H          6.75616        0.10664        0.96028
| 10> H          4.84217        0.01761        2.11519
| 11> H          5.99388       -3.12692        3.28278
| 12> C          3.13916       -2.37657        1.91061
| 13> H          3.26723       -0.93940        3.52069
| 14> H          4.24720       -2.35509        3.79006
| 15> H          7.49844       -2.97548        2.46878
| 16> H          2.82969       -1.66654        1.17238
| 17> H          2.27790       -2.85264        2.33072
| 18> H          3.76754       -3.11338        1.45548
| 19> *
| 20> %MaxCore 64000
| 21> %pal nprocs 8
| 22> end
| 23> %scf
| 24>   MaxIter 150
| 25> end
| 26>
| 27>
| 28>                          ****END OF INPUT****

CARTESIAN COORDINATES (ANGSTROEM)
---------------------------------
  C      3.913850   -1.658290    3.015130
  N      5.039270   -0.901150    2.492820
  C      6.210380   -1.417260    2.178240
  N      6.535910   -2.677120    2.556080
  N      7.076750   -0.700820    1.478910
  H      7.954640   -1.121550    1.207550
  H      6.756160    0.106640    0.960280
  H      4.842170    0.017610    2.115190
  H      5.993880   -3.126920    3.282780
  C      3.139160   -2.376570    1.910610
  H      3.267230   -0.939400    3.520690
  H      4.247200   -2.355090    3.790060
  H      7.498440   -2.975480    2.468780
  H      2.829690   -1.666540    1.172380
  H      2.277900   -2.852640    2.330720
  H      3.767540   -3.113380    1.455480

 Total Charge           Charge          ....    1
 Multiplicity           Mult            ....    1
 Number of Electrons    NEL             ....   48
 Basis Dimension        Dim             ....  200

ORBITAL ENERGIES
----------------

  NO   OCC          E(Eh)            E(eV)
   0   2.0000     -14.555763      -396.0824
   1   2.0000     -14.555113      -396.0647
   2   2.0000     -14.552596      -395.9963
   3   2.0000     -10.519049      -286.2379
   4   2.0000     -10.392616      -282.7975
   5   2.0000     -10.320293      -280.8295
   6   2.0000      -1.209038       -32.8996
   7   2.0000      -1.100655       -29.9503
   8   2.0000      -1.083886       -29.4940
   9   2.0000      -0.926318       -25.2064
  10   2.0000      -0.839230       -22.8366
  11   2.0000      -0.800854       -21.7923
  12   2.0000      -0.788223       -21.4486
  13   2.0000      -0.744688       -20.2640
  14   2.0000      -0.695079       -18.9141
  15   2.0000      -0.689007       -18.7488
  16   2.0000      -0.656866       -17.8742
  17   2.0000      -0.631051       -17.1718
  18   2.0000      -0.603219       -16.4144
  19   2.0000      -0.563608       -15.3365
  20   2.0000      -0.533774       -14.5247
  21   2.0000      -0.514798       -14.0084
  22   2.0000      -0.480167       -13.0660
  23   2.0000      -0.453343       -12.3361
  24   0.0000      -0.174335        -4.7439
  25   0.0000      -0.157013        -4.2725
  26   0.0000      -0.125054        -3.4029
  27   0.0000      -0.116627        -3.1736
  28   0.0000      -0.093898        -2.5551

MULLIKEN ATOMIC CHARGES
-----------------------
   0 C :    0.464320
   1 N :   -0.277481
   2 C :    1.234588
   3 N :    0.125550
   4 N :    0.078226
   5 H :   -0.055335
   6 H :   -0.091260
   7 H :   -0.271914
   8 H :   -0.073795
   9 C :    0.896420
  10 H :   -0.381184
  11 H :   -0.154782
  12 H :   -0.199632
  13 H :   -0.113128
  14 H :   -0.052667
  15 H :   -0.127925
Sum of atomic charges:    1.0000000

LOEWDIN ATOMIC CHARGES
----------------------
   0 C :    0.045130
   1 N :    0.047453
   2 C :   -0.038570
   3 N :    0.286883
   4 N :    0.268491
   5 H :    0.037750
   6 H :    0.039595
   7 H :    0.061824
   8 H :    0.011813
   9 C :    0.171177
  10 H :    0.039868
  11 H :    0.022282
  12 H :    0.032962
  13 H :   -0.008710
  14 H :    0.000327
  15 H :   -0.018276

  Mayer bond orders larger than 0.100000
B(  0-C ,  1-N ) :   0.9743 B(  0-C ,  7-H ) :  -0.1623 B(  0-C ,  9-C ) :   1.2439
B(  0-C , 10-H ) :   0.8068 B(  0-C , 11-H ) :   0.8637 B(  0-C , 13-H ) :   0.2619
B(  0-C , 14-H ) :   0.1822 B(  0-C , 15-H ) :   0.2073 B(  1-N ,  2-C ) :   1.0772
B(  1-N ,  3-N ) :   0.1985 B(  1-N ,  4-N ) :   0.2468 B(  1-N ,  7-H ) :   1.2810
B(  1-N , 10-H ) :   0.2093 B(  1-N , 11-H ) :   0.1362 B(  2-C ,  3-N ) :   0.9524
B(  2-C ,  4-N ) :   0.8854 B(  2-C ,  6-H ) :  -0.1689 B(  2-C ,  7-H ) :  -0.2682
B(  2-C ,  8-H ) :  -0.1166 B(  2-C , 12-H ) :  -0.1539 B(  3-N ,  4-N ) :   0.1407
B(  3-N ,  8-H ) :   1.0771 B(  3-N , 12-H ) :   1.2522 B(  4-N ,  5-H ) :   1.1474
B(  4-N ,  6-H ) :   1.1989 B(  5-H ,  6-H ) :  -0.1673 B(  8-H , 12-H ) :  -0.1996
B(  9-C , 13-H ) :   0.7493 B(  9-C , 14-H ) :   0.7630 B(  9-C , 15-H ) :   0.7986

Dispersion correction           -0.020359108
FINAL SINGLE POINT ENERGY      -284.057678174894

DIPOLE MOMENT
-------------
                                X             Y             Z
Electronic contribution:      4.69491       1.90702       0.07987
Nuclear contribution   :     -3.67981      -1.62355      -0.28562
                        -----------------------------------------
Total Dipole Moment    :      1.01510       0.28347      -0.20575
                        -----------------------------------------
Magnitude (a.u.)       :      1.07383
Magnitude (Debye)      :      2.72946

Rotational constants in cm-1:     0.222027     0.074735     0.065694
Rotational constants in MHz :  6656.200457  2240.503315  1969.451902

                             ****ORCA TERMINATED NORMALLY****
TOTAL RUN TIME: 0 days 0 hours 0 minutes 20 seconds 465 msec
