                         Program Version 5.0.0 -  RELEASE  -
|  1> !B3LYP D3BJ RIJCOSX def2-SVPD def2/J TightSCF
|  2> *xyz 0 1
|  3> C          4.08422        1.74208       -2.11472
|  4> C          4.26524        2.50052       -0.79589
|  5> H          4.86853        3.39267       -0.98113
|  6> H          3.30764        2.82457       -0.38781
|  7> C          4.98224        1.65026        0.24742
|  8> F          4.36806        1.38927        1.31371
|  9> O          6.12892        1.23351       -0.04562
| 10> H          3.57911        2.36849       -2.81997
| 11> H          3.50424        0.85965       -1.94198
| 12> H          5.04288        1.46841       -2.50327
| 13> *
| 14> %MaxCore 64000
| 15> %pal nprocs 8
| 16> end
| 17> %scf
| 18>   MaxIter 150
| 19> end
| 20>
| 21>
| 22>                          ****END OF INPUT****

CARTESIAN COORDINATES (ANGSTROEM)
---------------------------------
  C      4.084220    1.742080   -2.114720
  C      4.265240    2.500520   -0.795890
  H      4.868530    3.392670   -0.981130
  H      3.307640    2.824570   -0.387810
  C      4.982240    1.650260    0.247420
  F      4.368060    1.389270    1.313710
  O      6.128920    1.233510   -0.045620
  H      3.579110    2.368490   -2.819970
  H      3.504240    0.859650   -1.941980
  H      5.042880    1.468410   -2.503270

 Total Charge           Charge          ....    0
 Multiplicity           Mult            ....    1
 Number of Electrons    NEL             ....   40
 Basis Dimension        Dim             ....  146

ORBITAL ENERGIES
----------------

  NO   OCC          E(Eh)            E(eV)
   0   2.0000     -24.769638      -674.0161
   1   2.0000     -19.150030      -521.0988
   2   2.0000     -10.366876      -282.0970
   3   2.0000     -10.217670      -278.0369
   4   2.0000     -10.191578      -277.3269
   5   2.0000      -1.306622       -35.5550
   6   2.0000      -1.027943       -27.9718
   7   2.0000      -0.796751       -21.6807
   8   2.0000      -0.687438       -18.7061
   9   2.0000      -0.639889       -17.4123
  10   2.0000      -0.552997       -15.0478
  11   2.0000      -0.538159       -14.6440
  12   2.0000      -0.509234       -13.8569
  13   2.0000      -0.467982       -12.7344
  14   2.0000      -0.437984       -11.9182
  15   2.0000      -0.403988       -10.9931
  16   2.0000      -0.383677       -10.4404
  17   2.0000      -0.378251       -10.2927
  18   2.0000      -0.352101        -9.5812
  19   2.0000      -0.298317        -8.1176
  20   0.0000      -0.038377        -1.0443
  21   0.0000       0.013000         0.3537
  22   0.0000       0.043049         1.1714
  23   0.0000       0.055250         1.5034
  24   0.0000       0.071510         1.9459

MULLIKEN ATOMIC CHARGES
-----------------------
   0 C :    0.780971
   1 C :   -0.150422
   2 H :   -0.018139
   3 H :   -0.116786
   4 C :    0.706317
   5 F :   -0.363942
   6 O :   -0.481754
   7 H :   -0.127930
   8 H :   -0.134256
   9 H :   -0.094060
Sum of atomic charges:    0.0000000

LOEWDIN ATOMIC CHARGES
----------------------
   0 C :    0.151146
   1 C :    0.010698
   2 H :    0.037489
   3 H :    0.019042
   4 C :   -0.014518
   5 F :   -0.034086
   6 O :   -0.131390
   7 H :   -0.015486
   8 H :   -0.011783
   9 H :   -0.011112

  Mayer bond orders larger than 0.100000
B(  0-C ,  1-C ) :   1.3064 B(  0-C ,  7-H ) :   0.8101 B(  0-C ,  8-H ) :   0.8092
B(  0-C ,  9-H ) :   0.7964 B(  1-C ,  2-H ) :   0.8474 B(  1-C ,  3-H ) :   0.9429
B(  1-C ,  4-C ) :   1.0814 B(  1-C ,  7-H ) :   0.1698 B(  1-C ,  8-H ) :   0.1746
B(  1-C ,  9-H ) :   0.1908 B(  3-H ,  4-C ) :   0.1043 B(  4-C ,  5-F ) :   0.7507
B(  4-C ,  6-O ) :   1.8211 B(  5-F ,  6-O ) :   0.1064

Dispersion correction           -0.010420681
FINAL SINGLE POINT ENERGY      -292.057492651739

DIPOLE MOMENT
-------------
                                X             Y             Z
Electronic contribution:      1.91056      -2.03087       8.12201
Nuclear contribution   :     -2.87511       2.61564      -8.50037
                        -----------------------------------------
Total Dipole Moment    :     -0.96455       0.58476      -0.37835
                        -----------------------------------------
Magnitude (a.u.)       :      1.18973
Magnitude (Debye)      :      3.02405

Rotational constants in cm-1:     0.297822     0.128965     0.102219
Rotational constants in MHz :  8928.481997  3866.271686  3064.463504

                             ****ORCA TERMINATED NORMALLY****
TOTAL RUN TIME: 0 days 0 hours 0 minutes 14 seconds 368 msec
