                         Program Version 5.0.0 -  RELEASE  -
|  1> !B3LYP D3BJ RIJCOSX def2-SVPD def2/J TightSCF
|  2> *xyz 0 1
|  3> C          3.91385       -1.65829        3.01513
|  4> C          5.03927       -0.90115        2.49282
|  5> C          6.21038       -1.41726        2.17824
|  6> N          6.53591       -2.67712        2.55608
|  7> N          7.07675       -0.70082        1.47891
|  8> H          7.95464       -1.12155        1.20755
|  9> H          6.75616        0.10664        0.96028
| 10> H          4.84217        0.01761        2.11519
| 11> H          5.99388       -3.12692        3.28278
| 12> C          3.13916       -2.37657        1.91061
| 13> H          3.26723       -0.93940        3.52069
| 14> H          4.24720       -2.35509        3.79006
| 15> H          7.49844       -2.97548        2.46878
| 16> H          2.82969       -1.66654        1.17238
| 17> H          2.27790       -2.85264        2.33072
| 18> H          3.76754       -3.11338        1.45548
| 19> *
| 20> %MaxCore 64000
| 21> %pal nprocs 8
| 22> end
| 23> %scf
| 24>   MaxIter 150
| 25> end
| 26>
| 27>
| 28>                          ****END OF INPUT****

CARTESIAN COORDINATES (ANGSTROEM)
---------------------------------
  C      3.913850   -1.658290    3.015130
  C      5.039270   -0.901150    2.492820
  C      6.210380   -1.417260    2.178240
  N      6.535910   -2.677120    2.556080
  N      7.076750   -0.700820    1.478910
  H      7.954640   -1.121550    1.207550
  H      6.756160    0.106640    0.960280
  H      4.842170    0.017610    2.115190
  H      5.993880   -3.126920    3.282780
  C      3.139160   -2.376570    1.910610
  H      3.267230   -0.939400    3.520690
  H      4.247200   -2.355090    3.790060
  H      7.498440   -2.975480    2.468780
  H      2.829690   -1.666540    1.172380
  H      2.277900   -2.852640    2.330720
  H      3.767540   -3.113380    1.455480

 Total Charge           Charge          ....    0
 Multiplicity           Mult            ....    1
 Number of Electrons    NEL             ....   48
 Basis Dimension        Dim             ....  200

ORBITAL ENERGIES
----------------

  NO   OCC          E(Eh)            E(eV)
   0   2.0000     -14.331279      -389.9739
   1   2.0000     -14.329529      -389.9263
   2   2.0000     -10.224338      -278.2184
   3   2.0000     -10.158170      -276.4179
   4   2.0000     -10.147687      -276.1326
   5   2.0000     -10.105299      -274.9792
   6   2.0000      -0.951337       -25.8872
   7   2.0000      -0.861577       -23.4447
   8   2.0000      -0.766961       -20.8701
   9   2.0000      -0.687813       -18.7163
  10   2.0000      -0.612278       -16.6609
  11   2.0000      -0.575201       -15.6520
  12   2.0000      -0.540455       -14.7065
  13   2.0000      -0.509289       -13.8585
  14   2.0000      -0.474728       -12.9180
  15   2.0000      -0.438563       -11.9339
  16   2.0000      -0.418564       -11.3897
  17   2.0000      -0.387818       -10.5531
  18   2.0000      -0.382979       -10.4214
  19   2.0000      -0.354734        -9.6528
  20   2.0000      -0.329595        -8.9687
  21   2.0000      -0.320581        -8.7234
  22   2.0000      -0.267093        -7.2680
  23   2.0000      -0.161690        -4.3998
  24   0.0000       0.011544         0.3141
  25   0.0000       0.039057         1.0628
  26   0.0000       0.044562         1.2126
  27   0.0000       0.059104         1.6083
  28   0.0000       0.073715         2.0059

MULLIKEN ATOMIC CHARGES
-----------------------
   0 C :    0.009504
   1 C :   -0.358563
   2 C :    0.865565
   3 N :    0.077294
   4 N :    0.106103
   5 H :   -0.184106
   6 H :   -0.087730
   7 H :   -0.266072
   8 H :   -0.064714
   9 C :    0.892443
  10 H :   -0.168213
  11 H :   -0.159910
  12 H :   -0.318333
  13 H :   -0.116643
  14 H :   -0.090659
  15 H :   -0.135967
Sum of atomic charges:    0.0000000

LOEWDIN ATOMIC CHARGES
----------------------
   0 C :   -0.095936
   1 C :   -0.035932
   2 C :   -0.223183
   3 N :    0.207451
   4 N :    0.182453
   5 H :   -0.012929
   6 H :    0.005710
   7 H :   -0.048530
   8 H :   -0.018534
   9 C :    0.129126
  10 H :    0.010810
  11 H :   -0.002070
  12 H :   -0.017233
  13 H :   -0.022068
  14 H :   -0.030832
  15 H :   -0.028303

  Mayer bond orders larger than 0.100000
B(  0-C ,  1-C ) :   1.2890 B(  0-C ,  7-H ) :   0.3571 B(  0-C ,  9-C ) :   1.2101
B(  0-C , 10-H ) :   0.7301 B(  0-C , 11-H ) :   0.8309 B(  0-C , 13-H ) :   0.2609
B(  0-C , 14-H ) :   0.1938 B(  0-C , 15-H ) :   0.2194 B(  1-C ,  2-C ) :   1.6156
B(  1-C ,  3-N ) :   0.2254 B(  1-C ,  4-N ) :   0.3462 B(  1-C ,  7-H ) :   0.7766
B(  1-C , 10-H ) :   0.3200 B(  1-C , 11-H ) :   0.2582 B(  2-C ,  3-N ) :   0.9137
B(  2-C ,  4-N ) :   0.8178 B(  2-C ,  6-H ) :  -0.1160 B(  2-C ,  7-H ) :   0.2315
B(  2-C , 11-H ) :  -0.1058 B(  2-C , 12-H ) :  -0.1699 B(  3-N ,  4-N ) :   0.1051
B(  3-N ,  8-H ) :   1.0370 B(  3-N , 12-H ) :   1.3027 B(  4-N ,  5-H ) :   1.1433
B(  4-N ,  6-H ) :   1.1698 B(  5-H ,  6-H ) :  -0.1613 B(  8-H , 12-H ) :  -0.1917
B(  9-C , 13-H ) :   0.7748 B(  9-C , 14-H ) :   0.7589 B(  9-C , 15-H ) :   0.7949

Dispersion correction           -0.021288829
FINAL SINGLE POINT ENERGY      -267.589021915942

DIPOLE MOMENT
-------------
                                X             Y             Z
Electronic contribution:      4.60912       1.23972      -0.03334
Nuclear contribution   :     -3.74303      -1.46908      -0.23637
                        -----------------------------------------
Total Dipole Moment    :      0.86610      -0.22936      -0.26971
                        -----------------------------------------
Magnitude (a.u.)       :      0.93567
Magnitude (Debye)      :      2.37828

Rotational constants in cm-1:     0.225937     0.074877     0.065953
Rotational constants in MHz :  6773.424301  2244.750632  1977.214101

                             ****ORCA TERMINATED NORMALLY****
TOTAL RUN TIME: 0 days 0 hours 0 minutes 23 seconds 557 msec
