                         Program Version 5.0.0 -  RELEASE  -
|  1> !B3LYP D3BJ RIJCOSX def2-SVPD def2/J TightSCF
|  2> *xyz 0 1
|  3> C          4.08422        1.74208       -2.11472
|  4> C          4.26524        2.50052       -0.79589
|  5> H          4.86853        3.39267       -0.98113
|  6> H          3.30764        2.82457       -0.38781
|  7> C          4.98224        1.65026        0.24742
|  8> O          4.36806        1.38927        1.31371
|  9> F          6.12892        1.23351       -0.04562
| 10> H          3.57911        2.36849       -2.81997
| 11> H          3.50424        0.85965       -1.94198
| 12> H          5.04288        1.46841       -2.50327
| 13> *
| 14> %MaxCore 64000
| 15> %pal nprocs 8
| 16> end
| 17> %scf
| 18>   MaxIter 150
| 19> end
| 20>
| 21>
| 22>                          ****END OF INPUT****

CARTESIAN COORDINATES (ANGSTROEM)
---------------------------------
  C      4.084220    1.742080   -2.114720
  C      4.265240    2.500520   -0.795890
  H      4.868530    3.392670   -0.981130
  H      3.307640    2.824570   -0.387810
  C      4.982240    1.650260    0.247420
  O      4.368060    1.389270    1.313710
  F      6.128920    1.233510   -0.045620
  H      3.579110    2.368490   -2.819970
  H      3.504240    0.859650   -1.941980
  H      5.042880    1.468410   -2.503270

 Total Charge           Charge          ....    0
 Multiplicity           Mult            ....    1
 Number of Electrons    NEL             ....   40
 Basis Dimension        Dim             ....  146

ORBITAL ENERGIES
----------------

  NO   OCC          E(Eh)            E(eV)
   0   2.0000     -24.770934      -674.0514
   1   2.0000     -19.149443      -521.0828
   2   2.0000     -10.366487      -282.0864
   3   2.0000     -10.217439      -278.0306
   4   2.0000     -10.196234      -277.4536
   5   2.0000      -1.309371       -35.6298
   6   2.0000      -1.024859       -27.8878
   7   2.0000      -0.800757       -21.7897
   8   2.0000      -0.685203       -18.6453
   9   2.0000      -0.645022       -17.5519
  10   2.0000      -0.555939       -15.1279
  11   2.0000      -0.543909       -14.8005
  12   2.0000      -0.503135       -13.6910
  13   2.0000      -0.468309       -12.7433
  14   2.0000      -0.438942       -11.9442
  15   2.0000      -0.407098       -11.0777
  16   2.0000      -0.388229       -10.5643
  17   2.0000      -0.380859       -10.3637
  18   2.0000      -0.355692        -9.6789
  19   2.0000      -0.293587        -7.9889
  20   0.0000      -0.035495        -0.9659
  21   0.0000       0.010986         0.2989
  22   0.0000       0.043732         1.1900
  23   0.0000       0.054322         1.4782
  24   0.0000       0.071856         1.9553

MULLIKEN ATOMIC CHARGES
-----------------------
   0 C :    0.770123
   1 C :   -0.122644
   2 H :   -0.031462
   3 H :   -0.127603
   4 C :    0.721104
   5 O :   -0.459811
   6 F :   -0.385432
   7 H :   -0.125305
   8 H :   -0.132077
   9 H :   -0.106892
Sum of atomic charges:   -0.0000000

LOEWDIN ATOMIC CHARGES
----------------------
   0 C :    0.146235
   1 C :    0.014914
   2 H :    0.032295
   3 H :    0.031209
   4 C :   -0.019344
   5 O :   -0.133688
   6 F :   -0.030323
   7 H :   -0.015009
   8 H :   -0.009921
   9 H :   -0.016367

  Mayer bond orders larger than 0.100000
B(  0-C ,  1-C ) :   1.2833 B(  0-C ,  7-H ) :   0.8187 B(  0-C ,  8-H ) :   0.8229
B(  0-C ,  9-H ) :   0.7870 B(  1-C ,  2-H ) :   0.8475 B(  1-C ,  3-H ) :   0.9598
B(  1-C ,  4-C ) :   1.0551 B(  1-C ,  7-H ) :   0.1693 B(  1-C ,  8-H ) :   0.1697
B(  1-C ,  9-H ) :   0.1840 B(  3-H ,  4-C ) :   0.1481 B(  4-C ,  5-O ) :   1.8099
B(  4-C ,  6-F ) :   0.7279 B(  5-O ,  6-F ) :   0.1166

Dispersion correction           -0.010353172
FINAL SINGLE POINT ENERGY      -292.056804868147

DIPOLE MOMENT
-------------
                                X             Y             Z
Electronic contribution:      4.83483      -2.28053       5.83461
Nuclear contribution   :     -4.79499       2.78546      -7.01827
                        -----------------------------------------
Total Dipole Moment    :      0.03983       0.50493      -1.18366
                        -----------------------------------------
Magnitude (a.u.)       :      1.28748
Magnitude (Debye)      :      3.27251

Rotational constants in cm-1:     0.286098     0.133492     0.103343
Rotational constants in MHz :  8577.003657  4001.981591  3098.148068

                             ****ORCA TERMINATED NORMALLY****
TOTAL RUN TIME: 0 days 0 hours 0 minutes 14 seconds 430 msec
