                         Program Version 5.0.0 -  RELEASE  -
|  1> !B3LYP D3BJ RIJCOSX def2-SVPD def2/J TightSCF
|  2> *xyz 0 1
|  3> C          3.91385       -1.65829        3.01513
|  4> N          5.03927       -0.90115        2.49282
|  5> C          6.21038       -1.41726        2.17824
|  6> C          6.53591       -2.67712        2.55608
|  7> N          7.07675       -0.70082        1.47891
|  8> H          7.95464       -1.12155        1.20755
|  9> H          6.75616        0.10664        0.96028
| 10> H          4.84217        0.01761        2.11519
| 11> H          5.99388       -3.12692        3.28278
| 12> C          3.13916       -2.37657        1.91061
| 13> H          3.26723       -0.93940        3.52069
| 14> H          4.24720       -2.35509        3.79006
| 15> H          7.49844       -2.97548        2.46878
| 16> H          2.82969       -1.66654        1.17238
| 17> H          2.27790       -2.85264        2.33072
| 18> H          3.76754       -3.11338        1.45548
| 19> *
| 20> %MaxCore 64000
| 21> %pal nprocs 8
| 22> end
| 23> %scf
| 24>   MaxIter 150
| 25> end
| 26>
| 27>
| 28>                          ****END OF INPUT****

CARTESIAN COORDINATES (ANGSTROEM)
---------------------------------
  C      3.913850   -1.658290    3.015130
  N      5.039270   -0.901150    2.492820
  C      6.210380   -1.417260    2.178240
  C      6.535910   -2.677120    2.556080
  N      7.076750   -0.700820    1.478910
  H      7.954640   -1.121550    1.207550
  H      6.756160    0.106640    0.960280
  H      4.842170    0.017610    2.115190
  H      5.993880   -3.126920    3.282780
  C      3.139160   -2.376570    1.910610
  H      3.267230   -0.939400    3.520690
  H      4.247200   -2.355090    3.790060
  H      7.498440   -2.975480    2.468780
  H      2.829690   -1.666540    1.172380
  H      2.277900   -2.852640    2.330720
  H      3.767540   -3.113380    1.455480

 Total Charge           Charge          ....    0
 Multiplicity           Mult            ....    1
 Number of Electrons    NEL             ....   48
 Basis Dimension        Dim             ....  200

ORBITAL ENERGIES
----------------

  NO   OCC          E(Eh)            E(eV)
   0   2.0000     -14.334008      -390.0482
   1   2.0000     -14.332611      -390.0102
   2   2.0000     -10.230317      -278.3811
   3   2.0000     -10.216405      -278.0025
   4   2.0000     -10.165361      -276.6135
   5   2.0000     -10.095535      -274.7135
   6   2.0000      -0.964902       -26.2563
   7   2.0000      -0.881434       -23.9850
   8   2.0000      -0.747459       -20.3394
   9   2.0000      -0.699899       -19.0452
  10   2.0000      -0.637433       -17.3454
  11   2.0000      -0.562234       -15.2992
  12   2.0000      -0.552226       -15.0268
  13   2.0000      -0.520175       -14.1547
  14   2.0000      -0.467640       -12.7251
  15   2.0000      -0.440115       -11.9761
  16   2.0000      -0.418406       -11.3854
  17   2.0000      -0.399484       -10.8705
  18   2.0000      -0.380184       -10.3453
  19   2.0000      -0.367523       -10.0008
  20   2.0000      -0.362996        -9.8776
  21   2.0000      -0.346832        -9.4378
  22   2.0000      -0.252888        -6.8814
  23   2.0000      -0.164453        -4.4750
  24   0.0000       0.010869         0.2958
  25   0.0000       0.035352         0.9620
  26   0.0000       0.045769         1.2454
  27   0.0000       0.051398         1.3986
  28   0.0000       0.076968         2.0944

MULLIKEN ATOMIC CHARGES
-----------------------
   0 C :    0.466602
   1 N :   -0.282919
   2 C :    0.676500
   3 C :    0.584207
   4 N :    0.109983
   5 H :   -0.061965
   6 H :   -0.214043
   7 H :   -0.393902
   8 H :   -0.259253
   9 C :    0.897753
  10 H :   -0.438042
  11 H :   -0.053932
  12 H :   -0.617305
  13 H :   -0.154652
  14 H :   -0.099875
  15 H :   -0.159158
Sum of atomic charges:   -0.0000000

LOEWDIN ATOMIC CHARGES
----------------------
   0 C :    0.022090
   1 N :   -0.018026
   2 C :   -0.237842
   3 C :    0.165420
   4 N :    0.187961
   5 H :    0.006516
   6 H :   -0.010463
   7 H :    0.021337
   8 H :   -0.124078
   9 C :    0.145686
  10 H :    0.015508
  11 H :    0.012188
  12 H :   -0.111187
  13 H :   -0.025345
  14 H :   -0.023342
  15 H :   -0.026423

  Mayer bond orders larger than 0.100000
B(  0-C ,  1-N ) :   0.9371 B(  0-C ,  3-C ) :   0.1076 B(  0-C ,  7-H ) :  -0.1625
B(  0-C ,  9-C ) :   1.1993 B(  0-C , 10-H ) :   0.8440 B(  0-C , 11-H ) :   0.8436
B(  0-C , 13-H ) :   0.2505 B(  0-C , 14-H ) :   0.1918 B(  0-C , 15-H ) :   0.2152
B(  1-N ,  2-C ) :   0.9736 B(  1-N ,  3-C ) :   0.3690 B(  1-N ,  4-N ) :   0.1555
B(  1-N ,  7-H ) :   1.3389 B(  1-N , 10-H ) :   0.1827 B(  1-N , 11-H ) :   0.1173
B(  2-C ,  3-C ) :   1.6447 B(  2-C ,  4-N ) :   0.8742 B(  2-C ,  6-H ) :  -0.1009
B(  2-C ,  7-H ) :  -0.2898 B(  2-C ,  8-H ) :   0.3202 B(  2-C , 12-H ) :   0.1878
B(  3-C ,  4-N ) :   0.2400 B(  3-C ,  8-H ) :   0.6027 B(  3-C , 12-H ) :   0.7323
B(  4-N ,  5-H ) :   1.1309 B(  4-N ,  6-H ) :   1.2128 B(  5-H ,  6-H ) :  -0.1628
B(  8-H , 12-H ) :   0.1007 B(  9-C , 13-H ) :   0.7599 B(  9-C , 14-H ) :   0.7763
B(  9-C , 15-H ) :   0.8099 B( 10-H , 11-H ) :  -0.1064

Dispersion correction           -0.021191851
FINAL SINGLE POINT ENERGY      -267.580105125162

DIPOLE MOMENT
-------------
                                X             Y             Z
Electronic contribution:      3.06987       2.79888      -0.19953
Nuclear contribution   :     -3.42552      -1.84584      -0.22295
                        -----------------------------------------
Total Dipole Moment    :     -0.35566       0.95304      -0.42248
                        -----------------------------------------
Magnitude (a.u.)       :      1.10149
Magnitude (Debye)      :      2.79976

Rotational constants in cm-1:     0.233526     0.075277     0.067092
Rotational constants in MHz :  7000.931279  2256.752901  2011.361214

                             ****ORCA TERMINATED NORMALLY****
TOTAL RUN TIME: 0 days 0 hours 0 minutes 22 seconds 402 msec
