                         Program Version 5.0.0 -  RELEASE  -
|  1> !B3LYP D3BJ RIJCOSX def2-SVPD def2/J TightSCF
|  2> *xyz 0 1
|  3> C          3.91385       -1.65829        3.01513
|  4> N          5.03927       -0.90115        2.49282
|  5> C          6.21038       -1.41726        2.17824
|  6> N          6.53591       -2.67712        2.55608
|  7> C          7.07675       -0.70082        1.47891
|  8> H          7.95464       -1.12155        1.20755
|  9> H          6.75616        0.10664        0.96028
| 10> H          4.84217        0.01761        2.11519
| 11> H          5.99388       -3.12692        3.28278
| 12> C          3.13916       -2.37657        1.91061
| 13> H          3.26723       -0.93940        3.52069
| 14> H          4.24720       -2.35509        3.79006
| 15> H          7.49844       -2.97548        2.46878
| 16> H          2.82969       -1.66654        1.17238
| 17> H          2.27790       -2.85264        2.33072
| 18> H          3.76754       -3.11338        1.45548
| 19> *
| 20> %MaxCore 64000
| 21> %pal nprocs 8
| 22> end
| 23> %scf
| 24>   MaxIter 150
| 25> end
| 26>
| 27>
| 28>                          ****END OF INPUT****

CARTESIAN COORDINATES (ANGSTROEM)
---------------------------------
  C      3.913850   -1.658290    3.015130
  N      5.039270   -0.901150    2.492820
  C      6.210380   -1.417260    2.178240
  N      6.535910   -2.677120    2.556080
  C      7.076750   -0.700820    1.478910
  H      7.954640   -1.121550    1.207550
  H      6.756160    0.106640    0.960280
  H      4.842170    0.017610    2.115190
  H      5.993880   -3.126920    3.282780
  C      3.139160   -2.376570    1.910610
  H      3.267230   -0.939400    3.520690
  H      4.247200   -2.355090    3.790060
  H      7.498440   -2.975480    2.468780
  H      2.829690   -1.666540    1.172380
  H      2.277900   -2.852640    2.330720
  H      3.767540   -3.113380    1.455480

 Total Charge           Charge          ....    0
 Multiplicity           Mult            ....    1
 Number of Electrons    NEL             ....   48
 Basis Dimension        Dim             ....  200

ORBITAL ENERGIES
----------------

  NO   OCC          E(Eh)            E(eV)
   0   2.0000     -14.330237      -389.9456
   1   2.0000     -14.330059      -389.9407
   2   2.0000     -10.227192      -278.2960
   3   2.0000     -10.224679      -278.2277
   4   2.0000     -10.172910      -276.8189
   5   2.0000     -10.093766      -274.6653
   6   2.0000      -0.959872       -26.1194
   7   2.0000      -0.874057       -23.7843
   8   2.0000      -0.764677       -20.8079
   9   2.0000      -0.695742       -18.9321
  10   2.0000      -0.625266       -17.0144
  11   2.0000      -0.598266       -16.2796
  12   2.0000      -0.535648       -14.5757
  13   2.0000      -0.497262       -13.5312
  14   2.0000      -0.479297       -13.0423
  15   2.0000      -0.440703       -11.9921
  16   2.0000      -0.431012       -11.7284
  17   2.0000      -0.405781       -11.0419
  18   2.0000      -0.381376       -10.3778
  19   2.0000      -0.372890       -10.1469
  20   2.0000      -0.360508        -9.8099
  21   2.0000      -0.357504        -9.7282
  22   2.0000      -0.256067        -6.9679
  23   2.0000      -0.163270        -4.4428
  24   0.0000       0.010239         0.2786
  25   0.0000       0.037386         1.0173
  26   0.0000       0.042351         1.1524
  27   0.0000       0.049200         1.3388
  28   0.0000       0.075217         2.0468

MULLIKEN ATOMIC CHARGES
-----------------------
   0 C :    0.476466
   1 N :   -0.198362
   2 C :    0.708704
   3 N :    0.198797
   4 C :    0.478196
   5 H :   -0.444479
   6 H :   -0.366152
   7 H :   -0.336966
   8 H :   -0.189651
   9 C :    0.890458
  10 H :   -0.429470
  11 H :   -0.192014
  12 H :   -0.209208
  13 H :   -0.142881
  14 H :   -0.116891
  15 H :   -0.126546
Sum of atomic charges:   -0.0000000

LOEWDIN ATOMIC CHARGES
----------------------
   0 C :    0.014637
   1 N :   -0.013508
   2 C :   -0.237757
   3 N :    0.206706
   4 C :    0.144779
   5 H :   -0.106628
   6 H :   -0.104299
   7 H :    0.036152
   8 H :   -0.033718
   9 C :    0.142920
  10 H :    0.015816
  11 H :    0.004445
  12 H :    0.001350
  13 H :   -0.020884
  14 H :   -0.024693
  15 H :   -0.025316

  Mayer bond orders larger than 0.100000
B(  0-C ,  1-N ) :   0.9529 B(  0-C ,  7-H ) :  -0.1736 B(  0-C ,  9-C ) :   1.2185
B(  0-C , 10-H ) :   0.7938 B(  0-C , 11-H ) :   0.8605 B(  0-C , 13-H ) :   0.2796
B(  0-C , 14-H ) :   0.1970 B(  0-C , 15-H ) :   0.2078 B(  1-N ,  2-C ) :   1.0766
B(  1-N ,  3-N ) :   0.1351 B(  1-N ,  4-C ) :   0.2610 B(  1-N ,  7-H ) :   1.2230
B(  1-N , 10-H ) :   0.2158 B(  1-N , 11-H ) :   0.1496 B(  2-C ,  3-N ) :   0.9144
B(  2-C ,  4-C ) :   1.4134 B(  2-C ,  5-H ) :   0.1888 B(  2-C ,  6-H ) :   0.1087
B(  2-C ,  7-H ) :  -0.2111 B(  3-N ,  4-C ) :   0.2053 B(  3-N ,  8-H ) :   1.0471
B(  3-N , 12-H ) :   1.2136 B(  4-C ,  5-H ) :   0.7132 B(  4-C ,  6-H ) :   0.8113
B(  5-H ,  6-H ) :   0.1297 B(  8-H , 12-H ) :  -0.1928 B(  9-C , 13-H ) :   0.7424
B(  9-C , 14-H ) :   0.7813 B(  9-C , 15-H ) :   0.7958

Dispersion correction           -0.021046516
FINAL SINGLE POINT ENERGY      -267.579804165109

DIPOLE MOMENT
-------------
                                X             Y             Z
Electronic contribution:      2.52894       0.92690       0.96106
Nuclear contribution   :     -3.31079      -1.42658      -0.45147
                        -----------------------------------------
Total Dipole Moment    :     -0.78185      -0.49968       0.50959
                        -----------------------------------------
Magnitude (a.u.)       :      1.05861
Magnitude (Debye)      :      2.69077

Rotational constants in cm-1:     0.225507     0.077571     0.068070
Rotational constants in MHz :  6760.542142  2325.533779  2040.680522

                             ****ORCA TERMINATED NORMALLY****
TOTAL RUN TIME: 0 days 0 hours 0 minutes 21 seconds 282 msec
