                         Program Version 5.0.0 -  RELEASE  -
|  1> !B3LYP D3BJ RIJCOSX def2-SVPD def2/J TightSCF xyzfile
|  2>
|  3> *xyzfile 0 1 D4.xyz
|  4>
|  5> %MaxCore 64000
|  6>
|  7> %pal nprocs 4
|  8> end
|  9>
| 10> %scf
| 11>   MaxIter 150
| 12> end
| 13>
| 14>
| 15>                          ****END OF INPUT****

CARTESIAN COORDINATES (ANGSTROEM)
---------------------------------
  C      3.913853   -1.658291    3.015134
  C      5.039266   -0.901154    2.492821
  C      4.084215    1.742081   -2.114724
  C      4.265245    2.500518   -0.795890
  H      4.868534    3.392674   -0.981134
  H      3.307640    2.824571   -0.387809
  C      4.982240    1.650257    0.247422
  C      6.210384   -1.417261    2.178244
  N      6.535913   -2.677122    2.556078
  N      7.076754   -0.700820    1.478906
  H      7.954643   -1.121554    1.207554
  H      6.756161    0.106637    0.960278
  H      4.842168    0.017609    2.115191
  H      5.993876   -3.126918    3.282784
  H      7.498441   -2.975482    2.468776
  O      4.368065    1.389270    1.313706
  F      6.128919    1.233512   -0.045620
  C      3.139159   -2.376572    1.910609
  H      3.267235   -0.939401    3.520693
  H      4.247195   -2.355095    3.790065
  C      1.997274    0.430918   -1.399218
  C      3.412746    0.376886   -1.965497
  H      4.047407   -0.246590   -1.326706
  H      3.390774   -0.118719   -2.942839
  H      5.068475    1.598504   -2.565728
  H      3.503356    2.363939   -2.804565
  C      2.399946   -1.389579    1.009490
  H      2.440750   -3.087118    2.362976
  H      3.844475   -2.970462    1.318677
  C      2.070177   -1.936705   -0.372401
  H      1.481611   -1.061542    1.509912
  H      3.008628   -0.490001    0.897451
  C      1.322238   -0.935775   -1.256413
  H      1.472747   -2.850902   -0.283997
  H      3.003539   -2.234041   -0.862535
  H      1.376444    1.058920   -2.047420
  H      2.015341    0.929780   -0.426535
  H      0.316648   -0.787213   -0.848278
  H      1.185611   -1.379252   -2.248613

 Total Charge           Charge          ....    0
 Multiplicity           Mult            ....    1
 Number of Electrons    NEL             ....  126
 Basis Dimension        Dim             ....  510

ORBITAL ENERGIES
----------------

  NO   OCC          E(Eh)            E(eV)
   0   2.0000     -24.796747      -674.7538
   1   2.0000     -19.160962      -521.3963
   2   2.0000     -14.314809      -389.5258
   3   2.0000     -14.305265      -389.2661
   4   2.0000     -10.380104      -282.4570
   5   2.0000     -10.219972      -278.0996
   6   2.0000     -10.204008      -277.6652
   7   2.0000     -10.202936      -277.6360
   8   2.0000     -10.187095      -277.2049
   9   2.0000     -10.176542      -276.9178
  10   2.0000     -10.170427      -276.7514
  11   2.0000     -10.161773      -276.5159
  12   2.0000     -10.150600      -276.2119
  13   2.0000     -10.146202      -276.0922
  14   2.0000     -10.139938      -275.9217
  15   2.0000     -10.071476      -274.0588
  16   2.0000      -1.337401       -36.3925
  17   2.0000      -1.043187       -28.3866
  18   2.0000      -0.932743       -25.3812
  19   2.0000      -0.844845       -22.9894
  20   2.0000      -0.826622       -22.4935
  21   2.0000      -0.792714       -21.5708
  22   2.0000      -0.764178       -20.7943
  23   2.0000      -0.736279       -20.0352
  24   2.0000      -0.705783       -19.2053
  25   2.0000      -0.683846       -18.6084
  26   2.0000      -0.662882       -18.0379
  27   2.0000      -0.628412       -17.1000
  28   2.0000      -0.600871       -16.3505
  29   2.0000      -0.589052       -16.0289
  30   2.0000      -0.578412       -15.7394
  31   2.0000      -0.568234       -15.4624
  32   2.0000      -0.549677       -14.9575
  33   2.0000      -0.538487       -14.6530
  34   2.0000      -0.530270       -14.4294
  35   2.0000      -0.511959       -13.9311
  36   2.0000      -0.485080       -13.1997
  37   2.0000      -0.480761       -13.0822
  38   2.0000      -0.478061       -13.0087
  39   2.0000      -0.458226       -12.4690
  40   2.0000      -0.449787       -12.2393
  41   2.0000      -0.437944       -11.9171
  42   2.0000      -0.428302       -11.6547
  43   2.0000      -0.413022       -11.2389
  44   2.0000      -0.408654       -11.1200
  45   2.0000      -0.403022       -10.9668
  46   2.0000      -0.394516       -10.7353
  47   2.0000      -0.385870       -10.5001
  48   2.0000      -0.378677       -10.3043
  49   2.0000      -0.373414       -10.1611
  50   2.0000      -0.362542        -9.8653
  51   2.0000      -0.361493        -9.8367
  52   2.0000      -0.343153        -9.3377
  53   2.0000      -0.335306        -9.1241
  54   2.0000      -0.333764        -9.0822
  55   2.0000      -0.328052        -8.9267
  56   2.0000      -0.310173        -8.4402
  57   2.0000      -0.303881        -8.2690
  58   2.0000      -0.298698        -8.1280
  59   2.0000      -0.294894        -8.0245
  60   2.0000      -0.266340        -7.2475
  61   2.0000      -0.249696        -6.7946
  62   2.0000      -0.141244        -3.8434
  63   0.0000      -0.050273        -1.3680
  64   0.0000       0.007466         0.2032
  65   0.0000       0.024212         0.6588
  66   0.0000       0.031257         0.8505
  67   0.0000       0.033276         0.9055

MULLIKEN ATOMIC CHARGES
-----------------------
   0 C :    0.794233
   1 C :    0.234694
   2 C :    0.598941
   3 C :    0.485938
   4 H :   -0.199286
   5 H :    0.049834
   6 C :    0.563359
   7 C :    0.624971
   8 N :    0.093471
   9 N :    0.537085
  10 H :   -0.230114
  11 H :   -0.408141
  12 H :   -0.736521
  13 H :   -0.077406
  14 H :   -0.332722
  15 O :   -0.569243
  16 F :   -0.448155
  17 C :    0.562375
  18 H :   -0.059146
  19 H :   -0.348646
  20 C :    0.036357
  21 C :    0.072046
  22 H :   -0.098969
  23 H :   -0.249439
  24 H :   -0.105668
  25 H :   -0.203605
  26 C :    0.869145
  27 H :   -0.187797
  28 H :   -0.142989
  29 C :    0.165461
  30 H :   -0.022633
  31 H :   -1.144598
  32 C :    0.891680
  33 H :   -0.534552
  34 H :    0.071699
  35 H :   -0.519975
  36 H :    0.130179
  37 H :   -0.065450
  38 H :   -0.096414
Sum of atomic charges:   -0.0000000

LOEWDIN ATOMIC CHARGES
----------------------
   0 C :   -0.039600
   1 C :   -0.007680
   2 C :   -0.013867
   3 C :    0.068408
   4 H :    0.035302
   5 H :    0.030866
   6 C :    0.047499
   7 C :   -0.201555
   8 N :    0.204333
   9 N :    0.207129
  10 H :   -0.012101
  11 H :   -0.083289
  12 H :   -0.140591
  13 H :   -0.022019
  14 H :   -0.022084
  15 O :   -0.109821
  16 F :   -0.019612
  17 C :   -0.021374
  18 H :    0.017766
  19 H :   -0.006336
  20 C :   -0.025690
  21 C :   -0.022435
  22 H :    0.011795
  23 H :    0.029084
  24 H :    0.020768
  25 H :    0.026257
  26 C :   -0.023204
  27 H :    0.012226
  28 H :    0.014597
  29 C :   -0.034407
  30 H :    0.032923
  31 H :   -0.025310
  32 C :   -0.025399
  33 H :    0.020237
  34 H :    0.013152
  35 H :    0.021610
  36 H :    0.006380
  37 H :    0.019757
  38 H :    0.016285

  Mayer bond orders larger than 0.100000
B(  0-C ,  1-C ) :   0.8536 B(  0-C ,  7-C ) :   0.1497 B(  0-C , 12-H ) :   0.8416
B(  0-C , 17-C ) :   1.0292 B(  0-C , 18-H ) :   0.6312 B(  0-C , 19-H ) :   0.4625
B(  0-C , 28-H ) :   0.1070 B(  1-C ,  7-C ) :   1.7598 B(  1-C ,  8-N ) :   0.2870
B(  1-C ,  9-N ) :   0.2624 B(  1-C , 12-H ) :  -0.3527 B(  1-C , 13-H ) :  -0.1352
B(  1-C , 17-C ) :   0.1013 B(  1-C , 18-H ) :   0.3475 B(  1-C , 19-H ) :   0.3796
B(  2-C ,  3-C ) :   1.1389 B(  2-C ,  4-H ) :   0.1872 B(  2-C ,  6-C ) :   0.1178
B(  2-C , 21-C ) :   1.2023 B(  2-C , 22-H ) :   0.1150 B(  2-C , 24-H ) :   0.6046
B(  2-C , 25-H ) :   0.7573 B(  3-C ,  4-H ) :   0.5654 B(  3-C ,  5-H ) :   0.7460
B(  3-C ,  6-C ) :   1.1701 B(  3-C , 21-C ) :   0.1180 B(  3-C , 24-H ) :   0.1203
B(  3-C , 25-H ) :   0.1736 B(  4-H ,  6-C ) :   0.3025 B(  5-H ,  6-C ) :   0.2255
B(  6-C , 15-O ) :   1.8152 B(  6-C , 16-F ) :   0.4994 B(  7-C ,  8-N ) :   0.8222
B(  7-C ,  9-N ) :   0.8214 B(  7-C , 11-H ) :  -0.2869 B(  7-C , 12-H ) :   0.4095
B(  7-C , 14-H ) :  -0.1750 B(  7-C , 19-H ) :  -0.1235 B(  8-N , 13-H ) :   1.0463
B(  8-N , 14-H ) :   1.2991 B(  9-N , 10-H ) :   1.1292 B(  9-N , 11-H ) :   1.1837
B( 10-H , 11-H ) :  -0.1907 B( 10-H , 12-H ) :  -0.1022 B( 12-H , 19-H ) :   0.1185
B( 12-H , 31-H ) :   0.1060 B( 13-H , 14-H ) :  -0.1977 B( 15-O , 16-F ) :   0.1582
B( 15-O , 31-H ) :   0.1049 B( 17-C , 19-H ) :   0.1327 B( 17-C , 26-C ) :   1.0938
B( 17-C , 27-H ) :   0.7776 B( 17-C , 28-H ) :   0.8460 B( 17-C , 30-H ) :   0.1827
B( 18-H , 19-H ) :  -0.1519 B( 20-C , 21-C ) :   1.2277 B( 20-C , 22-H ) :   0.1352
B( 20-C , 23-H ) :   0.1631 B( 20-C , 29-C ) :   0.1508 B( 20-C , 32-C ) :   1.1090
B( 20-C , 35-H ) :   0.9379 B( 20-C , 36-H ) :   0.8057 B( 20-C , 37-H ) :   0.3227
B( 20-C , 38-H ) :   0.1492 B( 21-C , 22-H ) :   0.8690 B( 21-C , 23-H ) :   0.8129
B( 21-C , 24-H ) :   0.2880 B( 21-C , 25-H ) :   0.1792 B( 21-C , 35-H ) :   0.1156
B( 21-C , 36-H ) :   0.1284 B( 24-H , 25-H ) :  -0.1509 B( 26-C , 27-H ) :   0.2002
B( 26-C , 28-H ) :   0.1424 B( 26-C , 29-C ) :   1.2097 B( 26-C , 30-H ) :   0.5459
B( 26-C , 31-H ) :  -0.1415 B( 26-C , 33-H ) :   0.1066 B( 26-C , 34-H ) :   0.1575
B( 27-H , 31-H ) :   0.1173 B( 28-H , 33-H ) :  -0.1172 B( 29-C , 30-H ) :   0.1078
B( 29-C , 31-H ) :   0.1642 B( 29-C , 32-C ) :   1.0813 B( 29-C , 33-H ) :   0.9253
B( 29-C , 34-H ) :   0.8088 B( 29-C , 37-H ) :   0.1312 B( 29-C , 38-H ) :   0.2817
B( 30-H , 31-H ) :   0.2590 B( 31-H , 36-H ) :   0.1085 B( 32-C , 37-H ) :   0.5884
B( 32-C , 38-H ) :   0.5969 B( 33-H , 34-H ) :  -0.1135 B( 37-H , 38-H ) :  -0.1420

Dispersion correction           -0.072608800
FINAL SINGLE POINT ENERGY      -754.750474614421

DIPOLE MOMENT
-------------
                                X             Y             Z
Electronic contribution:     14.27236       8.77386       3.68365
Nuclear contribution   :    -13.61164      -8.17416      -5.14068
                        -----------------------------------------
Total Dipole Moment    :      0.66072       0.59970      -1.45703
                        -----------------------------------------
Magnitude (a.u.)       :      1.70855
Magnitude (Debye)      :      4.34279

Rotational constants in cm-1:     0.019858     0.013613     0.009401
Rotational constants in MHz :   595.331791   408.100423   281.843625

                             ****ORCA TERMINATED NORMALLY****
TOTAL RUN TIME: 0 days 0 hours 4 minutes 42 seconds 382 msec
