                         Program Version 5.0.0 -  RELEASE  -
|  1> !BLYP D3BJ RIJCOSX def2-SVP def2/J TightSCF
|  2> *xyz -1 1
|  3> C          0.13297        2.38587       -4.02462
|  4> C         -1.36646        2.47911       -4.31393
|  5> C         -2.35773        2.30686       -3.13675
|  6> H         -1.63680        1.72709       -5.06399
|  7> H         -1.58235        3.44561       -4.76869
|  8> O         -3.44376        2.84652       -3.25274
|  9> O         -1.97092        1.58304       -2.15123
| 10> H          0.68084        2.52514       -4.93310
| 11> H          0.35823        1.42282       -3.61633
| 12> H          0.40851        3.14443       -3.32208
| 13> *
| 14> %MaxCore 64000
| 15>
| 16> %pal nprocs 4
| 17> end
| 18>
| 19> %scf
| 20>   MaxIter 150
| 21> end
| 22>
| 23>
| 24>                          ****END OF INPUT****

CARTESIAN COORDINATES (ANGSTROEM)
---------------------------------
  C      0.132970    2.385870   -4.024620
  C     -1.366460    2.479110   -4.313930
  C     -2.357730    2.306860   -3.136750
  H     -1.636800    1.727090   -5.063990
  H     -1.582350    3.445610   -4.768690
  O     -3.443760    2.846520   -3.252740
  O     -1.970920    1.583040   -2.151230
  H      0.680840    2.525140   -4.933100
  H      0.358230    1.422820   -3.616330
  H      0.408510    3.144430   -3.322080

 Total Charge           Charge          ....   -1
 Multiplicity           Mult            ....    1
 Number of Electrons    NEL             ....   40
 Basis Dimension        Dim             ....   95

ORBITAL ENERGIES
----------------

  NO   OCC          E(Eh)            E(eV)
   0   2.0000     -18.486235      -503.0360
   1   2.0000     -18.477944      -502.8104
   2   2.0000      -9.763929      -265.6900
   3   2.0000      -9.744949      -265.1735
   4   2.0000      -9.725099      -264.6334
   5   2.0000      -0.680721       -18.5234
   6   2.0000      -0.585641       -15.9361
   7   2.0000      -0.498659       -13.5692
   8   2.0000      -0.377443       -10.2708
   9   2.0000      -0.231051        -6.2872
  10   2.0000      -0.221548        -6.0286
  11   2.0000      -0.178051        -4.8450
  12   2.0000      -0.149853        -4.0777
  13   2.0000      -0.141282        -3.8445
  14   2.0000      -0.121757        -3.3132
  15   2.0000      -0.091678        -2.4947
  16   2.0000      -0.083104        -2.2614
  17   2.0000       0.034975         0.9517
  18   2.0000       0.044623         1.2143
  19   2.0000       0.062815         1.7093
  20   0.0000       0.196485         5.3466
  21   0.0000       0.243488         6.6256
  22   0.0000       0.249614         6.7924
  23   0.0000       0.260602         7.0913
  24   0.0000       0.267551         7.2804

MULLIKEN ATOMIC CHARGES
-----------------------
   0 C :    0.134857
   1 C :    0.063851
   2 C :   -0.087914
   3 H :   -0.076733
   4 H :   -0.098334
   5 O :   -0.324032
   6 O :   -0.403151
   7 H :   -0.098357
   8 H :   -0.056220
   9 H :   -0.053967
Sum of atomic charges:   -1.0000000

LOEWDIN ATOMIC CHARGES
----------------------
   0 C :   -0.054881
   1 C :   -0.088857
   2 C :   -0.098059
   3 H :   -0.002636
   4 H :   -0.014720
   5 O :   -0.323307
   6 O :   -0.396473
   7 H :   -0.018294
   8 H :   -0.003254
   9 H :    0.000481

  Mayer bond orders larger than 0.100000
B(  0-C ,  1-C ) :   1.0901 B(  0-C ,  7-H ) :   0.9314 B(  0-C ,  8-H ) :   0.9443
B(  0-C ,  9-H ) :   0.9634 B(  1-C ,  2-C ) :   0.8929 B(  1-C ,  3-H ) :   0.9190
B(  1-C ,  4-H ) :   0.9132 B(  2-C ,  5-O ) :   1.9372 B(  2-C ,  6-O ) :   1.8544
B(  5-O ,  6-O ) :   0.1392

Dispersion correction           -0.013388866
FINAL SINGLE POINT ENERGY      -267.536496338690

DIPOLE MOMENT
-------------
                                X             Y             Z
Electronic contribution:     -5.56334      -0.44713       3.49510
Nuclear contribution   :      6.75610       0.63068      -4.53972
                        -----------------------------------------
Total Dipole Moment    :      1.19276       0.18355      -1.04462
                        -----------------------------------------
Magnitude (a.u.)       :      1.59612
Magnitude (Debye)      :      4.05701

Rotational constants in cm-1:     0.335096     0.130241     0.099025
Rotational constants in MHz : 10045.924902  3904.536250  2968.708333

                             ****ORCA TERMINATED NORMALLY****
TOTAL RUN TIME: 0 days 0 hours 0 minutes 7 seconds 166 msec
