                         Program Version 5.0.0 -  RELEASE  -
|  1> !BLYP D3BJ RIJCOSX def2-SVP def2/J TightSCF
|  2> *xyz 1 1
|  3> C          0.64866        1.00359       -3.64560
|  4> N          0.28128        0.67645       -2.24018
|  5> C          0.13297        2.38587       -4.02462
|  6> H          0.39079       -0.31925       -2.02649
|  7> H         -0.69269        0.99010       -2.13812
|  8> H          0.85421        1.21221       -1.57528
|  9> H          0.19099        0.23965       -4.27575
| 10> H          1.73157        0.93173       -3.75075
| 11> H          0.40589        2.60338       -5.03610
| 12> H          0.56342        3.11797       -3.37374
| 13> H         -0.93265        2.40724       -3.93025
| 14> *
| 15> %MaxCore 64000
| 16>
| 17> %pal nprocs 4
| 18> end
| 19>
| 20> %scf
| 21>   MaxIter 150
| 22> end
| 23>
| 24>
| 25>                          ****END OF INPUT****

CARTESIAN COORDINATES (ANGSTROEM)
---------------------------------
  C      0.648660    1.003590   -3.645600
  N      0.281280    0.676450   -2.240180
  C      0.132970    2.385870   -4.024620
  H      0.390790   -0.319250   -2.026490
  H     -0.692690    0.990100   -2.138120
  H      0.854210    1.212210   -1.575280
  H      0.190990    0.239650   -4.275750
  H      1.731570    0.931730   -3.750750
  H      0.405890    2.603380   -5.036100
  H      0.563420    3.117970   -3.373740
  H     -0.932650    2.407240   -3.930250

 Total Charge           Charge          ....    1
 Multiplicity           Mult            ....    1
 Number of Electrons    NEL             ....   26
 Basis Dimension        Dim             ....   82

ORBITAL ENERGIES
----------------

  NO   OCC          E(Eh)            E(eV)
   0   2.0000     -14.359807      -390.7502
   1   2.0000     -10.176053      -276.9045
   2   2.0000     -10.102420      -274.9008
   3   2.0000      -1.123472       -30.5712
   4   2.0000      -0.883880       -24.0516
   5   2.0000      -0.776100       -21.1188
   6   2.0000      -0.745627       -20.2895
   7   2.0000      -0.737576       -20.0705
   8   2.0000      -0.642999       -17.4969
   9   2.0000      -0.590280       -16.0623
  10   2.0000      -0.536572       -14.6009
  11   2.0000      -0.523679       -14.2500
  12   2.0000      -0.506653       -13.7867
  13   0.0000      -0.211066        -5.7434
  14   0.0000      -0.154372        -4.2007
  15   0.0000      -0.150616        -4.0985
  16   0.0000      -0.116759        -3.1772
  17   0.0000      -0.081008        -2.2044

MULLIKEN ATOMIC CHARGES
-----------------------
   0 C :   -0.002579
   1 N :    0.081242
   2 C :    0.037036
   3 H :    0.201537
   4 H :    0.190701
   5 H :    0.195455
   6 H :    0.073632
   7 H :    0.078002
   8 H :    0.072155
   9 H :    0.036002
  10 H :    0.036817
Sum of atomic charges:    1.0000000

LOEWDIN ATOMIC CHARGES
----------------------
   0 C :    0.056619
   1 N :    0.311246
   2 C :   -0.027421
   3 H :    0.143127
   4 H :    0.138836
   5 H :    0.141617
   6 H :    0.050848
   7 H :    0.051111
   8 H :    0.062185
   9 H :    0.036171
  10 H :    0.035661

  Mayer bond orders larger than 0.100000
B(  0-C ,  1-N ) :   0.9601 B(  0-C ,  2-C ) :   1.1293 B(  0-C ,  6-H ) :   0.9453
B(  0-C ,  7-H ) :   0.9466 B(  1-N ,  3-H ) :   0.9338 B(  1-N ,  4-H ) :   0.9388
B(  1-N ,  5-H ) :   0.9398 B(  2-C ,  8-H ) :   0.9491 B(  2-C ,  9-H ) :   0.9674
B(  2-C , 10-H ) :   0.9595

Dispersion correction           -0.012521348
FINAL SINGLE POINT ENERGY      -135.357691266585

DIPOLE MOMENT
-------------
                                X             Y             Z
Electronic contribution:      0.16199      -1.32215       1.36668
Nuclear contribution   :     -0.22655       0.48066      -0.09136
                        -----------------------------------------
Total Dipole Moment    :     -0.06455      -0.84149       1.27533
                        -----------------------------------------
Magnitude (a.u.)       :      1.52929
Magnitude (Debye)      :      3.88715

Rotational constants in cm-1:     0.998155     0.284845     0.251232
Rotational constants in MHz : 29923.943568  8539.431565  7531.732866

                             ****ORCA TERMINATED NORMALLY****
TOTAL RUN TIME: 0 days 0 hours 0 minutes 6 seconds 794 msec
