                         Program Version 5.0.0 -  RELEASE  -
|  1> !BLYP D3BJ RIJCOSX def2-TZVP def2/J TightSCF xyzfile
|  2>
|  3> *xyzfile 0 1 B.xyz
|  4>
|  5> %MaxCore 64000
|  6>
|  7> %pal nprocs 18
|  8> end
|  9>
| 10> %scf
| 11>   MaxIter 150
| 12> end
| 13>
| 14>
| 15>                          ****END OF INPUT****

CARTESIAN COORDINATES (ANGSTROEM)
---------------------------------
  C      0.648656    1.003595   -3.645601
  N      0.281280    0.676454   -2.240179
  C      0.132968    2.385869   -4.024618
  C     -1.366462    2.479106   -4.313932
  C     -2.357732    2.306858   -3.136753
  H     -1.636802    1.727095   -5.063993
  H     -1.582347    3.445605   -4.768687
  H      0.390790   -0.319253   -2.026495
  H     -0.692686    0.990104   -2.138123
  H      0.854206    1.212214   -1.575279
  O     -3.443763    2.846518   -3.252744
  O     -1.970922    1.583042   -2.151229
  H      0.190993    0.239655   -4.275752
  H      1.731572    0.931729   -3.750751
  H      0.414839    3.102847   -3.245165
  H      0.683167    2.687560   -4.919721

 Total Charge           Charge          ....    0
 Multiplicity           Mult            ....    1
 Number of Electrons    NEL             ....   56
 Basis Dimension        Dim             ....  271

ORBITAL ENERGIES
----------------

  NO   OCC          E(Eh)            E(eV)
   0   2.0000     -18.696288      -508.7519
   1   2.0000     -18.674077      -508.1475
   2   2.0000     -14.112424      -384.0186
   3   2.0000      -9.989723      -271.8342
   4   2.0000      -9.954908      -270.8868
   5   2.0000      -9.930194      -270.2143
   6   2.0000      -9.891500      -269.1614
   7   2.0000      -0.930535       -25.3212
   8   2.0000      -0.902713       -24.5641
   9   2.0000      -0.824650       -22.4399
  10   2.0000      -0.731591       -19.9076
  11   2.0000      -0.642606       -17.4862
  12   2.0000      -0.571084       -15.5400
  13   2.0000      -0.543620       -14.7927
  14   2.0000      -0.536221       -14.5913
  15   2.0000      -0.469066       -12.7639
  16   2.0000      -0.425118       -11.5680
  17   2.0000      -0.422448       -11.4954
  18   2.0000      -0.385842       -10.4993
  19   2.0000      -0.368164       -10.0183
  20   2.0000      -0.337728        -9.1900
  21   2.0000      -0.333538        -9.0760
  22   2.0000      -0.324925        -8.8417
  23   2.0000      -0.303881        -8.2690
  24   2.0000      -0.285750        -7.7757
  25   2.0000      -0.187412        -5.0998
  26   2.0000      -0.182080        -4.9546
  27   2.0000      -0.149971        -4.0809
  28   0.0000      -0.050038        -1.3616
  29   0.0000      -0.005372        -0.1462
  30   0.0000       0.004919         0.1338
  31   0.0000       0.032175         0.8755
  32   0.0000       0.042749         1.1633

MULLIKEN ATOMIC CHARGES
-----------------------
   0 C :   -0.128333
   1 N :   -0.251103
   2 C :   -0.159890
   3 C :   -0.226930
   4 C :    0.213129
   5 H :    0.075289
   6 H :    0.095337
   7 H :    0.245260
   8 H :    0.281501
   9 H :    0.244257
  10 O :   -0.333679
  11 O :   -0.492109
  12 H :    0.125212
  13 H :    0.124313
  14 H :    0.090682
  15 H :    0.097063
Sum of atomic charges:   -0.0000000

LOEWDIN ATOMIC CHARGES
----------------------
   0 C :   -0.269467
   1 N :    0.147115
   2 C :   -0.267919
   3 C :   -0.252043
   4 C :   -0.663679
   5 H :    0.139255
   6 H :    0.144117
   7 H :    0.182381
   8 H :    0.105845
   9 H :    0.188446
  10 O :    0.046233
  11 O :   -0.049871
  12 H :    0.139382
  13 H :    0.128756
  14 H :    0.138256
  15 H :    0.143192

  Mayer bond orders larger than 0.100000
B(  0-C ,  1-N ) :   0.8968 B(  0-C ,  2-C ) :   0.9632 B(  0-C , 12-H ) :   0.9588
B(  0-C , 13-H ) :   0.9698 B(  1-N ,  7-H ) :   0.9067 B(  1-N ,  8-H ) :   0.6705
B(  1-N ,  9-H ) :   0.9099 B(  2-C ,  3-C ) :   0.9177 B(  2-C , 14-H ) :   0.9593
B(  2-C , 15-H ) :   0.9518 B(  3-C ,  4-C ) :   0.9378 B(  3-C ,  5-H ) :   0.9506
B(  3-C ,  6-H ) :   0.9532 B(  4-C , 10-O ) :   2.0551 B(  4-C , 11-O ) :   1.4765
B(  8-H , 11-O ) :   0.3553

Dispersion correction           -0.027863059
FINAL SINGLE POINT ENERGY      -363.082918070981

DIPOLE MOMENT
-------------
                                X             Y             Z
Electronic contribution:     -5.97239       0.97211       2.59153
Nuclear contribution   :      9.92875      -2.62114      -2.63866
                        -----------------------------------------
Total Dipole Moment    :      3.95636      -1.64903      -0.04713
                        -----------------------------------------
Magnitude (a.u.)       :      4.28652
Magnitude (Debye)      :     10.89548

Rotational constants in cm-1:     0.159108     0.062474     0.047603
Rotational constants in MHz :  4769.938632  1872.932224  1427.103830

                             ****ORCA TERMINATED NORMALLY****
TOTAL RUN TIME: 0 days 0 hours 0 minutes 9 seconds 259 msec
