                         Program Version 5.0.0 -  RELEASE  -
|  1> !BLYP D3BJ RIJCOSX def2-SVP def2/J TightSCF
|  2> *xyz 0 1
|  3> C          0.13297        2.38587       -4.02462
|  4> C         -1.36646        2.47911       -4.31393
|  5> C         -2.35773        2.30686       -3.13675
|  6> H         -1.63680        1.72709       -5.06399
|  7> H         -1.58235        3.44561       -4.76869
|  8> F         -3.44376        2.84652       -3.25274
|  9> O         -1.97092        1.58304       -2.15123
| 10> H          0.68084        2.52514       -4.93310
| 11> H          0.35823        1.42282       -3.61633
| 12> H          0.40851        3.14443       -3.32208
| 13> *
| 14> %MaxCore 64000
| 15>
| 16> %pal nprocs 4
| 17> end
| 18>
| 19> %scf
| 20>   MaxIter 150
| 21> end
| 22>
| 23>
| 24>                          ****END OF INPUT****

CARTESIAN COORDINATES (ANGSTROEM)
---------------------------------
  C      0.132970    2.385870   -4.024620
  C     -1.366460    2.479110   -4.313930
  C     -2.357730    2.306860   -3.136750
  H     -1.636800    1.727090   -5.063990
  H     -1.582350    3.445610   -4.768690
  F     -3.443760    2.846520   -3.252740
  O     -1.970920    1.583040   -2.151230
  H      0.680840    2.525140   -4.933100
  H      0.358230    1.422820   -3.616330
  H      0.408510    3.144430   -3.322080

 Total Charge           Charge          ....    0
 Multiplicity           Mult            ....    1
 Number of Electrons    NEL             ....   40
 Basis Dimension        Dim             ....   95

ORBITAL ENERGIES
----------------

  NO   OCC          E(Eh)            E(eV)
   0   2.0000     -24.367268      -663.0671
   1   2.0000     -18.773995      -510.8664
   2   2.0000     -10.083270      -274.3797
   3   2.0000      -9.946840      -270.6673
   4   2.0000      -9.920642      -269.9544
   5   2.0000      -1.208460       -32.8839
   6   2.0000      -0.898584       -24.4517
   7   2.0000      -0.702851       -19.1255
   8   2.0000      -0.610160       -16.6033
   9   2.0000      -0.564181       -15.3521
  10   2.0000      -0.488086       -13.2815
  11   2.0000      -0.469376       -12.7724
  12   2.0000      -0.429828       -11.6962
  13   2.0000      -0.405619       -11.0375
  14   2.0000      -0.366328        -9.9683
  15   2.0000      -0.336839        -9.1659
  16   2.0000      -0.319840        -8.7033
  17   2.0000      -0.312110        -8.4929
  18   2.0000      -0.285806        -7.7772
  19   2.0000      -0.219935        -5.9847
  20   0.0000      -0.049130        -1.3369
  21   0.0000       0.036715         0.9991
  22   0.0000       0.081437         2.2160
  23   0.0000       0.090490         2.4623
  24   0.0000       0.102923         2.8007

MULLIKEN ATOMIC CHARGES
-----------------------
   0 C :    0.104592
   1 C :   -0.017259
   2 C :    0.123819
   3 H :    0.021398
   4 H :   -0.009566
   5 F :    0.018057
   6 O :   -0.232483
   7 H :   -0.013474
   8 H :    0.007814
   9 H :   -0.002897
Sum of atomic charges:    0.0000000

LOEWDIN ATOMIC CHARGES
----------------------
   0 C :   -0.028184
   1 C :   -0.066545
   2 C :    0.049886
   3 H :    0.042389
   4 H :    0.022394
   5 F :    0.111230
   6 O :   -0.199531
   7 H :    0.021760
   8 H :    0.024478
   9 H :    0.022122

  Mayer bond orders larger than 0.100000
B(  0-C ,  1-C ) :   1.1249 B(  0-C ,  7-H ) :   0.9513 B(  0-C ,  8-H ) :   0.9619
B(  0-C ,  9-H ) :   0.9729 B(  1-C ,  2-C ) :   0.9945 B(  1-C ,  3-H ) :   0.9121
B(  1-C ,  4-H ) :   0.9228 B(  2-C ,  5-F ) :   1.2872 B(  2-C ,  6-O ) :   2.0781

Dispersion correction           -0.012715676
FINAL SINGLE POINT ENERGY      -292.089359548962

DIPOLE MOMENT
-------------
                                X             Y             Z
Electronic contribution:     -8.47822       0.41269       3.72122
Nuclear contribution   :      8.54799       0.05434      -4.66633
                        -----------------------------------------
Total Dipole Moment    :      0.06976       0.46703      -0.94510
                        -----------------------------------------
Magnitude (a.u.)       :      1.05651
Magnitude (Debye)      :      2.68542

Rotational constants in cm-1:     0.325803     0.123345     0.094275
Rotational constants in MHz :  9767.324172  3697.779805  2826.305733

                             ****ORCA TERMINATED NORMALLY****
TOTAL RUN TIME: 0 days 0 hours 0 minutes 6 seconds 489 msec
