                         Program Version 5.0.0 -  RELEASE  -
|  1> !BLYP D3BJ RIJCOSX def2-SVP def2/J TightSCF
|  2> *xyz 0 1
|  3> C          0.13297        2.38587       -4.02462
|  4> C         -1.36646        2.47911       -4.31393
|  5> C         -2.35773        2.30686       -3.13675
|  6> H         -1.63680        1.72709       -5.06399
|  7> H         -1.58235        3.44561       -4.76869
|  8> O         -3.44376        2.84652       -3.25274
|  9> F         -1.97092        1.58304       -2.15123
| 10> H          0.68084        2.52514       -4.93310
| 11> H          0.35823        1.42282       -3.61633
| 12> H          0.40851        3.14443       -3.32208
| 13> *
| 14> %MaxCore 64000
| 15>
| 16> %pal nprocs 4
| 17> end
| 18>
| 19> %scf
| 20>   MaxIter 150
| 21> end
| 22>
| 23>
| 24>                          ****END OF INPUT****

CARTESIAN COORDINATES (ANGSTROEM)
---------------------------------
  C      0.132970    2.385870   -4.024620
  C     -1.366460    2.479110   -4.313930
  C     -2.357730    2.306860   -3.136750
  H     -1.636800    1.727090   -5.063990
  H     -1.582350    3.445610   -4.768690
  O     -3.443760    2.846520   -3.252740
  F     -1.970920    1.583040   -2.151230
  H      0.680840    2.525140   -4.933100
  H      0.358230    1.422820   -3.616330
  H      0.408510    3.144430   -3.322080

 Total Charge           Charge          ....    0
 Multiplicity           Mult            ....    1
 Number of Electrons    NEL             ....   40
 Basis Dimension        Dim             ....   95

ORBITAL ENERGIES
----------------

  NO   OCC          E(Eh)            E(eV)
   0   2.0000     -24.344250      -662.4407
   1   2.0000     -18.783022      -511.1120
   2   2.0000     -10.078638      -274.2537
   3   2.0000      -9.945478      -270.6302
   4   2.0000      -9.925579      -270.0887
   5   2.0000      -1.160859       -31.5886
   6   2.0000      -0.937038       -25.4981
   7   2.0000      -0.705612       -19.2007
   8   2.0000      -0.594638       -16.1809
   9   2.0000      -0.554422       -15.0866
  10   2.0000      -0.465427       -12.6649
  11   2.0000      -0.459399       -12.5009
  12   2.0000      -0.417646       -11.3647
  13   2.0000      -0.403484       -10.9794
  14   2.0000      -0.371700       -10.1145
  15   2.0000      -0.343823        -9.3559
  16   2.0000      -0.331348        -9.0164
  17   2.0000      -0.318928        -8.6785
  18   2.0000      -0.299641        -8.1536
  19   2.0000      -0.232632        -6.3302
  20   0.0000      -0.044321        -1.2060
  21   0.0000       0.031387         0.8541
  22   0.0000       0.080968         2.2033
  23   0.0000       0.090843         2.4720
  24   0.0000       0.101419         2.7598

MULLIKEN ATOMIC CHARGES
-----------------------
   0 C :    0.080583
   1 C :   -0.018493
   2 C :    0.133026
   3 H :    0.023966
   4 H :    0.015778
   5 O :   -0.160146
   6 F :   -0.063179
   7 H :   -0.006830
   8 H :   -0.003248
   9 H :   -0.001457
Sum of atomic charges:   -0.0000000

LOEWDIN ATOMIC CHARGES
----------------------
   0 C :   -0.040985
   1 C :   -0.063996
   2 C :    0.061464
   3 H :    0.042955
   4 H :    0.037912
   5 O :   -0.131780
   6 F :    0.031547
   7 H :    0.024323
   8 H :    0.018316
   9 H :    0.020243

  Mayer bond orders larger than 0.100000
B(  0-C ,  1-C ) :   1.0934 B(  0-C ,  7-H ) :   0.9524 B(  0-C ,  8-H ) :   0.9662
B(  0-C ,  9-H ) :   0.9742 B(  1-C ,  2-C ) :   0.9954 B(  1-C ,  3-H ) :   0.9203
B(  1-C ,  4-H ) :   0.9377 B(  2-C ,  5-O ) :   2.1535 B(  2-C ,  6-F ) :   1.2075

Dispersion correction           -0.012608481
FINAL SINGLE POINT ENERGY      -292.105787850224

DIPOLE MOMENT
-------------
                                X             Y             Z
Electronic contribution:     -6.04918      -1.63605       5.49038
Nuclear contribution   :      6.94213       1.43193      -5.86732
                        -----------------------------------------
Total Dipole Moment    :      0.89295      -0.20412      -0.37694
                        -----------------------------------------
Magnitude (a.u.)       :      0.99051
Magnitude (Debye)      :      2.51767

Rotational constants in cm-1:     0.306336     0.129048     0.095707
Rotational constants in MHz :  9183.725605  3868.769583  2869.236577

                             ****ORCA TERMINATED NORMALLY****
TOTAL RUN TIME: 0 days 0 hours 0 minutes 6 seconds 360 msec
