                         Program Version 5.0.0 -  RELEASE  -
|  1> !BLYP D3BJ RIJCOSX def2-TZVP def2/J TightSCF xyzfile
|  2>
|  3> *xyzfile 0 1 D1.xyz
|  4>
|  5> %MaxCore 64000
|  6>
|  7> %pal nprocs 18
|  8> end
|  9>
| 10> %scf
| 11>   MaxIter 150
| 12> end
| 13>
| 14>
| 15>                          ****END OF INPUT****

CARTESIAN COORDINATES (ANGSTROEM)
---------------------------------
  C      0.648656    1.003595   -3.645601
  C      0.281280    0.676454   -2.240179
  C      0.132968    2.385869   -4.024618
  C     -1.366462    2.479106   -4.313932
  C     -2.357732    2.306858   -3.136753
  H     -1.636802    1.727095   -5.063993
  H     -1.582347    3.445605   -4.768687
  H      0.390790   -0.319253   -2.026495
  H     -0.692686    0.990104   -2.138123
  H      0.854206    1.212214   -1.575279
  F     -3.443763    2.846518   -3.252744
  O     -1.970922    1.583042   -2.151229
  H      0.190993    0.239655   -4.275752
  H      1.731572    0.931729   -3.750751
  H      0.414839    3.102847   -3.245165
  H      0.683167    2.687560   -4.919721

 Total Charge           Charge          ....    0
 Multiplicity           Mult            ....    1
 Number of Electrons    NEL             ....   56
 Basis Dimension        Dim             ....  271

ORBITAL ENERGIES
----------------

  NO   OCC          E(Eh)            E(eV)
   0   2.0000     -24.375375      -663.2877
   1   2.0000     -18.779526      -511.0169
   2   2.0000     -10.090977      -274.5894
   3   2.0000      -9.940031      -270.4820
   4   2.0000      -9.910582      -269.6806
   5   2.0000      -9.883108      -268.9331
   6   2.0000      -9.814223      -267.0586
   7   2.0000      -1.245323       -33.8870
   8   2.0000      -0.943812       -25.6824
   9   2.0000      -0.733739       -19.9661
  10   2.0000      -0.678857       -18.4726
  11   2.0000      -0.617425       -16.8010
  12   2.0000      -0.587022       -15.9737
  13   2.0000      -0.517621       -14.0852
  14   2.0000      -0.506204       -13.7745
  15   2.0000      -0.489957       -13.3324
  16   2.0000      -0.464510       -12.6400
  17   2.0000      -0.424737       -11.5577
  18   2.0000      -0.396137       -10.7794
  19   2.0000      -0.383740       -10.4421
  20   2.0000      -0.356734        -9.7072
  21   2.0000      -0.334381        -9.0990
  22   2.0000      -0.328959        -8.9514
  23   2.0000      -0.310502        -8.4492
  24   2.0000      -0.293275        -7.9804
  25   2.0000      -0.276799        -7.5321
  26   2.0000      -0.266450        -7.2505
  27   2.0000      -0.199915        -5.4400
  28   0.0000      -0.075377        -2.0511
  29   0.0000       0.009613         0.2616
  30   0.0000       0.039846         1.0843
  31   0.0000       0.049677         1.3518
  32   0.0000       0.060634         1.6499

MULLIKEN ATOMIC CHARGES
-----------------------
   0 C :   -0.117694
   1 C :   -0.385397
   2 C :   -0.120977
   3 C :   -0.256758
   4 C :    0.332688
   5 H :    0.115180
   6 H :    0.109479
   7 H :    0.072767
   8 H :    0.199824
   9 H :    0.068705
  10 F :   -0.031256
  11 O :   -0.274226
  12 H :    0.053119
  13 H :    0.067925
  14 H :    0.082658
  15 H :    0.083963
Sum of atomic charges:    0.0000000

LOEWDIN ATOMIC CHARGES
----------------------
   0 C :   -0.294753
   1 C :   -0.315593
   2 C :   -0.251559
   3 C :   -0.232780
   4 C :   -0.511604
   5 H :    0.155772
   6 H :    0.143879
   7 H :    0.096212
   8 H :    0.068958
   9 H :    0.098381
  10 F :    0.405967
  11 O :    0.104837
  12 H :    0.129163
  13 H :    0.126759
  14 H :    0.138990
  15 H :    0.137370

  Mayer bond orders larger than 0.100000
B(  0-C ,  1-C ) :   0.9502 B(  0-C ,  2-C ) :   0.9663 B(  0-C , 12-H ) :   0.9652
B(  0-C , 13-H ) :   0.9639 B(  1-C ,  7-H ) :   0.9757 B(  1-C ,  8-H ) :   0.9139
B(  1-C ,  9-H ) :   0.9725 B(  2-C ,  3-C ) :   0.9606 B(  2-C , 14-H ) :   0.9676
B(  2-C , 15-H ) :   0.9535 B(  3-C ,  4-C ) :   1.0025 B(  3-C ,  5-H ) :   0.9235
B(  3-C ,  6-H ) :   0.9502 B(  4-C , 10-F ) :   1.2295 B(  4-C , 11-O ) :   1.9406
B(  8-H , 11-O ) :   0.1306

Dispersion correction           -0.027272721
FINAL SINGLE POINT ENERGY      -370.996265453712

DIPOLE MOMENT
-------------
                                X             Y             Z
Electronic contribution:    -13.03960       4.56767       1.47234
Nuclear contribution   :     12.79331      -3.91961      -2.45895
                        -----------------------------------------
Total Dipole Moment    :     -0.24629       0.64805      -0.98660
                        -----------------------------------------
Magnitude (a.u.)       :      1.20583
Magnitude (Debye)      :      3.06497

Rotational constants in cm-1:     0.162888     0.059977     0.046450
Rotational constants in MHz :  4883.250030  1798.063289  1392.548669

                             ****ORCA TERMINATED NORMALLY****
TOTAL RUN TIME: 0 days 0 hours 0 minutes 9 seconds 456 msec
