                         Program Version 5.0.0 -  RELEASE  -
|  1> !BLYP D3BJ RIJCOSX def2-TZVP def2/J TightSCF xyzfile
|  2>
|  3> *xyzfile 0 1 D2.xyz
|  4>
|  5> %MaxCore 64000
|  6>
|  7> %pal nprocs 18
|  8> end
|  9>
| 10> %scf
| 11>   MaxIter 150
| 12> end
| 13>
| 14>
| 15>                          ****END OF INPUT****

CARTESIAN COORDINATES (ANGSTROEM)
---------------------------------
  C      0.648656    1.003595   -3.645601
  C      0.281280    0.676454   -2.240179
  C      0.132968    2.385869   -4.024618
  C     -1.366462    2.479106   -4.313932
  C     -2.357732    2.306858   -3.136753
  H     -1.636802    1.727095   -5.063993
  H     -1.582347    3.445605   -4.768687
  H      0.390790   -0.319253   -2.026495
  H     -0.692686    0.990104   -2.138123
  H      0.854206    1.212214   -1.575279
  O     -3.443763    2.846518   -3.252744
  F     -1.970922    1.583042   -2.151229
  H      0.190993    0.239655   -4.275752
  H      1.731572    0.931729   -3.750751
  H      0.414839    3.102847   -3.245165
  H      0.683167    2.687560   -4.919721

 Total Charge           Charge          ....    0
 Multiplicity           Mult            ....    1
 Number of Electrons    NEL             ....   56
 Basis Dimension        Dim             ....  271

ORBITAL ENERGIES
----------------

  NO   OCC          E(Eh)            E(eV)
   0   2.0000     -24.353463      -662.6914
   1   2.0000     -18.786124      -511.1964
   2   2.0000     -10.078586      -274.2523
   3   2.0000      -9.936409      -270.3834
   4   2.0000      -9.914035      -269.7746
   5   2.0000      -9.896217      -269.2897
   6   2.0000      -9.844968      -267.8952
   7   2.0000      -1.210094       -32.9283
   8   2.0000      -0.966536       -26.3008
   9   2.0000      -0.741256       -20.1706
  10   2.0000      -0.685773       -18.6608
  11   2.0000      -0.608233       -16.5509
  12   2.0000      -0.604062       -16.4374
  13   2.0000      -0.520025       -14.1506
  14   2.0000      -0.494719       -13.4620
  15   2.0000      -0.485175       -13.2023
  16   2.0000      -0.446049       -12.1376
  17   2.0000      -0.415038       -11.2938
  18   2.0000      -0.397962       -10.8291
  19   2.0000      -0.396292       -10.7836
  20   2.0000      -0.369426       -10.0526
  21   2.0000      -0.342535        -9.3209
  22   2.0000      -0.334501        -9.1022
  23   2.0000      -0.319397        -8.6912
  24   2.0000      -0.292808        -7.9677
  25   2.0000      -0.287706        -7.8289
  26   2.0000      -0.276523        -7.5246
  27   2.0000      -0.242865        -6.6087
  28   0.0000      -0.064222        -1.7476
  29   0.0000       0.006569         0.1787
  30   0.0000       0.038676         1.0524
  31   0.0000       0.044552         1.2123
  32   0.0000       0.053936         1.4677

MULLIKEN ATOMIC CHARGES
-----------------------
   0 C :   -0.116749
   1 C :   -0.382795
   2 C :   -0.133824
   3 C :   -0.244087
   4 C :    0.299195
   5 H :    0.112531
   6 H :    0.124397
   7 H :    0.090321
   8 H :    0.149800
   9 H :    0.089395
  10 O :   -0.231588
  11 F :   -0.065116
  12 H :    0.062751
  13 H :    0.074417
  14 H :    0.085271
  15 H :    0.086080
Sum of atomic charges:    0.0000000

LOEWDIN ATOMIC CHARGES
----------------------
   0 C :   -0.293374
   1 C :   -0.311374
   2 C :   -0.260994
   3 C :   -0.227738
   4 C :   -0.510650
   5 H :    0.154649
   6 H :    0.154358
   7 H :    0.101029
   8 H :    0.078529
   9 H :    0.103417
  10 O :    0.136833
  11 F :    0.340125
  12 H :    0.130865
  13 H :    0.129238
  14 H :    0.137168
  15 H :    0.137917

  Mayer bond orders larger than 0.100000
B(  0-C ,  1-C ) :   0.9411 B(  0-C ,  2-C ) :   0.9532 B(  0-C , 12-H ) :   0.9661
B(  0-C , 13-H ) :   0.9637 B(  1-C ,  7-H ) :   0.9772 B(  1-C ,  8-H ) :   0.9665
B(  1-C ,  9-H ) :   0.9756 B(  2-C ,  3-C ) :   0.9365 B(  2-C , 14-H ) :   0.9679
B(  2-C , 15-H ) :   0.9515 B(  3-C ,  4-C ) :   1.0017 B(  3-C ,  5-H ) :   0.9356
B(  3-C ,  6-H ) :   0.9575 B(  4-C , 10-O ) :   2.1516 B(  4-C , 11-F ) :   1.0917

Dispersion correction           -0.026856557
FINAL SINGLE POINT ENERGY      -371.013948307645

DIPOLE MOMENT
-------------
                                X             Y             Z
Electronic contribution:    -10.33706       2.34637       3.32692
Nuclear contribution   :     11.08738      -2.45618      -3.73478
                        -----------------------------------------
Total Dipole Moment    :      0.75032      -0.10981      -0.40786
                        -----------------------------------------
Magnitude (a.u.)       :      0.86104
Magnitude (Debye)      :      2.18860

Rotational constants in cm-1:     0.156244     0.063730     0.048063
Rotational constants in MHz :  4684.071402  1910.571278  1440.877811

                             ****ORCA TERMINATED NORMALLY****
TOTAL RUN TIME: 0 days 0 hours 0 minutes 8 seconds 159 msec
