                         Program Version 5.0.0 -  RELEASE  -
|  1> !PBE0 D3BJ RIJCOSX def2-SVP def2/J TightSCF
|  2> *xyz -1 1
|  3> C         -0.10608        1.76991       -4.08984
|  4> C         -0.25875        1.00432       -5.40983
|  5> C          0.39596       -0.37070       -5.33994
|  6> H          0.23915        1.56939       -6.20125
|  7> H         -1.30936        0.88869       -5.68245
|  8> O         -0.32633       -1.39040       -5.49128
|  9> O          1.61941       -0.40073       -5.03683
| 10> H         -0.57627        2.72718       -4.17630
| 11> H          0.93321        1.90140       -3.87192
| 12> H         -0.56868        1.21534       -3.30031
| 13> *
| 14> %MaxCore 64000
| 15>
| 16> %pal nprocs 4
| 17> end
| 18>
| 19> %scf
| 20>   MaxIter 150
| 21> end
| 22>
| 23>
| 24>                          ****END OF INPUT****

CARTESIAN COORDINATES (ANGSTROEM)
---------------------------------
  C     -0.106080    1.769910   -4.089840
  C     -0.258750    1.004320   -5.409830
  C      0.395960   -0.370700   -5.339940
  H      0.239150    1.569390   -6.201250
  H     -1.309360    0.888690   -5.682450
  O     -0.326330   -1.390400   -5.491280
  O      1.619410   -0.400730   -5.036830
  H     -0.576270    2.727180   -4.176300
  H      0.933210    1.901400   -3.871920
  H     -0.568680    1.215340   -3.300310

 Total Charge           Charge          ....   -1
 Multiplicity           Mult            ....    1
 Number of Electrons    NEL             ....   40
 Basis Dimension        Dim             ....   95

ORBITAL ENERGIES
----------------

  NO   OCC          E(Eh)            E(eV)
   0   2.0000     -18.910200      -514.5727
   1   2.0000     -18.909527      -514.5544
   2   2.0000     -10.082052      -274.3466
   3   2.0000     -10.061199      -273.7791
   4   2.0000     -10.041740      -273.2497
   5   2.0000      -0.802372       -21.8337
   6   2.0000      -0.705942       -19.2097
   7   2.0000      -0.608681       -16.5630
   8   2.0000      -0.474221       -12.9042
   9   2.0000      -0.316415        -8.6101
  10   2.0000      -0.293786        -7.9943
  11   2.0000      -0.252204        -6.8628
  12   2.0000      -0.224975        -6.1219
  13   2.0000      -0.208288        -5.6678
  14   2.0000      -0.198034        -5.3888
  15   2.0000      -0.163866        -4.4590
  16   2.0000      -0.149171        -4.0592
  17   2.0000      -0.024407        -0.6641
  18   2.0000      -0.022269        -0.6060
  19   2.0000      -0.004815        -0.1310
  20   0.0000       0.226365         6.1597
  21   0.0000       0.276612         7.5270
  22   0.0000       0.284828         7.7506
  23   0.0000       0.291922         7.9436
  24   0.0000       0.297885         8.1059

MULLIKEN ATOMIC CHARGES
-----------------------
   0 C :   -0.044583
   1 C :   -0.056263
   2 C :    0.077047
   3 H :   -0.016876
   4 H :   -0.029930
   5 O :   -0.457018
   6 O :   -0.469810
   7 H :   -0.027554
   8 H :    0.016196
   9 H :    0.008791
Sum of atomic charges:   -1.0000000

LOEWDIN ATOMIC CHARGES
----------------------
   0 C :   -0.069797
   1 C :   -0.099756
   2 C :   -0.047006
   3 H :    0.007031
   4 H :   -0.001378
   5 O :   -0.401315
   6 O :   -0.410847
   7 H :   -0.004755
   8 H :    0.014304
   9 H :    0.013518

  Mayer bond orders larger than 0.100000
B(  0-C ,  1-C ) :   1.0871 B(  0-C ,  7-H ) :   0.9671 B(  0-C ,  8-H ) :   0.9629
B(  0-C ,  9-H ) :   0.9740 B(  1-C ,  2-C ) :   0.9192 B(  1-C ,  3-H ) :   0.9371
B(  1-C ,  4-H ) :   0.9394 B(  2-C ,  5-O ) :   1.8471 B(  2-C ,  6-O ) :   1.7984
B(  5-O ,  6-O ) :   0.1130

Dispersion correction           -0.005470535
FINAL SINGLE POINT ENERGY      -267.321883707998

DIPOLE MOMENT
-------------
                                X             Y             Z
Electronic contribution:      1.81612      -5.50275      -1.70698
Nuclear contribution   :     -2.46071       7.20791       1.95694
                        -----------------------------------------
Total Dipole Moment    :     -0.64460       1.70517       0.24996
                        -----------------------------------------
Magnitude (a.u.)       :      1.83999
Magnitude (Debye)      :      4.67689

Rotational constants in cm-1:     0.309435     0.135317     0.107436
Rotational constants in MHz :  9276.637721  4056.700783  3220.846587

                             ****ORCA TERMINATED NORMALLY****
TOTAL RUN TIME: 0 days 0 hours 0 minutes 10 seconds 901 msec
