                         Program Version 5.0.0 -  RELEASE  -
|  1> !PBE0 D3BJ RIJCOSX def2-SVP def2/J TightSCF
|  2> *xyz 1 1
|  3> C          0.81607       -2.10149       -2.18655
|  4> H          1.69623       -2.36869       -1.60046
|  5> N          1.10055       -2.46749       -3.59927
|  6> C          0.51624       -0.61363       -2.03937
|  7> H         -0.02007       -2.71285       -1.84084
|  8> H          1.70061       -1.75723       -4.07838
|  9> H          0.29386       -2.35977       -4.25632
| 10> H          1.50132       -3.42848       -3.69491
| 11> H         -0.34841       -0.36504       -2.61858
| 12> H          1.35358       -0.04503       -2.38643
| 13> H          0.33317       -0.38682       -1.00984
| 14> *
| 15> %MaxCore 64000
| 16>
| 17> %pal nprocs 4
| 18> end
| 19>
| 20> %scf
| 21>   MaxIter 150
| 22> end
| 23>
| 24>
| 25>                          ****END OF INPUT****

CARTESIAN COORDINATES (ANGSTROEM)
---------------------------------
  C      0.816070   -2.101490   -2.186550
  H      1.696230   -2.368690   -1.600460
  N      1.100550   -2.467490   -3.599270
  C      0.516240   -0.613630   -2.039370
  H     -0.020070   -2.712850   -1.840840
  H      1.700610   -1.757230   -4.078380
  H      0.293860   -2.359770   -4.256320
  H      1.501320   -3.428480   -3.694910
  H     -0.348410   -0.365040   -2.618580
  H      1.353580   -0.045030   -2.386430
  H      0.333170   -0.386820   -1.009840

 Total Charge           Charge          ....    1
 Multiplicity           Mult            ....    1
 Number of Electrons    NEL             ....   26
 Basis Dimension        Dim             ....   82

ORBITAL ENERGIES
----------------

  NO   OCC          E(Eh)            E(eV)
   0   2.0000     -14.736718      -401.0065
   1   2.0000     -10.486779      -285.3598
   2   2.0000     -10.408390      -283.2267
   3   2.0000      -1.230075       -33.4720
   4   2.0000      -0.983238       -26.7553
   5   2.0000      -0.866888       -23.5892
   6   2.0000      -0.807018       -21.9601
   7   2.0000      -0.789843       -21.4927
   8   2.0000      -0.718406       -19.5488
   9   2.0000      -0.651722       -17.7343
  10   2.0000      -0.596750       -16.2384
  11   2.0000      -0.581622       -15.8267
  12   2.0000      -0.562475       -15.3057
  13   0.0000      -0.176204        -4.7948
  14   0.0000      -0.119418        -3.2495
  15   0.0000      -0.113519        -3.0890
  16   0.0000      -0.082056        -2.2328
  17   0.0000      -0.039529        -1.0756

MULLIKEN ATOMIC CHARGES
-----------------------
   0 C :   -0.056454
   1 H :    0.122956
   2 N :   -0.054290
   3 C :   -0.099304
   4 H :    0.126345
   5 H :    0.217944
   6 H :    0.220927
   7 H :    0.242392
   8 H :    0.081313
   9 H :    0.080911
  10 H :    0.117261
Sum of atomic charges:    1.0000000

LOEWDIN ATOMIC CHARGES
----------------------
   0 C :    0.044043
   1 H :    0.059448
   2 N :    0.269254
   3 C :   -0.050135
   4 H :    0.060195
   5 H :    0.151559
   6 H :    0.153342
   7 H :    0.158489
   8 H :    0.042956
   9 H :    0.042652
  10 H :    0.068196

  Mayer bond orders larger than 0.100000
B(  0-C ,  1-H ) :   0.9486 B(  0-C ,  2-N ) :   0.9043 B(  0-C ,  3-C ) :   1.0905
B(  0-C ,  4-H ) :   0.9482 B(  2-N ,  5-H ) :   0.9252 B(  2-N ,  6-H ) :   0.9246
B(  2-N ,  7-H ) :   0.9198 B(  3-C ,  8-H ) :   0.9706 B(  3-C ,  9-H ) :   0.9664
B(  3-C , 10-H ) :   0.9558

Dispersion correction           -0.005007490
FINAL SINGLE POINT ENERGY      -135.271459031442

DIPOLE MOMENT
-------------
                                X             Y             Z
Electronic contribution:      0.43242      -1.45978      -1.11955
Nuclear contribution   :     -0.07506       0.54337      -0.16191
                        -----------------------------------------
Total Dipole Moment    :      0.35737      -0.91642      -1.28146
                        -----------------------------------------
Magnitude (a.u.)       :      1.61545
Magnitude (Debye)      :      4.10615

Rotational constants in cm-1:     0.999557     0.280801     0.246932
Rotational constants in MHz : 29965.963633  8418.199581  7402.841054

                             ****ORCA TERMINATED NORMALLY****
TOTAL RUN TIME: 0 days 0 hours 0 minutes 9 seconds 99 msec
