                         Program Version 5.0.0 -  RELEASE  -
|  1> !PBE0 D3BJ RIJCOSX def2-SVP def2/J TightSCF
|  2> *xyz 0 1
|  3> C         -0.10608        1.76991       -4.08984
|  4> C         -0.25875        1.00432       -5.40983
|  5> C          0.39596       -0.37070       -5.33994
|  6> H          0.23915        1.56939       -6.20125
|  7> H         -1.30936        0.88869       -5.68245
|  8> F         -0.32633       -1.39040       -5.49128
|  9> O          1.61941       -0.40073       -5.03683
| 10> H         -0.57627        2.72718       -4.17630
| 11> H          0.93321        1.90140       -3.87192
| 12> H         -0.56868        1.21534       -3.30031
| 13> *
| 14> %MaxCore 64000
| 15>
| 16> %pal nprocs 4
| 17> end
| 18>
| 19> %scf
| 20>   MaxIter 150
| 21> end
| 22>
| 23>
| 24>                          ****END OF INPUT****

CARTESIAN COORDINATES (ANGSTROEM)
---------------------------------
  C     -0.106080    1.769910   -4.089840
  C     -0.258750    1.004320   -5.409830
  C      0.395960   -0.370700   -5.339940
  H      0.239150    1.569390   -6.201250
  H     -1.309360    0.888690   -5.682450
  F     -0.326330   -1.390400   -5.491280
  O      1.619410   -0.400730   -5.036830
  H     -0.576270    2.727180   -4.176300
  H      0.933210    1.901400   -3.871920
  H     -0.568680    1.215340   -3.300310

 Total Charge           Charge          ....    0
 Multiplicity           Mult            ....    1
 Number of Electrons    NEL             ....   40
 Basis Dimension        Dim             ....   95

ORBITAL ENERGIES
----------------

  NO   OCC          E(Eh)            E(eV)
   0   2.0000     -24.839134      -675.9072
   1   2.0000     -19.210424      -522.7422
   2   2.0000     -10.402659      -283.0707
   3   2.0000     -10.261740      -279.2361
   4   2.0000     -10.237299      -278.5711
   5   2.0000      -1.327069       -36.1114
   6   2.0000      -1.041674       -28.3454
   7   2.0000      -0.815763       -22.1981
   8   2.0000      -0.700962       -19.0741
   9   2.0000      -0.650188       -17.6925
  10   2.0000      -0.560015       -15.2388
  11   2.0000      -0.545836       -14.8529
  12   2.0000      -0.517284       -14.0760
  13   2.0000      -0.477168       -12.9844
  14   2.0000      -0.443686       -12.0733
  15   2.0000      -0.411232       -11.1902
  16   2.0000      -0.388076       -10.5601
  17   2.0000      -0.384822       -10.4715
  18   2.0000      -0.352944        -9.6041
  19   2.0000      -0.299232        -8.1425
  20   0.0000      -0.018852        -0.5130
  21   0.0000       0.071389         1.9426
  22   0.0000       0.115184         3.1343
  23   0.0000       0.118227         3.2171
  24   0.0000       0.137978         3.7546

MULLIKEN ATOMIC CHARGES
-----------------------
   0 C :   -0.058701
   1 C :   -0.139364
   2 C :    0.277841
   3 H :    0.083952
   4 H :    0.049899
   5 F :   -0.087411
   6 O :   -0.286708
   7 H :    0.047519
   8 H :    0.066871
   9 H :    0.046104
Sum of atomic charges:    0.0000000

LOEWDIN ATOMIC CHARGES
----------------------
   0 C :   -0.045105
   1 C :   -0.080282
   2 C :    0.111629
   3 H :    0.054932
   4 H :    0.031186
   5 F :    0.038604
   6 O :   -0.206934
   7 H :    0.031115
   8 H :    0.035589
   9 H :    0.029265

  Mayer bond orders larger than 0.100000
B(  0-C ,  1-C ) :   1.0813 B(  0-C ,  7-H ) :   0.9702 B(  0-C ,  8-H ) :   0.9692
B(  0-C ,  9-H ) :   0.9772 B(  1-C ,  2-C ) :   0.9968 B(  1-C ,  3-H ) :   0.9319
B(  1-C ,  4-H ) :   0.9400 B(  2-C ,  5-F ) :   1.1841 B(  2-C ,  6-O ) :   2.0394

Dispersion correction           -0.005184016
FINAL SINGLE POINT ENERGY      -291.862619745007

DIPOLE MOMENT
-------------
                                X             Y             Z
Electronic contribution:      0.89692      -8.23201      -2.56792
Nuclear contribution   :     -1.80992       8.85192       2.42184
                        -----------------------------------------
Total Dipole Moment    :     -0.91300       0.61991      -0.14607
                        -----------------------------------------
Magnitude (a.u.)       :      1.11319
Magnitude (Debye)      :      2.82951

Rotational constants in cm-1:     0.298360     0.128849     0.102271
Rotational constants in MHz :  8944.606599  3862.796179  3066.020510

                             ****ORCA TERMINATED NORMALLY****
TOTAL RUN TIME: 0 days 0 hours 0 minutes 10 seconds 693 msec
