                         Program Version 5.0.0 -  RELEASE  -
|  1> !PBE0 D3BJ RIJCOSX def2-SVP def2/J TightSCF
|  2> *xyz 0 1
|  3> C          0.81607       -2.10149       -2.18655
|  4> H          1.69623       -2.36869       -1.60046
|  5> C          1.10055       -2.46749       -3.59927
|  6> C          0.51624       -0.61363       -2.03937
|  7> H         -0.02007       -2.71285       -1.84084
|  8> H          1.70061       -1.75723       -4.07838
|  9> H          0.29386       -2.35977       -4.25632
| 10> H          1.50132       -3.42848       -3.69491
| 11> H         -0.34841       -0.36504       -2.61858
| 12> H          1.35358       -0.04503       -2.38643
| 13> H          0.33317       -0.38682       -1.00984
| 14> *
| 15> %MaxCore 64000
| 16>
| 17> %pal nprocs 4
| 18> end
| 19>
| 20> %scf
| 21>   MaxIter 150
| 22> end
| 23>
| 24>
| 25>                          ****END OF INPUT****

CARTESIAN COORDINATES (ANGSTROEM)
---------------------------------
  C      0.816070   -2.101490   -2.186550
  H      1.696230   -2.368690   -1.600460
  C      1.100550   -2.467490   -3.599270
  C      0.516240   -0.613630   -2.039370
  H     -0.020070   -2.712850   -1.840840
  H      1.700610   -1.757230   -4.078380
  H      0.293860   -2.359770   -4.256320
  H      1.501320   -3.428480   -3.694910
  H     -0.348410   -0.365040   -2.618580
  H      1.353580   -0.045030   -2.386430
  H      0.333170   -0.386820   -1.009840

 Total Charge           Charge          ....    0
 Multiplicity           Mult            ....    1
 Number of Electrons    NEL             ....   26
 Basis Dimension        Dim             ....   82

ORBITAL ENERGIES
----------------

  NO   OCC          E(Eh)            E(eV)
   0   2.0000     -10.219629      -278.0903
   1   2.0000     -10.210844      -277.8512
   2   2.0000     -10.198277      -277.5092
   3   2.0000      -0.805269       -21.9125
   4   2.0000      -0.701246       -19.0819
   5   2.0000      -0.600744       -16.3471
   6   2.0000      -0.472045       -12.8450
   7   2.0000      -0.457904       -12.4602
   8   2.0000      -0.424483       -11.5508
   9   2.0000      -0.386454       -10.5159
  10   2.0000      -0.352056        -9.5799
  11   2.0000      -0.348145        -9.4735
  12   2.0000      -0.329735        -8.9725
  13   0.0000       0.074961         2.0398
  14   0.0000       0.122675         3.3382
  15   0.0000       0.124776         3.3953
  16   0.0000       0.125227         3.4076
  17   0.0000       0.157357         4.2819

MULLIKEN ATOMIC CHARGES
-----------------------
   0 C :   -0.129300
   1 H :    0.034364
   2 C :   -0.016658
   3 C :   -0.060661
   4 H :    0.036339
   5 H :    0.002948
   6 H :    0.007128
   7 H :    0.027291
   8 H :    0.032121
   9 H :    0.032980
  10 H :    0.033448
Sum of atomic charges:    0.0000000

LOEWDIN ATOMIC CHARGES
----------------------
   0 C :   -0.050834
   1 H :    0.024358
   2 C :   -0.066566
   3 C :   -0.061883
   4 H :    0.024367
   5 H :    0.019374
   6 H :    0.019811
   7 H :    0.020995
   8 H :    0.023064
   9 H :    0.023204
  10 H :    0.024110

  Mayer bond orders larger than 0.100000
B(  0-C ,  1-H ) :   0.9569 B(  0-C ,  2-C ) :   1.0967 B(  0-C ,  3-C ) :   1.0922
B(  0-C ,  4-H ) :   0.9561 B(  2-C ,  5-H ) :   0.9667 B(  2-C ,  6-H ) :   0.9651
B(  2-C ,  7-H ) :   0.9709 B(  3-C ,  8-H ) :   0.9770 B(  3-C ,  9-H ) :   0.9740
B(  3-C , 10-H ) :   0.9718

Dispersion correction           -0.005026992
FINAL SINGLE POINT ENERGY      -118.891807461478

DIPOLE MOMENT
-------------
                                X             Y             Z
Electronic contribution:     -0.01881      -0.29643       0.45842
Nuclear contribution   :      0.01737       0.30387      -0.47422
                        -----------------------------------------
Total Dipole Moment    :     -0.00144       0.00745      -0.01580
                        -----------------------------------------
Magnitude (a.u.)       :      0.01752
Magnitude (Debye)      :      0.04454

Rotational constants in cm-1:     1.006891     0.295208     0.258491
Rotational constants in MHz : 30185.831813  8850.104914  7749.351732

                             ****ORCA TERMINATED NORMALLY****
TOTAL RUN TIME: 0 days 0 hours 0 minutes 9 seconds 135 msec
