                         Program Version 5.0.0 -  RELEASE  -
|  1> !PBE0 D3BJ RIJCOSX def2-SVP def2/J TightSCF
|  2> *xyz 0 1
|  3> C         -0.10608        1.76991       -4.08984
|  4> C         -0.25875        1.00432       -5.40983
|  5> C          0.39596       -0.37070       -5.33994
|  6> H          0.23915        1.56939       -6.20125
|  7> H         -1.30936        0.88869       -5.68245
|  8> O         -0.32633       -1.39040       -5.49128
|  9> F          1.61941       -0.40073       -5.03683
| 10> H         -0.57627        2.72718       -4.17630
| 11> H          0.93321        1.90140       -3.87192
| 12> H         -0.56868        1.21534       -3.30031
| 13> *
| 14> %MaxCore 64000
| 15>
| 16> %pal nprocs 4
| 17> end
| 18>
| 19> %scf
| 20>   MaxIter 150
| 21> end
| 22>
| 23>
| 24>                          ****END OF INPUT****

CARTESIAN COORDINATES (ANGSTROEM)
---------------------------------
  C     -0.106080    1.769910   -4.089840
  C     -0.258750    1.004320   -5.409830
  C      0.395960   -0.370700   -5.339940
  H      0.239150    1.569390   -6.201250
  H     -1.309360    0.888690   -5.682450
  O     -0.326330   -1.390400   -5.491280
  F      1.619410   -0.400730   -5.036830
  H     -0.576270    2.727180   -4.176300
  H      0.933210    1.901400   -3.871920
  H     -0.568680    1.215340   -3.300310

 Total Charge           Charge          ....    0
 Multiplicity           Mult            ....    1
 Number of Electrons    NEL             ....   40
 Basis Dimension        Dim             ....   95

ORBITAL ENERGIES
----------------

  NO   OCC          E(Eh)            E(eV)
   0   2.0000     -24.838296      -675.8844
   1   2.0000     -19.210775      -522.7518
   2   2.0000     -10.401618      -283.0424
   3   2.0000     -10.261214      -279.2218
   4   2.0000     -10.242260      -278.7061
   5   2.0000      -1.325892       -36.0794
   6   2.0000      -1.041303       -28.3353
   7   2.0000      -0.820420       -22.3248
   8   2.0000      -0.698099       -18.9962
   9   2.0000      -0.653664       -17.7871
  10   2.0000      -0.561513       -15.2795
  11   2.0000      -0.549417       -14.9504
  12   2.0000      -0.510417       -13.8892
  13   2.0000      -0.477175       -12.9846
  14   2.0000      -0.445991       -12.1360
  15   2.0000      -0.413801       -11.2601
  16   2.0000      -0.393404       -10.7051
  17   2.0000      -0.388429       -10.5697
  18   2.0000      -0.357694        -9.7334
  19   2.0000      -0.296034        -8.0555
  20   0.0000      -0.014675        -0.3993
  21   0.0000       0.066866         1.8195
  22   0.0000       0.112426         3.0593
  23   0.0000       0.119671         3.2564
  24   0.0000       0.141078         3.8389

MULLIKEN ATOMIC CHARGES
-----------------------
   0 C :   -0.079773
   1 C :   -0.131997
   2 C :    0.276493
   3 H :    0.067528
   4 H :    0.075932
   5 O :   -0.275367
   6 F :   -0.095819
   7 H :    0.053839
   8 H :    0.052206
   9 H :    0.056958
Sum of atomic charges:   -0.0000000

LOEWDIN ATOMIC CHARGES
----------------------
   0 C :   -0.053769
   1 C :   -0.076463
   2 C :    0.110272
   3 H :    0.044046
   4 H :    0.048109
   5 O :   -0.200082
   6 F :    0.033527
   7 H :    0.033843
   8 H :    0.028722
   9 H :    0.031795

  Mayer bond orders larger than 0.100000
B(  0-C ,  1-C ) :   1.0656 B(  0-C ,  7-H ) :   0.9700 B(  0-C ,  8-H ) :   0.9726
B(  0-C ,  9-H ) :   0.9761 B(  1-C ,  2-C ) :   1.0060 B(  1-C ,  3-H ) :   0.9296
B(  1-C ,  4-H ) :   0.9500 B(  2-C ,  5-O ) :   2.0674 B(  2-C ,  6-F ) :   1.1645

Dispersion correction           -0.005153860
FINAL SINGLE POINT ENERGY      -291.863919982630

DIPOLE MOMENT
-------------
                                X             Y             Z
Electronic contribution:      4.08687      -6.58844      -1.81276
Nuclear contribution   :     -3.93139       7.77287       1.92635
                        -----------------------------------------
Total Dipole Moment    :      0.15548       1.18444       0.11359
                        -----------------------------------------
Magnitude (a.u.)       :      1.19999
Magnitude (Debye)      :      3.05012

Rotational constants in cm-1:     0.286068     0.133630     0.103472
Rotational constants in MHz :  8576.109806  4006.118234  3102.010802

                             ****ORCA TERMINATED NORMALLY****
TOTAL RUN TIME: 0 days 0 hours 0 minutes 10 seconds 324 msec
