                         Program Version 5.0.0 -  RELEASE  -
|  1> !PBE0 D3BJ RIJCOSX def2-TZVP def2/J TightSCF xyzfile
|  2>
|  3> *xyzfile 0 1 D1.xyz
|  4>
|  5> %MaxCore 64000
|  6>
|  7> %pal nprocs 18
|  8> end
|  9>
| 10> %scf
| 11>   MaxIter 150
| 12> end
| 13>
| 14>
| 15>                          ****END OF INPUT****

CARTESIAN COORDINATES (ANGSTROEM)
---------------------------------
  C      0.816067   -2.101491   -2.186546
  H      1.696232   -2.368691   -1.600457
  C      1.100552   -2.467492   -3.599269
  C      0.516243   -0.613634   -2.039373
  H     -0.020066   -2.712849   -1.840844
  C     -0.868621   -0.193925   -2.546303
  C     -0.984801    1.284739   -2.928686
  H     -0.764939    1.904116   -2.051568
  H     -2.032613    1.478953   -3.178952
  C     -0.106085    1.769914   -4.089836
  H     -0.347744    2.822196   -4.262942
  H      0.949683    1.745875   -3.808781
  C     -0.258747    1.004323   -5.409829
  C      0.395958   -0.370696   -5.339939
  H      0.239150    1.569393   -6.201253
  H     -1.309360    0.888694   -5.682455
  H      1.700606   -1.757225   -4.078378
  H      0.293855   -2.359766   -4.256324
  H      1.501324   -3.428479   -3.694915
  F     -0.326329   -1.390398   -5.491279
  O      1.619412   -0.400726   -5.036827
  H     -1.607271   -0.412651   -1.768955
  H     -1.157234   -0.796164   -3.409254
  H      1.299044   -0.056805   -2.558982
  H      0.612393   -0.365579   -0.979171

 Total Charge           Charge          ....    0
 Multiplicity           Mult            ....    1
 Number of Electrons    NEL             ....   80
 Basis Dimension        Dim             ....  400

ORBITAL ENERGIES
----------------

  NO   OCC          E(Eh)            E(eV)
   0   2.0000     -24.849021      -676.1762
   1   2.0000     -19.216920      -522.9190
   2   2.0000     -10.406571      -283.1772
   3   2.0000     -10.255817      -279.0750
   4   2.0000     -10.236148      -278.5398
   5   2.0000     -10.224262      -278.2163
   6   2.0000     -10.216591      -278.0076
   7   2.0000     -10.202796      -277.6322
   8   2.0000     -10.193190      -277.3708
   9   2.0000     -10.142399      -275.9887
  10   2.0000      -1.363695       -37.1080
  11   2.0000      -1.073892       -29.2221
  12   2.0000      -0.850011       -23.1300
  13   2.0000      -0.817005       -22.2318
  14   2.0000      -0.768306       -20.9067
  15   2.0000      -0.729022       -19.8377
  16   2.0000      -0.686980       -18.6937
  17   2.0000      -0.657865       -17.9014
  18   2.0000      -0.618238       -16.8231
  19   2.0000      -0.576644       -15.6913
  20   2.0000      -0.573146       -15.5961
  21   2.0000      -0.558973       -15.2104
  22   2.0000      -0.542912       -14.7734
  23   2.0000      -0.492786       -13.4094
  24   2.0000      -0.472761       -12.8645
  25   2.0000      -0.457427       -12.4472
  26   2.0000      -0.452299       -12.3077
  27   2.0000      -0.438705       -11.9378
  28   2.0000      -0.425228       -11.5710
  29   2.0000      -0.413541       -11.2530
  30   2.0000      -0.395156       -10.7527
  31   2.0000      -0.379979       -10.3397
  32   2.0000      -0.375056       -10.2058
  33   2.0000      -0.362730        -9.8704
  34   2.0000      -0.349251        -9.5036
  35   2.0000      -0.337466        -9.1829
  36   2.0000      -0.328438        -8.9372
  37   2.0000      -0.317403        -8.6370
  38   2.0000      -0.308366        -8.3911
  39   2.0000      -0.275986        -7.5099
  40   0.0000      -0.037185        -1.0119
  41   0.0000       0.038047         1.0353
  42   0.0000       0.064979         1.7682
  43   0.0000       0.070502         1.9185
  44   0.0000       0.072112         1.9623

MULLIKEN ATOMIC CHARGES
-----------------------
   0 C :   -0.123475
   1 H :    0.088591
   2 C :   -0.433369
   3 C :   -0.225384
   4 H :    0.074231
   5 C :   -0.216961
   6 C :   -0.199123
   7 H :    0.105096
   8 H :    0.102346
   9 C :   -0.229784
  10 H :    0.118911
  11 H :    0.141758
  12 C :   -0.170362
  13 C :    0.324141
  14 H :    0.141835
  15 H :    0.112676
  16 H :    0.163900
  17 H :    0.105234
  18 H :    0.103974
  19 F :   -0.090842
  20 O :   -0.334045
  21 H :    0.108187
  22 H :    0.109279
  23 H :    0.125082
  24 H :    0.098104
Sum of atomic charges:    0.0000000

LOEWDIN ATOMIC CHARGES
----------------------
   0 C :   -0.305685
   1 H :    0.135517
   2 C :   -0.339711
   3 C :   -0.270370
   4 H :    0.132208
   5 C :   -0.269407
   6 C :   -0.270788
   7 H :    0.142051
   8 H :    0.137865
   9 C :   -0.260539
  10 H :    0.142910
  11 H :    0.146173
  12 C :   -0.231549
  13 C :   -0.492049
  14 H :    0.161609
  15 H :    0.144565
  16 H :    0.116471
  17 H :    0.106214
  18 H :    0.105937
  19 F :    0.331871
  20 O :    0.083857
  21 H :    0.139912
  22 H :    0.138307
  23 H :    0.140547
  24 H :    0.134087

  Mayer bond orders larger than 0.100000
B(  0-C ,  1-H ) :   0.9515 B(  0-C ,  2-C ) :   1.0136 B(  0-C ,  3-C ) :   1.0112
B(  0-C ,  4-H ) :   0.9581 B(  2-C , 16-H ) :   0.9490 B(  2-C , 17-H ) :   0.9826
B(  2-C , 18-H ) :   0.9582 B(  3-C ,  5-C ) :   0.9629 B(  3-C , 23-H ) :   0.9777
B(  3-C , 24-H ) :   0.9498 B(  5-C ,  6-C ) :   1.0106 B(  5-C , 21-H ) :   0.9507
B(  5-C , 22-H ) :   0.9656 B(  6-C ,  7-H ) :   0.9530 B(  6-C ,  8-H ) :   0.9584
B(  6-C ,  9-C ) :   1.0154 B(  9-C , 10-H ) :   0.9506 B(  9-C , 11-H ) :   0.9643
B(  9-C , 12-C ) :   0.9716 B( 12-C , 13-C ) :   1.0237 B( 12-C , 14-H ) :   0.9285
B( 12-C , 15-H ) :   0.9442 B( 13-C , 19-F ) :   1.1481 B( 13-C , 20-O ) :   1.9885

Dispersion correction           -0.022552047
FINAL SINGLE POINT ENERGY      -488.549869563965

DIPOLE MOMENT
-------------
                                X             Y             Z
Electronic contribution:      0.34851      -1.97826     -10.57626
Nuclear contribution   :     -1.21560       2.80077      10.24180
                        -----------------------------------------
Total Dipole Moment    :     -0.86709       0.82251      -0.33446
                        -----------------------------------------
Magnitude (a.u.)       :      1.24106
Magnitude (Debye)      :      3.15452

Rotational constants in cm-1:     0.051255     0.042531     0.028894
Rotational constants in MHz :  1536.587743  1275.050721   866.218876

                             ****ORCA TERMINATED NORMALLY****
TOTAL RUN TIME: 0 days 0 hours 0 minutes 27 seconds 716 msec
