                         Program Version 5.0.0 -  RELEASE  -
|  1> !PBE0 D3BJ RIJCOSX def2-TZVP def2/J TightSCF xyzfile
|  2>
|  3> *xyzfile 0 1 D2.xyz
|  4>
|  5> %MaxCore 64000
|  6>
|  7> %pal nprocs 18
|  8> end
|  9>
| 10> %scf
| 11>   MaxIter 150
| 12> end
| 13>
| 14>
| 15>                          ****END OF INPUT****

CARTESIAN COORDINATES (ANGSTROEM)
---------------------------------
  C      0.816067   -2.101491   -2.186546
  H      1.696232   -2.368691   -1.600457
  C      1.100552   -2.467492   -3.599269
  C      0.516243   -0.613634   -2.039373
  H     -0.020066   -2.712849   -1.840844
  C     -0.868621   -0.193925   -2.546303
  C     -0.984801    1.284739   -2.928686
  H     -0.764939    1.904116   -2.051568
  H     -2.032613    1.478953   -3.178952
  C     -0.106085    1.769914   -4.089836
  H     -0.347744    2.822196   -4.262942
  H      0.949683    1.745875   -3.808781
  C     -0.258747    1.004323   -5.409829
  C      0.395958   -0.370696   -5.339939
  H      0.239150    1.569393   -6.201253
  H     -1.309360    0.888694   -5.682455
  H      1.700606   -1.757225   -4.078378
  H      0.293855   -2.359766   -4.256324
  H      1.501324   -3.428479   -3.694915
  O     -0.326329   -1.390398   -5.491279
  F      1.619412   -0.400726   -5.036827
  H     -1.607271   -0.412651   -1.768955
  H     -1.157234   -0.796164   -3.409254
  H      1.299044   -0.056805   -2.558982
  H      0.612393   -0.365579   -0.979171

 Total Charge           Charge          ....    0
 Multiplicity           Mult            ....    1
 Number of Electrons    NEL             ....   80
 Basis Dimension        Dim             ....  400

ORBITAL ENERGIES
----------------

  NO   OCC          E(Eh)            E(eV)
   0   2.0000     -24.849019      -676.1762
   1   2.0000     -19.216789      -522.9154
   2   2.0000     -10.406064      -283.1634
   3   2.0000     -10.255698      -279.0717
   4   2.0000     -10.240145      -278.6485
   5   2.0000     -10.224307      -278.2175
   6   2.0000     -10.211271      -277.8628
   7   2.0000     -10.206730      -277.7392
   8   2.0000     -10.194249      -277.3996
   9   2.0000     -10.143591      -276.0211
  10   2.0000      -1.363378       -37.0994
  11   2.0000      -1.073650       -29.2155
  12   2.0000      -0.852522       -23.1983
  13   2.0000      -0.818738       -22.2790
  14   2.0000      -0.769010       -20.9258
  15   2.0000      -0.728175       -19.8146
  16   2.0000      -0.686350       -18.6765
  17   2.0000      -0.658707       -17.9243
  18   2.0000      -0.619216       -16.8497
  19   2.0000      -0.580400       -15.7935
  20   2.0000      -0.577342       -15.7103
  21   2.0000      -0.562456       -15.3052
  22   2.0000      -0.529355       -14.4045
  23   2.0000      -0.493792       -13.4368
  24   2.0000      -0.472155       -12.8480
  25   2.0000      -0.458394       -12.4735
  26   2.0000      -0.453725       -12.3465
  27   2.0000      -0.443666       -12.0728
  28   2.0000      -0.428812       -11.6686
  29   2.0000      -0.405452       -11.0329
  30   2.0000      -0.397723       -10.8226
  31   2.0000      -0.389446       -10.5974
  32   2.0000      -0.380332       -10.3494
  33   2.0000      -0.362131        -9.8541
  34   2.0000      -0.343772        -9.3545
  35   2.0000      -0.340589        -9.2679
  36   2.0000      -0.328219        -8.9313
  37   2.0000      -0.313399        -8.5280
  38   2.0000      -0.311797        -8.4844
  39   2.0000      -0.276735        -7.5303
  40   0.0000      -0.035499        -0.9660
  41   0.0000       0.035806         0.9743
  42   0.0000       0.064303         1.7498
  43   0.0000       0.066459         1.8084
  44   0.0000       0.073997         2.0136

MULLIKEN ATOMIC CHARGES
-----------------------
   0 C :   -0.117211
   1 H :    0.086146
   2 C :   -0.427618
   3 C :   -0.227814
   4 H :    0.079425
   5 C :   -0.233106
   6 C :   -0.189408
   7 H :    0.102812
   8 H :    0.104456
   9 C :   -0.249659
  10 H :    0.123414
  11 H :    0.130750
  12 C :   -0.163866
  13 C :    0.323902
  14 H :    0.134268
  15 H :    0.128980
  16 H :    0.098186
  17 H :    0.166898
  18 H :    0.103577
  19 O :   -0.323889
  20 F :   -0.100078
  21 H :    0.103923
  22 H :    0.144808
  23 H :    0.099915
  24 H :    0.101189
Sum of atomic charges:    0.0000000

LOEWDIN ATOMIC CHARGES
----------------------
   0 C :   -0.305425
   1 H :    0.133529
   2 C :   -0.337659
   3 C :   -0.271812
   4 H :    0.135032
   5 C :   -0.270452
   6 C :   -0.270320
   7 H :    0.140715
   8 H :    0.139563
   9 C :   -0.268026
  10 H :    0.143702
  11 H :    0.139735
  12 C :   -0.226517
  13 C :   -0.491664
  14 H :    0.155063
  15 H :    0.156888
  16 H :    0.109243
  17 H :    0.114514
  18 H :    0.106696
  19 O :    0.078128
  20 F :    0.335353
  21 H :    0.138887
  22 H :    0.147012
  23 H :    0.132930
  24 H :    0.134882

  Mayer bond orders larger than 0.100000
B(  0-C ,  1-H ) :   0.9521 B(  0-C ,  2-C ) :   1.0096 B(  0-C ,  3-C ) :   1.0137
B(  0-C ,  4-H ) :   0.9585 B(  2-C , 16-H ) :   0.9770 B(  2-C , 17-H ) :   0.9588
B(  2-C , 18-H ) :   0.9580 B(  3-C ,  5-C ) :   0.9614 B(  3-C , 23-H ) :   0.9806
B(  3-C , 24-H ) :   0.9503 B(  5-C ,  6-C ) :   1.0009 B(  5-C , 21-H ) :   0.9491
B(  5-C , 22-H ) :   0.9655 B(  6-C ,  7-H ) :   0.9542 B(  6-C ,  8-H ) :   0.9568
B(  6-C ,  9-C ) :   1.0148 B(  9-C , 10-H ) :   0.9528 B(  9-C , 11-H ) :   0.9720
B(  9-C , 12-C ) :   0.9525 B( 12-C , 13-C ) :   1.0339 B( 12-C , 14-H ) :   0.9287
B( 12-C , 15-H ) :   0.9529 B( 13-C , 19-O ) :   2.0145 B( 13-C , 20-F ) :   1.1356

Dispersion correction           -0.022514524
FINAL SINGLE POINT ENERGY      -488.549948516652

DIPOLE MOMENT
-------------
                                X             Y             Z
Electronic contribution:      3.59214      -0.32007      -9.81360
Nuclear contribution   :     -3.57245       1.60200       9.69133
                        -----------------------------------------
Total Dipole Moment    :      0.01970       1.28193      -0.12227
                        -----------------------------------------
Magnitude (a.u.)       :      1.28790
Magnitude (Debye)      :      3.27358

Rotational constants in cm-1:     0.051520     0.042563     0.028962
Rotational constants in MHz :  1544.537298  1275.996546   868.258224

                             ****ORCA TERMINATED NORMALLY****
TOTAL RUN TIME: 0 days 0 hours 0 minutes 28 seconds 940 msec
