                         Program Version 5.0.0 -  RELEASE  -
|  1> !M062X D3Zero RIJCOSX def2-SVPD def2/J TightSCF
|  2> *xyz -1 1
|  3> C         -1.78916       -0.63923        4.55750
|  4> C         -2.79070       -0.78527        5.70281
|  5> H         -2.86731       -1.83565        6.00167
|  6> H         -3.77455       -0.48658        5.33481
|  7> C         -2.45380        0.05510        6.94145
|  8> C         -2.07842        1.48042        6.56410
|  9> H         -1.62558       -0.38216        7.49891
| 10> H         -3.32527        0.08775        7.59917
| 11> O         -0.90125        1.85816        6.82810
| 12> O         -2.93658        2.17731        5.96415
| 13> H         -2.09421       -1.25377        3.73641
| 14> H         -0.81933       -0.94475        4.89064
| 15> H         -1.75281        0.38306        4.24366
| 16> *
| 17> %MaxCore 64000
| 18>
| 19> %pal nprocs 4
| 20> end
| 21>
| 22> %scf
| 23>   MaxIter 150
| 24> end
| 25>
| 26>
| 27>                          ****END OF INPUT****

CARTESIAN COORDINATES (ANGSTROEM)
---------------------------------
  C     -1.789160   -0.639230    4.557500
  C     -2.790700   -0.785270    5.702810
  H     -2.867310   -1.835650    6.001670
  H     -3.774550   -0.486580    5.334810
  C     -2.453800    0.055100    6.941450
  C     -2.078420    1.480420    6.564100
  H     -1.625580   -0.382160    7.498910
  H     -3.325270    0.087750    7.599170
  O     -0.901250    1.858160    6.828100
  O     -2.936580    2.177310    5.964150
  H     -2.094210   -1.253770    3.736410
  H     -0.819330   -0.944750    4.890640
  H     -1.752810    0.383060    4.243660

 Total Charge           Charge          ....   -1
 Multiplicity           Mult            ....    1
 Number of Electrons    NEL             ....   48
 Basis Dimension        Dim             ....  182

ORBITAL ENERGIES
----------------

  NO   OCC          E(Eh)            E(eV)
   0   2.0000     -19.375483      -527.2337
   1   2.0000     -19.374381      -527.2037
   2   2.0000     -10.440739      -284.1070
   3   2.0000     -10.403529      -283.0944
   4   2.0000     -10.392777      -282.8018
   5   2.0000     -10.376982      -282.3720
   6   2.0000      -0.929867       -25.3030
   7   2.0000      -0.828935       -22.5565
   8   2.0000      -0.727986       -19.8095
   9   2.0000      -0.626584       -17.0502
  10   2.0000      -0.524221       -14.2648
  11   2.0000      -0.401529       -10.9262
  12   2.0000      -0.374991       -10.2040
  13   2.0000      -0.362830        -9.8731
  14   2.0000      -0.323567        -8.8047
  15   2.0000      -0.309928        -8.4336
  16   2.0000      -0.280292        -7.6271
  17   2.0000      -0.274577        -7.4716
  18   2.0000      -0.262853        -7.1526
  19   2.0000      -0.237575        -6.4647
  20   2.0000      -0.229936        -6.2569
  21   2.0000      -0.113941        -3.1005
  22   2.0000      -0.113184        -3.0799
  23   2.0000      -0.104405        -2.8410
  24   0.0000       0.165151         4.4940
  25   0.0000       0.187529         5.1029
  26   0.0000       0.204234         5.5575
  27   0.0000       0.216382         5.8881
  28   0.0000       0.241925         6.5831

MULLIKEN ATOMIC CHARGES
-----------------------
   0 C :    0.642590
   1 C :   -0.417090
   2 H :   -0.200759
   3 H :   -0.018252
   4 C :    0.237930
   5 C :    0.509825
   6 H :   -0.054439
   7 H :   -0.047582
   8 O :   -0.742095
   9 O :   -0.781495
  10 H :   -0.091749
  11 H :   -0.023049
  12 H :   -0.013835
Sum of atomic charges:   -1.0000000

LOEWDIN ATOMIC CHARGES
----------------------
   0 C :    0.116062
   1 C :   -0.087658
   2 H :   -0.001840
   3 H :    0.012006
   4 C :   -0.002443
   5 C :   -0.301462
   6 H :    0.004331
   7 H :    0.009872
   8 O :   -0.340739
   9 O :   -0.333417
  10 H :   -0.036814
  11 H :   -0.019708
  12 H :   -0.018191

  Mayer bond orders larger than 0.100000
B(  0-C ,  1-C ) :   1.3348 B(  0-C , 10-H ) :   0.7626 B(  0-C , 11-H ) :   0.7888
B(  0-C , 12-H ) :   0.8301 B(  1-C ,  2-H ) :   1.0012 B(  1-C ,  3-H ) :   0.9151
B(  1-C ,  4-C ) :   1.1759 B(  1-C ,  6-H ) :   0.1453 B(  1-C ,  7-H ) :   0.1213
B(  1-C , 10-H ) :   0.2166 B(  1-C , 11-H ) :   0.1998 B(  1-C , 12-H ) :   0.2216
B(  3-H ,  4-C ) :   0.1063 B(  4-C ,  5-C ) :   0.9794 B(  4-C ,  6-H ) :   0.8728
B(  4-C ,  7-H ) :   0.8385 B(  5-C ,  6-H ) :   0.2157 B(  5-C ,  7-H ) :   0.1144
B(  5-C ,  8-O ) :   1.3757 B(  5-C ,  9-O ) :   1.4168

Dispersion correction           -0.000189183
FINAL SINGLE POINT ENERGY      -306.799553747013

DIPOLE MOMENT
-------------
                                X             Y             Z
Electronic contribution:      0.62458       6.37606       2.68354
Nuclear contribution   :     -1.12936      -8.75108      -3.05770
                        -----------------------------------------
Total Dipole Moment    :     -0.50479      -2.37502      -0.37416
                        -----------------------------------------
Magnitude (a.u.)       :      2.45673
Magnitude (Debye)      :      6.24452

Rotational constants in cm-1:     0.189092     0.083831     0.082013
Rotational constants in MHz :  5668.846461  2513.177001  2458.689996

                             ****ORCA TERMINATED NORMALLY****
TOTAL RUN TIME: 0 days 0 hours 0 minutes 19 seconds 689 msec
