                         Program Version 5.0.0 -  RELEASE  -
|  1> !M062X D3Zero RIJCOSX def2-SVPD def2/J TightSCF
|  2> *xyz 1 1
|  3> C         -0.69912        3.48945        3.75516
|  4> H         -0.96672        4.34901        3.14049
|  5> N         -1.08067        3.79296        5.15686
|  6> C          0.77696        3.13839        3.61741
|  7> H         -1.33146        2.65651        3.44632
|  8> H          1.37140        3.88834        4.14974
|  9> H          1.04693        3.23206        2.56133
| 10> C          1.11892        1.73117        4.11516
| 11> H         -0.87449        4.76274        5.42734
| 12> H         -0.68079        3.13476        5.83900
| 13> H         -2.05755        3.53169        5.34620
| 14> H          0.52974        1.01235        3.58499
| 15> H          0.90870        1.66226        5.16204
| 16> H          2.15725        1.53562        3.94624
| 17> *
| 18> %MaxCore 64000
| 19>
| 20> %pal nprocs 4
| 21> end
| 22>
| 23> %scf
| 24>   MaxIter 150
| 25> end
| 26>
| 27>
| 28>                          ****END OF INPUT****

CARTESIAN COORDINATES (ANGSTROEM)
---------------------------------
  C     -0.699120    3.489450    3.755160
  H     -0.966720    4.349010    3.140490
  N     -1.080670    3.792960    5.156860
  C      0.776960    3.138390    3.617410
  H     -1.331460    2.656510    3.446320
  H      1.371400    3.888340    4.149740
  H      1.046930    3.232060    2.561330
  C      1.118920    1.731170    4.115160
  H     -0.874490    4.762740    5.427340
  H     -0.680790    3.134760    5.839000
  H     -2.057550    3.531690    5.346200
  H      0.529740    1.012350    3.584990
  H      0.908700    1.662260    5.162040
  H      2.157250    1.535620    3.946240

 Total Charge           Charge          ....    1
 Multiplicity           Mult            ....    1
 Number of Electrons    NEL             ....   34
 Basis Dimension        Dim             ....  160

ORBITAL ENERGIES
----------------

  NO   OCC          E(Eh)            E(eV)
   0   2.0000     -15.092150      -410.6783
   1   2.0000     -10.798920      -293.8536
   2   2.0000     -10.728217      -291.9296
   3   2.0000     -10.694781      -291.0198
   4   2.0000      -1.310217       -35.6528
   5   2.0000      -1.063368       -28.9357
   6   2.0000      -0.968040       -26.3417
   7   2.0000      -0.888199       -24.1691
   8   2.0000      -0.863801       -23.5052
   9   2.0000      -0.834210       -22.7000
  10   2.0000      -0.762666       -20.7532
  11   2.0000      -0.698091       -18.9960
  12   2.0000      -0.673886       -18.3374
  13   2.0000      -0.649439       -17.6721
  14   2.0000      -0.585863       -15.9422
  15   2.0000      -0.579609       -15.7720
  16   2.0000      -0.574867       -15.6429
  17   0.0000      -0.165598        -4.5062
  18   0.0000      -0.107797        -2.9333
  19   0.0000      -0.107720        -2.9312
  20   0.0000      -0.091571        -2.4918
  21   0.0000      -0.068201        -1.8559

MULLIKEN ATOMIC CHARGES
-----------------------
   0 C :    0.596974
   1 H :   -0.077126
   2 N :   -0.974953
   3 C :   -0.306246
   4 H :    0.011063
   5 H :   -0.043418
   6 H :    0.009472
   7 C :    0.699309
   8 H :    0.457132
   9 H :    0.361388
  10 H :    0.399834
  11 H :    0.036898
  12 H :   -0.164547
  13 H :   -0.005779
Sum of atomic charges:    1.0000000

LOEWDIN ATOMIC CHARGES
----------------------
   0 C :    0.091064
   1 H :    0.053171
   2 N :    0.321439
   3 C :   -0.046010
   4 H :    0.052286
   5 H :    0.034331
   6 H :    0.045400
   7 C :    0.151575
   8 H :    0.116136
   9 H :    0.092575
  10 H :    0.108659
  11 H :   -0.001678
  12 H :   -0.024609
  13 H :    0.005661

  Mayer bond orders larger than 0.100000
B(  0-C ,  1-H ) :   0.9206 B(  0-C ,  2-N ) :   0.6677 B(  0-C ,  3-C ) :   1.1761
B(  0-C ,  4-H ) :   0.8973 B(  1-H ,  2-N ) :   0.1207 B(  2-N ,  8-H ) :   0.6303
B(  2-N ,  9-H ) :   0.7467 B(  2-N , 10-H ) :   0.6831 B(  3-C ,  5-H ) :   0.9605
B(  3-C ,  6-H ) :   0.9414 B(  3-C ,  7-C ) :   1.2750 B(  3-C , 11-H ) :   0.1677
B(  3-C , 12-H ) :   0.1764 B(  3-C , 13-H ) :   0.1994 B(  7-C , 11-H ) :   0.7960
B(  7-C , 12-H ) :   0.8339 B(  7-C , 13-H ) :   0.8195

Dispersion correction           -0.000156384
FINAL SINGLE POINT ENERGY      -174.621730964704

DIPOLE MOMENT
-------------
                                X             Y             Z
Electronic contribution:     -1.66809       1.67004       0.72284
Nuclear contribution   :      0.19356      -0.71099       0.46987
                        -----------------------------------------
Total Dipole Moment    :     -1.47452       0.95904       1.19270
                        -----------------------------------------
Magnitude (a.u.)       :      2.12521
Magnitude (Debye)      :      5.40186

Rotational constants in cm-1:     0.465349     0.150671     0.132807
Rotational constants in MHz : 13950.800968  4516.999758  3981.442177

                             ****ORCA TERMINATED NORMALLY****
TOTAL RUN TIME: 0 days 0 hours 0 minutes 15 seconds 592 msec
