                         Program Version 5.0.0 -  RELEASE  -
|  1> !M062X D3Zero RIJCOSX def2-SVPD def2/J TightSCF xyzfile
|  2>
|  3> *xyzfile 0 1 B.xyz
|  4>
|  5> %MaxCore 64000
|  6>
|  7> %pal nprocs 4
|  8> end
|  9>
| 10> %scf
| 11>   MaxIter 150
| 12> end
| 13>
| 14>
| 15>                          ****END OF INPUT****

CARTESIAN COORDINATES (ANGSTROEM)
---------------------------------
  C     -0.699123    3.489451    3.755163
  H     -0.966716    4.349013    3.140491
  N     -1.080669    3.792957    5.156857
  C      0.776956    3.138391    3.617408
  H     -1.331455    2.656510    3.446323
  H      1.371398    3.888342    4.149744
  H      1.046926    3.232057    2.561331
  C      1.118917    1.731170    4.115155
  H      2.200573    1.654226    4.254882
  C      0.659466    0.635182    3.153306
  H      0.677024    1.576674    5.103150
  H      1.312288    0.638870    2.274207
  H     -0.339563    0.868049    2.772876
  C      0.639957   -0.771175    3.755619
  C     -0.341821   -0.965537    4.915046
  H      1.648266   -1.028665    4.097015
  H      0.398568   -1.482386    2.958453
  H     -0.279892   -2.005646    5.252547
  C     -1.789164   -0.639231    4.557496
  H     -0.032380   -0.352918    5.765118
  H     -2.107151   -1.270102    3.719619
  H     -1.856352    0.391636    4.197604
  C     -2.790700   -0.785275    5.702812
  H     -2.867308   -1.835651    6.001675
  H     -3.774554   -0.486577    5.334807
  C     -2.453797    0.055101    6.941445
  C     -2.078419    1.480421    6.564098
  H     -1.625584   -0.382163    7.498914
  H     -3.325274    0.087746    7.599175
  H     -0.874488    4.762737    5.427344
  H     -0.680793    3.134762    5.839000
  H     -2.057550    3.531691    5.346197
  O     -0.901252    1.858156    6.828104
  O     -2.936582    2.177309    5.964151

 Total Charge           Charge          ....    0
 Multiplicity           Mult            ....    1
 Number of Electrons    NEL             ....  104
 Basis Dimension        Dim             ....  434

ORBITAL ENERGIES
----------------

  NO   OCC          E(Eh)            E(eV)
   0   2.0000     -19.575397      -532.6736
   1   2.0000     -19.573547      -532.6233
   2   2.0000     -14.842436      -403.8832
   3   2.0000     -10.631400      -289.2951
   4   2.0000     -10.622439      -289.0513
   5   2.0000     -10.574143      -287.7371
   6   2.0000     -10.549711      -287.0722
   7   2.0000     -10.546473      -286.9841
   8   2.0000     -10.539806      -286.8027
   9   2.0000     -10.530835      -286.5586
  10   2.0000     -10.530536      -286.5504
  11   2.0000     -10.529377      -286.5189
  12   2.0000     -10.522081      -286.3204
  13   2.0000      -1.139339       -31.0030
  14   2.0000      -1.080786       -29.4097
  15   2.0000      -1.032913       -28.1070
  16   2.0000      -0.915276       -24.9059
  17   2.0000      -0.885777       -24.1032
  18   2.0000      -0.855756       -23.2863
  19   2.0000      -0.805925       -21.9303
  20   2.0000      -0.772243       -21.0138
  21   2.0000      -0.730732       -19.8842
  22   2.0000      -0.690230       -18.7821
  23   2.0000      -0.673479       -18.3263
  24   2.0000      -0.653473       -17.7819
  25   2.0000      -0.627816       -17.0837
  26   2.0000      -0.620142       -16.8749
  27   2.0000      -0.572835       -15.5876
  28   2.0000      -0.559705       -15.2304
  29   2.0000      -0.545347       -14.8396
  30   2.0000      -0.544437       -14.8149
  31   2.0000      -0.519849       -14.1458
  32   2.0000      -0.516634       -14.0583
  33   2.0000      -0.501999       -13.6601
  34   2.0000      -0.492842       -13.4109
  35   2.0000      -0.476654       -12.9704
  36   2.0000      -0.472747       -12.8641
  37   2.0000      -0.468998       -12.7621
  38   2.0000      -0.452001       -12.2996
  39   2.0000      -0.447918       -12.1885
  40   2.0000      -0.425839       -11.5877
  41   2.0000      -0.421334       -11.4651
  42   2.0000      -0.414655       -11.2833
  43   2.0000      -0.397815       -10.8251
  44   2.0000      -0.386783       -10.5249
  45   2.0000      -0.382363       -10.4046
  46   2.0000      -0.366958        -9.9854
  47   2.0000      -0.361185        -9.8284
  48   2.0000      -0.355356        -9.6697
  49   2.0000      -0.314824        -8.5668
  50   2.0000      -0.309501        -8.4219
  51   2.0000      -0.303454        -8.2574
  52   0.0000       0.013420         0.3652
  53   0.0000       0.041647         1.1333
  54   0.0000       0.046296         1.2598
  55   0.0000       0.052531         1.4295
  56   0.0000       0.065226         1.7749

MULLIKEN ATOMIC CHARGES
-----------------------
   0 C :    1.149661
   1 H :   -0.221253
   2 N :   -0.817532
   3 C :    0.342608
   4 H :   -0.310843
   5 H :   -0.089448
   6 H :   -0.067208
   7 C :    0.883651
   8 H :   -0.018234
   9 C :    0.051741
  10 H :   -0.855263
  11 H :   -0.296037
  12 H :   -0.148456
  13 C :    0.773549
  14 C :    0.041924
  15 H :   -0.147501
  16 H :    0.029842
  17 H :   -0.333869
  18 C :    0.409270
  19 H :   -0.026928
  20 H :   -0.118448
  21 H :   -0.645334
  22 C :    0.472356
  23 H :   -0.213518
  24 H :    0.062907
  25 C :    0.377499
  26 C :    0.444984
  27 H :    0.137207
  28 H :   -0.183363
  29 H :    0.377871
  30 H :    0.238078
  31 H :    0.295809
  32 O :   -0.818082
  33 O :   -0.777638
Sum of atomic charges:   -0.0000000

LOEWDIN ATOMIC CHARGES
----------------------
   0 C :    0.104137
   1 H :    0.032926
   2 N :    0.320360
   3 C :   -0.010018
   4 H :    0.025179
   5 H :    0.024942
   6 H :    0.028827
   7 C :   -0.005327
   8 H :    0.030981
   9 C :   -0.032052
  10 H :   -0.014773
  11 H :    0.023604
  12 H :   -0.001743
  13 C :   -0.027196
  14 C :   -0.021637
  15 H :    0.023644
  16 H :    0.022398
  17 H :    0.026941
  18 C :   -0.026422
  19 H :   -0.001029
  20 H :    0.027854
  21 H :   -0.007318
  22 C :   -0.016147
  23 H :    0.020316
  24 H :    0.024886
  25 C :    0.040035
  26 C :   -0.180177
  27 H :    0.019844
  28 H :    0.030514
  29 H :    0.096599
  30 H :   -0.051368
  31 H :   -0.014652
  32 O :   -0.261053
  33 O :   -0.253074

  Mayer bond orders larger than 0.100000
B(  0-C ,  1-H ) :   0.7626 B(  0-C ,  2-N ) :   0.5518 B(  0-C ,  3-C ) :   1.1274
B(  0-C ,  4-H ) :   0.6246 B(  0-C ,  6-H ) :   0.1016 B(  0-C ,  7-C ) :   0.3049
B(  0-C , 10-H ) :  -0.2602 B(  0-C , 18-C ) :   0.1338 B(  0-C , 21-H ) :  -0.1070
B(  1-H ,  3-C ) :   0.1207 B(  1-H ,  8-H ) :   0.1037 B(  2-N ,  4-H ) :   0.3223
B(  2-N , 26-C ) :   0.1290 B(  2-N , 29-H ) :   0.7871 B(  2-N , 30-H ) :   0.7796
B(  2-N , 31-H ) :   0.7109 B(  2-N , 32-O ) :   0.1301 B(  3-C ,  4-H ) :   0.1634
B(  3-C ,  5-H ) :   0.7453 B(  3-C ,  6-H ) :   0.8232 B(  3-C ,  7-C ) :   1.1241
B(  3-C , 10-H ) :   0.1643 B(  4-H ,  7-C ) :  -0.1401 B(  4-H , 10-H ) :   0.1249
B(  4-H , 12-H ) :   0.1334 B(  4-H , 21-H ) :   0.2302 B(  5-H ,  6-H ) :  -0.1086
B(  5-H ,  7-C ) :   0.1220 B(  7-C ,  8-H ) :   0.7199 B(  7-C ,  9-C ) :   1.0611
B(  7-C , 10-H ) :   0.2403 B(  7-C , 11-H ) :   0.2085 B(  8-H ,  9-C ) :   0.1775
B(  9-C , 10-H ) :   0.3073 B(  9-C , 11-H ) :   0.9253 B(  9-C , 12-H ) :   0.9051
B(  9-C , 13-C ) :   1.1759 B(  9-C , 14-C ) :   0.1280 B(  9-C , 15-H ) :   0.1118
B(  9-C , 16-H ) :   0.2450 B( 10-H , 12-H ) :   0.1291 B( 10-H , 13-C ) :  -0.1536
B( 10-H , 19-H ) :   0.1772 B( 10-H , 30-H ) :   0.1131 B( 12-H , 21-H ) :   0.1119
B( 13-C , 14-C ) :   1.1300 B( 13-C , 15-H ) :   0.6781 B( 13-C , 16-H ) :   0.6856
B( 14-C , 15-H ) :   0.2868 B( 14-C , 17-H ) :   0.9521 B( 14-C , 18-C ) :   1.1253
B( 14-C , 19-H ) :   0.8860 B( 14-C , 20-H ) :   0.1726 B( 14-C , 21-H ) :   0.2611
B( 15-H , 16-H ) :  -0.1705 B( 17-H , 18-C ) :   0.1468 B( 18-C , 20-H ) :   0.6803
B( 18-C , 21-H ) :   0.6779 B( 18-C , 22-C ) :   1.2402 B( 18-C , 23-H ) :   0.1756
B( 18-C , 24-H ) :   0.2447 B( 18-C , 25-C ) :   0.1086 B( 20-H , 21-H ) :   0.1370
B( 21-H , 22-C ) :   0.1231 B( 22-C , 23-H ) :   0.8200 B( 22-C , 24-H ) :   0.6645
B( 22-C , 25-C ) :   1.1280 B( 22-C , 28-H ) :   0.1516 B( 23-H , 24-H ) :  -0.1866
B( 23-H , 25-C ) :   0.1198 B( 25-C , 26-C ) :   1.1499 B( 25-C , 27-H ) :   0.7782
B( 25-C , 28-H ) :   0.6776 B( 26-C , 27-H ) :   0.1998 B( 26-C , 28-H ) :   0.2851
B( 26-C , 32-O ) :   1.2081 B( 26-C , 33-O ) :   1.1649 B( 30-H , 32-O ) :   0.2066
B( 31-H , 33-O ) :   0.1664 B( 32-O , 33-O ) :   0.1004

Dispersion correction           -0.002087310
FINAL SINGLE POINT ENERGY      -598.251850755299

DIPOLE MOMENT
-------------
                                X             Y             Z
Electronic contribution:     -4.64706       4.83909       6.67813
Nuclear contribution   :      5.60885      -3.40606      -8.06960
                        -----------------------------------------
Total Dipole Moment    :      0.96179       1.43303      -1.39147
                        -----------------------------------------
Magnitude (a.u.)       :      2.21694
Magnitude (Debye)      :      5.63500

Rotational constants in cm-1:     0.028465     0.023505     0.015110
Rotational constants in MHz :   853.363165   704.655786   452.976312

                             ****ORCA TERMINATED NORMALLY****
TOTAL RUN TIME: 0 days 0 hours 3 minutes 18 seconds 679 msec
