                         Program Version 5.0.0 -  RELEASE  -
|  1> !M062X D3Zero RIJCOSX def2-SVPD def2/J TightSCF
|  2> *xyz 0 1
|  3> C         -1.78916       -0.63923        4.55750
|  4> C         -2.79070       -0.78527        5.70281
|  5> H         -2.86731       -1.83565        6.00167
|  6> H         -3.77455       -0.48658        5.33481
|  7> C         -2.45380        0.05510        6.94145
|  8> C         -2.07842        1.48042        6.56410
|  9> H         -1.62558       -0.38216        7.49891
| 10> H         -3.32527        0.08775        7.59917
| 11> F         -0.90125        1.85816        6.82810
| 12> O         -2.93658        2.17731        5.96415
| 13> H         -2.09421       -1.25377        3.73641
| 14> H         -0.81933       -0.94475        4.89064
| 15> H         -1.75281        0.38306        4.24366
| 16> *
| 17> %MaxCore 64000
| 18>
| 19> %pal nprocs 4
| 20> end
| 21>
| 22> %scf
| 23>   MaxIter 150
| 24> end
| 25>
| 26>
| 27>                          ****END OF INPUT****

CARTESIAN COORDINATES (ANGSTROEM)
---------------------------------
  C     -1.789160   -0.639230    4.557500
  C     -2.790700   -0.785270    5.702810
  H     -2.867310   -1.835650    6.001670
  H     -3.774550   -0.486580    5.334810
  C     -2.453800    0.055100    6.941450
  C     -2.078420    1.480420    6.564100
  H     -1.625580   -0.382160    7.498910
  H     -3.325270    0.087750    7.599170
  F     -0.901250    1.858160    6.828100
  O     -2.936580    2.177310    5.964150
  H     -2.094210   -1.253770    3.736410
  H     -0.819330   -0.944750    4.890640
  H     -1.752810    0.383060    4.243660

 Total Charge           Charge          ....    0
 Multiplicity           Mult            ....    1
 Number of Electrons    NEL             ....   48
 Basis Dimension        Dim             ....  182

ORBITAL ENERGIES
----------------

  NO   OCC          E(Eh)            E(eV)
   0   2.0000     -25.326630      -689.1726
   1   2.0000     -19.649820      -534.6988
   2   2.0000     -10.739269      -292.2304
   3   2.0000     -10.582544      -287.9657
   4   2.0000     -10.568165      -287.5744
   5   2.0000     -10.545396      -286.9548
   6   2.0000      -1.439589       -39.1732
   7   2.0000      -1.143609       -31.1192
   8   2.0000      -0.908988       -24.7348
   9   2.0000      -0.819822       -22.3085
  10   2.0000      -0.755377       -20.5548
  11   2.0000      -0.695558       -18.9271
  12   2.0000      -0.641140       -17.4463
  13   2.0000      -0.623305       -16.9610
  14   2.0000      -0.593288       -16.1442
  15   2.0000      -0.540287       -14.7020
  16   2.0000      -0.530559       -14.4372
  17   2.0000      -0.488116       -13.2823
  18   2.0000      -0.481239       -13.0952
  19   2.0000      -0.440494       -11.9865
  20   2.0000      -0.424398       -11.5485
  21   2.0000      -0.412294       -11.2191
  22   2.0000      -0.409109       -11.1324
  23   2.0000      -0.372007       -10.1228
  24   0.0000       0.007218         0.1964
  25   0.0000       0.031237         0.8500
  26   0.0000       0.056630         1.5410
  27   0.0000       0.061077         1.6620
  28   0.0000       0.076634         2.0853

MULLIKEN ATOMIC CHARGES
-----------------------
   0 C :    0.624415
   1 C :   -0.379494
   2 H :   -0.141589
   3 H :    0.010111
   4 C :    0.107226
   5 C :    0.814658
   6 H :    0.009971
   7 H :    0.027290
   8 F :   -0.407704
   9 O :   -0.572327
  10 H :   -0.046574
  11 H :   -0.014116
  12 H :   -0.031867
Sum of atomic charges:    0.0000000

LOEWDIN ATOMIC CHARGES
----------------------
   0 C :    0.132937
   1 C :   -0.058598
   2 H :    0.024741
   3 H :    0.028817
   4 C :    0.042178
   5 C :    0.002860
   6 H :    0.026283
   7 H :    0.040764
   8 F :   -0.053669
   9 O :   -0.142750
  10 H :   -0.013045
  11 H :   -0.011645
  12 H :   -0.018872

  Mayer bond orders larger than 0.100000
B(  0-C ,  1-C ) :   1.3535 B(  0-C , 10-H ) :   0.7820 B(  0-C , 11-H ) :   0.8005
B(  0-C , 12-H ) :   0.8395 B(  1-C ,  2-H ) :   0.9971 B(  1-C ,  3-H ) :   0.9197
B(  1-C ,  4-C ) :   1.2039 B(  1-C ,  6-H ) :   0.1351 B(  1-C ,  7-H ) :   0.1131
B(  1-C , 10-H ) :   0.1999 B(  1-C , 11-H ) :   0.1846 B(  1-C , 12-H ) :   0.2028
B(  4-C ,  5-C ) :   1.0731 B(  4-C ,  6-H ) :   0.8945 B(  4-C ,  7-H ) :   0.8509
B(  5-C ,  6-H ) :   0.1042 B(  5-C ,  8-F ) :   0.6444 B(  5-C ,  9-O ) :   1.7707

Dispersion correction           -0.000190628
FINAL SINGLE POINT ENERGY      -331.331614053290

DIPOLE MOMENT
-------------
                                X             Y             Z
Electronic contribution:      2.79195       8.93147       4.27699
Nuclear contribution   :     -2.53960     -10.05333      -3.90042
                        -----------------------------------------
Total Dipole Moment    :      0.25236      -1.12186       0.37657
                        -----------------------------------------
Magnitude (a.u.)       :      1.20998
Magnitude (Debye)      :      3.07552

Rotational constants in cm-1:     0.183043     0.080991     0.078218
Rotational constants in MHz :  5487.486217  2428.040459  2344.904824

                             ****ORCA TERMINATED NORMALLY****
TOTAL RUN TIME: 0 days 0 hours 0 minutes 20 seconds 681 msec
