                         Program Version 5.0.0 -  RELEASE  -
|  1> !M062X D3Zero RIJCOSX def2-SVPD def2/J TightSCF
|  2> *xyz 0 1
|  3> C         -0.69912        3.48945        3.75516
|  4> H         -0.96672        4.34901        3.14049
|  5> C         -1.08067        3.79296        5.15686
|  6> C          0.77696        3.13839        3.61741
|  7> H         -1.33146        2.65651        3.44632
|  8> H          1.37140        3.88834        4.14974
|  9> H          1.04693        3.23206        2.56133
| 10> C          1.11892        1.73117        4.11516
| 11> H         -0.87449        4.76274        5.42734
| 12> H         -0.68079        3.13476        5.83900
| 13> H         -2.05755        3.53169        5.34620
| 14> H          0.52974        1.01235        3.58499
| 15> H          0.90870        1.66226        5.16204
| 16> H          2.15725        1.53562        3.94624
| 17> *
| 18> %MaxCore 64000
| 19>
| 20> %pal nprocs 4
| 21> end
| 22>
| 23> %scf
| 24>   MaxIter 150
| 25> end
| 26>
| 27>
| 28>                          ****END OF INPUT****

CARTESIAN COORDINATES (ANGSTROEM)
---------------------------------
  C     -0.699120    3.489450    3.755160
  H     -0.966720    4.349010    3.140490
  C     -1.080670    3.792960    5.156860
  C      0.776960    3.138390    3.617410
  H     -1.331460    2.656510    3.446320
  H      1.371400    3.888340    4.149740
  H      1.046930    3.232060    2.561330
  C      1.118920    1.731170    4.115160
  H     -0.874490    4.762740    5.427340
  H     -0.680790    3.134760    5.839000
  H     -2.057550    3.531690    5.346200
  H      0.529740    1.012350    3.584990
  H      0.908700    1.662260    5.162040
  H      2.157250    1.535620    3.946240

 Total Charge           Charge          ....    0
 Multiplicity           Mult            ....    1
 Number of Electrons    NEL             ....   34
 Basis Dimension        Dim             ....  160

ORBITAL ENERGIES
----------------

  NO   OCC          E(Eh)            E(eV)
   0   2.0000     -10.539261      -286.7879
   1   2.0000     -10.535131      -286.6755
   2   2.0000     -10.530212      -286.5416
   3   2.0000     -10.511519      -286.0330
   4   2.0000      -0.893370       -24.3098
   5   2.0000      -0.816721       -22.2241
   6   2.0000      -0.725526       -19.7426
   7   2.0000      -0.645780       -17.5726
   8   2.0000      -0.538752       -14.6602
   9   2.0000      -0.528825       -14.3901
  10   2.0000      -0.495665       -13.4877
  11   2.0000      -0.451295       -12.2804
  12   2.0000      -0.442966       -12.0537
  13   2.0000      -0.427140       -11.6231
  14   2.0000      -0.383694       -10.4409
  15   2.0000      -0.380793       -10.3619
  16   2.0000      -0.375331       -10.2133
  17   0.0000       0.045054         1.2260
  18   0.0000       0.067817         1.8454
  19   0.0000       0.070639         1.9222
  20   0.0000       0.077594         2.1114
  21   0.0000       0.122825         3.3423

MULLIKEN ATOMIC CHARGES
-----------------------
   0 C :   -0.203852
   1 H :   -0.162830
   2 C :    1.057650
   3 C :   -0.261557
   4 H :   -0.007050
   5 H :   -0.099561
   6 H :   -0.091879
   7 C :    0.705614
   8 H :   -0.121384
   9 H :   -0.473515
  10 H :   -0.153043
  11 H :    0.038184
  12 H :   -0.186229
  13 H :   -0.040548
Sum of atomic charges:    0.0000000

LOEWDIN ATOMIC CHARGES
----------------------
   0 C :   -0.078005
   1 H :    0.021512
   2 C :    0.120295
   3 C :   -0.081898
   4 H :    0.022455
   5 H :    0.022945
   6 H :    0.014564
   7 C :    0.125470
   8 H :   -0.024173
   9 H :   -0.044390
  10 H :   -0.033585
  11 H :   -0.016921
  12 H :   -0.028390
  13 H :   -0.019879

  Mayer bond orders larger than 0.100000
B(  0-C ,  1-H ) :   0.9770 B(  0-C ,  2-C ) :   1.2195 B(  0-C ,  3-C ) :   1.1652
B(  0-C ,  4-H ) :   0.8764 B(  0-C ,  5-H ) :   0.1204 B(  0-C ,  8-H ) :   0.1970
B(  0-C ,  9-H ) :   0.2605 B(  0-C , 10-H ) :   0.1977 B(  2-C ,  4-H ) :   0.1202
B(  2-C ,  8-H ) :   0.7474 B(  2-C ,  9-H ) :   0.5545 B(  2-C , 10-H ) :   0.5999
B(  3-C ,  5-H ) :   0.9452 B(  3-C ,  6-H ) :   0.9675 B(  3-C ,  7-C ) :   1.2621
B(  3-C , 11-H ) :   0.2047 B(  3-C , 12-H ) :   0.1984 B(  3-C , 13-H ) :   0.2039
B(  7-C , 11-H ) :   0.7701 B(  7-C , 12-H ) :   0.8511 B(  7-C , 13-H ) :   0.7894
B(  9-H , 10-H ) :   0.3042

Dispersion correction           -0.000150896
FINAL SINGLE POINT ENERGY      -158.224025696896

DIPOLE MOMENT
-------------
                                X             Y             Z
Electronic contribution:      0.12207       0.46954      -0.75760
Nuclear contribution   :     -0.14518      -0.47660       0.76944
                        -----------------------------------------
Total Dipole Moment    :     -0.02311      -0.00705       0.01184
                        -----------------------------------------
Magnitude (a.u.)       :      0.02691
Magnitude (Debye)      :      0.06840

Rotational constants in cm-1:     0.472466     0.157481     0.138592
Rotational constants in MHz : 14164.171374  4721.163669  4154.874787

                             ****ORCA TERMINATED NORMALLY****
TOTAL RUN TIME: 0 days 0 hours 0 minutes 12 seconds 966 msec
