                         Program Version 5.0.0 -  RELEASE  -
|  1> !M062X D3Zero RIJCOSX def2-SVPD def2/J TightSCF
|  2> *xyz 0 1
|  3> C         -1.78916       -0.63923        4.55750
|  4> C         -2.79070       -0.78527        5.70281
|  5> H         -2.86731       -1.83565        6.00167
|  6> H         -3.77455       -0.48658        5.33481
|  7> C         -2.45380        0.05510        6.94145
|  8> C         -2.07842        1.48042        6.56410
|  9> H         -1.62558       -0.38216        7.49891
| 10> H         -3.32527        0.08775        7.59917
| 11> O         -0.90125        1.85816        6.82810
| 12> F         -2.93658        2.17731        5.96415
| 13> H         -2.09421       -1.25377        3.73641
| 14> H         -0.81933       -0.94475        4.89064
| 15> H         -1.75281        0.38306        4.24366
| 16> *
| 17> %MaxCore 64000
| 18>
| 19> %pal nprocs 4
| 20> end
| 21>
| 22> %scf
| 23>   MaxIter 150
| 24> end
| 25>
| 26>
| 27>                          ****END OF INPUT****

CARTESIAN COORDINATES (ANGSTROEM)
---------------------------------
  C     -1.789160   -0.639230    4.557500
  C     -2.790700   -0.785270    5.702810
  H     -2.867310   -1.835650    6.001670
  H     -3.774550   -0.486580    5.334810
  C     -2.453800    0.055100    6.941450
  C     -2.078420    1.480420    6.564100
  H     -1.625580   -0.382160    7.498910
  H     -3.325270    0.087750    7.599170
  O     -0.901250    1.858160    6.828100
  F     -2.936580    2.177310    5.964150
  H     -2.094210   -1.253770    3.736410
  H     -0.819330   -0.944750    4.890640
  H     -1.752810    0.383060    4.243660

 Total Charge           Charge          ....    0
 Multiplicity           Mult            ....    1
 Number of Electrons    NEL             ....   48
 Basis Dimension        Dim             ....  182

ORBITAL ENERGIES
----------------

  NO   OCC          E(Eh)            E(eV)
   0   2.0000     -25.330044      -689.2655
   1   2.0000     -19.647976      -534.6486
   2   2.0000     -10.738676      -292.2142
   3   2.0000     -10.581908      -287.9483
   4   2.0000     -10.571472      -287.6644
   5   2.0000     -10.547674      -287.0168
   6   2.0000      -1.445117       -39.3236
   7   2.0000      -1.138425       -30.9781
   8   2.0000      -0.912169       -24.8214
   9   2.0000      -0.819526       -22.3004
  10   2.0000      -0.757095       -20.6016
  11   2.0000      -0.698983       -19.0203
  12   2.0000      -0.646253       -17.5854
  13   2.0000      -0.634402       -17.2629
  14   2.0000      -0.578132       -15.7318
  15   2.0000      -0.547940       -14.9102
  16   2.0000      -0.530637       -14.4394
  17   2.0000      -0.490606       -13.3501
  18   2.0000      -0.475257       -12.9324
  19   2.0000      -0.441166       -12.0047
  20   2.0000      -0.432941       -11.7809
  21   2.0000      -0.413737       -11.2584
  22   2.0000      -0.411688       -11.2026
  23   2.0000      -0.365040        -9.9332
  24   0.0000       0.010919         0.2971
  25   0.0000       0.029141         0.7930
  26   0.0000       0.057799         1.5728
  27   0.0000       0.062296         1.6952
  28   0.0000       0.071323         1.9408

MULLIKEN ATOMIC CHARGES
-----------------------
   0 C :    0.636972
   1 C :   -0.409648
   2 H :   -0.145298
   3 H :   -0.009561
   4 C :    0.131215
   5 C :    0.831236
   6 H :   -0.007059
   7 H :    0.022952
   8 O :   -0.538531
   9 F :   -0.438249
  10 H :   -0.054911
  11 H :    0.006661
  12 H :   -0.025780
Sum of atomic charges:    0.0000000

LOEWDIN ATOMIC CHARGES
----------------------
   0 C :    0.134093
   1 C :   -0.065794
   2 H :    0.025162
   3 H :    0.023133
   4 C :    0.044953
   5 C :   -0.002379
   6 H :    0.037369
   7 H :    0.035367
   8 O :   -0.147631
   9 F :   -0.046175
  10 H :   -0.013696
  11 H :   -0.005919
  12 H :   -0.018482

  Mayer bond orders larger than 0.100000
B(  0-C ,  1-C ) :   1.3544 B(  0-C , 10-H ) :   0.7750 B(  0-C , 11-H ) :   0.7986
B(  0-C , 12-H ) :   0.8357 B(  1-C ,  2-H ) :   0.9990 B(  1-C ,  3-H ) :   0.9218
B(  1-C ,  4-C ) :   1.1788 B(  1-C ,  6-H ) :   0.1291 B(  1-C ,  7-H ) :   0.1113
B(  1-C , 10-H ) :   0.2075 B(  1-C , 11-H ) :   0.1917 B(  1-C , 12-H ) :   0.2028
B(  4-C ,  5-C ) :   1.0395 B(  4-C ,  6-H ) :   0.9173 B(  4-C ,  7-H ) :   0.8559
B(  5-C ,  6-H ) :   0.1430 B(  5-C ,  8-O ) :   1.7530 B(  5-C ,  9-F ) :   0.6291

Dispersion correction           -0.000191862
FINAL SINGLE POINT ENERGY      -331.329199702653

DIPOLE MOMENT
-------------
                                X             Y             Z
Electronic contribution:     -0.63264       9.44461       2.81634
Nuclear contribution   :     -0.24054     -10.41383      -2.92452
                        -----------------------------------------
Total Dipole Moment    :     -0.87318      -0.96923      -0.10818
                        -----------------------------------------
Magnitude (a.u.)       :      1.30902
Magnitude (Debye)      :      3.32727

Rotational constants in cm-1:     0.180403     0.081943     0.079197
Rotational constants in MHz :  5408.335479  2456.587956  2374.272438

                             ****ORCA TERMINATED NORMALLY****
TOTAL RUN TIME: 0 days 0 hours 0 minutes 22 seconds 134 msec
