                         Program Version 5.0.0 -  RELEASE  -
|  1> !wB97X-D3 RIJCOSX def2-SVPD def2/J TightSCF
|  2> *xyz -1 1
|  3> C         -0.87096        0.24804       -2.66280
|  4> C         -0.47749        0.60819       -4.10105
|  5> H          0.20677        1.45830       -4.11875
|  6> H         -1.36844        0.92942       -4.64785
|  7> C          0.18467       -0.50664       -4.91676
|  8> O         -0.15869       -1.70109       -4.65798
|  9> O          1.05594       -0.17441       -5.74037
| 10> C          0.10016       -0.67355       -1.91581
| 11> H         -1.00105        1.18104       -2.10407
| 12> H         -1.84465       -0.24659       -2.66328
| 13> H          0.22336       -1.58297       -2.46597
| 14> H         -0.29270       -0.89423       -0.94532
| 15> H          1.04759       -0.18666       -1.81480
| 16> *
| 17>
| 18> %MaxCore 64000
| 19>
| 20> %pal nprocs 18
| 21> end
| 22>
| 23> %scf
| 24>   MaxIter 150
| 25> end
| 26>
| 27>
| 28>                          ****END OF INPUT****

CARTESIAN COORDINATES (ANGSTROEM)
---------------------------------
  C     -0.870960    0.248040   -2.662800
  C     -0.477490    0.608190   -4.101050
  H      0.206770    1.458300   -4.118750
  H     -1.368440    0.929420   -4.647850
  C      0.184670   -0.506640   -4.916760
  O     -0.158690   -1.701090   -4.657980
  O      1.055940   -0.174410   -5.740370
  C      0.100160   -0.673550   -1.915810
  H     -1.001050    1.181040   -2.104070
  H     -1.844650   -0.246590   -2.663280
  H      0.223360   -1.582970   -2.465970
  H     -0.292700   -0.894230   -0.945320
  H      1.047590   -0.186660   -1.814800

 Total Charge           Charge          ....   -1
 Multiplicity           Mult            ....    1
 Number of Electrons    NEL             ....   48
 Basis Dimension        Dim             ....  182

ORBITAL ENERGIES
----------------

  NO   OCC          E(Eh)            E(eV)
   0   2.0000     -18.987054      -516.6640
   1   2.0000     -18.983197      -516.5590
   2   2.0000     -10.181263      -277.0463
   3   2.0000     -10.141443      -275.9627
   4   2.0000     -10.123696      -275.4798
   5   2.0000     -10.118877      -275.3486
   6   2.0000      -0.932529       -25.3754
   7   2.0000      -0.835747       -22.7418
   8   2.0000      -0.743216       -20.2239
   9   2.0000      -0.649116       -17.6633
  10   2.0000      -0.550446       -14.9784
  11   2.0000      -0.423654       -11.5282
  12   2.0000      -0.406148       -11.0519
  13   2.0000      -0.392776       -10.6880
  14   2.0000      -0.355302        -9.6682
  15   2.0000      -0.331659        -9.0249
  16   2.0000      -0.313453        -8.5295
  17   2.0000      -0.301464        -8.2032
  18   2.0000      -0.287770        -7.8306
  19   2.0000      -0.273367        -7.4387
  20   2.0000      -0.258064        -7.0223
  21   2.0000      -0.146447        -3.9850
  22   2.0000      -0.141222        -3.8428
  23   2.0000      -0.129075        -3.5123
  24   0.0000       0.216579         5.8934
  25   0.0000       0.240358         6.5405
  26   0.0000       0.255856         6.9622
  27   0.0000       0.266812         7.2603
  28   0.0000       0.288936         7.8624

MULLIKEN ATOMIC CHARGES
-----------------------
   0 C :   -0.367532
   1 C :    0.098481
   2 H :    0.038497
   3 H :   -0.031542
   4 C :    0.379606
   5 O :   -0.756002
   6 O :   -0.667392
   7 C :    0.648018
   8 H :   -0.138670
   9 H :   -0.025692
  10 H :   -0.081560
  11 H :   -0.050231
  12 H :   -0.045981
Sum of atomic charges:   -1.0000000

LOEWDIN ATOMIC CHARGES
----------------------
   0 C :   -0.086258
   1 C :    0.000219
   2 H :    0.003750
   3 H :    0.012797
   4 C :   -0.287878
   5 O :   -0.327150
   6 O :   -0.322180
   7 C :    0.107443
   8 H :   -0.002331
   9 H :    0.008744
  10 H :   -0.047001
  11 H :   -0.037092
  12 H :   -0.023063

  Mayer bond orders larger than 0.100000
B(  0-C ,  1-C ) :   1.1854 B(  0-C ,  2-H ) :   0.1144 B(  0-C ,  3-H ) :   0.1208
B(  0-C ,  7-C ) :   1.3052 B(  0-C ,  8-H ) :   0.9459 B(  0-C ,  9-H ) :   0.9034
B(  0-C , 10-H ) :   0.1951 B(  0-C , 11-H ) :   0.2126 B(  0-C , 12-H ) :   0.1838
B(  1-C ,  2-H ) :   0.8610 B(  1-C ,  3-H ) :   0.8446 B(  1-C ,  4-C ) :   1.0594
B(  1-C ,  8-H ) :   0.1104 B(  1-C ,  9-H ) :   0.1053 B(  2-H ,  4-C ) :   0.1969
B(  4-C ,  5-O ) :   1.5059 B(  4-C ,  6-O ) :   1.4770 B(  7-C , 10-H ) :   0.8692
B(  7-C , 11-H ) :   0.7372 B(  7-C , 12-H ) :   0.7840

Dispersion correction           -0.003258802
FINAL SINGLE POINT ENERGY      -306.860815803120

DIPOLE MOMENT
-------------
                                X             Y             Z
Electronic contribution:      1.79494      -1.97872      -6.68356
Nuclear contribution   :     -2.71698       3.10699       8.64748
                        -----------------------------------------
Total Dipole Moment    :     -0.92205       1.12827       1.96391
                        -----------------------------------------
Magnitude (a.u.)       :      2.44543
Magnitude (Debye)      :      6.21579

Rotational constants in cm-1:     0.212307     0.084237     0.072775
Rotational constants in MHz :  6364.813744  2525.362351  2181.751235

                             ****ORCA TERMINATED NORMALLY****
TOTAL RUN TIME: 0 days 0 hours 0 minutes 9 seconds 838 msec
