                         Program Version 5.0.0 -  RELEASE  -
|  1> !wB97X-D3 RIJCOSX def2-SVPD def2/J TightSCF
|  2> *xyz 1 1
|  3> C          2.48645       -2.67712       -2.56345
|  4> C          3.03764       -2.36672       -3.92351
|  5> N          2.28036       -2.45441       -4.96769
|  6> N          4.32174       -2.01793       -4.01664
|  7> H          4.87994       -1.91167       -3.17382
|  8> H          4.71015       -1.67088       -4.88356
|  9> H          1.27042       -2.41265       -4.86614
| 10> H          2.58183       -2.05528       -5.84688
| 11> C          2.49799       -1.46946       -1.61030
| 12> C          1.58284       -0.32199       -2.04262
| 13> H          2.19308       -1.83391       -0.62542
| 14> H          3.52336       -1.10398       -1.49039
| 15> H          1.47259       -3.05153       -2.69437
| 16> H          3.08320       -3.49064       -2.14147
| 17> H          1.88480        0.03130       -3.00642
| 18> H          1.65140        0.47571       -1.33278
| 19> H          0.57235       -0.67052       -2.09099
| 20> *
| 21>
| 22> %MaxCore 64000
| 23>
| 24> %pal nprocs 18
| 25> end
| 26>
| 27> %scf
| 28>   MaxIter 150
| 29> end
| 30>
| 31>
| 32>                          ****END OF INPUT****

CARTESIAN COORDINATES (ANGSTROEM)
---------------------------------
  C      2.486450   -2.677120   -2.563450
  C      3.037640   -2.366720   -3.923510
  N      2.280360   -2.454410   -4.967690
  N      4.321740   -2.017930   -4.016640
  H      4.879940   -1.911670   -3.173820
  H      4.710150   -1.670880   -4.883560
  H      1.270420   -2.412650   -4.866140
  H      2.581830   -2.055280   -5.846880
  C      2.497990   -1.469460   -1.610300
  C      1.582840   -0.321990   -2.042620
  H      2.193080   -1.833910   -0.625420
  H      3.523360   -1.103980   -1.490390
  H      1.472590   -3.051530   -2.694370
  H      3.083200   -3.490640   -2.141470
  H      1.884800    0.031300   -3.006420
  H      1.651400    0.475710   -1.332780
  H      0.572350   -0.670520   -2.090990

 Total Charge           Charge          ....    1
 Multiplicity           Mult            ....    1
 Number of Electrons    NEL             ....   48
 Basis Dimension        Dim             ....  208

ORBITAL ENERGIES
----------------

  NO   OCC          E(Eh)            E(eV)
   0   2.0000     -14.685463      -399.6118
   1   2.0000     -14.680085      -399.4654
   2   2.0000     -10.615974      -288.8753
   3   2.0000     -10.484256      -285.2911
   4   2.0000     -10.454208      -284.4735
   5   2.0000     -10.418277      -283.4957
   6   2.0000      -1.316830       -35.8328
   7   2.0000      -1.216997       -33.1162
   8   2.0000      -1.085256       -29.5313
   9   2.0000      -0.998825       -27.1794
  10   2.0000      -0.942569       -25.6486
  11   2.0000      -0.887602       -24.1529
  12   2.0000      -0.875550       -23.8249
  13   2.0000      -0.838106       -22.8060
  14   2.0000      -0.799445       -21.7540
  15   2.0000      -0.758130       -20.6298
  16   2.0000      -0.728274       -19.8173
  17   2.0000      -0.692576       -18.8460
  18   2.0000      -0.674259       -18.3475
  19   2.0000      -0.661238       -17.9932
  20   2.0000      -0.600545       -16.3417
  21   2.0000      -0.596302       -16.2262
  22   2.0000      -0.592683       -16.1277
  23   2.0000      -0.584936       -15.9169
  24   0.0000      -0.131969        -3.5911
  25   0.0000      -0.078035        -2.1234
  26   0.0000      -0.039759        -1.0819
  27   0.0000      -0.034452        -0.9375
  28   0.0000      -0.010405        -0.2831

MULLIKEN ATOMIC CHARGES
-----------------------
   0 C :    0.059813
   1 C :    0.657968
   2 N :    0.049421
   3 N :   -0.008455
   4 H :    0.065501
   5 H :   -0.102200
   6 H :    0.055996
   7 H :   -0.063576
   8 C :   -0.380565
   9 C :    0.657536
  10 H :   -0.020638
  11 H :   -0.044582
  12 H :    0.088408
  13 H :    0.045318
  14 H :   -0.085433
  15 H :   -0.019902
  16 H :    0.045387
Sum of atomic charges:    1.0000000

LOEWDIN ATOMIC CHARGES
----------------------
   0 C :    0.044504
   1 C :   -0.039774
   2 N :    0.278440
   3 N :    0.281958
   4 H :    0.049925
   5 H :    0.047088
   6 H :    0.060792
   7 H :    0.053348
   8 C :   -0.047963
   9 C :    0.140799
  10 H :    0.041311
  11 H :    0.020739
  12 H :    0.038000
  13 H :    0.054181
  14 H :   -0.020584
  15 H :    0.001777
  16 H :   -0.004542

  Mayer bond orders larger than 0.100000
B(  0-C ,  1-C ) :   1.1542 B(  0-C ,  8-C ) :   1.1593 B(  0-C , 10-H ) :   0.1035
B(  0-C , 11-H ) :   0.1092 B(  0-C , 12-H ) :   0.8050 B(  0-C , 13-H ) :   0.8592
B(  1-C ,  2-N ) :   1.0789 B(  1-C ,  3-N ) :   1.0866 B(  1-C ,  5-H ) :  -0.1338
B(  1-C ,  7-H ) :  -0.1005 B(  1-C , 12-H ) :   0.1612 B(  1-C , 13-H ) :   0.1251
B(  2-N ,  3-N ) :   0.1472 B(  2-N ,  6-H ) :   1.0480 B(  2-N ,  7-H ) :   1.1821
B(  3-N ,  4-H ) :   1.0778 B(  3-N ,  5-H ) :   1.2814 B(  4-H ,  5-H ) :  -0.1713
B(  6-H ,  7-H ) :  -0.1242 B(  8-C ,  9-C ) :   1.3335 B(  8-C , 10-H ) :   0.9816
B(  8-C , 11-H ) :   0.9104 B(  8-C , 12-H ) :   0.1344 B(  8-C , 14-H ) :   0.2191
B(  8-C , 15-H ) :   0.2020 B(  8-C , 16-H ) :   0.1909 B(  9-C , 14-H ) :   0.8283
B(  9-C , 15-H ) :   0.8028 B(  9-C , 16-H ) :   0.7857

Dispersion correction           -0.004659375
FINAL SINGLE POINT ENERGY      -268.098899167642

DIPOLE MOMENT
-------------
                                X             Y             Z
Electronic contribution:      2.37476      -2.81273      -4.28953
Nuclear contribution   :     -1.82438       2.64851       2.98450
                        -----------------------------------------
Total Dipole Moment    :      0.55037      -0.16422      -1.30503
                        -----------------------------------------
Magnitude (a.u.)       :      1.42582
Magnitude (Debye)      :      3.62416

Rotational constants in cm-1:     0.176712     0.077069     0.069669
Rotational constants in MHz :  5297.698588  2310.466480  2088.633881

                             ****ORCA TERMINATED NORMALLY****
TOTAL RUN TIME: 0 days 0 hours 0 minutes 14 seconds 187 msec
