                         Program Version 5.0.0 -  RELEASE  -
|  1> !wB97X-D3 RIJCOSX def2-SVPD def2/J TightSCF xyzfile
|  2>
|  3> *xyzfile 0 1 B.xyz
|  4>
|  5> %MaxCore 64000
|  6>
|  7> %pal nprocs 18
|  8> end
|  9>
| 10> %scf
| 11>   MaxIter 150
| 12> end
| 13>
| 14>
| 15>                          ****END OF INPUT****

CARTESIAN COORDINATES (ANGSTROEM)
---------------------------------
  C      2.486452   -2.677121   -2.563447
  C     -0.870963    0.248043   -2.662804
  C     -0.477492    0.608191   -4.101052
  H      0.206773    1.458299   -4.118748
  H     -1.368442    0.929419   -4.647855
  C      0.184673   -0.506640   -4.916760
  C      3.037640   -2.366715   -3.923509
  N      2.280360   -2.454408   -4.967692
  N      4.321736   -2.017932   -4.016641
  H      4.879940   -1.911668   -3.173823
  H      4.710148   -1.670882   -4.883561
  H      1.270423   -2.412650   -4.866143
  H      2.581829   -2.055282   -5.846878
  O     -0.158685   -1.701088   -4.657981
  O      1.055938   -0.174410   -5.740373
  C      2.497991   -1.469464   -1.610303
  C      1.582841   -0.321986   -2.042619
  H      2.193083   -1.833912   -0.625420
  H      3.523356   -1.103982   -1.490392
  C      0.100160   -0.673551   -1.915815
  H      1.822311   -0.040361   -3.072834
  H      1.813180    0.557019   -1.433266
  H     -0.063284   -1.679120   -2.301112
  H     -0.168820   -0.691680   -0.853831
  H     -1.001048    1.181040   -2.104071
  H     -1.844645   -0.246592   -2.663281
  H      1.472592   -3.051527   -2.694366
  H      3.083201   -3.490638   -2.141472

 Total Charge           Charge          ....    0
 Multiplicity           Mult            ....    1
 Number of Electrons    NEL             ....   94
 Basis Dimension        Dim             ....  374

ORBITAL ENERGIES
----------------

  NO   OCC          E(Eh)            E(eV)
   0   2.0000     -19.157708      -521.3077
   1   2.0000     -19.151918      -521.1502
   2   2.0000     -14.523416      -395.2023
   3   2.0000     -14.485318      -394.1655
   4   2.0000     -10.445001      -284.2229
   5   2.0000     -10.344473      -281.4874
   6   2.0000     -10.336462      -281.2694
   7   2.0000     -10.318814      -280.7892
   8   2.0000     -10.287846      -279.9465
   9   2.0000     -10.269158      -279.4380
  10   2.0000     -10.264568      -279.3131
  11   2.0000     -10.251890      -278.9681
  12   2.0000      -1.145426       -31.1686
  13   2.0000      -1.107126       -30.1264
  14   2.0000      -1.043405       -28.3925
  15   2.0000      -1.008776       -27.4502
  16   2.0000      -0.944795       -25.7092
  17   2.0000      -0.889851       -24.2141
  18   2.0000      -0.844335       -22.9755
  19   2.0000      -0.787467       -21.4281
  20   2.0000      -0.768352       -20.9079
  21   2.0000      -0.724363       -19.7109
  22   2.0000      -0.714200       -19.4344
  23   2.0000      -0.685257       -18.6468
  24   2.0000      -0.661857       -18.0100
  25   2.0000      -0.628173       -17.0934
  26   2.0000      -0.605374       -16.4731
  27   2.0000      -0.582847       -15.8601
  28   2.0000      -0.560642       -15.2558
  29   2.0000      -0.555219       -15.1083
  30   2.0000      -0.547066       -14.8864
  31   2.0000      -0.524379       -14.2691
  32   2.0000      -0.512595       -13.9484
  33   2.0000      -0.508755       -13.8439
  34   2.0000      -0.492308       -13.3964
  35   2.0000      -0.479412       -13.0455
  36   2.0000      -0.468488       -12.7482
  37   2.0000      -0.454709       -12.3733
  38   2.0000      -0.448139       -12.1945
  39   2.0000      -0.432035       -11.7563
  40   2.0000      -0.418474       -11.3873
  41   2.0000      -0.408452       -11.1145
  42   2.0000      -0.400052       -10.8860
  43   2.0000      -0.390196       -10.6178
  44   2.0000      -0.321281        -8.7425
  45   2.0000      -0.308493        -8.3945
  46   2.0000      -0.298268        -8.1163
  47   0.0000       0.032522         0.8850
  48   0.0000       0.056846         1.5469
  49   0.0000       0.091800         2.4980
  50   0.0000       0.102402         2.7865
  51   0.0000       0.108747         2.9592

MULLIKEN ATOMIC CHARGES
-----------------------
   0 C :    0.176297
   1 C :    0.451490
   2 C :    0.223466
   3 H :    0.198837
   4 H :   -0.245970
   5 C :    0.235969
   6 C :    0.622246
   7 N :    0.298653
   8 N :    0.006688
   9 H :   -0.000217
  10 H :   -0.117149
  11 H :   -0.258148
  12 H :   -0.004303
  13 O :   -0.799257
  14 O :   -0.590820
  15 C :    0.265280
  16 C :    0.136302
  17 H :   -0.041346
  18 H :   -0.094179
  19 C :   -0.002604
  20 H :   -0.126649
  21 H :   -0.168291
  22 H :    0.035220
  23 H :   -0.179701
  24 H :   -0.120512
  25 H :    0.059189
  26 H :    0.088686
  27 H :   -0.049177
Sum of atomic charges:    0.0000000

LOEWDIN ATOMIC CHARGES
----------------------
   0 C :    0.055055
   1 C :   -0.019578
   2 C :    0.028392
   3 H :    0.018687
   4 H :    0.029611
   5 C :   -0.235234
   6 C :   -0.037957
   7 N :    0.307394
   8 N :    0.247205
   9 H :    0.026668
  10 H :    0.031900
  11 H :   -0.096020
  12 H :    0.035182
  13 O :   -0.264085
  14 O :   -0.268619
  15 C :   -0.014425
  16 C :   -0.010402
  17 H :    0.031147
  18 H :    0.010622
  19 C :   -0.029229
  20 H :    0.010192
  21 H :    0.028694
  22 H :   -0.011351
  23 H :    0.022156
  24 H :    0.016352
  25 H :    0.023885
  26 H :    0.025695
  27 H :    0.038063

  Mayer bond orders larger than 0.100000
B(  0-C ,  6-C ) :   1.1093 B(  0-C ,  7-N ) :   0.1036 B(  0-C , 15-C ) :   1.1560
B(  0-C , 17-H ) :   0.1387 B(  0-C , 18-H ) :   0.1421 B(  0-C , 26-H ) :   0.7726
B(  0-C , 27-H ) :   0.7607 B(  1-C ,  2-C ) :   1.1691 B(  1-C ,  4-H ) :   0.1102
B(  1-C , 19-C ) :   1.2958 B(  1-C , 24-H ) :   0.7971 B(  1-C , 25-H ) :   0.6881
B(  2-C ,  3-H ) :   0.7599 B(  2-C ,  4-H ) :   0.7832 B(  2-C ,  5-C ) :   1.1736
B(  2-C , 24-H ) :   0.1431 B(  3-H ,  5-C ) :   0.2725 B(  4-H ,  5-C ) :   0.2649
B(  5-C , 13-O ) :   1.2435 B(  5-C , 14-O ) :   1.5729 B(  6-C ,  7-N ) :   1.1999
B(  6-C ,  8-N ) :   0.9679 B(  6-C , 12-H ) :  -0.1330 B(  6-C , 26-H ) :   0.1695
B(  6-C , 27-H ) :   0.1534 B(  7-N ,  8-N ) :   0.1861 B(  7-N , 11-H ) :   1.0108
B(  7-N , 12-H ) :   1.0822 B(  8-N ,  9-H ) :   1.1439 B(  8-N , 10-H ) :   1.2481
B(  9-H , 10-H ) :  -0.1706 B( 11-H , 12-H ) :  -0.1339 B( 11-H , 13-O ) :   0.2980
B( 15-C , 16-C ) :   1.1977 B( 15-C , 17-H ) :   0.8816 B( 15-C , 18-H ) :   0.7179
B( 15-C , 20-H ) :   0.1497 B( 15-C , 26-H ) :   0.1447 B( 15-C , 27-H ) :   0.1279
B( 16-C , 17-H ) :   0.1142 B( 16-C , 18-H ) :   0.2008 B( 16-C , 19-C ) :   1.1650
B( 16-C , 20-H ) :   0.8620 B( 16-C , 21-H ) :   0.8890 B( 16-C , 22-H ) :   0.1093
B( 16-C , 23-H ) :   0.2319 B( 19-C , 20-H ) :   0.1250 B( 19-C , 21-H ) :   0.1107
B( 19-C , 22-H ) :   0.8586 B( 19-C , 23-H ) :   0.8308 B( 19-C , 24-H ) :   0.1952
B( 19-C , 25-H ) :   0.2110 B( 22-H , 26-H ) :   0.1088

Dispersion correction           -0.013688326
FINAL SINGLE POINT ENERGY      -573.941015531427

DIPOLE MOMENT
-------------
                                X             Y             Z
Electronic contribution:      1.75304      -2.92512      -8.76500
Nuclear contribution   :      1.39386       1.90489      10.36520
                        -----------------------------------------
Total Dipole Moment    :      3.14690      -1.02022       1.60020
                        -----------------------------------------
Magnitude (a.u.)       :      3.67484
Magnitude (Debye)      :      9.34071

Rotational constants in cm-1:     0.041165     0.025922     0.019001
Rotational constants in MHz :  1234.086888   777.109255   569.639629

                             ****ORCA TERMINATED NORMALLY****
TOTAL RUN TIME: 0 days 0 hours 0 minutes 58 seconds 774 msec
