                         Program Version 5.0.0 -  RELEASE  -
|  1> !wB97X-D3 RIJCOSX def2-SVPD def2/J TightSCF
|  2> *xyz 0 1
|  3> C         -0.87096        0.24804       -2.66280
|  4> C         -0.47749        0.60819       -4.10105
|  5> H          0.20677        1.45830       -4.11875
|  6> H         -1.36844        0.92942       -4.64785
|  7> C          0.18467       -0.50664       -4.91676
|  8> F         -0.15869       -1.70109       -4.65798
|  9> O          1.05594       -0.17441       -5.74037
| 10> C          0.10016       -0.67355       -1.91581
| 11> H         -1.00105        1.18104       -2.10407
| 12> H         -1.84465       -0.24659       -2.66328
| 13> H          0.22336       -1.58297       -2.46597
| 14> H         -0.29270       -0.89423       -0.94532
| 15> H          1.04759       -0.18666       -1.81480
| 16> *
| 17>
| 18> %MaxCore 64000
| 19>
| 20> %pal nprocs 18
| 21> end
| 22>
| 23> %scf
| 24>   MaxIter 150
| 25> end
| 26>
| 27>
| 28>                          ****END OF INPUT****

CARTESIAN COORDINATES (ANGSTROEM)
---------------------------------
  C     -0.870960    0.248040   -2.662800
  C     -0.477490    0.608190   -4.101050
  H      0.206770    1.458300   -4.118750
  H     -1.368440    0.929420   -4.647850
  C      0.184670   -0.506640   -4.916760
  F     -0.158690   -1.701090   -4.657980
  O      1.055940   -0.174410   -5.740370
  C      0.100160   -0.673550   -1.915810
  H     -1.001050    1.181040   -2.104070
  H     -1.844650   -0.246590   -2.663280
  H      0.223360   -1.582970   -2.465970
  H     -0.292700   -0.894230   -0.945320
  H      1.047590   -0.186660   -1.814800

 Total Charge           Charge          ....    0
 Multiplicity           Mult            ....    1
 Number of Electrons    NEL             ....   48
 Basis Dimension        Dim             ....  182

ORBITAL ENERGIES
----------------

  NO   OCC          E(Eh)            E(eV)
   0   2.0000     -24.871348      -676.7838
   1   2.0000     -19.257283      -524.0173
   2   2.0000     -10.475500      -285.0528
   3   2.0000     -10.322461      -280.8885
   4   2.0000     -10.308395      -280.5057
   5   2.0000     -10.285185      -279.8741
   6   2.0000      -1.416556       -38.5465
   7   2.0000      -1.149400       -31.2768
   8   2.0000      -0.928290       -25.2601
   9   2.0000      -0.840076       -22.8596
  10   2.0000      -0.767817       -20.8934
  11   2.0000      -0.725952       -19.7542
  12   2.0000      -0.655888       -17.8476
  13   2.0000      -0.646658       -17.5965
  14   2.0000      -0.596742       -16.2382
  15   2.0000      -0.579245       -15.7620
  16   2.0000      -0.553099       -15.0506
  17   2.0000      -0.521079       -14.1793
  18   2.0000      -0.508109       -13.8263
  19   2.0000      -0.477321       -12.9886
  20   2.0000      -0.462120       -12.5749
  21   2.0000      -0.452980       -12.3262
  22   2.0000      -0.435056       -11.8385
  23   2.0000      -0.392239       -10.6734
  24   0.0000       0.053014         1.4426
  25   0.0000       0.081962         2.2303
  26   0.0000       0.113574         3.0905
  27   0.0000       0.115541         3.1440
  28   0.0000       0.130037         3.5385

MULLIKEN ATOMIC CHARGES
-----------------------
   0 C :   -0.353139
   1 C :   -0.016533
   2 H :    0.094016
   3 H :    0.048254
   4 C :    0.753131
   5 F :   -0.440932
   6 O :   -0.481214
   7 C :    0.636381
   8 H :   -0.102637
   9 H :   -0.001480
  10 H :   -0.106350
  11 H :   -0.016234
  12 H :   -0.013263
Sum of atomic charges:   -0.0000000

LOEWDIN ATOMIC CHARGES
----------------------
   0 C :   -0.066123
   1 C :    0.047746
   2 H :    0.037239
   3 H :    0.041321
   4 C :    0.005998
   5 F :   -0.048514
   6 O :   -0.133487
   7 C :    0.127017
   8 H :    0.023847
   9 H :    0.021628
  10 H :   -0.035258
  11 H :   -0.012477
  12 H :   -0.008938

  Mayer bond orders larger than 0.100000
B(  0-C ,  1-C ) :   1.2086 B(  0-C ,  2-H ) :   0.1078 B(  0-C ,  3-H ) :   0.1128
B(  0-C ,  7-C ) :   1.3194 B(  0-C ,  8-H ) :   0.9540 B(  0-C ,  9-H ) :   0.9106
B(  0-C , 10-H ) :   0.1726 B(  0-C , 11-H ) :   0.2010 B(  0-C , 12-H ) :   0.1766
B(  1-C ,  2-H ) :   0.8849 B(  1-C ,  3-H ) :   0.8484 B(  1-C ,  4-C ) :   1.0790
B(  1-C ,  8-H ) :   0.1085 B(  2-H ,  4-C ) :   0.1413 B(  4-C ,  5-F ) :   0.6981
B(  4-C ,  6-O ) :   1.8071 B(  7-C , 10-H ) :   0.8723 B(  7-C , 11-H ) :   0.7610
B(  7-C , 12-H ) :   0.7961

Dispersion correction           -0.003208104
FINAL SINGLE POINT ENERGY      -331.394196766369

DIPOLE MOMENT
-------------
                                X             Y             Z
Electronic contribution:      1.72347      -4.31171      -8.46059
Nuclear contribution   :     -2.55684       4.59749       9.38828
                        -----------------------------------------
Total Dipole Moment    :     -0.83337       0.28578       0.92769
                        -----------------------------------------
Magnitude (a.u.)       :      1.27937
Magnitude (Debye)      :      3.25190

Rotational constants in cm-1:     0.200184     0.083263     0.071070
Rotational constants in MHz :  6001.373539  2496.169674  2130.635527

                             ****ORCA TERMINATED NORMALLY****
TOTAL RUN TIME: 0 days 0 hours 0 minutes 11 seconds 826 msec
