                         Program Version 5.0.0 -  RELEASE  -
|  1> !wB97X-D3 RIJCOSX def2-SVPD def2/J TightSCF
|  2> *xyz 0 1
|  3> C          2.48645       -2.67712       -2.56345
|  4> C          3.03764       -2.36672       -3.92351
|  5> C          2.28036       -2.45441       -4.96769
|  6> N          4.32174       -2.01793       -4.01664
|  7> H          4.87994       -1.91167       -3.17382
|  8> H          4.71015       -1.67088       -4.88356
|  9> H          1.27042       -2.41265       -4.86614
| 10> H          2.58183       -2.05528       -5.84688
| 11> C          2.49799       -1.46946       -1.61030
| 12> C          1.58284       -0.32199       -2.04262
| 13> H          2.19308       -1.83391       -0.62542
| 14> H          3.52336       -1.10398       -1.49039
| 15> H          1.47259       -3.05153       -2.69437
| 16> H          3.08320       -3.49064       -2.14147
| 17> H          1.88480        0.03130       -3.00642
| 18> H          1.65140        0.47571       -1.33278
| 19> H          0.57235       -0.67052       -2.09099
| 20> *
| 21>
| 22> %MaxCore 64000
| 23>
| 24> %pal nprocs 18
| 25> end
| 26>
| 27> %scf
| 28>   MaxIter 150
| 29> end
| 30>
| 31>
| 32>                          ****END OF INPUT****

CARTESIAN COORDINATES (ANGSTROEM)
---------------------------------
  C      2.486450   -2.677120   -2.563450
  C      3.037640   -2.366720   -3.923510
  C      2.280360   -2.454410   -4.967690
  N      4.321740   -2.017930   -4.016640
  H      4.879940   -1.911670   -3.173820
  H      4.710150   -1.670880   -4.883560
  H      1.270420   -2.412650   -4.866140
  H      2.581830   -2.055280   -5.846880
  C      2.497990   -1.469460   -1.610300
  C      1.582840   -0.321990   -2.042620
  H      2.193080   -1.833910   -0.625420
  H      3.523360   -1.103980   -1.490390
  H      1.472590   -3.051530   -2.694370
  H      3.083200   -3.490640   -2.141470
  H      1.884800    0.031300   -3.006420
  H      1.651400    0.475710   -1.332780
  H      0.572350   -0.670520   -2.090990

 Total Charge           Charge          ....    0
 Multiplicity           Mult            ....    1
 Number of Electrons    NEL             ....   48
 Basis Dimension        Dim             ....  208

ORBITAL ENERGIES
----------------

  NO   OCC          E(Eh)            E(eV)
   0   2.0000     -14.438673      -392.8963
   1   2.0000     -10.311551      -280.5916
   2   2.0000     -10.290336      -280.0143
   3   2.0000     -10.287499      -279.9371
   4   2.0000     -10.270560      -279.4761
   5   2.0000     -10.219374      -278.0833
   6   2.0000      -1.035023       -28.1644
   7   2.0000      -0.904283       -24.6068
   8   2.0000      -0.848727       -23.0950
   9   2.0000      -0.794463       -21.6184
  10   2.0000      -0.705910       -19.2088
  11   2.0000      -0.669852       -18.2276
  12   2.0000      -0.628387       -17.0993
  13   2.0000      -0.574435       -15.6312
  14   2.0000      -0.553652       -15.0657
  15   2.0000      -0.550210       -14.9720
  16   2.0000      -0.495469       -13.4824
  17   2.0000      -0.487209       -13.2576
  18   2.0000      -0.467073       -12.7097
  19   2.0000      -0.463923       -12.6240
  20   2.0000      -0.430995       -11.7280
  21   2.0000      -0.418674       -11.3927
  22   2.0000      -0.414812       -11.2876
  23   2.0000      -0.286557        -7.7976
  24   0.0000       0.087562         2.3827
  25   0.0000       0.109811         2.9881
  26   0.0000       0.116097         3.1592
  27   0.0000       0.121099         3.2953
  28   0.0000       0.141136         3.8405

MULLIKEN ATOMIC CHARGES
-----------------------
   0 C :    0.142282
   1 C :   -0.123829
   2 C :    0.400389
   3 N :    0.137891
   4 H :   -0.103560
   5 H :   -0.166540
   6 H :   -0.040018
   7 H :   -0.401721
   8 C :   -0.357723
   9 C :    0.674702
  10 H :   -0.086018
  11 H :   -0.052492
  12 H :    0.129595
  13 H :   -0.050653
  14 H :   -0.070461
  15 H :   -0.046889
  16 H :    0.015045
Sum of atomic charges:    0.0000000

LOEWDIN ATOMIC CHARGES
----------------------
   0 C :    0.003980
   1 C :   -0.261496
   2 C :    0.157784
   3 N :    0.172939
   4 H :   -0.002018
   5 H :    0.007152
   6 H :   -0.073345
   7 H :   -0.080251
   8 C :   -0.071603
   9 C :    0.124070
  10 H :    0.017753
  11 H :    0.007909
  12 H :    0.023686
  13 H :    0.026112
  14 H :   -0.019441
  15 H :   -0.019108
  16 H :   -0.014123

  Mayer bond orders larger than 0.100000
B(  0-C ,  1-C ) :   1.1658 B(  0-C ,  8-C ) :   1.1373 B(  0-C , 10-H ) :   0.1469
B(  0-C , 11-H ) :   0.1420 B(  0-C , 12-H ) :   0.7906 B(  0-C , 13-H ) :   0.9040
B(  1-C ,  2-C ) :   2.0878 B(  1-C ,  3-N ) :   1.1460 B(  1-C ,  6-H ) :   0.1526
B(  1-C ,  7-H ) :   0.2736 B(  1-C , 12-H ) :   0.1259 B(  1-C , 13-H ) :   0.1602
B(  2-C ,  3-N ) :   0.2569 B(  2-C ,  6-H ) :   0.8564 B(  2-C ,  7-H ) :   0.6553
B(  3-N ,  4-H ) :   1.1379 B(  3-N ,  5-H ) :   1.2007 B(  4-H ,  5-H ) :  -0.1479
B(  6-H ,  7-H ) :   0.1221 B(  8-C ,  9-C ) :   1.3052 B(  8-C , 10-H ) :   0.9543
B(  8-C , 11-H ) :   0.8913 B(  8-C , 12-H ) :   0.1381 B(  8-C , 14-H ) :   0.2308
B(  8-C , 15-H ) :   0.2102 B(  8-C , 16-H ) :   0.1983 B(  9-C , 14-H ) :   0.8390
B(  9-C , 15-H ) :   0.7807 B(  9-C , 16-H ) :   0.7876 B( 14-H , 16-H ) :   0.1014

Dispersion correction           -0.004671683
FINAL SINGLE POINT ENERGY      -251.639057643964

DIPOLE MOMENT
-------------
                                X             Y             Z
Electronic contribution:      2.45305      -2.09621      -2.12983
Nuclear contribution   :     -1.92525       2.50924       2.56958
                        -----------------------------------------
Total Dipole Moment    :      0.52781       0.41303       0.43975
                        -----------------------------------------
Magnitude (a.u.)       :      0.80159
Magnitude (Debye)      :      2.03748

Rotational constants in cm-1:     0.181985     0.078726     0.071856
Rotational constants in MHz :  5455.785660  2360.157292  2154.177820

                             ****ORCA TERMINATED NORMALLY****
TOTAL RUN TIME: 0 days 0 hours 0 minutes 13 seconds 858 msec
