                         Program Version 5.0.0 -  RELEASE  -
|  1> !wB97X-D3 RIJCOSX def2-SVPD def2/J TightSCF
|  2> *xyz 0 1
|  3> C         -0.87096        0.24804       -2.66280
|  4> C         -0.47749        0.60819       -4.10105
|  5> H          0.20677        1.45830       -4.11875
|  6> H         -1.36844        0.92942       -4.64785
|  7> C          0.18467       -0.50664       -4.91676
|  8> O         -0.15869       -1.70109       -4.65798
|  9> F          1.05594       -0.17441       -5.74037
| 10> C          0.10016       -0.67355       -1.91581
| 11> H         -1.00105        1.18104       -2.10407
| 12> H         -1.84465       -0.24659       -2.66328
| 13> H          0.22336       -1.58297       -2.46597
| 14> H         -0.29270       -0.89423       -0.94532
| 15> H          1.04759       -0.18666       -1.81480
| 16> *
| 17>
| 18> %MaxCore 64000
| 19>
| 20> %pal nprocs 18
| 21> end
| 22>
| 23> %scf
| 24>   MaxIter 150
| 25> end
| 26>
| 27>
| 28>                          ****END OF INPUT****

CARTESIAN COORDINATES (ANGSTROEM)
---------------------------------
  C     -0.870960    0.248040   -2.662800
  C     -0.477490    0.608190   -4.101050
  H      0.206770    1.458300   -4.118750
  H     -1.368440    0.929420   -4.647850
  C      0.184670   -0.506640   -4.916760
  O     -0.158690   -1.701090   -4.657980
  F      1.055940   -0.174410   -5.740370
  C      0.100160   -0.673550   -1.915810
  H     -1.001050    1.181040   -2.104070
  H     -1.844650   -0.246590   -2.663280
  H      0.223360   -1.582970   -2.465970
  H     -0.292700   -0.894230   -0.945320
  H      1.047590   -0.186660   -1.814800

 Total Charge           Charge          ....    0
 Multiplicity           Mult            ....    1
 Number of Electrons    NEL             ....   48
 Basis Dimension        Dim             ....  182

ORBITAL ENERGIES
----------------

  NO   OCC          E(Eh)            E(eV)
   0   2.0000     -24.880695      -677.0381
   1   2.0000     -19.254434      -523.9398
   2   2.0000     -10.478241      -285.1274
   3   2.0000     -10.324268      -280.9376
   4   2.0000     -10.303094      -280.3614
   5   2.0000     -10.272400      -279.5262
   6   2.0000      -1.434901       -39.0456
   7   2.0000      -1.135984       -30.9117
   8   2.0000      -0.921797       -25.0834
   9   2.0000      -0.840077       -22.8597
  10   2.0000      -0.774597       -21.0778
  11   2.0000      -0.719818       -19.5872
  12   2.0000      -0.664393       -18.0790
  13   2.0000      -0.641359       -17.4523
  14   2.0000      -0.613548       -16.6955
  15   2.0000      -0.573104       -15.5949
  16   2.0000      -0.555470       -15.1151
  17   2.0000      -0.515395       -14.0246
  18   2.0000      -0.498330       -13.5603
  19   2.0000      -0.461238       -12.5509
  20   2.0000      -0.453872       -12.3505
  21   2.0000      -0.440907       -11.9977
  22   2.0000      -0.435225       -11.8431
  23   2.0000      -0.389563       -10.6006
  24   0.0000       0.049078         1.3355
  25   0.0000       0.084092         2.2883
  26   0.0000       0.111178         3.0253
  27   0.0000       0.118779         3.2321
  28   0.0000       0.133292         3.6271

MULLIKEN ATOMIC CHARGES
-----------------------
   0 C :   -0.369402
   1 C :   -0.036836
   2 H :    0.107155
   3 H :    0.061930
   4 C :    0.746689
   5 O :   -0.561176
   6 F :   -0.363468
   7 C :    0.647968
   8 H :   -0.089440
   9 H :    0.006448
  10 H :   -0.102415
  11 H :   -0.015271
  12 H :   -0.032182
Sum of atomic charges:   -0.0000000

LOEWDIN ATOMIC CHARGES
----------------------
   0 C :   -0.056738
   1 C :    0.040575
   2 H :    0.027144
   3 H :    0.041642
   4 C :    0.013294
   5 O :   -0.146704
   6 F :   -0.028474
   7 C :    0.127526
   8 H :    0.023402
   9 H :    0.026149
  10 H :   -0.040886
  11 H :   -0.013694
  12 H :   -0.013237

  Mayer bond orders larger than 0.100000
B(  0-C ,  1-C ) :   1.2359 B(  0-C ,  2-H ) :   0.1110 B(  0-C ,  3-H ) :   0.1276
B(  0-C ,  7-C ) :   1.3282 B(  0-C ,  8-H ) :   0.9455 B(  0-C ,  9-H ) :   0.9033
B(  0-C , 10-H ) :   0.1789 B(  0-C , 11-H ) :   0.1984 B(  0-C , 12-H ) :   0.1729
B(  1-C ,  2-H ) :   0.8566 B(  1-C ,  3-H ) :   0.8280 B(  1-C ,  4-C ) :   1.1235
B(  1-C ,  8-H ) :   0.1021 B(  1-C ,  9-H ) :   0.1054 B(  2-H ,  4-C ) :   0.1121
B(  4-C ,  5-O ) :   1.8058 B(  4-C ,  6-F ) :   0.7230 B(  7-C , 10-H ) :   0.8711
B(  7-C , 11-H ) :   0.7531 B(  7-C , 12-H ) :   0.7890

Dispersion correction           -0.003191827
FINAL SINGLE POINT ENERGY      -331.387609504097

DIPOLE MOMENT
-------------
                                X             Y             Z
Electronic contribution:      3.80860      -1.73735     -10.37746
Nuclear contribution   :     -3.92885       2.87300      10.61091
                        -----------------------------------------
Total Dipole Moment    :     -0.12026       1.13564       0.23346
                        -----------------------------------------
Magnitude (a.u.)       :      1.16561
Magnitude (Debye)      :      2.96275

Rotational constants in cm-1:     0.209332     0.079487     0.069375
Rotational constants in MHz :  6275.605762  2382.960864  2079.805430

                             ****ORCA TERMINATED NORMALLY****
TOTAL RUN TIME: 0 days 0 hours 0 minutes 10 seconds 528 msec
