                         Program Version 5.0.0 -  RELEASE  -
|  1> !wB97X-D3 RIJCOSX def2-SVPD def2/J TightSCF
|  2> *xyz 0 1
|  3> C          2.48645       -2.67712       -2.56345
|  4> C          3.03764       -2.36672       -3.92351
|  5> N          2.28036       -2.45441       -4.96769
|  6> C          4.32174       -2.01793       -4.01664
|  7> H          4.87994       -1.91167       -3.17382
|  8> H          4.71015       -1.67088       -4.88356
|  9> H          1.27042       -2.41265       -4.86614
| 10> H          2.58183       -2.05528       -5.84688
| 11> C          2.49799       -1.46946       -1.61030
| 12> C          1.58284       -0.32199       -2.04262
| 13> H          2.19308       -1.83391       -0.62542
| 14> H          3.52336       -1.10398       -1.49039
| 15> H          1.47259       -3.05153       -2.69437
| 16> H          3.08320       -3.49064       -2.14147
| 17> H          1.88480        0.03130       -3.00642
| 18> H          1.65140        0.47571       -1.33278
| 19> H          0.57235       -0.67052       -2.09099
| 20> *
| 21>
| 22> %MaxCore 64000
| 23>
| 24> %pal nprocs 18
| 25> end
| 26>
| 27> %scf
| 28>   MaxIter 150
| 29> end
| 30>
| 31>
| 32>                          ****END OF INPUT****

CARTESIAN COORDINATES (ANGSTROEM)
---------------------------------
  C      2.486450   -2.677120   -2.563450
  C      3.037640   -2.366720   -3.923510
  N      2.280360   -2.454410   -4.967690
  C      4.321740   -2.017930   -4.016640
  H      4.879940   -1.911670   -3.173820
  H      4.710150   -1.670880   -4.883560
  H      1.270420   -2.412650   -4.866140
  H      2.581830   -2.055280   -5.846880
  C      2.497990   -1.469460   -1.610300
  C      1.582840   -0.321990   -2.042620
  H      2.193080   -1.833910   -0.625420
  H      3.523360   -1.103980   -1.490390
  H      1.472590   -3.051530   -2.694370
  H      3.083200   -3.490640   -2.141470
  H      1.884800    0.031300   -3.006420
  H      1.651400    0.475710   -1.332780
  H      0.572350   -0.670520   -2.090990

 Total Charge           Charge          ....    0
 Multiplicity           Mult            ....    1
 Number of Electrons    NEL             ....   48
 Basis Dimension        Dim             ....  208

ORBITAL ENERGIES
----------------

  NO   OCC          E(Eh)            E(eV)
   0   2.0000     -14.442360      -392.9966
   1   2.0000     -10.312038      -280.6048
   2   2.0000     -10.288263      -279.9579
   3   2.0000     -10.286598      -279.9126
   4   2.0000     -10.271737      -279.5082
   5   2.0000     -10.219958      -278.0992
   6   2.0000      -1.050337       -28.5811
   7   2.0000      -0.905680       -24.6448
   8   2.0000      -0.839743       -22.8506
   9   2.0000      -0.789518       -21.4839
  10   2.0000      -0.716115       -19.4865
  11   2.0000      -0.667947       -18.1758
  12   2.0000      -0.622471       -16.9383
  13   2.0000      -0.589198       -16.0329
  14   2.0000      -0.555232       -15.1086
  15   2.0000      -0.533288       -14.5115
  16   2.0000      -0.500207       -13.6113
  17   2.0000      -0.490176       -13.3384
  18   2.0000      -0.469141       -12.7660
  19   2.0000      -0.455788       -12.4026
  20   2.0000      -0.431035       -11.7290
  21   2.0000      -0.423982       -11.5371
  22   2.0000      -0.419718       -11.4211
  23   2.0000      -0.276575        -7.5260
  24   0.0000       0.088534         2.4091
  25   0.0000       0.106302         2.8926
  26   0.0000       0.118498         3.2245
  27   0.0000       0.121925         3.3177
  28   0.0000       0.137292         3.7359

MULLIKEN ATOMIC CHARGES
-----------------------
   0 C :    0.365844
   1 C :   -0.097947
   2 N :    0.087879
   3 C :    0.409767
   4 H :   -0.126756
   5 H :   -0.477024
   6 H :   -0.033689
   7 H :   -0.100864
   8 C :   -0.447167
   9 C :    0.653897
  10 H :   -0.061812
  11 H :   -0.055154
  12 H :   -0.051632
  13 H :    0.036959
  14 H :   -0.059316
  15 H :   -0.062509
  16 H :    0.019523
Sum of atomic charges:    0.0000000

LOEWDIN ATOMIC CHARGES
----------------------
   0 C :    0.004730
   1 C :   -0.263909
   2 N :    0.162878
   3 C :    0.173876
   4 H :   -0.081786
   5 H :   -0.087942
   6 H :    0.006767
   7 H :    0.013699
   8 C :   -0.066881
   9 C :    0.120887
  10 H :    0.017963
  11 H :    0.014805
  12 H :    0.012630
  13 H :    0.030559
  14 H :   -0.021110
  15 H :   -0.018263
  16 H :   -0.018900

  Mayer bond orders larger than 0.100000
B(  0-C ,  1-C ) :   1.0737 B(  0-C ,  2-N ) :   0.1046 B(  0-C ,  3-C ) :   0.1256
B(  0-C ,  8-C ) :   1.1592 B(  0-C , 10-H ) :   0.1011 B(  0-C , 11-H ) :   0.1293
B(  0-C , 12-H ) :   0.6808 B(  0-C , 13-H ) :   0.8110 B(  1-C ,  2-N ) :   0.9883
B(  1-C ,  3-C ) :   1.8318 B(  1-C ,  4-H ) :   0.1094 B(  1-C ,  5-H ) :   0.1433
B(  1-C , 12-H ) :   0.2381 B(  1-C , 13-H ) :   0.1391 B(  2-N ,  3-C ) :   0.2757
B(  2-N ,  6-H ) :   1.0003 B(  2-N ,  7-H ) :   1.1089 B(  3-C ,  4-H ) :   0.8131
B(  3-C ,  5-H ) :   0.8192 B(  6-H ,  7-H ) :  -0.1125 B(  8-C ,  9-C ) :   1.3092
B(  8-C , 10-H ) :   0.9580 B(  8-C , 11-H ) :   0.9442 B(  8-C , 12-H ) :   0.1860
B(  8-C , 13-H ) :   0.1063 B(  8-C , 14-H ) :   0.2284 B(  8-C , 15-H ) :   0.2099
B(  8-C , 16-H ) :   0.2070 B(  9-C , 14-H ) :   0.8318 B(  9-C , 15-H ) :   0.7971
B(  9-C , 16-H ) :   0.7905

Dispersion correction           -0.004645989
FINAL SINGLE POINT ENERGY      -251.639655216414

DIPOLE MOMENT
-------------
                                X             Y             Z
Electronic contribution:      0.69672      -2.40861      -2.94686
Nuclear contribution   :     -1.44240       2.61248       2.79453
                        -----------------------------------------
Total Dipole Moment    :     -0.74567       0.20387      -0.15233
                        -----------------------------------------
Magnitude (a.u.)       :      0.78790
Magnitude (Debye)      :      2.00269

Rotational constants in cm-1:     0.182540     0.078634     0.071436
Rotational constants in MHz :  5472.425685  2357.397154  2141.608207

                             ****ORCA TERMINATED NORMALLY****
TOTAL RUN TIME: 0 days 0 hours 0 minutes 13 seconds 871 msec
