                         Program Version 5.0.0 -  RELEASE  -
|  1> !wB97X-D3 RIJCOSX def2-SVPD def2/J TightSCF xyzfile
|  2>
|  3> *xyzfile 0 1 D2.xyz
|  4>
|  5> %MaxCore 64000
|  6>
|  7> %pal nprocs 18
|  8> end
|  9>
| 10> %scf
| 11>   MaxIter 150
| 12> end
| 13>
| 14>
| 15>                          ****END OF INPUT****

CARTESIAN COORDINATES (ANGSTROEM)
---------------------------------
  C      2.486452   -2.677121   -2.563447
  C     -0.870963    0.248043   -2.662804
  C     -0.477492    0.608191   -4.101052
  H      0.206773    1.458299   -4.118748
  H     -1.368442    0.929419   -4.647855
  C      0.184673   -0.506640   -4.916760
  C      3.037640   -2.366715   -3.923509
  N      2.280360   -2.454408   -4.967692
  C      4.321736   -2.017932   -4.016641
  H      4.879940   -1.911668   -3.173823
  H      4.710148   -1.670882   -4.883561
  H      1.270423   -2.412650   -4.866143
  H      2.581829   -2.055282   -5.846878
  F     -0.158685   -1.701088   -4.657981
  O      1.055938   -0.174410   -5.740373
  C      2.497991   -1.469464   -1.610303
  C      1.582841   -0.321986   -2.042619
  H      2.193083   -1.833912   -0.625420
  H      3.523356   -1.103982   -1.490392
  C      0.100160   -0.673551   -1.915815
  H      1.822311   -0.040361   -3.072834
  H      1.813180    0.557019   -1.433266
  H     -0.063284   -1.679120   -2.301112
  H     -0.168820   -0.691680   -0.853831
  H     -1.001048    1.181040   -2.104071
  H     -1.844645   -0.246592   -2.663281
  H      1.472592   -3.051527   -2.694366
  H      3.083201   -3.490638   -2.141472

 Total Charge           Charge          ....    0
 Multiplicity           Mult            ....    1
 Number of Electrons    NEL             ....   94
 Basis Dimension        Dim             ....  374

ORBITAL ENERGIES
----------------

  NO   OCC          E(Eh)            E(eV)
   0   2.0000     -24.900869      -677.5871
   1   2.0000     -19.274025      -524.4729
   2   2.0000     -14.414606      -392.2414
   3   2.0000     -10.493088      -285.5314
   4   2.0000     -10.331750      -281.1412
   5   2.0000     -10.312593      -280.6199
   6   2.0000     -10.300261      -280.2844
   7   2.0000     -10.298109      -280.2258
   8   2.0000     -10.290955      -280.0311
   9   2.0000     -10.287513      -279.9375
  10   2.0000     -10.284342      -279.8512
  11   2.0000     -10.206751      -277.7398
  12   2.0000      -1.449651       -39.4470
  13   2.0000      -1.168092       -31.7854
  14   2.0000      -1.033296       -28.1174
  15   2.0000      -0.948206       -25.8020
  16   2.0000      -0.906714       -24.6730
  17   2.0000      -0.864584       -23.5265
  18   2.0000      -0.817702       -22.2508
  19   2.0000      -0.799694       -21.7608
  20   2.0000      -0.776079       -21.1182
  21   2.0000      -0.734737       -19.9932
  22   2.0000      -0.702036       -19.1034
  23   2.0000      -0.692325       -18.8391
  24   2.0000      -0.675812       -18.3898
  25   2.0000      -0.644191       -17.5293
  26   2.0000      -0.615619       -16.7518
  27   2.0000      -0.601507       -16.3678
  28   2.0000      -0.586848       -15.9690
  29   2.0000      -0.580393       -15.7933
  30   2.0000      -0.573413       -15.6034
  31   2.0000      -0.547093       -14.8872
  32   2.0000      -0.530258       -14.4290
  33   2.0000      -0.521568       -14.1926
  34   2.0000      -0.509107       -13.8535
  35   2.0000      -0.492947       -13.4138
  36   2.0000      -0.485799       -13.2193
  37   2.0000      -0.475307       -12.9338
  38   2.0000      -0.463555       -12.6140
  39   2.0000      -0.453104       -12.3296
  40   2.0000      -0.441609       -12.0168
  41   2.0000      -0.434623       -11.8267
  42   2.0000      -0.421201       -11.4615
  43   2.0000      -0.417295       -11.3552
  44   2.0000      -0.408594       -11.1184
  45   2.0000      -0.399604       -10.8738
  46   2.0000      -0.260869        -7.0986
  47   0.0000       0.035012         0.9527
  48   0.0000       0.076403         2.0790
  49   0.0000       0.099241         2.7005
  50   0.0000       0.103736         2.8228
  51   0.0000       0.105452         2.8695

MULLIKEN ATOMIC CHARGES
-----------------------
   0 C :    0.521258
   1 C :    0.460832
   2 C :    0.120761
   3 H :    0.252882
   4 H :   -0.203367
   5 C :    0.570999
   6 C :   -0.142938
   7 N :    0.333627
   8 C :    0.374125
   9 H :   -0.134081
  10 H :   -0.374509
  11 H :   -0.373313
  12 H :    0.012528
  13 F :   -0.549526
  14 O :   -0.443452
  15 C :    0.211685
  16 C :    0.122548
  17 H :   -0.063468
  18 H :   -0.043987
  19 C :    0.027330
  20 H :   -0.131669
  21 H :   -0.188366
  22 H :   -0.010893
  23 H :   -0.169370
  24 H :   -0.086295
  25 H :    0.044639
  26 H :   -0.100706
  27 H :   -0.037273
Sum of atomic charges:    0.0000000

LOEWDIN ATOMIC CHARGES
----------------------
   0 C :    0.022170
   1 C :   -0.018198
   2 C :    0.059516
   3 H :    0.041216
   4 H :    0.041887
   5 C :    0.010816
   6 C :   -0.241760
   7 N :    0.190384
   8 C :    0.171420
   9 H :   -0.086974
  10 H :   -0.087737
  11 H :   -0.080236
  12 H :    0.014497
  13 F :   -0.046140
  14 O :   -0.119242
  15 C :   -0.014654
  16 C :   -0.013239
  17 H :    0.022820
  18 H :    0.018612
  19 C :   -0.029555
  20 H :    0.007528
  21 H :    0.028742
  22 H :   -0.007939
  23 H :    0.030300
  24 H :    0.027917
  25 H :    0.024447
  26 H :    0.001033
  27 H :    0.032369

  Mayer bond orders larger than 0.100000
B(  0-C ,  6-C ) :   0.9903 B(  0-C ,  7-N ) :   0.1184 B(  0-C , 10-H ) :   0.1024
B(  0-C , 15-C ) :   1.1620 B(  0-C , 17-H ) :   0.1383 B(  0-C , 18-H ) :   0.1642
B(  0-C , 26-H ) :   0.6226 B(  0-C , 27-H ) :   0.7641 B(  1-C ,  2-C ) :   1.1703
B(  1-C ,  4-H ) :   0.1235 B(  1-C , 19-C ) :   1.2809 B(  1-C , 24-H ) :   0.7961
B(  1-C , 25-H ) :   0.7011 B(  2-C ,  3-H ) :   0.7693 B(  2-C ,  4-H ) :   0.7964
B(  2-C ,  5-C ) :   1.2106 B(  2-C , 24-H ) :   0.1246 B(  3-H ,  5-C ) :   0.2036
B(  4-H ,  5-C ) :   0.2666 B(  5-C , 13-F ) :   0.5625 B(  5-C , 14-O ) :   1.8162
B(  6-C ,  7-N ) :   1.0351 B(  6-C ,  8-C ) :   1.8547 B(  6-C ,  9-H ) :   0.1439
B(  6-C , 10-H ) :   0.1908 B(  6-C , 26-H ) :   0.2259 B(  6-C , 27-H ) :   0.1494
B(  7-N ,  8-C ) :   0.2726 B(  7-N , 11-H ) :   0.8911 B(  7-N , 12-H ) :   0.9622
B(  8-C ,  9-H ) :   0.8277 B(  8-C , 10-H ) :   0.7053 B( 11-H , 12-H ) :  -0.1270
B( 11-H , 13-F ) :   0.1710 B( 15-C , 16-C ) :   1.2206 B( 15-C , 17-H ) :   0.8641
B( 15-C , 18-H ) :   0.7483 B( 15-C , 20-H ) :   0.1623 B( 15-C , 26-H ) :   0.1933
B( 15-C , 27-H ) :   0.1342 B( 16-C , 17-H ) :   0.1371 B( 16-C , 18-H ) :   0.2070
B( 16-C , 19-C ) :   1.1561 B( 16-C , 20-H ) :   0.8573 B( 16-C , 21-H ) :   0.9115
B( 16-C , 23-H ) :   0.2140 B( 17-H , 18-H ) :  -0.1110 B( 19-C , 20-H ) :   0.1173
B( 19-C , 21-H ) :   0.1118 B( 19-C , 22-H ) :   0.8743 B( 19-C , 23-H ) :   0.8525
B( 19-C , 24-H ) :   0.1853 B( 19-C , 25-H ) :   0.2122 B( 22-H , 26-H ) :   0.1139

Dispersion correction           -0.013541331
FINAL SINGLE POINT ENERGY      -581.827706206307

DIPOLE MOMENT
-------------
                                X             Y             Z
Electronic contribution:     -5.35736      -1.78403     -10.85215
Nuclear contribution   :      3.65024       2.44123      11.52670
                        -----------------------------------------
Total Dipole Moment    :     -1.70712       0.65720       0.67456
                        -----------------------------------------
Magnitude (a.u.)       :      1.94966
Magnitude (Debye)      :      4.95565

Rotational constants in cm-1:     0.040600     0.026409     0.019262
Rotational constants in MHz :  1217.142957   791.712481   577.449390

                             ****ORCA TERMINATED NORMALLY****
TOTAL RUN TIME: 0 days 0 hours 1 minutes 5 seconds 885 msec
