                         Program Version 5.0.0 -  RELEASE  -
|  1> !TPSS D3BJ RIJCOSX def2-SVPD def2/J TightSCF
|  2> *xyz -1 1
|  3> C          0.70466        1.44313       -4.50363
|  4> C          1.72854        1.42432       -5.63944
|  5> H          2.64672        1.95379       -5.38105
|  6> H          1.29992        1.93061       -6.50361
|  7> S          2.25263       -0.18811       -6.27184
|  8> O          3.56261       -0.44446       -5.63155
|  9> O          2.34494       -0.03374       -7.69650
| 10> C          1.05255        0.69566       -3.21491
| 11> H         -0.23248        1.03293       -4.88445
| 12> H          0.51170        2.49579       -4.26797
| 13> O          1.26606       -1.15918       -5.80536
| 14> H          1.24200       -0.33323       -3.43942
| 15> H          0.23391        0.76629       -2.52954
| 16> H          1.92506        1.13113       -2.77446
| 17> *
| 18>
| 19> %MaxCore 64000
| 20>
| 21> %pal nprocs 8
| 22> end
| 23>
| 24> %scf
| 25>   MaxIter 150
| 26> end
| 27>
| 28>
| 29>                          ****END OF INPUT****

CARTESIAN COORDINATES (ANGSTROEM)
---------------------------------
  C      0.704660    1.443130   -4.503630
  C      1.728540    1.424320   -5.639440
  H      2.646720    1.953790   -5.381050
  H      1.299920    1.930610   -6.503610
  S      2.252630   -0.188110   -6.271840
  O      3.562610   -0.444460   -5.631550
  O      2.344940   -0.033740   -7.696500
  C      1.052550    0.695660   -3.214910
  H     -0.232480    1.032930   -4.884450
  H      0.511700    2.495790   -4.267970
  O      1.266060   -1.159180   -5.805360
  H      1.242000   -0.333230   -3.439420
  H      0.233910    0.766290   -2.529540
  H      1.925060    1.131130   -2.774460

 Total Charge           Charge          ....   -1
 Multiplicity           Mult            ....    1
 Number of Electrons    NEL             ....   66
 Basis Dimension        Dim             ....  212

ORBITAL ENERGIES
----------------

  NO   OCC          E(Eh)            E(eV)
   0   2.0000     -88.367551     -2404.6033
   1   2.0000     -18.683536      -508.4049
   2   2.0000     -18.677766      -508.2479
   3   2.0000     -18.668816      -508.0043
   4   2.0000      -9.873059      -268.6596
   5   2.0000      -9.862215      -268.3645
   6   2.0000      -9.856212      -268.2012
   7   2.0000      -7.727364      -210.2723
   8   2.0000      -5.713391      -155.4693
   9   2.0000      -5.713240      -155.4652
  10   2.0000      -5.712448      -155.4436
  11   2.0000      -0.854484       -23.2517
  12   2.0000      -0.722354       -19.6563
  13   2.0000      -0.699535       -19.0353
  14   2.0000      -0.592485       -16.1223
  15   2.0000      -0.509405       -13.8616
  16   2.0000      -0.419221       -11.4076
  17   2.0000      -0.330898        -9.0042
  18   2.0000      -0.287702        -7.8288
  19   2.0000      -0.276164        -7.5148
  20   2.0000      -0.250055        -6.8043
  21   2.0000      -0.238718        -6.4959
  22   2.0000      -0.217153        -5.9090
  23   2.0000      -0.208381        -5.6703
  24   2.0000      -0.186430        -5.0730
  25   2.0000      -0.180583        -4.9139
  26   2.0000      -0.169026        -4.5994
  27   2.0000      -0.107015        -2.9120
  28   2.0000      -0.105212        -2.8630
  29   2.0000      -0.074569        -2.0291
  30   2.0000      -0.068934        -1.8758
  31   2.0000      -0.057817        -1.5733
  32   2.0000      -0.023029        -0.6267
  33   0.0000       0.125770         3.4224
  34   0.0000       0.151607         4.1254
  35   0.0000       0.158296         4.3074
  36   0.0000       0.165621         4.5068
  37   0.0000       0.185335         5.0432

MULLIKEN ATOMIC CHARGES
-----------------------
   0 C :   -0.326916
   1 C :    0.003213
   2 H :    0.020324
   3 H :    0.030880
   4 S :    1.231267
   5 O :   -0.794497
   6 O :   -0.787201
   7 C :    0.698774
   8 H :    0.011675
   9 H :   -0.125371
  10 O :   -0.802729
  11 H :   -0.112187
  12 H :   -0.028765
  13 H :   -0.018468
Sum of atomic charges:   -1.0000000

LOEWDIN ATOMIC CHARGES
----------------------
   0 C :   -0.090591
   1 C :   -0.078288
   2 H :   -0.002732
   3 H :   -0.010894
   4 S :    0.850088
   5 O :   -0.589079
   6 O :   -0.562271
   7 C :    0.131136
   8 H :    0.011776
   9 H :    0.000660
  10 O :   -0.565037
  11 H :   -0.033179
  12 H :   -0.035852
  13 H :   -0.025738

  Mayer bond orders larger than 0.100000
B(  0-C ,  1-C ) :   1.2920 B(  0-C ,  2-H ) :   0.1242 B(  0-C ,  3-H ) :   0.1406
B(  0-C ,  7-C ) :   1.2790 B(  0-C ,  8-H ) :   0.8984 B(  0-C ,  9-H ) :   0.8979
B(  0-C , 11-H ) :   0.2155 B(  0-C , 12-H ) :   0.2145 B(  0-C , 13-H ) :   0.2123
B(  1-C ,  2-H ) :   0.9289 B(  1-C ,  3-H ) :   0.8905 B(  1-C ,  4-S ) :   0.8526
B(  1-C ,  6-O ) :   0.1081 B(  1-C ,  8-H ) :   0.1407 B(  1-C ,  9-H ) :   0.1484
B(  4-S ,  5-O ) :   1.2855 B(  4-S ,  6-O ) :   1.3653 B(  4-S , 10-O ) :   1.2896
B(  7-C , 11-H ) :   0.8460 B(  7-C , 12-H ) :   0.7467 B(  7-C , 13-H ) :   0.7843

Dispersion correction           -0.016537147
FINAL SINGLE POINT ENERGY      -742.146480804920

DIPOLE MOMENT
-------------
                                X             Y             Z
Electronic contribution:      4.42567      -5.70504      -8.05935
Nuclear contribution   :     -5.44810       7.35485       9.25157
                        -----------------------------------------
Total Dipole Moment    :     -1.02243       1.64981       1.19222
                        -----------------------------------------
Magnitude (a.u.)       :      2.27786
Magnitude (Debye)      :      5.78985

Rotational constants in cm-1:     0.135801     0.054229     0.051056
Rotational constants in MHz :  4071.225075  1625.746654  1530.611411

                             ****ORCA TERMINATED NORMALLY****
TOTAL RUN TIME: 0 days 0 hours 0 minutes 8 seconds 449 msec
