                         Program Version 5.0.0 -  RELEASE  -
|  1> !TPSS D3BJ RIJCOSX def2-SVPD def2/J TightSCF
|  2> *xyz 1 1
|  3> C          2.91632       -1.24259       -1.54313
|  4> C          3.46659       -1.59097       -2.88908
|  5> N          4.65227       -1.14316       -3.25969
|  6> N          2.75226       -2.29204       -3.72803
|  7> H          1.77836       -2.48960       -3.51274
|  8> H          2.94861       -2.20854       -4.71681
|  9> H          5.14672       -0.51251       -2.63385
| 10> H          4.78303       -1.00720       -4.25350
| 11> C          2.80408        0.29070       -1.35924
| 12> C          2.38838        1.09367       -2.59711
| 13> H          3.76342        0.67472       -0.99989
| 14> H          2.09479        0.46122       -0.54576
| 15> H          1.94047       -1.71653       -1.44116
| 16> H          3.55857       -1.66343       -0.76637
| 17> H          3.08894        0.91965       -3.38694
| 18> H          2.37301        2.13633       -2.35728
| 19> H          1.41303        0.78551       -2.91115
| 20> *
| 21>
| 22> %MaxCore 64000
| 23>
| 24> %pal nprocs 8
| 25> end
| 26>
| 27> %scf
| 28>   MaxIter 150
| 29> end
| 30>
| 31>
| 32>                          ****END OF INPUT****

CARTESIAN COORDINATES (ANGSTROEM)
---------------------------------
  C      2.916320   -1.242590   -1.543130
  C      3.466590   -1.590970   -2.889080
  N      4.652270   -1.143160   -3.259690
  N      2.752260   -2.292040   -3.728030
  H      1.778360   -2.489600   -3.512740
  H      2.948610   -2.208540   -4.716810
  H      5.146720   -0.512510   -2.633850
  H      4.783030   -1.007200   -4.253500
  C      2.804080    0.290700   -1.359240
  C      2.388380    1.093670   -2.597110
  H      3.763420    0.674720   -0.999890
  H      2.094790    0.461220   -0.545760
  H      1.940470   -1.716530   -1.441160
  H      3.558570   -1.663430   -0.766370
  H      3.088940    0.919650   -3.386940
  H      2.373010    2.136330   -2.357280
  H      1.413030    0.785510   -2.911150

 Total Charge           Charge          ....    1
 Multiplicity           Mult            ....    1
 Number of Electrons    NEL             ....   48
 Basis Dimension        Dim             ....  208

ORBITAL ENERGIES
----------------

  NO   OCC          E(Eh)            E(eV)
   0   2.0000     -14.365011      -390.8918
   1   2.0000     -14.359601      -390.7446
   2   2.0000     -10.311308      -280.5850
   3   2.0000     -10.198189      -277.5068
   4   2.0000     -10.169018      -276.7131
   5   2.0000     -10.139357      -275.9059
   6   2.0000      -1.134215       -30.8636
   7   2.0000      -1.041083       -28.3293
   8   2.0000      -0.912066       -24.8186
   9   2.0000      -0.833378       -22.6774
  10   2.0000      -0.783627       -21.3236
  11   2.0000      -0.735444       -20.0125
  12   2.0000      -0.721095       -19.6220
  13   2.0000      -0.686524       -18.6813
  14   2.0000      -0.654860       -17.8197
  15   2.0000      -0.620223       -16.8771
  16   2.0000      -0.590115       -16.0578
  17   2.0000      -0.553309       -15.0563
  18   2.0000      -0.537897       -14.6369
  19   2.0000      -0.528127       -14.3711
  20   2.0000      -0.477026       -12.9805
  21   2.0000      -0.472837       -12.8665
  22   2.0000      -0.463991       -12.6258
  23   2.0000      -0.456522       -12.4226
  24   0.0000      -0.247927        -6.7464
  25   0.0000      -0.171437        -4.6650
  26   0.0000      -0.133492        -3.6325
  27   0.0000      -0.130597        -3.5537
  28   0.0000      -0.098706        -2.6859

MULLIKEN ATOMIC CHARGES
-----------------------
   0 C :    0.294394
   1 C :    0.415878
   2 N :    0.077435
   3 N :    0.043296
   4 H :    0.052442
   5 H :   -0.090634
   6 H :    0.065832
   7 H :   -0.024844
   8 C :   -0.410246
   9 C :    0.724530
  10 H :    0.025638
  11 H :   -0.150682
  12 H :    0.098133
  13 H :    0.022823
  14 H :   -0.070572
  15 H :   -0.074956
  16 H :    0.001531
Sum of atomic charges:    1.0000000

LOEWDIN ATOMIC CHARGES
----------------------
   0 C :    0.064900
   1 C :   -0.068141
   2 N :    0.292177
   3 N :    0.293379
   4 H :    0.055589
   5 H :    0.047989
   6 H :    0.053622
   7 H :    0.046008
   8 C :   -0.026161
   9 C :    0.153420
  10 H :    0.022277
  11 H :    0.035184
  12 H :    0.031358
  13 H :    0.049209
  14 H :   -0.040566
  15 H :   -0.000543
  16 H :   -0.009701

  Mayer bond orders larger than 0.100000
B(  0-C ,  1-C ) :   1.1896 B(  0-C ,  8-C ) :   1.2047 B(  0-C , 11-H ) :   0.1098
B(  0-C , 12-H ) :   0.7813 B(  0-C , 13-H ) :   0.7600 B(  1-C ,  2-N ) :   1.1257
B(  1-C ,  3-N ) :   1.0522 B(  1-C ,  5-H ) :  -0.1081 B(  1-C , 12-H ) :   0.1292
B(  1-C , 13-H ) :   0.1765 B(  2-N ,  3-N ) :   0.2038 B(  2-N ,  6-H ) :   0.9761
B(  2-N ,  7-H ) :   1.1253 B(  3-N ,  4-H ) :   1.0333 B(  3-N ,  5-H ) :   1.1909
B(  4-H ,  5-H ) :  -0.1302 B(  6-H ,  7-H ) :  -0.1114 B(  8-C ,  9-C ) :   1.3366
B(  8-C , 10-H ) :   0.9006 B(  8-C , 11-H ) :   0.9927 B(  8-C , 12-H ) :   0.1429
B(  8-C , 14-H ) :   0.2195 B(  8-C , 15-H ) :   0.2163 B(  8-C , 16-H ) :   0.1874
B(  9-C , 14-H ) :   0.8275 B(  9-C , 15-H ) :   0.7637 B(  9-C , 16-H ) :   0.7896

Dispersion correction           -0.017411868
FINAL SINGLE POINT ENERGY      -268.218299986235

DIPOLE MOMENT
-------------
                                X             Y             Z
Electronic contribution:      2.04388      -4.55997      -1.88822
Nuclear contribution   :     -1.81078       3.96608       0.97433
                        -----------------------------------------
Total Dipole Moment    :      0.23310      -0.59389      -0.91389
                        -----------------------------------------
Magnitude (a.u.)       :      1.11456
Magnitude (Debye)      :      2.83298

Rotational constants in cm-1:     0.170042     0.080945     0.078209
Rotational constants in MHz :  5097.737821  2426.678005  2344.636232

                             ****ORCA TERMINATED NORMALLY****
TOTAL RUN TIME: 0 days 0 hours 0 minutes 8 seconds 55 msec
