                         Program Version 5.0.0 -  RELEASE  -
|  1> !TPSS D3BJ RIJCOSX def2-SVPD def2/J TightSCF xyzfile
|  2>
|  3> *xyzfile 0 1 B.xyz
|  4>
|  5> %MaxCore 64000
|  6>
|  7> %pal nprocs 4
|  8> end
|  9>
| 10> %scf
| 11>   MaxIter 150
| 12> end
| 13>
| 14>
| 15>                          ****END OF INPUT****

CARTESIAN COORDINATES (ANGSTROEM)
---------------------------------
  C      2.916324   -1.242589   -1.543125
  C      0.704661    1.443129   -4.503630
  C      1.728539    1.424320   -5.639443
  H      2.646718    1.953794   -5.381054
  H      1.299916    1.930613   -6.503614
  S      2.252625   -0.188115   -6.271840
  C      3.466585   -1.590971   -2.889082
  N      4.652275   -1.143164   -3.259692
  N      2.752264   -2.292043   -3.728029
  H      1.778364   -2.489604   -3.512738
  H      2.948612   -2.208544   -4.716813
  H      5.146723   -0.512508   -2.633852
  H      4.783030   -1.007203   -4.253498
  O      3.562607   -0.444464   -5.631552
  O      2.344944   -0.033742   -7.696501
  C      2.804084    0.290698   -1.359243
  C      1.052550    0.695659   -3.214915
  H     -0.232483    1.032925   -4.884449
  H      0.511700    2.495794   -4.267966
  C      2.388380    1.093669   -2.597108
  H      3.763425    0.674718   -0.999889
  H      2.094788    0.461222   -0.545756
  O      1.266058   -1.159177   -5.805365
  H      3.167316    1.013242   -3.359430
  H      2.357690    2.149375   -2.310997
  H      1.039284   -0.368429   -3.449329
  H      0.250787    0.865605   -2.488283
  H      1.940472   -1.716529   -1.441161
  H      3.558569   -1.663433   -0.766371

 Total Charge           Charge          ....    0
 Multiplicity           Mult            ....    1
 Number of Electrons    NEL             ....  112
 Basis Dimension        Dim             ....  404

ORBITAL ENERGIES
----------------

  NO   OCC          E(Eh)            E(eV)
   0   2.0000     -88.522717     -2408.8256
   1   2.0000     -18.841058      -512.6913
   2   2.0000     -18.833918      -512.4970
   3   2.0000     -18.824999      -512.2543
   4   2.0000     -14.191581      -386.1726
   5   2.0000     -14.190741      -386.1497
   6   2.0000     -10.149085      -276.1707
   7   2.0000     -10.064953      -273.8813
   8   2.0000     -10.044622      -273.3281
   9   2.0000     -10.016943      -272.5749
  10   2.0000     -10.004527      -272.2370
  11   2.0000     -10.000688      -272.1326
  12   2.0000      -9.997529      -272.0466
  13   2.0000      -7.881586      -214.4689
  14   2.0000      -5.868412      -159.6876
  15   2.0000      -5.867378      -159.6595
  16   2.0000      -5.866059      -159.6236
  17   2.0000      -1.010486       -27.4967
  18   2.0000      -0.966688       -26.3049
  19   2.0000      -0.875121       -23.8133
  20   2.0000      -0.870775       -23.6950
  21   2.0000      -0.866622       -23.5820
  22   2.0000      -0.782285       -21.2871
  23   2.0000      -0.737766       -20.0756
  24   2.0000      -0.693886       -18.8816
  25   2.0000      -0.644601       -17.5405
  26   2.0000      -0.619940       -16.8694
  27   2.0000      -0.587036       -15.9741
  28   2.0000      -0.556005       -15.1297
  29   2.0000      -0.543595       -14.7920
  30   2.0000      -0.533035       -14.5046
  31   2.0000      -0.492942       -13.4136
  32   2.0000      -0.481958       -13.1147
  33   2.0000      -0.468535       -12.7495
  34   2.0000      -0.455881       -12.4051
  35   2.0000      -0.430787       -11.7223
  36   2.0000      -0.422810       -11.5052
  37   2.0000      -0.405385       -11.0311
  38   2.0000      -0.394493       -10.7347
  39   2.0000      -0.391358       -10.6494
  40   2.0000      -0.385818       -10.4986
  41   2.0000      -0.375104       -10.2071
  42   2.0000      -0.362532        -9.8650
  43   2.0000      -0.349665        -9.5149
  44   2.0000      -0.342028        -9.3071
  45   2.0000      -0.337438        -9.1821
  46   2.0000      -0.311459        -8.4752
  47   2.0000      -0.304519        -8.2864
  48   2.0000      -0.293527        -7.9873
  49   2.0000      -0.290354        -7.9009
  50   2.0000      -0.264190        -7.1890
  51   2.0000      -0.259031        -7.0486
  52   2.0000      -0.226415        -6.1611
  53   2.0000      -0.221833        -6.0364
  54   2.0000      -0.214763        -5.8440
  55   2.0000      -0.184068        -5.0087
  56   0.0000      -0.086940        -2.3658
  57   0.0000      -0.030411        -0.8275
  58   0.0000      -0.005274        -0.1435
  59   0.0000       0.010856         0.2954
  60   0.0000       0.015444         0.4203

MULLIKEN ATOMIC CHARGES
-----------------------
   0 C :    0.382390
   1 C :    0.440074
   2 C :    0.107502
   3 H :    0.128438
   4 H :   -0.176490
   5 S :    1.271504
   6 C :    0.318912
   7 N :    0.215920
   8 N :    0.261182
   9 H :    0.073964
  10 H :   -0.179508
  11 H :    0.051284
  12 H :   -0.205218
  13 O :   -0.861525
  14 O :   -0.753923
  15 C :    0.335942
  16 C :    0.153736
  17 H :    0.051459
  18 H :   -0.052276
  19 C :   -0.087187
  20 H :    0.006802
  21 H :   -0.091716
  22 O :   -0.860716
  23 H :    0.027924
  24 H :   -0.155612
  25 H :   -0.315234
  26 H :   -0.051885
  27 H :    0.149285
  28 H :   -0.185027
Sum of atomic charges:    0.0000000

LOEWDIN ATOMIC CHARGES
----------------------
   0 C :    0.058462
   1 C :   -0.023822
   2 C :   -0.050509
   3 H :    0.001339
   4 H :    0.005612
   5 S :    0.921663
   6 C :   -0.071581
   7 N :    0.291657
   8 N :    0.304788
   9 H :    0.039065
  10 H :   -0.025690
  11 H :    0.037823
  12 H :   -0.035028
  13 O :   -0.558187
  14 O :   -0.500332
  15 C :    0.002155
  16 C :   -0.012964
  17 H :    0.025823
  18 H :    0.021324
  19 C :   -0.013372
  20 H :    0.013875
  21 H :    0.023185
  22 O :   -0.533999
  23 H :   -0.005491
  24 H :    0.028018
  25 H :   -0.022951
  26 H :    0.024906
  27 H :    0.022972
  28 H :    0.031258

  Mayer bond orders larger than 0.100000
B(  0-C ,  6-C ) :   1.1300 B(  0-C ,  8-N ) :   0.1066 B(  0-C , 15-C ) :   1.1570
B(  0-C , 21-H ) :   0.1091 B(  0-C , 27-H ) :   0.7403 B(  0-C , 28-H ) :   0.7315
B(  1-C ,  2-C ) :   1.2349 B(  1-C ,  4-H ) :   0.1983 B(  1-C , 16-C ) :   1.2535
B(  1-C , 17-H ) :   0.6723 B(  1-C , 18-H ) :   0.7466 B(  2-C ,  3-H ) :   0.8686
B(  2-C ,  4-H ) :   0.8975 B(  2-C ,  5-S ) :   0.8819 B(  2-C , 14-O ) :   0.1131
B(  2-C , 17-H ) :   0.1229 B(  2-C , 18-H ) :   0.1636 B(  5-S , 13-O ) :   1.1579
B(  5-S , 14-O ) :   1.4020 B(  5-S , 22-O ) :   1.2317 B(  6-C ,  7-N ) :   1.0180
B(  6-C ,  8-N ) :   1.1363 B(  6-C , 27-H ) :   0.1664 B(  6-C , 28-H ) :   0.2400
B(  7-N ,  8-N ) :   0.2194 B(  7-N , 11-H ) :   0.9965 B(  7-N , 12-H ) :   1.0967
B(  8-N ,  9-H ) :   0.9552 B(  8-N , 10-H ) :   1.0835 B(  9-H , 10-H ) :  -0.1253
B( 10-H , 13-O ) :   0.1371 B( 11-H , 12-H ) :  -0.1408 B( 12-H , 13-O ) :   0.1445
B( 15-C , 19-C ) :   1.2462 B( 15-C , 20-H ) :   0.7086 B( 15-C , 21-H ) :   0.8486
B( 15-C , 23-H ) :   0.1478 B( 15-C , 27-H ) :   0.1178 B( 16-C , 17-H ) :   0.2517
B( 16-C , 18-H ) :   0.1006 B( 16-C , 19-C ) :   1.2694 B( 16-C , 23-H ) :   0.1459
B( 16-C , 24-H ) :   0.1720 B( 16-C , 25-H ) :   0.9160 B( 16-C , 26-H ) :   0.7149
B( 19-C , 20-H ) :   0.2335 B( 19-C , 21-H ) :   0.1577 B( 19-C , 23-H ) :   0.8537
B( 19-C , 24-H ) :   0.8423 B( 19-C , 25-H ) :   0.1227 B( 19-C , 26-H ) :   0.1991
B( 20-H , 21-H ) :  -0.1175

Dispersion correction           -0.046210629
FINAL SINGLE POINT ENERGY     -1009.338782483987

DIPOLE MOMENT
-------------
                                X             Y             Z
Electronic contribution:      2.75455      -6.29542     -13.41045
Nuclear contribution   :     -1.90023       6.18953      17.82209
                        -----------------------------------------
Total Dipole Moment    :      0.85432      -0.10589       4.41164
                        -----------------------------------------
Magnitude (a.u.)       :      4.49485
Magnitude (Debye)      :     11.42500

Rotational constants in cm-1:     0.036337     0.018755     0.015005
Rotational constants in MHz :  1089.341704   562.266628   449.834770

                             ****ORCA TERMINATED NORMALLY****
TOTAL RUN TIME: 0 days 0 hours 1 minutes 1 seconds 448 msec
