                         Program Version 5.0.0 -  RELEASE  -
|  1> !TPSS D3BJ RIJCOSX def2-SVPD def2/J TightSCF
|  2> *xyz 0 1
|  3> C          0.70466        1.44313       -4.50363
|  4> C          1.72854        1.42432       -5.63944
|  5> H          2.64672        1.95379       -5.38105
|  6> H          1.29992        1.93061       -6.50361
|  7> S          2.25263       -0.18811       -6.27184
|  8> F          3.56261       -0.44446       -5.63155
|  9> O          2.34494       -0.03374       -7.69650
| 10> C          1.05255        0.69566       -3.21491
| 11> H         -0.23248        1.03293       -4.88445
| 12> H          0.51170        2.49579       -4.26797
| 13> O          1.26606       -1.15918       -5.80536
| 14> H          1.24200       -0.33323       -3.43942
| 15> H          0.23391        0.76629       -2.52954
| 16> H          1.92506        1.13113       -2.77446
| 17> *
| 18>
| 19> %MaxCore 64000
| 20>
| 21> %pal nprocs 8
| 22> end
| 23>
| 24> %scf
| 25>   MaxIter 150
| 26> end
| 27>
| 28>
| 29>                          ****END OF INPUT****

CARTESIAN COORDINATES (ANGSTROEM)
---------------------------------
  C      0.704660    1.443130   -4.503630
  C      1.728540    1.424320   -5.639440
  H      2.646720    1.953790   -5.381050
  H      1.299920    1.930610   -6.503610
  S      2.252630   -0.188110   -6.271840
  F      3.562610   -0.444460   -5.631550
  O      2.344940   -0.033740   -7.696500
  C      1.052550    0.695660   -3.214910
  H     -0.232480    1.032930   -4.884450
  H      0.511700    2.495790   -4.267970
  O      1.266060   -1.159180   -5.805360
  H      1.242000   -0.333230   -3.439420
  H      0.233910    0.766290   -2.529540
  H      1.925060    1.131130   -2.774460

 Total Charge           Charge          ....    0
 Multiplicity           Mult            ....    1
 Number of Electrons    NEL             ....   66
 Basis Dimension        Dim             ....  212

ORBITAL ENERGIES
----------------

  NO   OCC          E(Eh)            E(eV)
   0   2.0000     -88.618996     -2411.4455
   1   2.0000     -24.521609      -667.2669
   2   2.0000     -18.914321      -514.6848
   3   2.0000     -18.907292      -514.4936
   4   2.0000     -10.060391      -273.7571
   5   2.0000     -10.029986      -272.9298
   6   2.0000     -10.001289      -272.1489
   7   2.0000      -7.980013      -217.1472
   8   2.0000      -5.970128      -162.4554
   9   2.0000      -5.963921      -162.2865
  10   2.0000      -5.962122      -162.2376
  11   2.0000      -1.260212       -34.2921
  12   2.0000      -1.039938       -28.2981
  13   2.0000      -0.947902       -25.7937
  14   2.0000      -0.766772       -20.8649
  15   2.0000      -0.692264       -18.8375
  16   2.0000      -0.641598       -17.4588
  17   2.0000      -0.581340       -15.8191
  18   2.0000      -0.517321       -14.0770
  19   2.0000      -0.505190       -13.7469
  20   2.0000      -0.499273       -13.5859
  21   2.0000      -0.452251       -12.3064
  22   2.0000      -0.437864       -11.9149
  23   2.0000      -0.410652       -11.1744
  24   2.0000      -0.403723       -10.9859
  25   2.0000      -0.397321       -10.8116
  26   2.0000      -0.351010        -9.5515
  27   2.0000      -0.345592        -9.4040
  28   2.0000      -0.336053        -9.1445
  29   2.0000      -0.325625        -8.8607
  30   2.0000      -0.294341        -8.0094
  31   2.0000      -0.289169        -7.8687
  32   2.0000      -0.274375        -7.4661
  33   0.0000      -0.016671        -0.4536
  34   0.0000      -0.001588        -0.0432
  35   0.0000       0.017180         0.4675
  36   0.0000       0.024154         0.6573
  37   0.0000       0.031219         0.8495

MULLIKEN ATOMIC CHARGES
-----------------------
   0 C :   -0.290362
   1 C :   -0.014220
   2 H :    0.066397
   3 H :    0.072981
   4 S :    1.404451
   5 F :   -0.390046
   6 O :   -0.659433
   7 C :    0.708822
   8 H :    0.031003
   9 H :   -0.095150
  10 O :   -0.684237
  11 H :   -0.137738
  12 H :   -0.006571
  13 H :   -0.005897
Sum of atomic charges:    0.0000000

LOEWDIN ATOMIC CHARGES
----------------------
   0 C :   -0.066360
   1 C :   -0.037541
   2 H :    0.014673
   3 H :    0.018979
   4 S :    1.108818
   5 F :   -0.271045
   6 O :   -0.448103
   7 C :    0.148008
   8 H :    0.026429
   9 H :    0.026726
  10 O :   -0.456239
  11 H :   -0.033427
  12 H :   -0.013867
  13 H :   -0.017053

  Mayer bond orders larger than 0.100000
B(  0-C ,  1-C ) :   1.3351 B(  0-C ,  2-H ) :   0.1265 B(  0-C ,  3-H ) :   0.1324
B(  0-C ,  7-C ) :   1.3043 B(  0-C ,  8-H ) :   0.8952 B(  0-C ,  9-H ) :   0.8824
B(  0-C , 11-H ) :   0.2003 B(  0-C , 12-H ) :   0.2048 B(  0-C , 13-H ) :   0.2037
B(  1-C ,  2-H ) :   0.9058 B(  1-C ,  3-H ) :   0.8849 B(  1-C ,  4-S ) :   0.9160
B(  1-C ,  8-H ) :   0.1393 B(  1-C ,  9-H ) :   0.1387 B(  4-S ,  5-F ) :   0.6314
B(  4-S ,  6-O ) :   1.5680 B(  4-S , 10-O ) :   1.4992 B(  7-C , 11-H ) :   0.8502
B(  7-C , 12-H ) :   0.7495 B(  7-C , 13-H ) :   0.7867

Dispersion correction           -0.015921199
FINAL SINGLE POINT ENERGY      -766.652860157200

DIPOLE MOMENT
-------------
                                X             Y             Z
Electronic contribution:      7.34764      -6.74522      -8.24759
Nuclear contribution   :     -7.21372       8.00417       9.21533
                        -----------------------------------------
Total Dipole Moment    :      0.13392       1.25895       0.96774
                        -----------------------------------------
Magnitude (a.u.)       :      1.59355
Magnitude (Debye)      :      4.05047

Rotational constants in cm-1:     0.129205     0.053290     0.050128
Rotational constants in MHz :  3873.458819  1597.595736  1502.810344

                             ****ORCA TERMINATED NORMALLY****
TOTAL RUN TIME: 0 days 0 hours 0 minutes 8 seconds 28 msec
