                         Program Version 5.0.0 -  RELEASE  -
|  1> !TPSS D3BJ RIJCOSX def2-SVPD def2/J TightSCF
|  2> *xyz 0 1
|  3> C          2.91632       -1.24259       -1.54313
|  4> C          3.46659       -1.59097       -2.88908
|  5> C          4.65227       -1.14316       -3.25969
|  6> N          2.75226       -2.29204       -3.72803
|  7> H          1.77836       -2.48960       -3.51274
|  8> H          2.94861       -2.20854       -4.71681
|  9> H          5.14672       -0.51251       -2.63385
| 10> H          4.78303       -1.00720       -4.25350
| 11> C          2.80408        0.29070       -1.35924
| 12> C          2.38838        1.09367       -2.59711
| 13> H          3.76342        0.67472       -0.99989
| 14> H          2.09479        0.46122       -0.54576
| 15> H          1.94047       -1.71653       -1.44116
| 16> H          3.55857       -1.66343       -0.76637
| 17> H          3.08894        0.91965       -3.38694
| 18> H          2.37301        2.13633       -2.35728
| 19> H          1.41303        0.78551       -2.91115
| 20> *
| 21>
| 22> %MaxCore 64000
| 23>
| 24> %pal nprocs 8
| 25> end
| 26>
| 27> %scf
| 28>   MaxIter 150
| 29> end
| 30>
| 31>
| 32>                          ****END OF INPUT****

CARTESIAN COORDINATES (ANGSTROEM)
---------------------------------
  C      2.916320   -1.242590   -1.543130
  C      3.466590   -1.590970   -2.889080
  C      4.652270   -1.143160   -3.259690
  N      2.752260   -2.292040   -3.728030
  H      1.778360   -2.489600   -3.512740
  H      2.948610   -2.208540   -4.716810
  H      5.146720   -0.512510   -2.633850
  H      4.783030   -1.007200   -4.253500
  C      2.804080    0.290700   -1.359240
  C      2.388380    1.093670   -2.597110
  H      3.763420    0.674720   -0.999890
  H      2.094790    0.461220   -0.545760
  H      1.940470   -1.716530   -1.441160
  H      3.558570   -1.663430   -0.766370
  H      3.088940    0.919650   -3.386940
  H      2.373010    2.136330   -2.357280
  H      1.413030    0.785510   -2.911150

 Total Charge           Charge          ....    0
 Multiplicity           Mult            ....    1
 Number of Electrons    NEL             ....   48
 Basis Dimension        Dim             ....  208

ORBITAL ENERGIES
----------------

  NO   OCC          E(Eh)            E(eV)
   0   2.0000     -14.124414      -384.3449
   1   2.0000     -10.014316      -272.5034
   2   2.0000     -10.002447      -272.1804
   3   2.0000      -9.999068      -272.0885
   4   2.0000      -9.981336      -271.6060
   5   2.0000      -9.930630      -270.2262
   6   2.0000      -0.866488       -23.5783
   7   2.0000      -0.730322       -19.8731
   8   2.0000      -0.666990       -18.1497
   9   2.0000      -0.629913       -17.1408
  10   2.0000      -0.555206       -15.1079
  11   2.0000      -0.511300       -13.9132
  12   2.0000      -0.475943       -12.9511
  13   2.0000      -0.439043       -11.9470
  14   2.0000      -0.413190       -11.2435
  15   2.0000      -0.393830       -10.7167
  16   2.0000      -0.363308        -9.8861
  17   2.0000      -0.349546        -9.5116
  18   2.0000      -0.329613        -8.9692
  19   2.0000      -0.324199        -8.8219
  20   2.0000      -0.300869        -8.1871
  21   2.0000      -0.292445        -7.9578
  22   2.0000      -0.285721        -7.7749
  23   2.0000      -0.160314        -4.3624
  24   0.0000       0.002515         0.0684
  25   0.0000       0.006667         0.1814
  26   0.0000       0.033637         0.9153
  27   0.0000       0.042192         1.1481
  28   0.0000       0.049848         1.3564

MULLIKEN ATOMIC CHARGES
-----------------------
   0 C :    0.478079
   1 C :   -0.326666
   2 C :    0.387943
   3 N :    0.093559
   4 H :   -0.066337
   5 H :   -0.115178
   6 H :   -0.053468
   7 H :   -0.316572
   8 C :   -0.450782
   9 C :    0.733320
  10 H :    0.021227
  11 H :   -0.179066
  12 H :    0.004525
  13 H :   -0.021620
  14 H :   -0.056889
  15 H :   -0.124519
  16 H :   -0.007557
Sum of atomic charges:   -0.0000000

LOEWDIN ATOMIC CHARGES
----------------------
   0 C :    0.024822
   1 C :   -0.269677
   2 C :    0.166503
   3 N :    0.179253
   4 H :    0.000294
   5 H :    0.007598
   6 H :   -0.077477
   7 H :   -0.085056
   8 C :   -0.049178
   9 C :    0.136828
  10 H :    0.012275
  11 H :    0.008715
  12 H :    0.004480
  13 H :    0.023983
  14 H :   -0.037308
  15 H :   -0.023505
  16 H :   -0.022547

  Mayer bond orders larger than 0.100000
B(  0-C ,  1-C ) :   1.1709 B(  0-C ,  8-C ) :   1.2038 B(  0-C , 11-H ) :   0.1735
B(  0-C , 12-H ) :   0.6707 B(  0-C , 13-H ) :   0.7680 B(  1-C ,  2-C ) :   2.0403
B(  1-C ,  3-N ) :   0.9991 B(  1-C ,  6-H ) :   0.1977 B(  1-C ,  7-H ) :   0.2621
B(  1-C , 12-H ) :   0.2189 B(  1-C , 13-H ) :   0.1729 B(  2-C ,  3-N ) :   0.2729
B(  2-C ,  6-H ) :   0.6748 B(  2-C ,  7-H ) :   0.7798 B(  3-N ,  4-H ) :   1.0428
B(  3-N ,  5-H ) :   1.0869 B(  4-H ,  5-H ) :  -0.1155 B(  8-C ,  9-C ) :   1.3057
B(  8-C , 10-H ) :   0.8936 B(  8-C , 11-H ) :   0.9662 B(  8-C , 12-H ) :   0.1509
B(  8-C , 13-H ) :   0.1145 B(  8-C , 14-H ) :   0.2547 B(  8-C , 15-H ) :   0.2325
B(  8-C , 16-H ) :   0.2010 B(  9-C , 14-H ) :   0.8249 B(  9-C , 15-H ) :   0.7586
B(  9-C , 16-H ) :   0.7810

Dispersion correction           -0.018021768
FINAL SINGLE POINT ENERGY      -251.753141084033

DIPOLE MOMENT
-------------
                                X             Y             Z
Electronic contribution:      0.60983      -3.84277      -0.95738
Nuclear contribution   :     -1.45921       3.88617       0.81775
                        -----------------------------------------
Total Dipole Moment    :     -0.84939       0.04339      -0.13964
                        -----------------------------------------
Magnitude (a.u.)       :      0.86188
Magnitude (Debye)      :      2.19073

Rotational constants in cm-1:     0.176264     0.082132     0.079980
Rotational constants in MHz :  5284.261828  2462.256672  2397.741351

                             ****ORCA TERMINATED NORMALLY****
TOTAL RUN TIME: 0 days 0 hours 0 minutes 8 seconds 726 msec
