                         Program Version 5.0.0 -  RELEASE  -
|  1> !TPSS D3BJ RIJCOSX def2-SVPD def2/J TightSCF
|  2> *xyz 0 1
|  3> C          0.70466        1.44313       -4.50363
|  4> C          1.72854        1.42432       -5.63944
|  5> H          2.64672        1.95379       -5.38105
|  6> H          1.29992        1.93061       -6.50361
|  7> S          2.25263       -0.18811       -6.27184
|  8> O          3.56261       -0.44446       -5.63155
|  9> F          2.34494       -0.03374       -7.69650
| 10> C          1.05255        0.69566       -3.21491
| 11> H         -0.23248        1.03293       -4.88445
| 12> H          0.51170        2.49579       -4.26797
| 13> O          1.26606       -1.15918       -5.80536
| 14> H          1.24200       -0.33323       -3.43942
| 15> H          0.23391        0.76629       -2.52954
| 16> H          1.92506        1.13113       -2.77446
| 17> *
| 18>
| 19> %MaxCore 64000
| 20>
| 21> %pal nprocs 8
| 22> end
| 23>
| 24> %scf
| 25>   MaxIter 150
| 26> end
| 27>
| 28>
| 29>                          ****END OF INPUT****

CARTESIAN COORDINATES (ANGSTROEM)
---------------------------------
  C      0.704660    1.443130   -4.503630
  C      1.728540    1.424320   -5.639440
  H      2.646720    1.953790   -5.381050
  H      1.299920    1.930610   -6.503610
  S      2.252630   -0.188110   -6.271840
  O      3.562610   -0.444460   -5.631550
  F      2.344940   -0.033740   -7.696500
  C      1.052550    0.695660   -3.214910
  H     -0.232480    1.032930   -4.884450
  H      0.511700    2.495790   -4.267970
  O      1.266060   -1.159180   -5.805360
  H      1.242000   -0.333230   -3.439420
  H      0.233910    0.766290   -2.529540
  H      1.925060    1.131130   -2.774460

 Total Charge           Charge          ....    0
 Multiplicity           Mult            ....    1
 Number of Electrons    NEL             ....   66
 Basis Dimension        Dim             ....  212

ORBITAL ENERGIES
----------------

  NO   OCC          E(Eh)            E(eV)
   0   2.0000     -88.621121     -2411.5033
   1   2.0000     -24.543591      -667.8651
   2   2.0000     -18.907914      -514.5105
   3   2.0000     -18.899744      -514.2882
   4   2.0000     -10.061294      -273.7817
   5   2.0000     -10.030577      -272.9459
   6   2.0000      -9.995249      -271.9845
   7   2.0000      -7.982163      -217.2057
   8   2.0000      -5.972506      -162.5201
   9   2.0000      -5.965845      -162.3389
  10   2.0000      -5.964071      -162.2906
  11   2.0000      -1.297378       -35.3035
  12   2.0000      -1.026732       -27.9388
  13   2.0000      -0.928343       -25.2615
  14   2.0000      -0.766317       -20.8525
  15   2.0000      -0.697608       -18.9829
  16   2.0000      -0.651907       -17.7393
  17   2.0000      -0.584482       -15.9046
  18   2.0000      -0.532583       -14.4923
  19   2.0000      -0.527590       -14.3565
  20   2.0000      -0.502832       -13.6828
  21   2.0000      -0.448640       -12.2081
  22   2.0000      -0.439707       -11.9650
  23   2.0000      -0.415072       -11.2947
  24   2.0000      -0.401125       -10.9152
  25   2.0000      -0.383754       -10.4425
  26   2.0000      -0.346506        -9.4289
  27   2.0000      -0.338743        -9.2177
  28   2.0000      -0.332921        -9.0592
  29   2.0000      -0.321645        -8.7524
  30   2.0000      -0.287963        -7.8359
  31   2.0000      -0.279101        -7.5947
  32   2.0000      -0.259740        -7.0679
  33   0.0000      -0.019493        -0.5304
  34   0.0000      -0.004518        -0.1230
  35   0.0000       0.019487         0.5303
  36   0.0000       0.025101         0.6830
  37   0.0000       0.026578         0.7232

MULLIKEN ATOMIC CHARGES
-----------------------
   0 C :   -0.322076
   1 C :   -0.009107
   2 H :    0.063535
   3 H :    0.074721
   4 S :    1.433574
   5 O :   -0.662989
   6 F :   -0.405302
   7 C :    0.712191
   8 H :    0.030115
   9 H :   -0.095038
  10 O :   -0.678926
  11 H :   -0.130121
  12 H :   -0.007169
  13 H :   -0.003409
Sum of atomic charges:    0.0000000

LOEWDIN ATOMIC CHARGES
----------------------
   0 C :   -0.062009
   1 C :   -0.043198
   2 H :    0.019713
   3 H :    0.006303
   4 S :    1.112715
   5 O :   -0.472584
   6 F :   -0.251942
   7 C :    0.153475
   8 H :    0.024237
   9 H :    0.027875
  10 O :   -0.458690
  11 H :   -0.027952
  12 H :   -0.014631
  13 H :   -0.013313

  Mayer bond orders larger than 0.100000
B(  0-C ,  1-C ) :   1.3425 B(  0-C ,  2-H ) :   0.1201 B(  0-C ,  3-H ) :   0.1508
B(  0-C ,  7-C ) :   1.3076 B(  0-C ,  8-H ) :   0.8925 B(  0-C ,  9-H ) :   0.8872
B(  0-C , 11-H ) :   0.2009 B(  0-C , 12-H ) :   0.2061 B(  0-C , 13-H ) :   0.2071
B(  1-C ,  2-H ) :   0.9313 B(  1-C ,  3-H ) :   0.8405 B(  1-C ,  4-S ) :   0.9041
B(  1-C ,  8-H ) :   0.1353 B(  1-C ,  9-H ) :   0.1355 B(  4-S ,  5-O ) :   1.4866
B(  4-S ,  6-F ) :   0.6889 B(  4-S , 10-O ) :   1.4745 B(  7-C , 11-H ) :   0.8531
B(  7-C , 12-H ) :   0.7439 B(  7-C , 13-H ) :   0.7826

Dispersion correction           -0.015992413
FINAL SINGLE POINT ENERGY      -766.633613161179

DIPOLE MOMENT
-------------
                                X             Y             Z
Electronic contribution:      5.27675      -6.05615     -11.75655
Nuclear contribution   :     -5.90419       7.56246      11.43606
                        -----------------------------------------
Total Dipole Moment    :     -0.62743       1.50631      -0.32049
                        -----------------------------------------
Magnitude (a.u.)       :      1.66293
Magnitude (Debye)      :      4.22684

Rotational constants in cm-1:     0.133686     0.052402     0.049175
Rotational constants in MHz :  4007.807944  1570.986792  1474.216272

                             ****ORCA TERMINATED NORMALLY****
TOTAL RUN TIME: 0 days 0 hours 0 minutes 8 seconds 321 msec
