                         Program Version 5.0.0 -  RELEASE  -
|  1> !TPSS D3BJ RIJCOSX def2-SVPD def2/J TightSCF
|  2> *xyz 0 1
|  3> C          2.91632       -1.24259       -1.54313
|  4> C          3.46659       -1.59097       -2.88908
|  5> N          4.65227       -1.14316       -3.25969
|  6> C          2.75226       -2.29204       -3.72803
|  7> H          1.77836       -2.48960       -3.51274
|  8> H          2.94861       -2.20854       -4.71681
|  9> H          5.14672       -0.51251       -2.63385
| 10> H          4.78303       -1.00720       -4.25350
| 11> C          2.80408        0.29070       -1.35924
| 12> C          2.38838        1.09367       -2.59711
| 13> H          3.76342        0.67472       -0.99989
| 14> H          2.09479        0.46122       -0.54576
| 15> H          1.94047       -1.71653       -1.44116
| 16> H          3.55857       -1.66343       -0.76637
| 17> H          3.08894        0.91965       -3.38694
| 18> H          2.37301        2.13633       -2.35728
| 19> H          1.41303        0.78551       -2.91115
| 20> *
| 21>
| 22> %MaxCore 64000
| 23>
| 24> %pal nprocs 8
| 25> end
| 26>
| 27> %scf
| 28>   MaxIter 150
| 29> end
| 30>
| 31>
| 32>                          ****END OF INPUT****

CARTESIAN COORDINATES (ANGSTROEM)
---------------------------------
  C      2.916320   -1.242590   -1.543130
  C      3.466590   -1.590970   -2.889080
  N      4.652270   -1.143160   -3.259690
  C      2.752260   -2.292040   -3.728030
  H      1.778360   -2.489600   -3.512740
  H      2.948610   -2.208540   -4.716810
  H      5.146720   -0.512510   -2.633850
  H      4.783030   -1.007200   -4.253500
  C      2.804080    0.290700   -1.359240
  C      2.388380    1.093670   -2.597110
  H      3.763420    0.674720   -0.999890
  H      2.094790    0.461220   -0.545760
  H      1.940470   -1.716530   -1.441160
  H      3.558570   -1.663430   -0.766370
  H      3.088940    0.919650   -3.386940
  H      2.373010    2.136330   -2.357280
  H      1.413030    0.785510   -2.911150

 Total Charge           Charge          ....    0
 Multiplicity           Mult            ....    1
 Number of Electrons    NEL             ....   48
 Basis Dimension        Dim             ....  208

ORBITAL ENERGIES
----------------

  NO   OCC          E(Eh)            E(eV)
   0   2.0000     -14.120660      -384.2427
   1   2.0000     -10.013112      -272.4706
   2   2.0000     -10.003176      -272.2003
   3   2.0000     -10.000384      -272.1243
   4   2.0000      -9.985952      -271.7316
   5   2.0000      -9.934262      -270.3250
   6   2.0000      -0.861884       -23.4531
   7   2.0000      -0.728606       -19.8264
   8   2.0000      -0.676167       -18.3994
   9   2.0000      -0.628285       -17.0965
  10   2.0000      -0.549818       -14.9613
  11   2.0000      -0.513205       -13.9650
  12   2.0000      -0.481875       -13.1125
  13   2.0000      -0.424867       -11.5612
  14   2.0000      -0.417205       -11.3527
  15   2.0000      -0.409270       -11.1368
  16   2.0000      -0.355018        -9.6605
  17   2.0000      -0.353944        -9.6313
  18   2.0000      -0.338249        -9.2042
  19   2.0000      -0.324807        -8.8384
  20   2.0000      -0.300136        -8.1671
  21   2.0000      -0.294739        -8.0202
  22   2.0000      -0.280354        -7.6288
  23   2.0000      -0.167381        -4.5547
  24   0.0000       0.000176         0.0048
  25   0.0000       0.007970         0.2169
  26   0.0000       0.039986         1.0881
  27   0.0000       0.042064         1.1446
  28   0.0000       0.047165         1.2834

MULLIKEN ATOMIC CHARGES
-----------------------
   0 C :    0.327695
   1 C :   -0.350144
   2 N :    0.165764
   3 C :    0.225164
   4 H :   -0.001848
   5 H :   -0.369814
   6 H :   -0.028653
   7 H :   -0.059133
   8 C :   -0.420182
   9 C :    0.746759
  10 H :    0.007097
  11 H :   -0.169851
  12 H :    0.179308
  13 H :   -0.043866
  14 H :   -0.105198
  15 H :   -0.050094
  16 H :   -0.053005
Sum of atomic charges:   -0.0000000

LOEWDIN ATOMIC CHARGES
----------------------
   0 C :    0.022957
   1 C :   -0.278531
   2 N :    0.180661
   3 C :    0.177406
   4 H :   -0.079687
   5 H :   -0.083945
   6 H :    0.002904
   7 H :    0.007091
   8 C :   -0.053016
   9 C :    0.135710
  10 H :    0.004764
  11 H :    0.010609
  12 H :    0.016940
  13 H :    0.017337
  14 H :   -0.040420
  15 H :   -0.023244
  16 H :   -0.017535

  Mayer bond orders larger than 0.100000
B(  0-C ,  1-C ) :   1.3098 B(  0-C ,  8-C ) :   1.1872 B(  0-C , 10-H ) :   0.1189
B(  0-C , 11-H ) :   0.1617 B(  0-C , 12-H ) :   0.7848 B(  0-C , 13-H ) :   0.7289
B(  1-C ,  2-N ) :   1.0105 B(  1-C ,  3-C ) :   1.9920 B(  1-C ,  4-H ) :   0.1271
B(  1-C ,  5-H ) :   0.3403 B(  1-C ,  8-C ) :   0.1094 B(  1-C , 13-H ) :   0.2467
B(  2-N ,  3-C ) :   0.3667 B(  2-N ,  6-H ) :   0.9568 B(  2-N ,  7-H ) :   0.9868
B(  3-C ,  4-H ) :   0.8451 B(  3-C ,  5-H ) :   0.7123 B(  4-H ,  5-H ) :   0.1157
B(  6-H ,  7-H ) :  -0.1020 B(  8-C ,  9-C ) :   1.3062 B(  8-C , 10-H ) :   0.8862
B(  8-C , 11-H ) :   0.9775 B(  8-C , 12-H ) :   0.1474 B(  8-C , 14-H ) :   0.2344
B(  8-C , 15-H ) :   0.2188 B(  8-C , 16-H ) :   0.1935 B(  9-C , 14-H ) :   0.8347
B(  9-C , 15-H ) :   0.7277 B(  9-C , 16-H ) :   0.7991 B( 14-H , 16-H ) :   0.1165

Dispersion correction           -0.017981070
FINAL SINGLE POINT ENERGY      -251.756635094566

DIPOLE MOMENT
-------------
                                X             Y             Z
Electronic contribution:      2.20876      -2.85437      -0.56003
Nuclear contribution   :     -1.90863       3.61442       0.70697
                        -----------------------------------------
Total Dipole Moment    :      0.30013       0.76005       0.14694
                        -----------------------------------------
Magnitude (a.u.)       :      0.83027
Magnitude (Debye)      :      2.11038

Rotational constants in cm-1:     0.173428     0.083686     0.080523
Rotational constants in MHz :  5199.232598  2508.829970  2414.016775

                             ****ORCA TERMINATED NORMALLY****
TOTAL RUN TIME: 0 days 0 hours 0 minutes 8 seconds 234 msec
