                         Program Version 5.0.0 -  RELEASE  -
|  1> !TPSS D3BJ RIJCOSX def2-SVPD def2/J TightSCF
|  2> *xyz 0 1
|  3> C          0.70466        1.44313       -4.50363
|  4> C          1.72854        1.42432       -5.63944
|  5> H          2.64672        1.95379       -5.38105
|  6> H          1.29992        1.93061       -6.50361
|  7> S          2.25263       -0.18811       -6.27184
|  8> O          3.56261       -0.44446       -5.63155
|  9> O          2.34494       -0.03374       -7.69650
| 10> C          1.05255        0.69566       -3.21491
| 11> H         -0.23248        1.03293       -4.88445
| 12> H          0.51170        2.49579       -4.26797
| 13> F          1.26606       -1.15918       -5.80536
| 14> H          1.24200       -0.33323       -3.43942
| 15> H          0.23391        0.76629       -2.52954
| 16> H          1.92506        1.13113       -2.77446
| 17> *
| 18>
| 19> %MaxCore 64000
| 20>
| 21> %pal nprocs 8
| 22> end
| 23>
| 24> %scf
| 25>   MaxIter 150
| 26> end
| 27>
| 28>
| 29>                          ****END OF INPUT****

CARTESIAN COORDINATES (ANGSTROEM)
---------------------------------
  C      0.704660    1.443130   -4.503630
  C      1.728540    1.424320   -5.639440
  H      2.646720    1.953790   -5.381050
  H      1.299920    1.930610   -6.503610
  S      2.252630   -0.188110   -6.271840
  O      3.562610   -0.444460   -5.631550
  O      2.344940   -0.033740   -7.696500
  C      1.052550    0.695660   -3.214910
  H     -0.232480    1.032930   -4.884450
  H      0.511700    2.495790   -4.267970
  F      1.266060   -1.159180   -5.805360
  H      1.242000   -0.333230   -3.439420
  H      0.233910    0.766290   -2.529540
  H      1.925060    1.131130   -2.774460

 Total Charge           Charge          ....    0
 Multiplicity           Mult            ....    1
 Number of Electrons    NEL             ....   66
 Basis Dimension        Dim             ....  212

ORBITAL ENERGIES
----------------

  NO   OCC          E(Eh)            E(eV)
   0   2.0000     -88.619240     -2411.4521
   1   2.0000     -24.531973      -667.5489
   2   2.0000     -18.913923      -514.6740
   3   2.0000     -18.898512      -514.2546
   4   2.0000     -10.060150      -273.7506
   5   2.0000     -10.036629      -273.1106
   6   2.0000     -10.008947      -272.3573
   7   2.0000      -7.980269      -217.1542
   8   2.0000      -5.970588      -162.4680
   9   2.0000      -5.964053      -162.2901
  10   2.0000      -5.962218      -162.2402
  11   2.0000      -1.276673       -34.7400
  12   2.0000      -1.035508       -28.1776
  13   2.0000      -0.935490       -25.4560
  14   2.0000      -0.771337       -20.9891
  15   2.0000      -0.694920       -18.9097
  16   2.0000      -0.649532       -17.6747
  17   2.0000      -0.588424       -16.0118
  18   2.0000      -0.532458       -14.4889
  19   2.0000      -0.517656       -14.0861
  20   2.0000      -0.491797       -13.3825
  21   2.0000      -0.452301       -12.3077
  22   2.0000      -0.436498       -11.8777
  23   2.0000      -0.421731       -11.4759
  24   2.0000      -0.405669       -11.0388
  25   2.0000      -0.393111       -10.6971
  26   2.0000      -0.355544        -9.6748
  27   2.0000      -0.347897        -9.4667
  28   2.0000      -0.340876        -9.2757
  29   2.0000      -0.331115        -9.0101
  30   2.0000      -0.292644        -7.9633
  31   2.0000      -0.278991        -7.5917
  32   2.0000      -0.265270        -7.2184
  33   0.0000      -0.026271        -0.7149
  34   0.0000       0.008665         0.2358
  35   0.0000       0.019005         0.5171
  36   0.0000       0.024239         0.6596
  37   0.0000       0.025394         0.6910

MULLIKEN ATOMIC CHARGES
-----------------------
   0 C :   -0.313333
   1 C :    0.018971
   2 H :    0.063001
   3 H :    0.076397
   4 S :    1.380555
   5 O :   -0.665320
   6 O :   -0.653117
   7 C :    0.723089
   8 H :    0.004484
   9 H :   -0.087161
  10 F :   -0.398777
  11 H :   -0.144438
  12 H :   -0.003063
  13 H :   -0.001287
Sum of atomic charges:   -0.0000000

LOEWDIN ATOMIC CHARGES
----------------------
   0 C :   -0.074434
   1 C :   -0.031911
   2 H :    0.027974
   3 H :    0.013764
   4 S :    1.105200
   5 O :   -0.473910
   6 O :   -0.447846
   7 C :    0.149255
   8 H :    0.020548
   9 H :    0.026984
  10 F :   -0.260745
  11 H :   -0.031051
  12 H :   -0.013839
  13 H :   -0.009989

  Mayer bond orders larger than 0.100000
B(  0-C ,  1-C ) :   1.3013 B(  0-C ,  2-H ) :   0.1235 B(  0-C ,  3-H ) :   0.1397
B(  0-C ,  7-C ) :   1.3053 B(  0-C ,  8-H ) :   0.9077 B(  0-C ,  9-H ) :   0.8855
B(  0-C , 11-H ) :   0.1993 B(  0-C , 12-H ) :   0.2061 B(  0-C , 13-H ) :   0.2098
B(  1-C ,  2-H ) :   0.9152 B(  1-C ,  3-H ) :   0.8810 B(  1-C ,  4-S ) :   0.9256
B(  1-C ,  8-H ) :   0.1280 B(  1-C ,  9-H ) :   0.1381 B(  4-S ,  5-O ) :   1.4956
B(  4-S ,  6-O ) :   1.5596 B(  4-S , 10-F ) :   0.6529 B(  7-C , 11-H ) :   0.8480
B(  7-C , 12-H ) :   0.7431 B(  7-C , 13-H ) :   0.7863

Dispersion correction           -0.015842862
FINAL SINGLE POINT ENERGY      -766.642759807634

DIPOLE MOMENT
-------------
                                X             Y             Z
Electronic contribution:      3.44905      -7.89630      -8.51012
Nuclear contribution   :     -4.74391       8.77281       9.40225
                        -----------------------------------------
Total Dipole Moment    :     -1.29486       0.87651       0.89213
                        -----------------------------------------
Magnitude (a.u.)       :      1.80023
Magnitude (Debye)      :      4.57583

Rotational constants in cm-1:     0.129476     0.053470     0.050698
Rotational constants in MHz :  3881.594668  1602.990831  1519.898630

                             ****ORCA TERMINATED NORMALLY****
TOTAL RUN TIME: 0 days 0 hours 0 minutes 8 seconds 120 msec
