                         Program Version 5.0.0 -  RELEASE  -
|  1> !TPSS D3BJ RIJCOSX def2-SVPD def2/J TightSCF xyzfile
|  2>
|  3> *xyzfile 0 1 D3.xyz
|  4>
|  5> %MaxCore 64000
|  6>
|  7> %pal nprocs 4
|  8> end
|  9>
| 10> %scf
| 11>   MaxIter 150
| 12> end
| 13>
| 14>
| 15>                          ****END OF INPUT****

CARTESIAN COORDINATES (ANGSTROEM)
---------------------------------
  C      2.916324   -1.242589   -1.543125
  C      0.704661    1.443129   -4.503630
  C      1.728539    1.424320   -5.639443
  H      2.646718    1.953794   -5.381054
  H      1.299916    1.930613   -6.503614
  S      2.252625   -0.188115   -6.271840
  C      3.466585   -1.590971   -2.889082
  C      4.652275   -1.143164   -3.259692
  N      2.752264   -2.292043   -3.728029
  H      1.778364   -2.489604   -3.512738
  H      2.948612   -2.208544   -4.716813
  H      5.146723   -0.512508   -2.633852
  H      4.783030   -1.007203   -4.253498
  O      3.562607   -0.444464   -5.631552
  F      2.344944   -0.033742   -7.696501
  C      2.804084    0.290698   -1.359243
  C      1.052550    0.695659   -3.214915
  H     -0.232483    1.032925   -4.884449
  H      0.511700    2.495794   -4.267966
  C      2.388380    1.093669   -2.597108
  H      3.763425    0.674718   -0.999889
  H      2.094788    0.461222   -0.545756
  O      1.266058   -1.159177   -5.805365
  H      3.167316    1.013242   -3.359430
  H      2.357690    2.149375   -2.310997
  H      1.039284   -0.368429   -3.449329
  H      0.250787    0.865605   -2.488283
  H      1.940472   -1.716529   -1.441161
  H      3.558569   -1.663433   -0.766371

 Total Charge           Charge          ....    0
 Multiplicity           Mult            ....    1
 Number of Electrons    NEL             ....  112
 Basis Dimension        Dim             ....  404

ORBITAL ENERGIES
----------------

  NO   OCC          E(Eh)            E(eV)
   0   2.0000     -88.634305     -2411.8621
   1   2.0000     -24.553595      -668.1373
   2   2.0000     -18.922053      -514.8952
   3   2.0000     -18.913705      -514.6681
   4   2.0000     -14.093577      -383.5057
   5   2.0000     -10.067811      -273.9591
   6   2.0000     -10.033060      -273.0134
   7   2.0000     -10.003427      -272.2071
   8   2.0000      -9.994610      -271.9672
   9   2.0000      -9.993322      -271.9321
  10   2.0000      -9.991565      -271.8843
  11   2.0000      -9.990067      -271.8435
  12   2.0000      -9.904243      -269.5082
  13   2.0000      -7.994415      -217.5391
  14   2.0000      -5.984780      -162.8541
  15   2.0000      -5.978342      -162.6790
  16   2.0000      -5.976241      -162.6218
  17   2.0000      -1.306763       -35.5588
  18   2.0000      -1.042140       -28.3581
  19   2.0000      -0.944031       -25.6884
  20   2.0000      -0.840637       -22.8749
  21   2.0000      -0.776875       -21.1399
  22   2.0000      -0.733004       -19.9461
  23   2.0000      -0.702346       -19.1118
  24   2.0000      -0.668551       -18.1922
  25   2.0000      -0.640289       -17.4232
  26   2.0000      -0.616510       -16.7761
  27   2.0000      -0.581058       -15.8114
  28   2.0000      -0.546634       -14.8747
  29   2.0000      -0.540712       -14.7135
  30   2.0000      -0.520415       -14.1612
  31   2.0000      -0.514842       -14.0096
  32   2.0000      -0.488655       -13.2970
  33   2.0000      -0.460406       -12.5283
  34   2.0000      -0.453678       -12.3452
  35   2.0000      -0.451391       -12.2830
  36   2.0000      -0.434082       -11.8120
  37   2.0000      -0.425407       -11.5759
  38   2.0000      -0.407258       -11.0821
  39   2.0000      -0.397325       -10.8118
  40   2.0000      -0.387356       -10.5405
  41   2.0000      -0.373868       -10.1735
  42   2.0000      -0.359504        -9.7826
  43   2.0000      -0.347789        -9.4638
  44   2.0000      -0.341218        -9.2850
  45   2.0000      -0.327762        -8.9189
  46   2.0000      -0.321336        -8.7440
  47   2.0000      -0.312619        -8.5068
  48   2.0000      -0.301929        -8.2159
  49   2.0000      -0.299938        -8.1617
  50   2.0000      -0.290116        -7.8944
  51   2.0000      -0.282312        -7.6821
  52   2.0000      -0.278584        -7.5807
  53   2.0000      -0.271971        -7.4007
  54   2.0000      -0.262938        -7.1549
  55   2.0000      -0.135767        -3.6944
  56   0.0000      -0.027613        -0.7514
  57   0.0000      -0.011417        -0.3107
  58   0.0000       0.009813         0.2670
  59   0.0000       0.014109         0.3839
  60   0.0000       0.016897         0.4598

MULLIKEN ATOMIC CHARGES
-----------------------
   0 C :    0.543821
   1 C :    0.420958
   2 C :    0.064068
   3 H :    0.170284
   4 H :   -0.143097
   5 S :    1.559340
   6 C :   -0.485028
   7 C :    0.474885
   8 N :    0.334267
   9 H :    0.003622
  10 H :   -0.188072
  11 H :    0.046861
  12 H :   -0.497468
  13 O :   -0.796984
  14 F :   -0.458038
  15 C :    0.290715
  16 C :    0.167899
  17 H :    0.064503
  18 H :   -0.027357
  19 C :   -0.055576
  20 H :    0.024609
  21 H :   -0.110200
  22 O :   -0.758536
  23 H :   -0.022560
  24 H :   -0.144147
  25 H :   -0.301877
  26 H :   -0.078999
  27 H :    0.101282
  28 H :   -0.199175
Sum of atomic charges:   -0.0000000

LOEWDIN ATOMIC CHARGES
----------------------
   0 C :    0.032514
   1 C :   -0.012837
   2 C :   -0.029144
   3 H :    0.017775
   4 H :    0.006679
   5 S :    1.156610
   6 C :   -0.250120
   7 C :    0.177766
   8 N :    0.197823
   9 H :    0.000953
  10 H :   -0.046431
  11 H :   -0.077556
  12 H :   -0.133047
  13 O :   -0.461479
  14 F :   -0.242877
  15 C :   -0.002100
  16 C :   -0.005894
  17 H :    0.026181
  18 H :    0.032904
  19 C :   -0.013976
  20 H :    0.015572
  21 H :    0.010789
  22 O :   -0.453697
  23 H :   -0.005036
  24 H :    0.019975
  25 H :   -0.015967
  26 H :    0.028577
  27 H :    0.004835
  28 H :    0.021210

  Mayer bond orders larger than 0.100000
B(  0-C ,  6-C ) :   1.2438 B(  0-C ,  8-N ) :   0.1131 B(  0-C , 15-C ) :   1.1280
B(  0-C , 20-H ) :   0.1004 B(  0-C , 21-H ) :   0.1921 B(  0-C , 27-H ) :   0.6023
B(  0-C , 28-H ) :   0.7376 B(  1-C ,  2-C ) :   1.2860 B(  1-C ,  4-H ) :   0.2303
B(  1-C , 16-C ) :   1.2486 B(  1-C , 17-H ) :   0.6746 B(  1-C , 18-H ) :   0.7346
B(  2-C ,  3-H ) :   0.8703 B(  2-C ,  4-H ) :   0.8471 B(  2-C ,  5-S ) :   0.9494
B(  2-C , 17-H ) :   0.1085 B(  2-C , 18-H ) :   0.1539 B(  5-S , 13-O ) :   1.3666
B(  5-S , 14-F ) :   0.5696 B(  5-S , 22-O ) :   1.4165 B(  6-C ,  7-C ) :   2.0973
B(  6-C ,  8-N ) :   0.9612 B(  6-C , 11-H ) :   0.1242 B(  6-C , 12-H ) :   0.3655
B(  6-C , 27-H ) :   0.2558 B(  6-C , 28-H ) :   0.2489 B(  7-C ,  8-N ) :   0.3958
B(  7-C , 11-H ) :   0.5859 B(  7-C , 12-H ) :   0.5094 B(  8-N ,  9-H ) :   0.8987
B(  8-N , 10-H ) :   0.9367 B(  8-N , 11-H ) :   0.1618 B(  9-H , 10-H ) :  -0.1285
B( 10-H , 12-H ) :   0.1217 B( 10-H , 13-O ) :   0.1095 B( 12-H , 13-O ) :   0.2330
B( 13-O , 22-O ) :   0.1501 B( 15-C , 19-C ) :   1.2329 B( 15-C , 20-H ) :   0.6949
B( 15-C , 21-H ) :   0.8391 B( 15-C , 23-H ) :   0.1923 B( 15-C , 27-H ) :   0.1341
B( 16-C , 17-H ) :   0.2590 B( 16-C , 19-C ) :   1.2516 B( 16-C , 23-H ) :   0.1428
B( 16-C , 24-H ) :   0.1755 B( 16-C , 25-H ) :   0.9198 B( 16-C , 26-H ) :   0.7237
B( 19-C , 20-H ) :   0.2540 B( 19-C , 21-H ) :   0.1807 B( 19-C , 23-H ) :   0.8427
B( 19-C , 24-H ) :   0.8324 B( 19-C , 25-H ) :   0.1485 B( 19-C , 26-H ) :   0.2056
B( 20-H , 21-H ) :  -0.1199

Dispersion correction           -0.046449017
FINAL SINGLE POINT ENERGY     -1017.189195030177

DIPOLE MOMENT
-------------
                                X             Y             Z
Electronic contribution:      0.07587      -4.20738     -22.48122
Nuclear contribution   :     -1.50273       5.82595      21.72909
                        -----------------------------------------
Total Dipole Moment    :     -1.42686       1.61857      -0.75213
                        -----------------------------------------
Magnitude (a.u.)       :      2.28504
Magnitude (Debye)      :      5.80810

Rotational constants in cm-1:     0.036883     0.018294     0.014745
Rotational constants in MHz :  1105.724679   548.429785   442.050481

                             ****ORCA TERMINATED NORMALLY****
TOTAL RUN TIME: 0 days 0 hours 1 minutes 6 seconds 216 msec
