                         Program Version 5.0.0 -  RELEASE  -
|  1> !PBE D3BJ RIJCOSX def2-TZVP def2/J TightSCF
|  2> *xyz -1 1
|  3> C          4.93020       -7.37532       -2.64962
|  4> C          3.84189       -6.95161       -3.63283
|  5> H          3.45814       -5.95442       -3.40712
|  6> H          2.98848       -7.64361       -3.56708
|  7> S          4.31812       -6.91593       -5.36869
|  8> O          5.40615       -5.89948       -5.51297
|  9> O          3.11191       -6.44508       -6.04379
| 10> O          4.76340       -8.23942       -5.69863
| 11> H          5.27901       -8.35440       -2.90385
| 12> H          4.53000       -7.38577       -1.65734
| 13> H          5.74437       -6.68276       -2.69856
| 14> *
| 15>
| 16> %MaxCore 64000
| 17>
| 18> %pal nprocs 4
| 19> end
| 20>
| 21> %scf
| 22>   MaxIter 150
| 23> end
| 24>
| 25>
| 26>                          ****END OF INPUT****

CARTESIAN COORDINATES (ANGSTROEM)
---------------------------------
  C      4.930200   -7.375320   -2.649620
  C      3.841890   -6.951610   -3.632830
  H      3.458140   -5.954420   -3.407120
  H      2.988480   -7.643610   -3.567080
  S      4.318120   -6.915930   -5.368690
  O      5.406150   -5.899480   -5.512970
  O      3.111910   -6.445080   -6.043790
  O      4.763400   -8.239420   -5.698630
  H      5.279010   -8.354400   -2.903850
  H      4.530000   -7.385770   -1.657340
  H      5.744370   -6.682760   -2.698560

 Total Charge           Charge          ....   -1
 Multiplicity           Mult            ....    1
 Number of Electrons    NEL             ....   58
 Basis Dimension        Dim             ....  222

ORBITAL ENERGIES
----------------

  NO   OCC          E(Eh)            E(eV)
   0   2.0000     -88.002874     -2394.6799
   1   2.0000     -18.523870      -504.0601
   2   2.0000     -18.514844      -503.8145
   3   2.0000     -18.507204      -503.6066
   4   2.0000      -9.738249      -264.9912
   5   2.0000      -9.732069      -264.8231
   6   2.0000      -7.597509      -206.7387
   7   2.0000      -5.618492      -152.8869
   8   2.0000      -5.617457      -152.8588
   9   2.0000      -5.617097      -152.8490
  10   2.0000      -0.821625       -22.3575
  11   2.0000      -0.698676       -19.0120
  12   2.0000      -0.670298       -18.2397
  13   2.0000      -0.555953       -15.1282
  14   2.0000      -0.437151       -11.8955
  15   2.0000      -0.318295        -8.6612
  16   2.0000      -0.263923        -7.1817
  17   2.0000      -0.253819        -6.9068
  18   2.0000      -0.219410        -5.9704
  19   2.0000      -0.201566        -5.4849
  20   2.0000      -0.197417        -5.3720
  21   2.0000      -0.178944        -4.8693
  22   2.0000      -0.163101        -4.4382
  23   2.0000      -0.093824        -2.5531
  24   2.0000      -0.092156        -2.5077
  25   2.0000      -0.064000        -1.7415
  26   2.0000      -0.057210        -1.5568
  27   2.0000      -0.045158        -1.2288
  28   2.0000      -0.008045        -0.2189
  29   0.0000       0.154119         4.1938
  30   0.0000       0.197576         5.3763
  31   0.0000       0.211229         5.7478
  32   0.0000       0.215750         5.8709
  33   0.0000       0.239980         6.5302

MULLIKEN ATOMIC CHARGES
-----------------------
   0 C :   -0.320685
   1 C :   -0.222239
   2 H :    0.076715
   3 H :    0.066712
   4 S :    0.655990
   5 O :   -0.544288
   6 O :   -0.503664
   7 O :   -0.478949
   8 H :    0.104319
   9 H :    0.063769
  10 H :    0.102319
Sum of atomic charges:   -1.0000000

LOEWDIN ATOMIC CHARGES
----------------------
   0 C :   -0.351338
   1 C :   -0.444495
   2 H :    0.118918
   3 H :    0.119183
   4 S :    0.359540
   5 O :   -0.415729
   6 O :   -0.371905
   7 O :   -0.341184
   8 H :    0.113557
   9 H :    0.100074
  10 H :    0.113379

  Mayer bond orders larger than 0.100000
B(  0-C ,  1-C ) :   0.9735 B(  0-C ,  8-H ) :   0.9679 B(  0-C ,  9-H ) :   0.9551
B(  0-C , 10-H ) :   0.9666 B(  1-C ,  2-H ) :   0.9510 B(  1-C ,  3-H ) :   0.9451
B(  1-C ,  4-S ) :   0.8486 B(  4-S ,  5-O ) :   1.7700 B(  4-S ,  6-O ) :   1.8486
B(  4-S ,  7-O ) :   1.8333

Dispersion correction           -0.009597890
FINAL SINGLE POINT ENERGY      -702.807653355916

DIPOLE MOMENT
-------------
                                X             Y             Z
Electronic contribution:     -0.34137       0.83552      -8.00467
Nuclear contribution   :      0.07504      -1.14369       9.75001
                        -----------------------------------------
Total Dipole Moment    :     -0.26633      -0.30817       1.74534
                        -----------------------------------------
Magnitude (a.u.)       :      1.79223
Magnitude (Debye)      :      4.55550

Rotational constants in cm-1:     0.160553     0.082191     0.080550
Rotational constants in MHz :  4813.250478  2464.013016  2414.833054

                             ****ORCA TERMINATED NORMALLY****
TOTAL RUN TIME: 0 days 0 hours 0 minutes 11 seconds 244 msec
