                         Program Version 5.0.0 -  RELEASE  -
|  1> !PBE D3BJ RIJCOSX def2-TZVP def2/J TightSCF
|  2> *xyz 1 1
|  3> C          5.55821       -1.99291       -6.21505
|  4> C          4.18188       -2.58967       -6.29891
|  5> N          3.14587       -1.76843       -6.48675
|  6> N          4.01910       -3.86431       -6.22743
|  7> H          4.76849       -4.59115       -5.99077
|  8> H          3.12241       -4.33339       -6.31462
|  9> H          3.28164       -0.77779       -6.56655
| 10> H          2.21255       -2.13419       -6.56225
| 11> C          6.41926       -2.54294       -5.07763
| 12> H          6.03683       -2.19819       -7.17685
| 13> H          5.46761       -0.90737       -6.12797
| 14> H          6.50056       -3.60553       -5.17358
| 15> H          5.96544       -2.30329       -4.13874
| 16> H          7.39438       -2.10494       -5.12457
| 17> *
| 18>
| 19> %MaxCore 64000
| 20>
| 21> %pal nprocs 4
| 22> end
| 23>
| 24> %scf
| 25>   MaxIter 150
| 26> end
| 27>
| 28>
| 29>                          ****END OF INPUT****

CARTESIAN COORDINATES (ANGSTROEM)
---------------------------------
  C      5.558210   -1.992910   -6.215050
  C      4.181880   -2.589670   -6.298910
  N      3.145870   -1.768430   -6.486750
  N      4.019100   -3.864310   -6.227430
  H      4.768490   -4.591150   -5.990770
  H      3.122410   -4.333390   -6.314620
  H      3.281640   -0.777790   -6.566550
  H      2.212550   -2.134190   -6.562250
  C      6.419260   -2.542940   -5.077630
  H      6.036830   -2.198190   -7.176850
  H      5.467610   -0.907370   -6.127970
  H      6.500560   -3.605530   -5.173580
  H      5.965440   -2.303290   -4.138740
  H      7.394380   -2.104940   -5.124570

 Total Charge           Charge          ....    1
 Multiplicity           Mult            ....    1
 Number of Electrons    NEL             ....   40
 Basis Dimension        Dim             ....  209

ORBITAL ENERGIES
----------------

  NO   OCC          E(Eh)            E(eV)
   0   2.0000     -14.233923      -387.3247
   1   2.0000     -14.223658      -387.0454
   2   2.0000     -10.194786      -277.4142
   3   2.0000     -10.079069      -274.2654
   4   2.0000     -10.034654      -273.0568
   5   2.0000      -1.119970       -30.4759
   6   2.0000      -1.029089       -28.0029
   7   2.0000      -0.897051       -24.4100
   8   2.0000      -0.804900       -21.9024
   9   2.0000      -0.756464       -20.5844
  10   2.0000      -0.721112       -19.6225
  11   2.0000      -0.692720       -18.8499
  12   2.0000      -0.649153       -17.6643
  13   2.0000      -0.604682       -16.4542
  14   2.0000      -0.576697       -15.6927
  15   2.0000      -0.556294       -15.1375
  16   2.0000      -0.507297       -13.8043
  17   2.0000      -0.496226       -13.5030
  18   2.0000      -0.481193       -13.0939
  19   2.0000      -0.453383       -12.3372
  20   0.0000      -0.239482        -6.5166
  21   0.0000      -0.182589        -4.9685
  22   0.0000      -0.147622        -4.0170
  23   0.0000      -0.135963        -3.6997
  24   0.0000      -0.114071        -3.1040

MULLIKEN ATOMIC CHARGES
-----------------------
   0 C :   -0.203700
   1 C :    0.286686
   2 N :   -0.305708
   3 N :   -0.312729
   4 H :    0.308226
   5 H :    0.277964
   6 H :    0.286198
   7 H :    0.266763
   8 C :   -0.347845
   9 H :    0.176482
  10 H :    0.134879
  11 H :    0.106791
  12 H :    0.153322
  13 H :    0.172670
Sum of atomic charges:    1.0000000

LOEWDIN ATOMIC CHARGES
----------------------
   0 C :   -0.221776
   1 C :   -0.314649
   2 N :    0.119535
   3 N :    0.127672
   4 H :    0.233263
   5 H :    0.199195
   6 H :    0.199159
   7 H :    0.190912
   8 C :   -0.267181
   9 H :    0.176733
  10 H :    0.160997
  11 H :    0.120179
  12 H :    0.133944
  13 H :    0.142017

  Mayer bond orders larger than 0.100000
B(  0-C ,  1-C ) :   1.0053 B(  0-C ,  8-C ) :   1.0087 B(  0-C ,  9-H ) :   0.9097
B(  0-C , 10-H ) :   0.9475 B(  1-C ,  2-N ) :   1.4555 B(  1-C ,  3-N ) :   1.4909
B(  2-N ,  6-H ) :   0.8874 B(  2-N ,  7-H ) :   0.8921 B(  3-N ,  4-H ) :   0.8679
B(  3-N ,  5-H ) :   0.8837 B(  8-C , 11-H ) :   0.9621 B(  8-C , 12-H ) :   0.9592
B(  8-C , 13-H ) :   0.9545

Dispersion correction           -0.010065932
FINAL SINGLE POINT ENERGY      -228.824575064808

DIPOLE MOMENT
-------------
                                X             Y             Z
Electronic contribution:     -3.79322      -0.47096      -1.56840
Nuclear contribution   :      2.76041       0.12669       1.26265
                        -----------------------------------------
Total Dipole Moment    :     -1.03281      -0.34427      -0.30575
                        -----------------------------------------
Magnitude (a.u.)       :      1.13079
Magnitude (Debye)      :      2.87425

Rotational constants in cm-1:     0.280918     0.124524     0.094121
Rotational constants in MHz :  8421.697738  3733.133254  2821.684112

                             ****ORCA TERMINATED NORMALLY****
TOTAL RUN TIME: 0 days 0 hours 0 minutes 9 seconds 504 msec
