                         Program Version 5.0.0 -  RELEASE  -
|  1> !PBE D3BJ RIJCOSX def2-TZVP def2/J TightSCF xyzfile
|  2>
|  3> *xyzfile 0 1 B.xyz
|  4>
|  5> %MaxCore 64000
|  6>
|  7> %pal nprocs 18
|  8> end
|  9>
| 10> %scf
| 11>   MaxIter 150
| 12> end
| 13>
| 14>
| 15>                          ****END OF INPUT****

CARTESIAN COORDINATES (ANGSTROEM)
---------------------------------
  C      5.558206   -1.992914   -6.215054
  C      4.930199   -7.375319   -2.649623
  C      3.841892   -6.951611   -3.632829
  H      3.458144   -5.954425   -3.407121
  H      2.988484   -7.643606   -3.567078
  S      4.318115   -6.915930   -5.368692
  C      4.181880   -2.589671   -6.298911
  N      3.145873   -1.768431   -6.486753
  N      4.019102   -3.864307   -6.227427
  H      4.768490   -4.591153   -5.990773
  H      3.122405   -4.333392   -6.314620
  H      3.281635   -0.777786   -6.566549
  H      2.212549   -2.134193   -6.562246
  O      5.406154   -5.899480   -5.512972
  O      3.111910   -6.445079   -6.043792
  C      6.419260   -2.542944   -5.077630
  C      5.872267   -5.002756   -2.427819
  C      6.173994   -6.485522   -2.606315
  H      6.734852   -6.613767   -3.534015
  H      6.821463   -6.831018   -1.793617
  H      4.469612   -7.406168   -1.655876
  H      5.230134   -8.398678   -2.885906
  C      5.896512   -2.169314   -3.694552
  H      7.428880   -2.143665   -5.208078
  H      6.505894   -3.627541   -5.175502
  C      6.807804   -2.623428   -2.551019
  H      4.894708   -2.589732   -3.557501
  H      5.778823   -1.081255   -3.635790
  C      7.111544   -4.122463   -2.520363
  H      7.751615   -2.071393   -2.614406
  H      6.345837   -2.326401   -1.604086
  H      5.362882   -4.828697   -1.471335
  H      5.174429   -4.702577   -3.211298
  H      7.778329   -4.329347   -1.677651
  H      7.673189   -4.402845   -3.417586
  O      4.763396   -8.239424   -5.698629
  H      6.036826   -2.198189   -7.176852
  H      5.467610   -0.907371   -6.127968

 Total Charge           Charge          ....    0
 Multiplicity           Mult            ....    1
 Number of Electrons    NEL             ....  136
 Basis Dimension        Dim             ....  634

ORBITAL ENERGIES
----------------

  NO   OCC          E(Eh)            E(eV)
   0   2.0000     -88.163734     -2399.0572
   1   2.0000     -18.692662      -508.6532
   2   2.0000     -18.679432      -508.2932
   3   2.0000     -18.673922      -508.1433
   4   2.0000     -14.072032      -382.9195
   5   2.0000     -14.032782      -381.8514
   6   2.0000     -10.028320      -272.8845
   7   2.0000      -9.937378      -270.4098
   8   2.0000      -9.905551      -269.5438
   9   2.0000      -9.893963      -269.2284
  10   2.0000      -9.882793      -268.9245
  11   2.0000      -9.871717      -268.6231
  12   2.0000      -9.870545      -268.5912
  13   2.0000      -9.862003      -268.3588
  14   2.0000      -9.861800      -268.3532
  15   2.0000      -9.854500      -268.1546
  16   2.0000      -7.759102      -211.1359
  17   2.0000      -5.780160      -157.2862
  18   2.0000      -5.779149      -157.2586
  19   2.0000      -5.778303      -157.2356
  20   2.0000      -0.987311       -26.8661
  21   2.0000      -0.954023       -25.9603
  22   2.0000      -0.865481       -23.5509
  23   2.0000      -0.854279       -23.2461
  24   2.0000      -0.850807       -23.1516
  25   2.0000      -0.766802       -20.8657
  26   2.0000      -0.731909       -19.9163
  27   2.0000      -0.708922       -19.2908
  28   2.0000      -0.672619       -18.3029
  29   2.0000      -0.641863       -17.4660
  30   2.0000      -0.612649       -16.6710
  31   2.0000      -0.592312       -16.1176
  32   2.0000      -0.567144       -15.4328
  33   2.0000      -0.553252       -15.0548
  34   2.0000      -0.541453       -14.7337
  35   2.0000      -0.516630       -14.0582
  36   2.0000      -0.502621       -13.6770
  37   2.0000      -0.485621       -13.2144
  38   2.0000      -0.457456       -12.4480
  39   2.0000      -0.453148       -12.3308
  40   2.0000      -0.436938       -11.8897
  41   2.0000      -0.423133       -11.5140
  42   2.0000      -0.415291       -11.3007
  43   2.0000      -0.401091       -10.9143
  44   2.0000      -0.396969       -10.8021
  45   2.0000      -0.390001       -10.6125
  46   2.0000      -0.380392       -10.3510
  47   2.0000      -0.373875       -10.1737
  48   2.0000      -0.359659        -9.7868
  49   2.0000      -0.354089        -9.6352
  50   2.0000      -0.349514        -9.5108
  51   2.0000      -0.345473        -9.4008
  52   2.0000      -0.329783        -8.9739
  53   2.0000      -0.323035        -8.7902
  54   2.0000      -0.318568        -8.6687
  55   2.0000      -0.302216        -8.2237
  56   2.0000      -0.293422        -7.9844
  57   2.0000      -0.288832        -7.8595
  58   2.0000      -0.284850        -7.7512
  59   2.0000      -0.273374        -7.4389
  60   2.0000      -0.270799        -7.3688
  61   2.0000      -0.262428        -7.1410
  62   2.0000      -0.258631        -7.0377
  63   2.0000      -0.252500        -6.8709
  64   2.0000      -0.219655        -5.9771
  65   2.0000      -0.215507        -5.8643
  66   2.0000      -0.209732        -5.7071
  67   2.0000      -0.183776        -5.0008
  68   0.0000      -0.078910        -2.1473
  69   0.0000      -0.040693        -1.1073
  70   0.0000      -0.003203        -0.0872
  71   0.0000       0.007906         0.2151
  72   0.0000       0.021633         0.5887

MULLIKEN ATOMIC CHARGES
-----------------------
   0 C :   -0.131436
   1 C :   -0.133581
   2 C :   -0.265999
   3 H :    0.097373
   4 H :    0.119423
   5 S :    0.721728
   6 C :    0.189191
   7 N :   -0.354475
   8 N :   -0.249207
   9 H :    0.290127
  10 H :    0.243844
  11 H :    0.248805
  12 H :    0.248499
  13 O :   -0.522802
  14 O :   -0.515271
  15 C :   -0.294079
  16 C :   -0.233242
  17 C :   -0.156622
  18 H :    0.122421
  19 H :    0.076453
  20 H :    0.075707
  21 H :    0.109936
  22 C :   -0.215362
  23 H :    0.103196
  24 H :    0.185407
  25 C :   -0.112769
  26 H :    0.117075
  27 H :    0.081902
  28 C :   -0.181645
  29 H :    0.091209
  30 H :    0.087370
  31 H :    0.074359
  32 H :    0.065834
  33 H :    0.088016
  34 H :    0.107995
  35 O :   -0.421898
  36 H :    0.148357
  37 H :    0.094159
Sum of atomic charges:   -0.0000000

LOEWDIN ATOMIC CHARGES
----------------------
   0 C :   -0.210666
   1 C :   -0.292050
   2 C :   -0.401056
   3 H :    0.123354
   4 H :    0.139360
   5 S :    0.410068
   6 C :   -0.349613
   7 N :    0.068154
   8 N :    0.131529
   9 H :    0.161317
  10 H :    0.179798
  11 H :    0.179273
  12 H :    0.179056
  13 O :   -0.340513
  14 O :   -0.345301
  15 C :   -0.255792
  16 C :   -0.275959
  17 C :   -0.276045
  18 H :    0.143949
  19 H :    0.134065
  20 H :    0.136948
  21 H :    0.144653
  22 C :   -0.274181
  23 H :    0.146494
  24 H :    0.153294
  25 C :   -0.268827
  26 H :    0.137941
  27 H :    0.135311
  28 C :   -0.270999
  29 H :    0.137637
  30 H :    0.139043
  31 H :    0.132868
  32 H :    0.132717
  33 H :    0.137723
  34 H :    0.140825
  35 O :   -0.279369
  36 H :    0.167799
  37 H :    0.147191

  Mayer bond orders larger than 0.100000
B(  0-C ,  6-C ) :   1.0009 B(  0-C , 15-C ) :   0.9861 B(  0-C , 36-H ) :   0.9188
B(  0-C , 37-H ) :   0.9530 B(  1-C ,  2-C ) :   0.9842 B(  1-C , 17-C ) :   1.0292
B(  1-C , 20-H ) :   0.9324 B(  1-C , 21-H ) :   0.9400 B(  2-C ,  3-H ) :   0.9381
B(  2-C ,  4-H ) :   0.9380 B(  2-C ,  5-S ) :   0.8855 B(  5-S , 13-O ) :   1.4930
B(  5-S , 14-O ) :   1.7198 B(  5-S , 35-O ) :   1.9465 B(  6-C ,  7-N ) :   1.3364
B(  6-C ,  8-N ) :   1.6381 B(  7-N , 11-H ) :   0.9023 B(  7-N , 12-H ) :   0.8985
B(  8-N ,  9-H ) :   0.7065 B(  8-N , 10-H ) :   0.8671 B(  9-H , 13-O ) :   0.2478
B( 15-C , 22-C ) :   0.9919 B( 15-C , 23-H ) :   0.9381 B( 15-C , 24-H ) :   0.9506
B( 16-C , 17-C ) :   1.0092 B( 16-C , 28-C ) :   1.0193 B( 16-C , 31-H ) :   0.9441
B( 16-C , 32-H ) :   0.9481 B( 17-C , 18-H ) :   0.9432 B( 17-C , 19-H ) :   0.9456
B( 22-C , 25-C ) :   1.0199 B( 22-C , 26-H ) :   0.9560 B( 22-C , 27-H ) :   0.9384
B( 25-C , 28-C ) :   0.9907 B( 25-C , 29-H ) :   0.9499 B( 25-C , 30-H ) :   0.9465
B( 28-C , 33-H ) :   0.9437 B( 28-C , 34-H ) :   0.9609

Dispersion correction           -0.046357703
FINAL SINGLE POINT ENERGY     -1126.981125085225

DIPOLE MOMENT
-------------
                                X             Y             Z
Electronic contribution:     -9.22179     -11.56633     -14.30442
Nuclear contribution   :      8.53517      16.50844      14.36520
                        -----------------------------------------
Total Dipole Moment    :     -0.68662       4.94211       0.06077
                        -----------------------------------------
Magnitude (a.u.)       :      4.98995
Magnitude (Debye)      :     12.68345

Rotational constants in cm-1:     0.017951     0.012436     0.008288
Rotational constants in MHz :   538.163255   372.824050   248.467077

                             ****ORCA TERMINATED NORMALLY****
TOTAL RUN TIME: 0 days 0 hours 0 minutes 31 seconds 653 msec
