                         Program Version 5.0.0 -  RELEASE  -
|  1> !PBE D3BJ RIJCOSX def2-TZVP def2/J TightSCF
|  2> *xyz 0 1
|  3> C          4.93020       -7.37532       -2.64962
|  4> C          3.84189       -6.95161       -3.63283
|  5> H          3.45814       -5.95442       -3.40712
|  6> H          2.98848       -7.64361       -3.56708
|  7> S          4.31812       -6.91593       -5.36869
|  8> F          5.40615       -5.89948       -5.51297
|  9> O          3.11191       -6.44508       -6.04379
| 10> O          4.76340       -8.23942       -5.69863
| 11> H          5.27901       -8.35440       -2.90385
| 12> H          4.53000       -7.38577       -1.65734
| 13> H          5.74437       -6.68276       -2.69856
| 14> *
| 15>
| 16> %MaxCore 64000
| 17>
| 18> %pal nprocs 4
| 19> end
| 20>
| 21> %scf
| 22>   MaxIter 150
| 23> end
| 24>
| 25>
| 26>                          ****END OF INPUT****

CARTESIAN COORDINATES (ANGSTROEM)
---------------------------------
  C      4.930200   -7.375320   -2.649620
  C      3.841890   -6.951610   -3.632830
  H      3.458140   -5.954420   -3.407120
  H      2.988480   -7.643610   -3.567080
  S      4.318120   -6.915930   -5.368690
  F      5.406150   -5.899480   -5.512970
  O      3.111910   -6.445080   -6.043790
  O      4.763400   -8.239420   -5.698630
  H      5.279010   -8.354400   -2.903850
  H      4.530000   -7.385770   -1.657340
  H      5.744370   -6.682760   -2.698560

 Total Charge           Charge          ....    0
 Multiplicity           Mult            ....    1
 Number of Electrons    NEL             ....   58
 Basis Dimension        Dim             ....  222

ORBITAL ENERGIES
----------------

  NO   OCC          E(Eh)            E(eV)
   0   2.0000     -88.264347     -2401.7950
   1   2.0000     -24.348295      -662.5508
   2   2.0000     -18.763244      -510.5738
   3   2.0000     -18.753874      -510.3189
   4   2.0000      -9.941640      -270.5258
   5   2.0000      -9.899699      -269.3845
   6   2.0000      -7.859854      -213.8775
   7   2.0000      -5.884266      -160.1190
   8   2.0000      -5.877878      -159.9452
   9   2.0000      -5.877310      -159.9297
  10   2.0000      -1.234553       -33.5939
  11   2.0000      -1.020062       -27.7573
  12   2.0000      -0.931606       -25.3503
  13   2.0000      -0.748841       -20.3770
  14   2.0000      -0.650959       -17.7135
  15   2.0000      -0.605811       -16.4850
  16   2.0000      -0.513781       -13.9807
  17   2.0000      -0.490476       -13.3465
  18   2.0000      -0.484374       -13.1805
  19   2.0000      -0.442078       -12.0296
  20   2.0000      -0.423738       -11.5305
  21   2.0000      -0.402729       -10.9588
  22   2.0000      -0.385469       -10.4891
  23   2.0000      -0.362580        -9.8663
  24   2.0000      -0.356686        -9.7059
  25   2.0000      -0.332345        -9.0436
  26   2.0000      -0.294102        -8.0029
  27   2.0000      -0.284265        -7.7352
  28   2.0000      -0.270600        -7.3634
  29   0.0000      -0.023758        -0.6465
  30   0.0000       0.016220         0.4414
  31   0.0000       0.028164         0.7664
  32   0.0000       0.045350         1.2340
  33   0.0000       0.051055         1.3893

MULLIKEN ATOMIC CHARGES
-----------------------
   0 C :   -0.349576
   1 C :   -0.241432
   2 H :    0.140844
   3 H :    0.154556
   4 S :    0.714485
   5 F :   -0.095780
   6 O :   -0.371370
   7 O :   -0.349519
   8 H :    0.144714
   9 H :    0.129399
  10 H :    0.123678
Sum of atomic charges:   -0.0000000

LOEWDIN ATOMIC CHARGES
----------------------
   0 C :   -0.321299
   1 C :   -0.403517
   2 H :    0.139742
   3 H :    0.154560
   4 S :    0.487958
   5 F :    0.052564
   6 O :   -0.257001
   7 O :   -0.227506
   8 H :    0.126712
   9 H :    0.126524
  10 H :    0.121263

  Mayer bond orders larger than 0.100000
B(  0-C ,  1-C ) :   0.9879 B(  0-C ,  8-H ) :   0.9617 B(  0-C ,  9-H ) :   0.9532
B(  0-C , 10-H ) :   0.9656 B(  1-C ,  2-H ) :   0.9343 B(  1-C ,  3-H ) :   0.9321
B(  1-C ,  4-S ) :   0.8921 B(  4-S ,  5-F ) :   1.1177 B(  4-S ,  6-O ) :   1.9664
B(  4-S ,  7-O ) :   1.9671

Dispersion correction           -0.009153799
FINAL SINGLE POINT ENERGY      -727.335326898825

DIPOLE MOMENT
-------------
                                X             Y             Z
Electronic contribution:      1.28955       2.61647      -8.86842
Nuclear contribution   :     -0.98922      -2.24849      10.35711
                        -----------------------------------------
Total Dipole Moment    :      0.30033       0.36797       1.48868
                        -----------------------------------------
Magnitude (a.u.)       :      1.56262
Magnitude (Debye)      :      3.97186

Rotational constants in cm-1:     0.151436     0.080885     0.078670
Rotational constants in MHz :  4539.936009  2424.868817  2358.476812

                             ****ORCA TERMINATED NORMALLY****
TOTAL RUN TIME: 0 days 0 hours 0 minutes 12 seconds 116 msec
