                         Program Version 5.0.0 -  RELEASE  -
|  1> !PBE D3BJ RIJCOSX def2-TZVP def2/J TightSCF
|  2> *xyz 0 1
|  3> C          5.55821       -1.99291       -6.21505
|  4> C          4.18188       -2.58967       -6.29891
|  5> C          3.14587       -1.76843       -6.48675
|  6> N          4.01910       -3.86431       -6.22743
|  7> H          4.76849       -4.59115       -5.99077
|  8> H          3.12241       -4.33339       -6.31462
|  9> H          3.28164       -0.77779       -6.56655
| 10> H          2.21255       -2.13419       -6.56225
| 11> C          6.41926       -2.54294       -5.07763
| 12> H          6.03683       -2.19819       -7.17685
| 13> H          5.46761       -0.90737       -6.12797
| 14> H          6.50056       -3.60553       -5.17358
| 15> H          5.96544       -2.30329       -4.13874
| 16> H          7.39438       -2.10494       -5.12457
| 17> *
| 18>
| 19> %MaxCore 64000
| 20>
| 21> %pal nprocs 4
| 22> end
| 23>
| 24> %scf
| 25>   MaxIter 150
| 26> end
| 27>
| 28>
| 29>                          ****END OF INPUT****

CARTESIAN COORDINATES (ANGSTROEM)
---------------------------------
  C      5.558210   -1.992910   -6.215050
  C      4.181880   -2.589670   -6.298910
  C      3.145870   -1.768430   -6.486750
  N      4.019100   -3.864310   -6.227430
  H      4.768490   -4.591150   -5.990770
  H      3.122410   -4.333390   -6.314620
  H      3.281640   -0.777790   -6.566550
  H      2.212550   -2.134190   -6.562250
  C      6.419260   -2.542940   -5.077630
  H      6.036830   -2.198190   -7.176850
  H      5.467610   -0.907370   -6.127970
  H      6.500560   -3.605530   -5.173580
  H      5.965440   -2.303290   -4.138740
  H      7.394380   -2.104940   -5.124570

 Total Charge           Charge          ....    0
 Multiplicity           Mult            ....    1
 Number of Electrons    NEL             ....   40
 Basis Dimension        Dim             ....  209

ORBITAL ENERGIES
----------------

  NO   OCC          E(Eh)            E(eV)
   0   2.0000     -13.991698      -380.7335
   1   2.0000      -9.897843      -269.3340
   2   2.0000      -9.879061      -268.8229
   3   2.0000      -9.867474      -268.5076
   4   2.0000      -9.807053      -266.8635
   5   2.0000      -0.853291       -23.2192
   6   2.0000      -0.705294       -19.1920
   7   2.0000      -0.647308       -17.6141
   8   2.0000      -0.567309       -15.4373
   9   2.0000      -0.526611       -14.3298
  10   2.0000      -0.466026       -12.6812
  11   2.0000      -0.421333       -11.4651
  12   2.0000      -0.394742       -10.7415
  13   2.0000      -0.375374       -10.2144
  14   2.0000      -0.345245        -9.3946
  15   2.0000      -0.335888        -9.1400
  16   2.0000      -0.314939        -8.5699
  17   2.0000      -0.291328        -7.9274
  18   2.0000      -0.285159        -7.7596
  19   2.0000      -0.153401        -4.1742
  20   0.0000      -0.001748        -0.0476
  21   0.0000       0.019075         0.5191
  22   0.0000       0.044016         1.1977
  23   0.0000       0.049118         1.3366
  24   0.0000       0.072941         1.9848

MULLIKEN ATOMIC CHARGES
-----------------------
   0 C :   -0.180492
   1 C :    0.208385
   2 C :   -0.430779
   3 N :   -0.417682
   4 H :    0.227006
   5 H :    0.225513
   6 H :    0.097476
   7 H :    0.079742
   8 C :   -0.333401
   9 H :    0.100076
  10 H :    0.101663
  11 H :    0.083476
  12 H :    0.120172
  13 H :    0.118847
Sum of atomic charges:    0.0000000

LOEWDIN ATOMIC CHARGES
----------------------
   0 C :   -0.241063
   1 C :   -0.387943
   2 C :   -0.280571
   3 N :    0.020043
   4 H :    0.185185
   5 H :    0.171603
   6 H :    0.100002
   7 H :    0.093562
   8 C :   -0.303225
   9 H :    0.144278
  10 H :    0.148864
  11 H :    0.109198
  12 H :    0.121193
  13 H :    0.118875

  Mayer bond orders larger than 0.100000
B(  0-C ,  1-C ) :   1.0155 B(  0-C ,  8-C ) :   0.9986 B(  0-C ,  9-H ) :   0.9452
B(  0-C , 10-H ) :   0.9535 B(  1-C ,  2-C ) :   1.7220 B(  1-C ,  3-N ) :   1.2168
B(  2-C ,  6-H ) :   0.9788 B(  2-C ,  7-H ) :   0.9800 B(  3-N ,  4-H ) :   0.9072
B(  3-N ,  5-H ) :   0.9094 B(  8-C , 11-H ) :   0.9709 B(  8-C , 12-H ) :   0.9674
B(  8-C , 13-H ) :   0.9685

Dispersion correction           -0.010422149
FINAL SINGLE POINT ENERGY      -212.351817989717

DIPOLE MOMENT
-------------
                                X             Y             Z
Electronic contribution:     -2.04956      -1.10574      -1.03189
Nuclear contribution   :      2.41345       0.31141       1.16343
                        -----------------------------------------
Total Dipole Moment    :      0.36389      -0.79433       0.13154
                        -----------------------------------------
Magnitude (a.u.)       :      0.88356
Magnitude (Debye)      :      2.24583

Rotational constants in cm-1:     0.287957     0.129204     0.097498
Rotational constants in MHz :  8632.737925  3873.424745  2922.919500

                             ****ORCA TERMINATED NORMALLY****
TOTAL RUN TIME: 0 days 0 hours 0 minutes 11 seconds 415 msec
