                         Program Version 5.0.0 -  RELEASE  -
|  1> !PBE D3BJ RIJCOSX def2-TZVP def2/J TightSCF
|  2> *xyz 0 1
|  3> C          4.93020       -7.37532       -2.64962
|  4> C          3.84189       -6.95161       -3.63283
|  5> H          3.45814       -5.95442       -3.40712
|  6> H          2.98848       -7.64361       -3.56708
|  7> S          4.31812       -6.91593       -5.36869
|  8> O          5.40615       -5.89948       -5.51297
|  9> F          3.11191       -6.44508       -6.04379
| 10> O          4.76340       -8.23942       -5.69863
| 11> H          5.27901       -8.35440       -2.90385
| 12> H          4.53000       -7.38577       -1.65734
| 13> H          5.74437       -6.68276       -2.69856
| 14> *
| 15>
| 16> %MaxCore 64000
| 17>
| 18> %pal nprocs 4
| 19> end
| 20>
| 21> %scf
| 22>   MaxIter 150
| 23> end
| 24>
| 25>
| 26>                          ****END OF INPUT****

CARTESIAN COORDINATES (ANGSTROEM)
---------------------------------
  C      4.930200   -7.375320   -2.649620
  C      3.841890   -6.951610   -3.632830
  H      3.458140   -5.954420   -3.407120
  H      2.988480   -7.643610   -3.567080
  S      4.318120   -6.915930   -5.368690
  O      5.406150   -5.899480   -5.512970
  F      3.111910   -6.445080   -6.043790
  O      4.763400   -8.239420   -5.698630
  H      5.279010   -8.354400   -2.903850
  H      4.530000   -7.385770   -1.657340
  H      5.744370   -6.682760   -2.698560

 Total Charge           Charge          ....    0
 Multiplicity           Mult            ....    1
 Number of Electrons    NEL             ....   58
 Basis Dimension        Dim             ....  222

ORBITAL ENERGIES
----------------

  NO   OCC          E(Eh)            E(eV)
   0   2.0000     -88.266239     -2401.8465
   1   2.0000     -24.362805      -662.9456
   2   2.0000     -18.762209      -510.5457
   3   2.0000     -18.746105      -510.1074
   4   2.0000      -9.942587      -270.5516
   5   2.0000      -9.898682      -269.3568
   6   2.0000      -7.861604      -213.9251
   7   2.0000      -5.885936      -160.1645
   8   2.0000      -5.879473      -159.9886
   9   2.0000      -5.879238      -159.9822
  10   2.0000      -1.260587       -34.3023
  11   2.0000      -1.013586       -27.5811
  12   2.0000      -0.913652       -24.8617
  13   2.0000      -0.748639       -20.3715
  14   2.0000      -0.663926       -18.0663
  15   2.0000      -0.606017       -16.4905
  16   2.0000      -0.516652       -14.0588
  17   2.0000      -0.508753       -13.8439
  18   2.0000      -0.493600       -13.4315
  19   2.0000      -0.443154       -12.0588
  20   2.0000      -0.427447       -11.6314
  21   2.0000      -0.390418       -10.6238
  22   2.0000      -0.384033       -10.4501
  23   2.0000      -0.365422        -9.9436
  24   2.0000      -0.344955        -9.3867
  25   2.0000      -0.335740        -9.1360
  26   2.0000      -0.291286        -7.9263
  27   2.0000      -0.275893        -7.5074
  28   2.0000      -0.256796        -6.9878
  29   0.0000      -0.009289        -0.2528
  30   0.0000       0.003436         0.0935
  31   0.0000       0.034857         0.9485
  32   0.0000       0.039093         1.0638
  33   0.0000       0.046436         1.2636

MULLIKEN ATOMIC CHARGES
-----------------------
   0 C :   -0.351789
   1 C :   -0.227227
   2 H :    0.136244
   3 H :    0.132147
   4 S :    0.709885
   5 O :   -0.403877
   6 F :   -0.067515
   7 O :   -0.342868
   8 H :    0.142248
   9 H :    0.129490
  10 H :    0.143262
Sum of atomic charges:   -0.0000000

LOEWDIN ATOMIC CHARGES
----------------------
   0 C :   -0.307109
   1 C :   -0.408904
   2 H :    0.138160
   3 H :    0.140553
   4 S :    0.480869
   5 O :   -0.295967
   6 F :    0.094456
   7 O :   -0.226296
   8 H :    0.128120
   9 H :    0.127536
  10 H :    0.128582

  Mayer bond orders larger than 0.100000
B(  0-C ,  1-C ) :   1.0050 B(  0-C ,  8-H ) :   0.9634 B(  0-C ,  9-H ) :   0.9506
B(  0-C , 10-H ) :   0.9633 B(  1-C ,  2-H ) :   0.9272 B(  1-C ,  3-H ) :   0.9235
B(  1-C ,  4-S ) :   0.8964 B(  4-S ,  5-O ) :   1.9088 B(  4-S ,  6-F ) :   1.1599
B(  4-S ,  7-O ) :   1.9713

Dispersion correction           -0.009188259
FINAL SINGLE POINT ENERGY      -727.324357293790

DIPOLE MOMENT
-------------
                                X             Y             Z
Electronic contribution:     -2.52625       1.70410      -9.75939
Nuclear contribution   :      1.40145      -1.67996      10.91024
                        -----------------------------------------
Total Dipole Moment    :     -1.12480       0.02414       1.15085
                        -----------------------------------------
Magnitude (a.u.)       :      1.60942
Magnitude (Debye)      :      4.09081

Rotational constants in cm-1:     0.155875     0.079864     0.077188
Rotational constants in MHz :  4673.017506  2394.277415  2314.027118

                             ****ORCA TERMINATED NORMALLY****
TOTAL RUN TIME: 0 days 0 hours 0 minutes 10 seconds 935 msec
