                         Program Version 5.0.0 -  RELEASE  -
|  1> !PBE D3BJ RIJCOSX def2-TZVP def2/J TightSCF
|  2> *xyz 0 1
|  3> C          5.55821       -1.99291       -6.21505
|  4> C          4.18188       -2.58967       -6.29891
|  5> N          3.14587       -1.76843       -6.48675
|  6> C          4.01910       -3.86431       -6.22743
|  7> H          4.76849       -4.59115       -5.99077
|  8> H          3.12241       -4.33339       -6.31462
|  9> H          3.28164       -0.77779       -6.56655
| 10> H          2.21255       -2.13419       -6.56225
| 11> C          6.41926       -2.54294       -5.07763
| 12> H          6.03683       -2.19819       -7.17685
| 13> H          5.46761       -0.90737       -6.12797
| 14> H          6.50056       -3.60553       -5.17358
| 15> H          5.96544       -2.30329       -4.13874
| 16> H          7.39438       -2.10494       -5.12457
| 17> *
| 18>
| 19> %MaxCore 64000
| 20>
| 21> %pal nprocs 4
| 22> end
| 23>
| 24> %scf
| 25>   MaxIter 150
| 26> end
| 27>
| 28>
| 29>                          ****END OF INPUT****

CARTESIAN COORDINATES (ANGSTROEM)
---------------------------------
  C      5.558210   -1.992910   -6.215050
  C      4.181880   -2.589670   -6.298910
  N      3.145870   -1.768430   -6.486750
  C      4.019100   -3.864310   -6.227430
  H      4.768490   -4.591150   -5.990770
  H      3.122410   -4.333390   -6.314620
  H      3.281640   -0.777790   -6.566550
  H      2.212550   -2.134190   -6.562250
  C      6.419260   -2.542940   -5.077630
  H      6.036830   -2.198190   -7.176850
  H      5.467610   -0.907370   -6.127970
  H      6.500560   -3.605530   -5.173580
  H      5.965440   -2.303290   -4.138740
  H      7.394380   -2.104940   -5.124570

 Total Charge           Charge          ....    0
 Multiplicity           Mult            ....    1
 Number of Electrons    NEL             ....   40
 Basis Dimension        Dim             ....  209

ORBITAL ENERGIES
----------------

  NO   OCC          E(Eh)            E(eV)
   0   2.0000     -13.981241      -380.4489
   1   2.0000      -9.895661      -269.2746
   2   2.0000      -9.880259      -268.8555
   3   2.0000      -9.861300      -268.3396
   4   2.0000      -9.813422      -267.0368
   5   2.0000      -0.843597       -22.9554
   6   2.0000      -0.708265       -19.2729
   7   2.0000      -0.643369       -17.5070
   8   2.0000      -0.577150       -15.7051
   9   2.0000      -0.502455       -13.6725
  10   2.0000      -0.471503       -12.8303
  11   2.0000      -0.434359       -11.8195
  12   2.0000      -0.398525       -10.8444
  13   2.0000      -0.369978       -10.0676
  14   2.0000      -0.339984        -9.2514
  15   2.0000      -0.326296        -8.8790
  16   2.0000      -0.307540        -8.3686
  17   2.0000      -0.292855        -7.9690
  18   2.0000      -0.282112        -7.6767
  19   2.0000      -0.159684        -4.3452
  20   0.0000       0.010327         0.2810
  21   0.0000       0.018492         0.5032
  22   0.0000       0.046516         1.2658
  23   0.0000       0.054815         1.4916
  24   0.0000       0.076685         2.0867

MULLIKEN ATOMIC CHARGES
-----------------------
   0 C :   -0.168418
   1 C :    0.202983
   2 N :   -0.411553
   3 C :   -0.421619
   4 H :    0.097044
   5 H :    0.084976
   6 H :    0.213271
   7 H :    0.214536
   8 C :   -0.332930
   9 H :    0.111299
  10 H :    0.073070
  11 H :    0.113497
  12 H :    0.112947
  13 H :    0.110897
Sum of atomic charges:   -0.0000000

LOEWDIN ATOMIC CHARGES
----------------------
   0 C :   -0.240965
   1 C :   -0.374656
   2 N :    0.007478
   3 C :   -0.281509
   4 H :    0.120249
   5 H :    0.100156
   6 H :    0.158842
   7 H :    0.165575
   8 C :   -0.294186
   9 H :    0.150264
  10 H :    0.133347
  11 H :    0.119362
  12 H :    0.120450
  13 H :    0.115592

  Mayer bond orders larger than 0.100000
B(  0-C ,  1-C ) :   0.9770 B(  0-C ,  8-C ) :   1.0170 B(  0-C ,  9-H ) :   0.9501
B(  0-C , 10-H ) :   0.9483 B(  1-C ,  2-N ) :   1.1835 B(  1-C ,  3-C ) :   1.7756
B(  2-N ,  6-H ) :   0.9209 B(  2-N ,  7-H ) :   0.9158 B(  3-C ,  4-H ) :   0.9782
B(  3-C ,  5-H ) :   0.9658 B(  8-C , 11-H ) :   0.9711 B(  8-C , 12-H ) :   0.9697
B(  8-C , 13-H ) :   0.9641

Dispersion correction           -0.010456189
FINAL SINGLE POINT ENERGY      -212.360708932208

DIPOLE MOMENT
-------------
                                X             Y             Z
Electronic contribution:     -2.84950       0.84260      -1.29852
Nuclear contribution   :      2.61570      -0.17401       1.22349
                        -----------------------------------------
Total Dipole Moment    :     -0.23380       0.66859      -0.07502
                        -----------------------------------------
Magnitude (a.u.)       :      0.71225
Magnitude (Debye)      :      1.81039

Rotational constants in cm-1:     0.298189     0.125314     0.096441
Rotational constants in MHz :  8939.495008  3756.825352  2891.223400

                             ****ORCA TERMINATED NORMALLY****
TOTAL RUN TIME: 0 days 0 hours 0 minutes 10 seconds 501 msec
