                         Program Version 5.0.0 -  RELEASE  -
|  1> !PBE D3BJ RIJCOSX def2-TZVP def2/J TightSCF
|  2> *xyz 0 1
|  3> C          4.93020       -7.37532       -2.64962
|  4> C          3.84189       -6.95161       -3.63283
|  5> H          3.45814       -5.95442       -3.40712
|  6> H          2.98848       -7.64361       -3.56708
|  7> S          4.31812       -6.91593       -5.36869
|  8> O          5.40615       -5.89948       -5.51297
|  9> O          3.11191       -6.44508       -6.04379
| 10> F          4.76340       -8.23942       -5.69863
| 11> H          5.27901       -8.35440       -2.90385
| 12> H          4.53000       -7.38577       -1.65734
| 13> H          5.74437       -6.68276       -2.69856
| 14> *
| 15>
| 16> %MaxCore 64000
| 17>
| 18> %pal nprocs 4
| 19> end
| 20>
| 21> %scf
| 22>   MaxIter 150
| 23> end
| 24>
| 25>
| 26>                          ****END OF INPUT****

CARTESIAN COORDINATES (ANGSTROEM)
---------------------------------
  C      4.930200   -7.375320   -2.649620
  C      3.841890   -6.951610   -3.632830
  H      3.458140   -5.954420   -3.407120
  H      2.988480   -7.643610   -3.567080
  S      4.318120   -6.915930   -5.368690
  O      5.406150   -5.899480   -5.512970
  O      3.111910   -6.445080   -6.043790
  F      4.763400   -8.239420   -5.698630
  H      5.279010   -8.354400   -2.903850
  H      4.530000   -7.385770   -1.657340
  H      5.744370   -6.682760   -2.698560

 Total Charge           Charge          ....    0
 Multiplicity           Mult            ....    1
 Number of Electrons    NEL             ....   58
 Basis Dimension        Dim             ....  222

ORBITAL ENERGIES
----------------

  NO   OCC          E(Eh)            E(eV)
   0   2.0000     -88.267931     -2401.8925
   1   2.0000     -24.376214      -663.3105
   2   2.0000     -18.753925      -510.3202
   3   2.0000     -18.747201      -510.1373
   4   2.0000      -9.942677      -270.5540
   5   2.0000      -9.900607      -269.4092
   6   2.0000      -7.863179      -213.9680
   7   2.0000      -5.887660      -160.2114
   8   2.0000      -5.880854      -160.0262
   9   2.0000      -5.880816      -160.0251
  10   2.0000      -1.282134       -34.8886
  11   2.0000      -1.002736       -27.2858
  12   2.0000      -0.906753       -24.6740
  13   2.0000      -0.751007       -20.4359
  14   2.0000      -0.667581       -18.1658
  15   2.0000      -0.615370       -16.7451
  16   2.0000      -0.534844       -14.5539
  17   2.0000      -0.522734       -14.2243
  18   2.0000      -0.490557       -13.3487
  19   2.0000      -0.442756       -12.0480
  20   2.0000      -0.424424       -11.5492
  21   2.0000      -0.399888       -10.8815
  22   2.0000      -0.381801       -10.3893
  23   2.0000      -0.362785        -9.8719
  24   2.0000      -0.352117        -9.5816
  25   2.0000      -0.325516        -8.8577
  26   2.0000      -0.283231        -7.7071
  27   2.0000      -0.274760        -7.4766
  28   2.0000      -0.251450        -6.8423
  29   0.0000      -0.018690        -0.5086
  30   0.0000       0.010796         0.2938
  31   0.0000       0.027307         0.7431
  32   0.0000       0.036727         0.9994
  33   0.0000       0.048371         1.3162

MULLIKEN ATOMIC CHARGES
-----------------------
   0 C :   -0.348425
   1 C :   -0.239012
   2 H :    0.158955
   3 H :    0.136582
   4 S :    0.706214
   5 O :   -0.399097
   6 O :   -0.360259
   7 F :   -0.050910
   8 H :    0.120298
   9 H :    0.129635
  10 H :    0.146019
Sum of atomic charges:   -0.0000000

LOEWDIN ATOMIC CHARGES
----------------------
   0 C :   -0.321576
   1 C :   -0.404278
   2 H :    0.152127
   3 H :    0.141911
   4 S :    0.476906
   5 O :   -0.292327
   6 O :   -0.252184
   7 F :    0.125179
   8 H :    0.120254
   9 H :    0.126685
  10 H :    0.127303

  Mayer bond orders larger than 0.100000
B(  0-C ,  1-C ) :   0.9863 B(  0-C ,  8-H ) :   0.9656 B(  0-C ,  9-H ) :   0.9528
B(  0-C , 10-H ) :   0.9613 B(  1-C ,  2-H ) :   0.9345 B(  1-C ,  3-H ) :   0.9305
B(  1-C ,  4-S ) :   0.8909 B(  4-S ,  5-O ) :   1.9054 B(  4-S ,  6-O ) :   1.9690
B(  4-S ,  7-F ) :   1.1716

Dispersion correction           -0.009145551
FINAL SINGLE POINT ENERGY      -727.313287290097

DIPOLE MOMENT
-------------
                                X             Y             Z
Electronic contribution:      0.21411      -1.26214      -9.18446
Nuclear contribution   :     -0.31946       0.18980      10.55057
                        -----------------------------------------
Total Dipole Moment    :     -0.10534      -1.07235       1.36611
                        -----------------------------------------
Magnitude (a.u.)       :      1.73991
Magnitude (Debye)      :      4.42250

Rotational constants in cm-1:     0.151421     0.081183     0.078684
Rotational constants in MHz :  4539.489207  2433.790160  2358.892966

                             ****ORCA TERMINATED NORMALLY****
TOTAL RUN TIME: 0 days 0 hours 0 minutes 11 seconds 373 msec
