                         Program Version 5.0.0 -  RELEASE  -
|  1> !PBE D3BJ RIJCOSX def2-TZVP def2/J TightSCF xyzfile
|  2>
|  3> *xyzfile 0 1 D1.xyz
|  4>
|  5> %MaxCore 64000
|  6>
|  7> %pal nprocs 18
|  8> end
|  9>
| 10> %scf
| 11>   MaxIter 150
| 12> end
| 13>
| 14>
| 15>                          ****END OF INPUT****

CARTESIAN COORDINATES (ANGSTROEM)
---------------------------------
  C      5.558206   -1.992914   -6.215054
  C      4.930199   -7.375319   -2.649623
  C      3.841892   -6.951611   -3.632829
  H      3.458144   -5.954425   -3.407121
  H      2.988484   -7.643606   -3.567078
  S      4.318115   -6.915930   -5.368692
  C      4.181880   -2.589671   -6.298911
  C      3.145873   -1.768431   -6.486753
  N      4.019102   -3.864307   -6.227427
  H      4.768490   -4.591153   -5.990773
  H      3.122405   -4.333392   -6.314620
  H      3.281635   -0.777786   -6.566549
  H      2.212549   -2.134193   -6.562246
  F      5.406154   -5.899480   -5.512972
  O      3.111910   -6.445079   -6.043792
  C      6.419260   -2.542944   -5.077630
  C      5.872267   -5.002756   -2.427819
  C      6.173994   -6.485522   -2.606315
  H      6.734852   -6.613767   -3.534015
  H      6.821463   -6.831018   -1.793617
  H      4.469612   -7.406168   -1.655876
  H      5.230134   -8.398678   -2.885906
  C      5.896512   -2.169314   -3.694552
  H      7.428880   -2.143665   -5.208078
  H      6.505894   -3.627541   -5.175502
  C      6.807804   -2.623428   -2.551019
  H      4.894708   -2.589732   -3.557501
  H      5.778823   -1.081255   -3.635790
  C      7.111544   -4.122463   -2.520363
  H      7.751615   -2.071393   -2.614406
  H      6.345837   -2.326401   -1.604086
  H      5.362882   -4.828697   -1.471335
  H      5.174429   -4.702577   -3.211298
  H      7.778329   -4.329347   -1.677651
  H      7.673189   -4.402845   -3.417586
  O      4.763396   -8.239424   -5.698629
  H      6.036826   -2.198189   -7.176852
  H      5.467610   -0.907371   -6.127968

 Total Charge           Charge          ....    0
 Multiplicity           Mult            ....    1
 Number of Electrons    NEL             ....  136
 Basis Dimension        Dim             ....  634

ORBITAL ENERGIES
----------------

  NO   OCC          E(Eh)            E(eV)
   0   2.0000     -88.283610     -2402.3192
   1   2.0000     -24.380034      -663.4145
   2   2.0000     -18.781684      -511.0756
   3   2.0000     -18.774962      -510.8927
   4   2.0000     -13.967601      -380.0777
   5   2.0000      -9.950285      -270.7610
   6   2.0000      -9.916056      -269.8296
   7   2.0000      -9.900493      -269.4061
   8   2.0000      -9.891705      -269.1670
   9   2.0000      -9.886420      -269.0232
  10   2.0000      -9.885136      -268.9882
  11   2.0000      -9.879965      -268.8475
  12   2.0000      -9.878637      -268.8114
  13   2.0000      -9.874632      -268.7024
  14   2.0000      -9.872809      -268.6528
  15   2.0000      -9.797778      -266.6111
  16   2.0000      -7.879736      -214.4185
  17   2.0000      -5.904534      -160.6705
  18   2.0000      -5.897292      -160.4735
  19   2.0000      -5.897038      -160.4666
  20   2.0000      -1.271355       -34.5953
  21   2.0000      -1.040978       -28.3265
  22   2.0000      -0.952793       -25.9268
  23   2.0000      -0.839131       -22.8339
  24   2.0000      -0.776873       -21.1398
  25   2.0000      -0.745775       -20.2936
  26   2.0000      -0.719794       -19.5866
  27   2.0000      -0.690307       -18.7842
  28   2.0000      -0.673309       -18.3217
  29   2.0000      -0.645006       -17.5515
  30   2.0000      -0.631042       -17.1715
  31   2.0000      -0.595345       -16.2002
  32   2.0000      -0.562801       -15.3146
  33   2.0000      -0.551610       -15.0101
  34   2.0000      -0.547740       -14.9048
  35   2.0000      -0.523656       -14.2494
  36   2.0000      -0.514408       -13.9978
  37   2.0000      -0.503290       -13.6952
  38   2.0000      -0.500600       -13.6220
  39   2.0000      -0.458523       -12.4770
  40   2.0000      -0.450808       -12.2671
  41   2.0000      -0.439975       -11.9723
  42   2.0000      -0.434456       -11.8222
  43   2.0000      -0.425679       -11.5833
  44   2.0000      -0.415871       -11.3164
  45   2.0000      -0.412542       -11.2258
  46   2.0000      -0.402981       -10.9657
  47   2.0000      -0.388585       -10.5739
  48   2.0000      -0.385419       -10.4878
  49   2.0000      -0.375910       -10.2290
  50   2.0000      -0.364566        -9.9203
  51   2.0000      -0.362442        -9.8626
  52   2.0000      -0.349150        -9.5009
  53   2.0000      -0.335278        -9.1234
  54   2.0000      -0.328311        -8.9338
  55   2.0000      -0.326557        -8.8861
  56   2.0000      -0.324630        -8.8336
  57   2.0000      -0.314250        -8.5512
  58   2.0000      -0.309589        -8.4243
  59   2.0000      -0.303023        -8.2457
  60   2.0000      -0.297828        -8.1043
  61   2.0000      -0.294515        -8.0142
  62   2.0000      -0.292232        -7.9520
  63   2.0000      -0.287232        -7.8160
  64   2.0000      -0.279847        -7.6150
  65   2.0000      -0.272350        -7.4110
  66   2.0000      -0.267759        -7.2861
  67   2.0000      -0.143555        -3.9063
  68   0.0000      -0.041988        -1.1425
  69   0.0000      -0.001889        -0.0514
  70   0.0000       0.002557         0.0696
  71   0.0000       0.011768         0.3202
  72   0.0000       0.016876         0.4592

MULLIKEN ATOMIC CHARGES
-----------------------
   0 C :   -0.122735
   1 C :   -0.145243
   2 C :   -0.292803
   3 H :    0.167490
   4 H :    0.168148
   5 S :    0.732625
   6 C :    0.145240
   7 C :   -0.444034
   8 N :   -0.398128
   9 H :    0.230518
  10 H :    0.234700
  11 H :    0.090616
  12 H :    0.082788
  13 F :   -0.092467
  14 O :   -0.382885
  15 C :   -0.261014
  16 C :   -0.276001
  17 C :   -0.198366
  18 H :    0.109228
  19 H :    0.106297
  20 H :    0.106935
  21 H :    0.131880
  22 C :   -0.200522
  23 H :    0.092123
  24 H :    0.087434
  25 C :   -0.112622
  26 H :    0.122403
  27 H :    0.090486
  28 C :   -0.165975
  29 H :    0.092186
  30 H :    0.086867
  31 H :    0.094198
  32 H :    0.075823
  33 H :    0.093709
  34 H :    0.100861
  35 O :   -0.339257
  36 H :    0.098646
  37 H :    0.090852
Sum of atomic charges:    0.0000000

LOEWDIN ATOMIC CHARGES
----------------------
   0 C :   -0.215439
   1 C :   -0.288003
   2 C :   -0.374721
   3 H :    0.144235
   4 H :    0.159293
   5 S :    0.506452
   6 C :   -0.391868
   7 C :   -0.286817
   8 N :    0.002042
   9 H :    0.148785
  10 H :    0.169141
  11 H :    0.097765
  12 H :    0.093347
  13 F :    0.079513
  14 O :   -0.240924
  15 C :   -0.272007
  16 C :   -0.276222
  17 C :   -0.277255
  18 H :    0.135924
  19 H :    0.143855
  20 H :    0.149462
  21 H :    0.147685
  22 C :   -0.269128
  23 H :    0.139596
  24 H :    0.127085
  25 C :   -0.270393
  26 H :    0.140544
  27 H :    0.141573
  28 C :   -0.272190
  29 H :    0.138738
  30 H :    0.137832
  31 H :    0.139604
  32 H :    0.130706
  33 H :    0.138280
  34 H :    0.137690
  35 O :   -0.211664
  36 H :    0.146634
  37 H :    0.150853

  Mayer bond orders larger than 0.100000
B(  0-C ,  6-C ) :   1.0117 B(  0-C , 15-C ) :   0.9810 B(  0-C , 36-H ) :   0.9348
B(  0-C , 37-H ) :   0.9523 B(  1-C ,  2-C ) :   0.9733 B(  1-C , 17-C ) :   1.0142
B(  1-C , 20-H ) :   0.9277 B(  1-C , 21-H ) :   0.9463 B(  2-C ,  3-H ) :   0.9270
B(  2-C ,  4-H ) :   0.9253 B(  2-C ,  5-S ) :   0.8984 B(  5-S , 13-F ) :   1.0470
B(  5-S , 14-O ) :   1.8914 B(  5-S , 35-O ) :   2.0082 B(  6-C ,  7-C ) :   1.7150
B(  6-C ,  8-N ) :   1.2705 B(  7-C , 11-H ) :   0.9801 B(  7-C , 12-H ) :   0.9752
B(  8-N ,  9-H ) :   0.8695 B(  8-N , 10-H ) :   0.8887 B( 15-C , 22-C ) :   0.9903
B( 15-C , 23-H ) :   0.9393 B( 15-C , 24-H ) :   0.9731 B( 16-C , 17-C ) :   0.9692
B( 16-C , 28-C ) :   1.0134 B( 16-C , 31-H ) :   0.9432 B( 16-C , 32-H ) :   0.9654
B( 17-C , 18-H ) :   0.9623 B( 17-C , 19-H ) :   0.9493 B( 22-C , 25-C ) :   0.9984
B( 22-C , 26-H ) :   0.9667 B( 22-C , 27-H ) :   0.9422 B( 25-C , 28-C ) :   0.9966
B( 25-C , 29-H ) :   0.9478 B( 25-C , 30-H ) :   0.9503 B( 28-C , 33-H ) :   0.9446
B( 28-C , 34-H ) :   0.9568

Dispersion correction           -0.045848702
FINAL SINGLE POINT ENERGY     -1134.848972652326

DIPOLE MOMENT
-------------
                                X             Y             Z
Electronic contribution:     -7.04681     -18.84578     -13.32117
Nuclear contribution   :      7.78491      18.17172      15.09294
                        -----------------------------------------
Total Dipole Moment    :      0.73810      -0.67406       1.77176
                        -----------------------------------------
Magnitude (a.u.)       :      2.03428
Magnitude (Debye)      :      5.17073

Rotational constants in cm-1:     0.018190     0.012573     0.008405
Rotational constants in MHz :   545.327178   376.916509   251.974803

                             ****ORCA TERMINATED NORMALLY****
TOTAL RUN TIME: 0 days 0 hours 0 minutes 26 seconds 559 msec
