                         Program Version 5.0.0 -  RELEASE  -
|  1> !PBE D3BJ RIJCOSX def2-TZVP def2/J TightSCF xyzfile
|  2>
|  3> *xyzfile 0 1 D4.xyz
|  4>
|  5> %MaxCore 64000
|  6>
|  7> %pal nprocs 18
|  8> end
|  9>
| 10> %scf
| 11>   MaxIter 150
| 12> end
| 13>
| 14>
| 15>                          ****END OF INPUT****

CARTESIAN COORDINATES (ANGSTROEM)
---------------------------------
  C      5.558206   -1.992914   -6.215054
  C      4.930199   -7.375319   -2.649623
  C      3.841892   -6.951611   -3.632829
  H      3.458144   -5.954425   -3.407121
  H      2.988484   -7.643606   -3.567078
  S      4.318115   -6.915930   -5.368692
  C      4.181880   -2.589671   -6.298911
  N      3.145873   -1.768431   -6.486753
  C      4.019102   -3.864307   -6.227427
  H      4.768490   -4.591153   -5.990773
  H      3.122405   -4.333392   -6.314620
  H      3.281635   -0.777786   -6.566549
  H      2.212549   -2.134193   -6.562246
  O      5.406154   -5.899480   -5.512972
  F      3.111910   -6.445079   -6.043792
  C      6.419260   -2.542944   -5.077630
  C      5.872267   -5.002756   -2.427819
  C      6.173994   -6.485522   -2.606315
  H      6.734852   -6.613767   -3.534015
  H      6.821463   -6.831018   -1.793617
  H      4.469612   -7.406168   -1.655876
  H      5.230134   -8.398678   -2.885906
  C      5.896512   -2.169314   -3.694552
  H      7.428880   -2.143665   -5.208078
  H      6.505894   -3.627541   -5.175502
  C      6.807804   -2.623428   -2.551019
  H      4.894708   -2.589732   -3.557501
  H      5.778823   -1.081255   -3.635790
  C      7.111544   -4.122463   -2.520363
  H      7.751615   -2.071393   -2.614406
  H      6.345837   -2.326401   -1.604086
  H      5.362882   -4.828697   -1.471335
  H      5.174429   -4.702577   -3.211298
  H      7.778329   -4.329347   -1.677651
  H      7.673189   -4.402845   -3.417586
  O      4.763396   -8.239424   -5.698629
  H      6.036826   -2.198189   -7.176852
  H      5.467610   -0.907371   -6.127968

 Total Charge           Charge          ....    0
 Multiplicity           Mult            ....    1
 Number of Electrons    NEL             ....  136
 Basis Dimension        Dim             ....  634

ORBITAL ENERGIES
----------------

  NO   OCC          E(Eh)            E(eV)
   0   2.0000     -88.269223     -2401.9277
   1   2.0000     -24.362262      -662.9309
   2   2.0000     -18.764589      -510.6104
   3   2.0000     -18.750420      -510.2249
   4   2.0000     -13.970303      -380.1513
   5   2.0000      -9.938042      -270.4279
   6   2.0000      -9.905626      -269.5458
   7   2.0000      -9.880955      -268.8744
   8   2.0000      -9.878539      -268.8087
   9   2.0000      -9.870733      -268.5963
  10   2.0000      -9.868569      -268.5374
  11   2.0000      -9.868330      -268.5309
  12   2.0000      -9.867552      -268.5097
  13   2.0000      -9.863122      -268.3892
  14   2.0000      -9.862806      -268.3806
  15   2.0000      -9.783002      -266.2090
  16   2.0000      -7.864789      -214.0118
  17   2.0000      -5.888937      -160.2461
  18   2.0000      -5.882722      -160.0770
  19   2.0000      -5.882505      -160.0711
  20   2.0000      -1.261392       -34.3242
  21   2.0000      -1.018135       -27.7049
  22   2.0000      -0.924907       -25.1680
  23   2.0000      -0.832231       -22.6462
  24   2.0000      -0.760371       -20.6907
  25   2.0000      -0.732707       -19.9380
  26   2.0000      -0.707270       -19.2458
  27   2.0000      -0.684327       -18.6215
  28   2.0000      -0.653703       -17.7882
  29   2.0000      -0.635855       -17.3025
  30   2.0000      -0.612680       -16.6719
  31   2.0000      -0.586290       -15.9538
  32   2.0000      -0.554867       -15.0987
  33   2.0000      -0.536909       -14.6100
  34   2.0000      -0.516474       -14.0540
  35   2.0000      -0.507231       -13.8025
  36   2.0000      -0.501147       -13.6369
  37   2.0000      -0.493533       -13.4297
  38   2.0000      -0.481673       -13.1070
  39   2.0000      -0.461152       -12.5486
  40   2.0000      -0.442810       -12.0495
  41   2.0000      -0.438785       -11.9399
  42   2.0000      -0.426552       -11.6071
  43   2.0000      -0.414085       -11.2678
  44   2.0000      -0.405814       -11.0427
  45   2.0000      -0.397745       -10.8232
  46   2.0000      -0.394001       -10.7213
  47   2.0000      -0.378686       -10.3046
  48   2.0000      -0.367237        -9.9930
  49   2.0000      -0.362334        -9.8596
  50   2.0000      -0.356648        -9.7049
  51   2.0000      -0.348276        -9.4771
  52   2.0000      -0.339431        -9.2364
  53   2.0000      -0.322151        -8.7662
  54   2.0000      -0.318706        -8.6724
  55   2.0000      -0.314086        -8.5467
  56   2.0000      -0.306887        -8.3508
  57   2.0000      -0.298675        -8.1273
  58   2.0000      -0.293368        -7.9829
  59   2.0000      -0.290524        -7.9056
  60   2.0000      -0.281126        -7.6498
  61   2.0000      -0.278989        -7.5917
  62   2.0000      -0.276402        -7.5213
  63   2.0000      -0.267613        -7.2821
  64   2.0000      -0.262262        -7.1365
  65   2.0000      -0.258632        -7.0377
  66   2.0000      -0.225673        -6.1409
  67   2.0000      -0.146314        -3.9814
  68   0.0000      -0.012050        -0.3279
  69   0.0000       0.001410         0.0384
  70   0.0000       0.016868         0.4590
  71   0.0000       0.018145         0.4937
  72   0.0000       0.027122         0.7380

MULLIKEN ATOMIC CHARGES
-----------------------
   0 C :   -0.111949
   1 C :   -0.152711
   2 C :   -0.282890
   3 H :    0.157955
   4 H :    0.144008
   5 S :    0.743493
   6 C :    0.139922
   7 N :   -0.402275
   8 C :   -0.481552
   9 H :    0.175831
  10 H :    0.053111
  11 H :    0.205737
  12 H :    0.204462
  13 O :   -0.387600
  14 F :   -0.063168
  15 C :   -0.232940
  16 C :   -0.256928
  17 C :   -0.182611
  18 H :    0.127391
  19 H :    0.091210
  20 H :    0.105764
  21 H :    0.124975
  22 C :   -0.213899
  23 H :    0.076941
  24 H :    0.136768
  25 C :   -0.105914
  26 H :    0.117964
  27 H :    0.075692
  28 C :   -0.176724
  29 H :    0.086420
  30 H :    0.078794
  31 H :    0.077002
  32 H :    0.110029
  33 H :    0.083553
  34 H :    0.106840
  35 O :   -0.342657
  36 H :    0.106231
  37 H :    0.063724
Sum of atomic charges:   -0.0000000

LOEWDIN ATOMIC CHARGES
----------------------
   0 C :   -0.215734
   1 C :   -0.278920
   2 C :   -0.381623
   3 H :    0.142113
   4 H :    0.144131
   5 S :    0.513506
   6 C :   -0.383730
   7 N :    0.002077
   8 C :   -0.319393
   9 H :    0.098347
  10 H :    0.087339
  11 H :    0.155161
  12 H :    0.161595
  13 O :   -0.241346
  14 F :    0.112870
  15 C :   -0.258658
  16 C :   -0.274720
  17 C :   -0.274178
  18 H :    0.144104
  19 H :    0.139207
  20 H :    0.149433
  21 H :    0.147614
  22 C :   -0.271382
  23 H :    0.136274
  24 H :    0.145582
  25 C :   -0.271663
  26 H :    0.139150
  27 H :    0.135122
  28 C :   -0.270824
  29 H :    0.136793
  30 H :    0.135457
  31 H :    0.133977
  32 H :    0.138944
  33 H :    0.135545
  34 H :    0.140940
  35 O :   -0.219832
  36 H :    0.152305
  37 H :    0.134418

  Mayer bond orders larger than 0.100000
B(  0-C ,  6-C ) :   0.9872 B(  0-C , 15-C ) :   1.0018 B(  0-C , 36-H ) :   0.9338
B(  0-C , 37-H ) :   0.9430 B(  1-C ,  2-C ) :   0.9925 B(  1-C , 17-C ) :   1.0258
B(  1-C , 20-H ) :   0.9308 B(  1-C , 21-H ) :   0.9435 B(  2-C ,  3-H ) :   0.9241
B(  2-C ,  4-H ) :   0.9221 B(  2-C ,  5-S ) :   0.9063 B(  5-S , 13-O ) :   1.7757
B(  5-S , 14-F ) :   1.1542 B(  5-S , 35-O ) :   2.0061 B(  6-C ,  7-N ) :   1.1740
B(  6-C ,  8-C ) :   1.8142 B(  7-N , 11-H ) :   0.9183 B(  7-N , 12-H ) :   0.9163
B(  8-C ,  9-H ) :   0.9432 B(  8-C , 10-H ) :   0.9444 B( 15-C , 22-C ) :   1.0096
B( 15-C , 23-H ) :   0.9369 B( 15-C , 24-H ) :   0.9576 B( 16-C , 17-C ) :   0.9906
B( 16-C , 28-C ) :   1.0280 B( 16-C , 31-H ) :   0.9441 B( 16-C , 32-H ) :   0.9513
B( 17-C , 18-H ) :   0.9484 B( 17-C , 19-H ) :   0.9488 B( 22-C , 25-C ) :   1.0094
B( 22-C , 26-H ) :   0.9616 B( 22-C , 27-H ) :   0.9422 B( 25-C , 28-C ) :   0.9978
B( 25-C , 29-H ) :   0.9473 B( 25-C , 30-H ) :   0.9488 B( 28-C , 33-H ) :   0.9443
B( 28-C , 34-H ) :   0.9571

Dispersion correction           -0.046431471
FINAL SINGLE POINT ENERGY     -1134.835086730701

DIPOLE MOMENT
-------------
                                X             Y             Z
Electronic contribution:    -11.70503     -18.13050     -14.76138
Nuclear contribution   :     10.61624      18.49702      15.75668
                        -----------------------------------------
Total Dipole Moment    :     -1.08878       0.36653       0.99530
                        -----------------------------------------
Magnitude (a.u.)       :      1.52000
Magnitude (Debye)      :      3.86354

Rotational constants in cm-1:     0.017796     0.012372     0.008231
Rotational constants in MHz :   533.524905   370.895973   246.762347

                             ****ORCA TERMINATED NORMALLY****
TOTAL RUN TIME: 0 days 0 hours 0 minutes 32 seconds 191 msec
