                         Program Version 5.0.0 -  RELEASE  -
|  1> !B3LYP D3BJ RIJCOSX def2-SVPD def2/J TightSCF
|  2> *xyz -1 1
|  3> C         -0.50835        1.72268       -4.12430
|  4> S         -1.32861        0.14674       -4.43578
|  5> O         -2.57135        0.47573       -5.06834
|  6> O         -1.51496       -0.40051       -3.06342
|  7> O         -0.37793       -0.62756       -5.20114
|  8> H         -0.31967        2.21655       -5.05456
|  9> H          0.41835        1.54859       -3.61852
| 10> H         -1.13714        2.33776       -3.51504
| 11> *
| 12> %MaxCore 64000
| 13>
| 14> %pal nprocs 4
| 15> end
| 16>
| 17> %scf
| 18>   MaxIter 150
| 19> end
| 20>
| 21>
| 22>                          ****END OF INPUT****

CARTESIAN COORDINATES (ANGSTROEM)
---------------------------------
  C     -0.508350    1.722680   -4.124300
  S     -1.328610    0.146740   -4.435780
  O     -2.571350    0.475730   -5.068340
  O     -1.514960   -0.400510   -3.063420
  O     -0.377930   -0.627560   -5.201140
  H     -0.319670    2.216550   -5.054560
  H      0.418350    1.548590   -3.618520
  H     -1.137140    2.337760   -3.515040

 Total Charge           Charge          ....   -1
 Multiplicity           Mult            ....    1
 Number of Electrons    NEL             ....   50
 Basis Dimension        Dim             ....  140

ORBITAL ENERGIES
----------------

  NO   OCC          E(Eh)            E(eV)
   0   2.0000     -88.881843     -2418.5979
   1   2.0000     -18.922426      -514.9054
   2   2.0000     -18.919566      -514.8276
   3   2.0000     -18.904433      -514.4158
   4   2.0000     -10.032804      -273.0065
   5   2.0000      -7.935447      -215.9345
   6   2.0000      -5.904391      -160.6667
   7   2.0000      -5.904170      -160.6606
   8   2.0000      -5.903890      -160.6530
   9   2.0000      -0.932056       -25.3625
  10   2.0000      -0.796620       -21.6771
  11   2.0000      -0.765617       -20.8335
  12   2.0000      -0.574491       -15.6327
  13   2.0000      -0.384635       -10.4664
  14   2.0000      -0.303173        -8.2498
  15   2.0000      -0.287903        -7.8342
  16   2.0000      -0.287482        -7.8228
  17   2.0000      -0.249599        -6.7919
  18   2.0000      -0.246948        -6.7198
  19   2.0000      -0.153288        -4.1712
  20   2.0000      -0.152585        -4.1520
  21   2.0000      -0.119321        -3.2469
  22   2.0000      -0.111808        -3.0424
  23   2.0000      -0.098412        -2.6779
  24   2.0000      -0.065709        -1.7880
  25   0.0000       0.151252         4.1158
  26   0.0000       0.186269         5.0686
  27   0.0000       0.186932         5.0867
  28   0.0000       0.189596         5.1592
  29   0.0000       0.214354         5.8329

MULLIKEN ATOMIC CHARGES
-----------------------
   0 C :    0.717103
   1 S :    1.114061
   2 O :   -0.752427
   3 O :   -0.816866
   4 O :   -0.768286
   5 H :   -0.173401
   6 H :   -0.159268
   7 H :   -0.160915
Sum of atomic charges:   -1.0000000

LOEWDIN ATOMIC CHARGES
----------------------
   0 C :    0.062310
   1 S :    0.837013
   2 O :   -0.576646
   3 O :   -0.607825
   4 O :   -0.582843
   5 H :   -0.046237
   6 H :   -0.042639
   7 H :   -0.043132

  Mayer bond orders larger than 0.100000
B(  0-C ,  1-S ) :   0.9243 B(  0-C ,  5-H ) :   0.8830 B(  0-C ,  6-H ) :   0.8865
B(  0-C ,  7-H ) :   0.8859 B(  1-S ,  2-O ) :   1.3449 B(  1-S ,  3-O ) :   1.2934
B(  1-S ,  4-O ) :   1.3317 B(  1-S ,  5-H ) :   0.1196 B(  1-S ,  6-H ) :   0.1300
B(  1-S ,  7-H ) :   0.1282

Dispersion correction           -0.011102612
FINAL SINGLE POINT ENERGY      -663.323474524152

DIPOLE MOMENT
-------------
                                X             Y             Z
Electronic contribution:     -1.99542      -3.75204      -0.90635
Nuclear contribution   :      2.60425       5.03732       0.91691
                        -----------------------------------------
Total Dipole Moment    :      0.60883       1.28527       0.01056
                        -----------------------------------------
Magnitude (a.u.)       :      1.42222
Magnitude (Debye)      :      3.61499

Rotational constants in cm-1:     0.171343     0.157827     0.155747
Rotational constants in MHz :  5136.740483  4731.521814  4669.189064

                             ****ORCA TERMINATED NORMALLY****
TOTAL RUN TIME: 0 days 0 hours 0 minutes 10 seconds 927 msec
