                         Program Version 5.0.0 -  RELEASE  -
|  1> !B3LYP D3BJ RIJCOSX def2-SVPD def2/J TightSCF
|  2> *xyz 1 1
|  3> C          1.36401        0.46874       -2.81376
|  4> N          0.42884        0.32140       -1.65531
|  5> H          0.74858       -0.40054       -1.00134
|  6> H         -0.46105        0.02333       -2.07773
|  7> H          0.31026        1.20137       -1.13495
|  8> H          0.99872        1.22859       -3.47261
|  9> H          1.42772       -0.46011       -3.34109
| 10> H          2.33442        0.74312       -2.45611
| 11> *
| 12> %MaxCore 64000
| 13>
| 14> %pal nprocs 4
| 15> end
| 16>
| 17> %scf
| 18>   MaxIter 150
| 19> end
| 20>
| 21>
| 22>                          ****END OF INPUT****

CARTESIAN COORDINATES (ANGSTROEM)
---------------------------------
  C      1.364010    0.468740   -2.813760
  N      0.428840    0.321400   -1.655310
  H      0.748580   -0.400540   -1.001340
  H     -0.461050    0.023330   -2.077730
  H      0.310260    1.201370   -1.134950
  H      0.998720    1.228590   -3.472610
  H      1.427720   -0.460110   -3.341090
  H      2.334420    0.743120   -2.456110

 Total Charge           Charge          ....    1
 Multiplicity           Mult            ....    1
 Number of Electrons    NEL             ....   18
 Basis Dimension        Dim             ....   88

ORBITAL ENERGIES
----------------

  NO   OCC          E(Eh)            E(eV)
   0   2.0000     -14.679893      -399.4602
   1   2.0000     -10.443948      -284.1943
   2   2.0000      -1.216949       -33.1149
   3   2.0000      -0.932470       -25.3738
   4   2.0000      -0.814819       -22.1724
   5   2.0000      -0.810113       -22.0443
   6   2.0000      -0.713183       -19.4067
   7   2.0000      -0.630010       -17.1434
   8   2.0000      -0.628052       -17.0902
   9   0.0000      -0.208174        -5.6647
  10   0.0000      -0.140888        -3.8338
  11   0.0000      -0.137048        -3.7293
  12   0.0000      -0.131578        -3.5804
  13   0.0000      -0.089671        -2.4401

MULLIKEN ATOMIC CHARGES
-----------------------
   0 C :    1.127042
   1 N :   -0.711521
   2 H :    0.323735
   3 H :    0.361446
   4 H :    0.327759
   5 H :   -0.135900
   6 H :   -0.131072
   7 H :   -0.161489
Sum of atomic charges:    1.0000000

LOEWDIN ATOMIC CHARGES
----------------------
   0 C :    0.289728
   1 N :    0.321596
   2 H :    0.105797
   3 H :    0.105704
   4 H :    0.110626
   5 H :    0.022940
   6 H :    0.023150
   7 H :    0.020459

  Mayer bond orders larger than 0.100000
B(  0-C ,  1-N ) :   0.8329 B(  0-C ,  5-H ) :   0.8582 B(  0-C ,  6-H ) :   0.8557
B(  0-C ,  7-H ) :   0.8814 B(  1-N ,  2-H ) :   0.8220 B(  1-N ,  3-H ) :   0.7753
B(  1-N ,  4-H ) :   0.8158 B(  1-N ,  5-H ) :   0.1047 B(  1-N ,  6-H ) :   0.1052

Dispersion correction           -0.005461439
FINAL SINGLE POINT ENERGY       -96.089735945628

DIPOLE MOMENT
-------------
                                X             Y             Z
Electronic contribution:     -0.67863      -0.09432       0.88042
Nuclear contribution   :      0.14628      -0.00095      -0.25828
                        -----------------------------------------
Total Dipole Moment    :     -0.53235      -0.09526       0.62214
                        -----------------------------------------
Magnitude (a.u.)       :      0.82434
Magnitude (Debye)      :      2.09530

Rotational constants in cm-1:     2.853706     0.682028     0.680630
Rotational constants in MHz : 85551.942317 20446.672693 20404.761959

                             ****ORCA TERMINATED NORMALLY****
TOTAL RUN TIME: 0 days 0 hours 0 minutes 5 seconds 138 msec
