                         Program Version 5.0.0 -  RELEASE  -
|  1> !B3LYP D3BJ RIJCOSX def2-SVPD def2/J TightSCF
|  2> *xyz 0 1
|  3> C         -0.50835        1.72268       -4.12430
|  4> S         -1.32861        0.14674       -4.43578
|  5> F         -2.57135        0.47573       -5.06834
|  6> O         -1.51496       -0.40051       -3.06342
|  7> O         -0.37793       -0.62756       -5.20114
|  8> H         -0.31967        2.21655       -5.05456
|  9> H          0.41835        1.54859       -3.61852
| 10> H         -1.13714        2.33776       -3.51504
| 11> *
| 12> %MaxCore 64000
| 13>
| 14> %pal nprocs 4
| 15> end
| 16>
| 17> %scf
| 18>   MaxIter 150
| 19> end
| 20>
| 21>
| 22>                          ****END OF INPUT****

CARTESIAN COORDINATES (ANGSTROEM)
---------------------------------
  C     -0.508350    1.722680   -4.124300
  S     -1.328610    0.146740   -4.435780
  F     -2.571350    0.475730   -5.068340
  O     -1.514960   -0.400510   -3.063420
  O     -0.377930   -0.627560   -5.201140
  H     -0.319670    2.216550   -5.054560
  H      0.418350    1.548590   -3.618520
  H     -1.137140    2.337760   -3.515040

 Total Charge           Charge          ....    0
 Multiplicity           Mult            ....    1
 Number of Electrons    NEL             ....   50
 Basis Dimension        Dim             ....  140

ORBITAL ENERGIES
----------------

  NO   OCC          E(Eh)            E(eV)
   0   2.0000     -89.147860     -2425.8366
   1   2.0000     -24.826099      -675.5525
   2   2.0000     -19.159141      -521.3467
   3   2.0000     -19.143427      -520.9191
   4   2.0000     -10.243386      -278.7367
   5   2.0000      -8.202133      -223.1914
   6   2.0000      -6.175225      -168.0364
   7   2.0000      -6.168590      -167.8559
   8   2.0000      -6.167533      -167.8271
   9   2.0000      -1.391825       -37.8735
  10   2.0000      -1.111624       -30.2488
  11   2.0000      -1.005608       -27.3640
  12   2.0000      -0.799603       -21.7583
  13   2.0000      -0.728507       -19.8237
  14   2.0000      -0.615003       -16.7351
  15   2.0000      -0.601761       -16.3747
  16   2.0000      -0.561535       -15.2801
  17   2.0000      -0.481342       -13.0980
  18   2.0000      -0.480678       -13.0799
  19   2.0000      -0.469840       -12.7850
  20   2.0000      -0.443345       -12.0640
  21   2.0000      -0.391540       -10.6543
  22   2.0000      -0.343592        -9.3496
  23   2.0000      -0.328153        -8.9295
  24   2.0000      -0.311397        -8.4736
  25   0.0000      -0.013574        -0.3694
  26   0.0000       0.026684         0.7261
  27   0.0000       0.032644         0.8883
  28   0.0000       0.044372         1.2074
  29   0.0000       0.045088         1.2269

MULLIKEN ATOMIC CHARGES
-----------------------
   0 C :    0.684208
   1 S :    1.271319
   2 F :   -0.371419
   3 O :   -0.664938
   4 O :   -0.620253
   5 H :   -0.104277
   6 H :   -0.100731
   7 H :   -0.093910
Sum of atomic charges:   -0.0000000

LOEWDIN ATOMIC CHARGES
----------------------
   0 C :    0.130826
   1 S :    1.109074
   2 F :   -0.252856
   3 O :   -0.486698
   4 O :   -0.463367
   5 H :   -0.018699
   6 H :   -0.002136
   7 H :   -0.016144

  Mayer bond orders larger than 0.100000
B(  0-C ,  1-S ) :   0.9833 B(  0-C ,  5-H ) :   0.8849 B(  0-C ,  6-H ) :   0.8861
B(  0-C ,  7-H ) :   0.8877 B(  1-S ,  2-F ) :   0.7225 B(  1-S ,  3-O ) :   1.5022
B(  1-S ,  4-O ) :   1.5400 B(  1-S ,  6-H ) :   0.1292 B(  1-S ,  7-H ) :   0.1002

Dispersion correction           -0.010398528
FINAL SINGLE POINT ENERGY      -687.801905337378

DIPOLE MOMENT
-------------
                                X             Y             Z
Electronic contribution:     -4.04501      -3.17556      -1.98933
Nuclear contribution   :      3.90013       4.80063       1.59574
                        -----------------------------------------
Total Dipole Moment    :     -0.14488       1.62507      -0.39359
                        -----------------------------------------
Magnitude (a.u.)       :      1.67832
Magnitude (Debye)      :      4.26595

Rotational constants in cm-1:     0.163395     0.155047     0.147447
Rotational constants in MHz :  4898.460101  4648.206837  4420.340547

                             ****ORCA TERMINATED NORMALLY****
TOTAL RUN TIME: 0 days 0 hours 0 minutes 11 seconds 200 msec
