                         Program Version 5.0.0 -  RELEASE  -
|  1> !B3LYP D3BJ RIJCOSX def2-SVPD def2/J TightSCF
|  2> *xyz 0 1
|  3> C          1.36401        0.46874       -2.81376
|  4> C          0.42884        0.32140       -1.65531
|  5> H          0.74858       -0.40054       -1.00134
|  6> H         -0.46105        0.02333       -2.07773
|  7> H          0.31026        1.20137       -1.13495
|  8> H          0.99872        1.22859       -3.47261
|  9> H          1.42772       -0.46011       -3.34109
| 10> H          2.33442        0.74312       -2.45611
| 11> *
| 12> %MaxCore 64000
| 13>
| 14> %pal nprocs 4
| 15> end
| 16>
| 17> %scf
| 18>   MaxIter 150
| 19> end
| 20>
| 21>
| 22>                          ****END OF INPUT****

CARTESIAN COORDINATES (ANGSTROEM)
---------------------------------
  C      1.364010    0.468740   -2.813760
  C      0.428840    0.321400   -1.655310
  H      0.748580   -0.400540   -1.001340
  H     -0.461050    0.023330   -2.077730
  H      0.310260    1.201370   -1.134950
  H      0.998720    1.228590   -3.472610
  H      1.427720   -0.460110   -3.341090
  H      2.334420    0.743120   -2.456110

 Total Charge           Charge          ....    0
 Multiplicity           Mult            ....    1
 Number of Electrons    NEL             ....   18
 Basis Dimension        Dim             ....   88

ORBITAL ENERGIES
----------------

  NO   OCC          E(Eh)            E(eV)
   0   2.0000     -10.161287      -276.5027
   1   2.0000     -10.148903      -276.1657
   2   2.0000      -0.761399       -20.7187
   3   2.0000      -0.614316       -16.7164
   4   2.0000      -0.450918       -12.2701
   5   2.0000      -0.447116       -12.1667
   6   2.0000      -0.366951        -9.9852
   7   2.0000      -0.348538        -9.4842
   8   2.0000      -0.344347        -9.3702
   9   0.0000       0.026625         0.7245
  10   0.0000       0.058643         1.5958
  11   0.0000       0.100511         2.7350
  12   0.0000       0.101195         2.7537
  13   0.0000       0.120542         3.2801

MULLIKEN ATOMIC CHARGES
-----------------------
   0 C :    0.437133
   1 C :    0.789435
   2 H :   -0.275284
   3 H :   -0.225122
   4 H :   -0.267684
   5 H :   -0.148743
   6 H :   -0.144420
   7 H :   -0.165314
Sum of atomic charges:    0.0000000

LOEWDIN ATOMIC CHARGES
----------------------
   0 C :    0.084189
   1 C :    0.092257
   2 H :   -0.039272
   3 H :   -0.037694
   4 H :   -0.035378
   5 H :   -0.020338
   6 H :   -0.019926
   7 H :   -0.023836

  Mayer bond orders larger than 0.100000
B(  0-C ,  1-C ) :   1.4265 B(  0-C ,  2-H ) :   0.1825 B(  0-C ,  3-H ) :   0.2259
B(  0-C ,  4-H ) :   0.1764 B(  0-C ,  5-H ) :   0.8192 B(  0-C ,  6-H ) :   0.8166
B(  0-C ,  7-H ) :   0.8535 B(  1-C ,  2-H ) :   0.7205 B(  1-C ,  3-H ) :   0.7220
B(  1-C ,  4-H ) :   0.7363 B(  1-C ,  5-H ) :   0.1706 B(  1-C ,  6-H ) :   0.1736
B(  1-C ,  7-H ) :   0.1573

Dispersion correction           -0.005506624
FINAL SINGLE POINT ENERGY       -79.702188510597

DIPOLE MOMENT
-------------
                                X             Y             Z
Electronic contribution:     -0.00133       0.01909       0.07065
Nuclear contribution   :     -0.01491      -0.02598      -0.05743
                        -----------------------------------------
Total Dipole Moment    :     -0.01624      -0.00689       0.01323
                        -----------------------------------------
Magnitude (a.u.)       :      0.02205
Magnitude (Debye)      :      0.05605

Rotational constants in cm-1:     2.853707     0.712330     0.710805
Rotational constants in MHz : 85551.986377 21355.123158 21309.410122

                             ****ORCA TERMINATED NORMALLY****
TOTAL RUN TIME: 0 days 0 hours 0 minutes 5 seconds 282 msec
