                         Program Version 5.0.0 -  RELEASE  -
|  1> !B3LYP D3BJ RIJCOSX def2-SVPD def2/J TightSCF
|  2> *xyz 0 1
|  3> C         -0.50835        1.72268       -4.12430
|  4> S         -1.32861        0.14674       -4.43578
|  5> O         -2.57135        0.47573       -5.06834
|  6> F         -1.51496       -0.40051       -3.06342
|  7> O         -0.37793       -0.62756       -5.20114
|  8> H         -0.31967        2.21655       -5.05456
|  9> H          0.41835        1.54859       -3.61852
| 10> H         -1.13714        2.33776       -3.51504
| 11> *
| 12> %MaxCore 64000
| 13>
| 14> %pal nprocs 4
| 15> end
| 16>
| 17> %scf
| 18>   MaxIter 150
| 19> end
| 20>
| 21>
| 22>                          ****END OF INPUT****

CARTESIAN COORDINATES (ANGSTROEM)
---------------------------------
  C     -0.508350    1.722680   -4.124300
  S     -1.328610    0.146740   -4.435780
  O     -2.571350    0.475730   -5.068340
  F     -1.514960   -0.400510   -3.063420
  O     -0.377930   -0.627560   -5.201140
  H     -0.319670    2.216550   -5.054560
  H      0.418350    1.548590   -3.618520
  H     -1.137140    2.337760   -3.515040

 Total Charge           Charge          ....    0
 Multiplicity           Mult            ....    1
 Number of Electrons    NEL             ....   50
 Basis Dimension        Dim             ....  140

ORBITAL ENERGIES
----------------

  NO   OCC          E(Eh)            E(eV)
   0   2.0000     -89.144978     -2425.7582
   1   2.0000     -24.798433      -674.7997
   2   2.0000     -19.161356      -521.4070
   3   2.0000     -19.158304      -521.3240
   4   2.0000     -10.242275      -278.7065
   5   2.0000      -8.199172      -223.1108
   6   2.0000      -6.171920      -167.9465
   7   2.0000      -6.165998      -167.7853
   8   2.0000      -6.164834      -167.7537
   9   2.0000      -1.344280       -36.5797
  10   2.0000      -1.126414       -30.6513
  11   2.0000      -1.031960       -28.0811
  12   2.0000      -0.796926       -21.6854
  13   2.0000      -0.704981       -19.1835
  14   2.0000      -0.592306       -16.1175
  15   2.0000      -0.569220       -15.4893
  16   2.0000      -0.556745       -15.1498
  17   2.0000      -0.485385       -13.2080
  18   2.0000      -0.480843       -13.0844
  19   2.0000      -0.466730       -12.7004
  20   2.0000      -0.451342       -12.2816
  21   2.0000      -0.400735       -10.9046
  22   2.0000      -0.351445        -9.5633
  23   2.0000      -0.344551        -9.3757
  24   2.0000      -0.329770        -8.9735
  25   0.0000      -0.010147        -0.2761
  26   0.0000       0.028322         0.7707
  27   0.0000       0.033334         0.9071
  28   0.0000       0.045639         1.2419
  29   0.0000       0.046459         1.2642

MULLIKEN ATOMIC CHARGES
-----------------------
   0 C :    0.681400
   1 S :    1.278983
   2 O :   -0.621353
   3 F :   -0.402077
   4 O :   -0.634791
   5 H :   -0.112075
   6 H :   -0.094275
   7 H :   -0.095812
Sum of atomic charges:   -0.0000000

LOEWDIN ATOMIC CHARGES
----------------------
   0 C :    0.131595
   1 S :    1.105594
   2 O :   -0.458501
   3 F :   -0.277853
   4 O :   -0.463982
   5 H :   -0.004591
   6 H :   -0.015901
   7 H :   -0.016361

  Mayer bond orders larger than 0.100000
B(  0-C ,  1-S ) :   0.9811 B(  0-C ,  5-H ) :   0.8819 B(  0-C ,  6-H ) :   0.8897
B(  0-C ,  7-H ) :   0.8888 B(  1-S ,  2-O ) :   1.5484 B(  1-S ,  3-F ) :   0.6596
B(  1-S ,  4-O ) :   1.5363 B(  1-S ,  5-H ) :   0.1220 B(  1-S ,  6-H ) :   0.1039
B(  1-S ,  7-H ) :   0.1023 B(  2-O ,  4-O ) :   0.1033

Dispersion correction           -0.010396016
FINAL SINGLE POINT ENERGY      -687.825817159427

DIPOLE MOMENT
-------------
                                X             Y             Z
Electronic contribution:     -2.29830      -4.63747       1.36099
Nuclear contribution   :      2.84473       5.67605      -0.40731
                        -----------------------------------------
Total Dipole Moment    :      0.54643       1.03858       0.95368
                        -----------------------------------------
Magnitude (a.u.)       :      1.51219
Magnitude (Debye)      :      3.84369

Rotational constants in cm-1:     0.162669     0.154016     0.148818
Rotational constants in MHz :  4876.699308  4617.284822  4461.441982

                             ****ORCA TERMINATED NORMALLY****
TOTAL RUN TIME: 0 days 0 hours 0 minutes 10 seconds 539 msec
