                         Program Version 5.0.0 -  RELEASE  -
|  1> !B3LYP D3BJ RIJCOSX def2-SVPD def2/J TightSCF
|  2> *xyz 0 1
|  3> C         -0.50835        1.72268       -4.12430
|  4> S         -1.32861        0.14674       -4.43578
|  5> O         -2.57135        0.47573       -5.06834
|  6> O         -1.51496       -0.40051       -3.06342
|  7> F         -0.37793       -0.62756       -5.20114
|  8> H         -0.31967        2.21655       -5.05456
|  9> H          0.41835        1.54859       -3.61852
| 10> H         -1.13714        2.33776       -3.51504
| 11> *
| 12> %MaxCore 64000
| 13>
| 14> %pal nprocs 4
| 15> end
| 16>
| 17> %scf
| 18>   MaxIter 150
| 19> end
| 20>
| 21>
| 22>                          ****END OF INPUT****

CARTESIAN COORDINATES (ANGSTROEM)
---------------------------------
  C     -0.508350    1.722680   -4.124300
  S     -1.328610    0.146740   -4.435780
  O     -2.571350    0.475730   -5.068340
  O     -1.514960   -0.400510   -3.063420
  F     -0.377930   -0.627560   -5.201140
  H     -0.319670    2.216550   -5.054560
  H      0.418350    1.548590   -3.618520
  H     -1.137140    2.337760   -3.515040

 Total Charge           Charge          ....    0
 Multiplicity           Mult            ....    1
 Number of Electrons    NEL             ....   50
 Basis Dimension        Dim             ....  140

ORBITAL ENERGIES
----------------

  NO   OCC          E(Eh)            E(eV)
   0   2.0000     -89.147069     -2425.8151
   1   2.0000     -24.820839      -675.4094
   2   2.0000     -19.162001      -521.4246
   3   2.0000     -19.143239      -520.9140
   4   2.0000     -10.243281      -278.7338
   5   2.0000      -8.201373      -223.1707
   6   2.0000      -6.174369      -168.0131
   7   2.0000      -6.167926      -167.8378
   8   2.0000      -6.166819      -167.8077
   9   2.0000      -1.381386       -37.5894
  10   2.0000      -1.117509       -30.4090
  11   2.0000      -1.008362       -27.4389
  12   2.0000      -0.798988       -21.7416
  13   2.0000      -0.723843       -19.6968
  14   2.0000      -0.609585       -16.5877
  15   2.0000      -0.594788       -16.1850
  16   2.0000      -0.560697       -15.2573
  17   2.0000      -0.483115       -13.1462
  18   2.0000      -0.480841       -13.0844
  19   2.0000      -0.469501       -12.7758
  20   2.0000      -0.445039       -12.1101
  21   2.0000      -0.394761       -10.7420
  22   2.0000      -0.347342        -9.4517
  23   2.0000      -0.328404        -8.9363
  24   2.0000      -0.313266        -8.5244
  25   0.0000      -0.013520        -0.3679
  26   0.0000       0.027022         0.7353
  27   0.0000       0.031998         0.8707
  28   0.0000       0.044672         1.2156
  29   0.0000       0.045228         1.2307

MULLIKEN ATOMIC CHARGES
-----------------------
   0 C :    0.684055
   1 S :    1.270972
   2 O :   -0.608376
   3 O :   -0.666574
   4 F :   -0.380470
   5 H :   -0.104468
   6 H :   -0.093181
   7 H :   -0.101957
Sum of atomic charges:   -0.0000000

LOEWDIN ATOMIC CHARGES
----------------------
   0 C :    0.131130
   1 S :    1.108509
   2 O :   -0.457883
   3 O :   -0.486627
   4 F :   -0.258212
   5 H :   -0.018652
   6 H :   -0.015809
   7 H :   -0.002457

  Mayer bond orders larger than 0.100000
B(  0-C ,  1-S ) :   0.9829 B(  0-C ,  5-H ) :   0.8851 B(  0-C ,  6-H ) :   0.8885
B(  0-C ,  7-H ) :   0.8855 B(  1-S ,  2-O ) :   1.5517 B(  1-S ,  3-O ) :   1.5018
B(  1-S ,  4-F ) :   0.7078 B(  1-S ,  6-H ) :   0.1022 B(  1-S ,  7-H ) :   0.1279

Dispersion correction           -0.010398411
FINAL SINGLE POINT ENERGY      -687.806241060977

DIPOLE MOMENT
-------------
                                X             Y             Z
Electronic contribution:     -0.40996      -5.00394      -2.21029
Nuclear contribution   :      1.70876       5.90289       1.72841
                        -----------------------------------------
Total Dipole Moment    :      1.29880       0.89895      -0.48188
                        -----------------------------------------
Magnitude (a.u.)       :      1.65143
Magnitude (Debye)      :      4.19759

Rotational constants in cm-1:     0.163253     0.155214     0.147311
Rotational constants in MHz :  4894.200006  4653.189727  4416.272537

                             ****ORCA TERMINATED NORMALLY****
TOTAL RUN TIME: 0 days 0 hours 0 minutes 10 seconds 648 msec
