                         Program Version 5.0.0 -  RELEASE  -
|  1> !wB97X-D3 def2-SVPD TightSCF RIJCOSX def2/J CPCM(Water)
|  2> * xyz -1 1
|  3> C         15.17600        6.50400       14.19600
|  4> O         16.09100        5.69500       13.99100
|  5> N         13.96800        6.42800       13.64400
|  6> C         13.54500        5.34700       12.78000
|  7> C         13.31400        5.79800       11.33100
|  8> O         13.72200        6.91400       10.97700
|  9> H         13.30800        7.16700       13.83900
| 10> H         14.34700        4.59500       12.77100
| 11> C         12.28900        4.68500       13.37900
| 12> C         12.55200        4.05800       14.70800
| 13> O         11.88400        4.46400       15.64400
| 14> N         13.52700        3.16200       14.79900
| 15> H         11.50100        5.44200       13.48800
| 16> H         11.92300        3.91500       12.68400
| 17> H         13.76400        2.76200       15.69500
| 18> H         14.03200        2.88000       13.97200
| 19> O         12.72000        4.98200       10.59000
| 20> H         15.36321        7.28988       14.83817
| 21> *
| 22> %MaxCore 64000
| 23> %pal nprocs 8
| 24> end
| 25> %scf
| 26>   Convergence VeryTight
| 27>   MaxIter 150
| 28> end
| 29>
| 30>                          ****END OF INPUT****

CARTESIAN COORDINATES (ANGSTROEM)
---------------------------------
  C     15.176000    6.504000   14.196000
  O     16.091000    5.695000   13.991000
  N     13.968000    6.428000   13.644000
  C     13.545000    5.347000   12.780000
  C     13.314000    5.798000   11.331000
  O     13.722000    6.914000   10.977000
  H     13.308000    7.167000   13.839000
  H     14.347000    4.595000   12.771000
  C     12.289000    4.685000   13.379000
  C     12.552000    4.058000   14.708000
  O     11.884000    4.464000   15.644000
  N     13.527000    3.162000   14.799000
  H     11.501000    5.442000   13.488000
  H     11.923000    3.915000   12.684000
  H     13.764000    2.762000   15.695000
  H     14.032000    2.880000   13.972000
  O     12.720000    4.982000   10.590000
  H     15.363210    7.289880   14.838170

 Total Charge           Charge          ....   -1
 Multiplicity           Mult            ....    1
 Number of Electrons    NEL             ....   84
 Basis Dimension        Dim             ....  288

ORBITAL ENERGIES
----------------

  NO   OCC          E(Eh)            E(eV)
   0   2.0000     -19.217674      -522.9395
   1   2.0000     -19.215935      -522.8922
   2   2.0000     -19.186474      -522.0905
   3   2.0000     -19.182424      -521.9803
   4   2.0000     -14.467186      -393.6721
   5   2.0000     -14.459183      -393.4544
   6   2.0000     -10.397534      -282.9313
   7   2.0000     -10.389253      -282.7059
   8   2.0000     -10.375241      -282.3247
   9   2.0000     -10.332193      -281.1533
  10   2.0000     -10.293662      -280.1048
  11   2.0000      -1.155016       -31.4296
  12   2.0000      -1.146095       -31.1868
  13   2.0000      -1.136641       -30.9296
  14   2.0000      -1.043942       -28.4071
  15   2.0000      -1.036699       -28.2100
  16   2.0000      -1.022494       -27.8235
  17   2.0000      -0.890233       -24.2245
  18   2.0000      -0.793059       -21.5802
  19   2.0000      -0.709267       -19.3001
  20   2.0000      -0.699722       -19.0404
  21   2.0000      -0.674882       -18.3645
  22   2.0000      -0.642954       -17.4957
  23   2.0000      -0.615316       -16.7436
  24   2.0000      -0.587253       -15.9800
  25   2.0000      -0.569574       -15.4989
  26   2.0000      -0.561449       -15.2778
  27   2.0000      -0.536529       -14.5997
  28   2.0000      -0.520620       -14.1668
  29   2.0000      -0.517700       -14.0873
  30   2.0000      -0.503942       -13.7129
  31   2.0000      -0.499077       -13.5806
  32   2.0000      -0.495499       -13.4832
  33   2.0000      -0.467736       -12.7277
  34   2.0000      -0.450416       -12.2565
  35   2.0000      -0.379168       -10.3177
  36   2.0000      -0.374324       -10.1859
  37   2.0000      -0.366162        -9.9638
  38   2.0000      -0.363353        -9.8873
  39   2.0000      -0.350092        -9.5265
  40   2.0000      -0.334115        -9.0917
  41   2.0000      -0.325768        -8.8646
  42   0.0000       0.085642         2.3304
  43   0.0000       0.092422         2.5149
  44   0.0000       0.095387         2.5956
  45   0.0000       0.109235         2.9724
  46   0.0000       0.110788         3.0147

MULLIKEN ATOMIC CHARGES
-----------------------
   0 C :    0.965493
   1 O :   -0.502189
   2 N :   -0.038193
   3 C :   -0.173989
   4 C :    0.738139
   5 O :   -0.755174
   6 H :   -0.216657
   7 H :    0.019173
   8 C :    0.152531
   9 C :    0.395275
  10 O :   -0.578642
  11 N :    0.152930
  12 H :    0.143059
  13 H :    0.066608
  14 H :   -0.091894
  15 H :    0.071091
  16 O :   -0.775959
  17 H :   -0.571601
Sum of atomic charges:   -1.0000000

LOEWDIN ATOMIC CHARGES
----------------------
   0 C :    0.056195
   1 O :   -0.291688
   2 N :    0.051490
   3 C :   -0.038470
   4 C :   -0.278082
   5 O :   -0.324231
   6 H :    0.068444
   7 H :    0.044895
   8 C :    0.072953
   9 C :   -0.193257
  10 O :   -0.262971
  11 N :    0.263929
  12 H :    0.045906
  13 H :    0.036754
  14 H :    0.039155
  15 H :    0.029886
  16 O :   -0.335698
  17 H :    0.014790

  Mayer bond orders larger than 0.100000
B(  0-C ,  1-O ) :   1.7199 B(  0-C ,  2-N ) :   1.1187 B(  0-C ,  6-H ) :  -0.2183
B(  0-C , 17-H ) :   0.9570 B(  2-N ,  3-C ) :   0.8987 B(  2-N ,  6-H ) :   1.2958
B(  2-N ,  7-H ) :   0.1974 B(  2-N , 17-H ) :  -0.1045 B(  3-C ,  4-C ) :   0.7847
B(  3-C ,  6-H ) :  -0.1292 B(  3-C ,  7-H ) :   0.8555 B(  3-C ,  8-C ) :   1.2457
B(  3-C , 12-H ) :   0.1925 B(  3-C , 13-H ) :   0.2025 B(  3-C , 16-O ) :   0.1213
B(  4-C ,  5-O ) :   1.5047 B(  4-C , 16-O ) :   1.3879 B(  5-O , 16-O ) :   0.2150
B(  8-C ,  9-C ) :   1.0279 B(  8-C , 12-H ) :   0.7930 B(  8-C , 13-H ) :   0.8656
B(  9-C , 10-O ) :   1.6955 B(  9-C , 11-N ) :   1.3263 B(  9-C , 12-H ) :   0.1183
B( 11-N , 14-H ) :   1.2041 B( 11-N , 15-H ) :   1.0096 B( 14-H , 15-H ) :  -0.1520

Dispersion correction           -0.007449636
FINAL SINGLE POINT ENERGY      -604.806027899790

DIPOLE MOMENT
-------------
                                X             Y             Z
Electronic contribution:      0.58809       1.25103      -0.26833
Nuclear contribution   :     -0.48058      -2.65170       4.04254
                        -----------------------------------------
Total Dipole Moment    :      0.10751      -1.40067       3.77421
                        -----------------------------------------
Magnitude (a.u.)       :      4.02717
Magnitude (Debye)      :     10.23624

Rotational constants in cm-1:     0.045617     0.029239     0.021437
Rotational constants in MHz :  1367.557401   876.567109   642.677581

                             ****ORCA TERMINATED NORMALLY****
TOTAL RUN TIME: 0 days 0 hours 1 minutes 4 seconds 961 msec
