                         Program Version 5.0.0 -  RELEASE  -
|  1> !wB97X-D3 def2-SVPD TightSCF RIJCOSX def2/J CPCM(Water)
|  2> * xyz 1 1
|  3> C          6.49600        5.51000        9.74200
|  4> O          6.08700        5.88700        8.64000
|  5> N          7.68500        4.89800        9.90500
|  6> C          8.50500        4.57300        8.73700
|  7> C          7.81100        3.57600        7.81100
|  8> O          7.84000        3.74200        6.58000
|  9> H          8.00900        4.66300       10.83100
| 10> H          8.68800        5.49900        8.17400
| 11> C          9.85700        4.01400        9.19900
| 12> C         10.76700        3.57000        8.04700
| 13> C         11.27200        4.69300        7.13900
| 14> N         12.13700        5.62000        7.82400
| 15> C         12.68300        6.71900        7.29500
| 16> N         12.43600        7.05300        6.05300
| 17> N         13.44300        7.50300        8.09000
| 18> H         10.37700        4.78400        9.78500
| 19> H          9.67700        3.15500        9.86000
| 20> H         11.63600        3.05000        8.47200
| 21> H         10.21700        2.84600        7.43000
| 22> H         11.81800        4.25100        6.29300
| 23> H         10.41000        5.24000        6.73200
| 24> H         12.35000        5.42200        8.79000
| 25> H         11.83000        6.47800        5.48700
| 26> H         12.85300        7.88400        5.66100
| 27> H         13.83100        8.36200        7.72900
| 28> H         13.62200        7.23000        9.04400
| 29> N          7.21100        2.52200        8.36900
| 30> H          6.75380        1.85899        7.80276
| 31> H          7.22574        2.40774        9.34674
| 32> H          5.90339        5.67005       10.57159
| 33> *
| 34> %MaxCore 64000
| 35> %pal nprocs 8
| 36> end
| 37> %scf
| 38>   Convergence VeryTight
| 39>   MaxIter 150
| 40> end
| 41>
| 42>                          ****END OF INPUT****

CARTESIAN COORDINATES (ANGSTROEM)
---------------------------------
  C      6.496000    5.510000    9.742000
  O      6.087000    5.887000    8.640000
  N      7.685000    4.898000    9.905000
  C      8.505000    4.573000    8.737000
  C      7.811000    3.576000    7.811000
  O      7.840000    3.742000    6.580000
  H      8.009000    4.663000   10.831000
  H      8.688000    5.499000    8.174000
  C      9.857000    4.014000    9.199000
  C     10.767000    3.570000    8.047000
  C     11.272000    4.693000    7.139000
  N     12.137000    5.620000    7.824000
  C     12.683000    6.719000    7.295000
  N     12.436000    7.053000    6.053000
  N     13.443000    7.503000    8.090000
  H     10.377000    4.784000    9.785000
  H      9.677000    3.155000    9.860000
  H     11.636000    3.050000    8.472000
  H     10.217000    2.846000    7.430000
  H     11.818000    4.251000    6.293000
  H     10.410000    5.240000    6.732000
  H     12.350000    5.422000    8.790000
  H     11.830000    6.478000    5.487000
  H     12.853000    7.884000    5.661000
  H     13.831000    8.362000    7.729000
  H     13.622000    7.230000    9.044000
  N      7.211000    2.522000    8.369000
  H      6.753800    1.858990    7.802760
  H      7.225740    2.407740    9.346740
  H      5.903390    5.670050   10.571590

 Total Charge           Charge          ....    1
 Multiplicity           Mult            ....    1
 Number of Electrons    NEL             ....  108
 Basis Dimension        Dim             ....  414

ORBITAL ENERGIES
----------------

  NO   OCC          E(Eh)            E(eV)
   0   2.0000     -19.230157      -523.2792
   1   2.0000     -19.225533      -523.1533
   2   2.0000     -14.489849      -394.2888
   3   2.0000     -14.489291      -394.2736
   4   2.0000     -14.481450      -394.0603
   5   2.0000     -14.479129      -393.9971
   6   2.0000     -14.462645      -393.5486
   7   2.0000     -10.457600      -284.5658
   8   2.0000     -10.411482      -283.3108
   9   2.0000     -10.399673      -282.9895
  10   2.0000     -10.351934      -281.6904
  11   2.0000     -10.341746      -281.4132
  12   2.0000     -10.309018      -280.5226
  13   2.0000     -10.306929      -280.4658
  14   2.0000      -1.160111       -31.5682
  15   2.0000      -1.154957       -31.4280
  16   2.0000      -1.148948       -31.2645
  17   2.0000      -1.051705       -28.6184
  18   2.0000      -1.045326       -28.4448
  19   2.0000      -1.026152       -27.9230
  20   2.0000      -1.024437       -27.8763
  21   2.0000      -0.928095       -25.2547
  22   2.0000      -0.868076       -23.6216
  23   2.0000      -0.804051       -21.8793
  24   2.0000      -0.764268       -20.7968
  25   2.0000      -0.743396       -20.2288
  26   2.0000      -0.725270       -19.7356
  27   2.0000      -0.714139       -19.4327
  28   2.0000      -0.702754       -19.1229
  29   2.0000      -0.677883       -18.4461
  30   2.0000      -0.668671       -18.1955
  31   2.0000      -0.648559       -17.6482
  32   2.0000      -0.620997       -16.8982
  33   2.0000      -0.613716       -16.7001
  34   2.0000      -0.612161       -16.6578
  35   2.0000      -0.597196       -16.2505
  36   2.0000      -0.580673       -15.8009
  37   2.0000      -0.578353       -15.7378
  38   2.0000      -0.559033       -15.2121
  39   2.0000      -0.544567       -14.8184
  40   2.0000      -0.540385       -14.7046
  41   2.0000      -0.520569       -14.1654
  42   2.0000      -0.515054       -14.0153
  43   2.0000      -0.500241       -13.6123
  44   2.0000      -0.488779       -13.3004
  45   2.0000      -0.460213       -12.5230
  46   2.0000      -0.456403       -12.4194
  47   2.0000      -0.440102       -11.9758
  48   2.0000      -0.399888       -10.8815
  49   2.0000      -0.388806       -10.5799
  50   2.0000      -0.381657       -10.3854
  51   2.0000      -0.374597       -10.1933
  52   2.0000      -0.371300       -10.1036
  53   2.0000      -0.357580        -9.7303
  54   0.0000       0.073662         2.0044
  55   0.0000       0.079994         2.1767
  56   0.0000       0.086443         2.3522
  57   0.0000       0.090242         2.4556
  58   0.0000       0.096854         2.6355

MULLIKEN ATOMIC CHARGES
-----------------------
   0 C :    0.980170
   1 O :   -0.481722
   2 N :    0.048178
   3 C :    0.164141
   4 C :    0.155382
   5 O :   -0.617002
   6 H :   -0.335147
   7 H :   -0.043073
   8 C :    0.011631
   9 C :    0.191643
  10 C :    0.495328
  11 N :   -0.482537
  12 C :    1.332792
  13 N :   -0.022304
  14 N :   -0.149947
  15 H :    0.037694
  16 H :    0.050833
  17 H :   -0.019408
  18 H :    0.143468
  19 H :   -0.124900
  20 H :    0.101764
  21 H :   -0.154520
  22 H :    0.013535
  23 H :   -0.058946
  24 H :   -0.015032
  25 H :    0.017173
  26 N :    0.597708
  27 H :   -0.174890
  28 H :   -0.102430
  29 H :   -0.559579
Sum of atomic charges:    1.0000000

LOEWDIN ATOMIC CHARGES
----------------------
   0 C :    0.070342
   1 O :   -0.262752
   2 N :    0.053523
   3 C :   -0.041025
   4 C :   -0.138088
   5 O :   -0.258964
   6 H :    0.058599
   7 H :    0.058866
   8 C :    0.026648
   9 C :    0.007924
  10 C :    0.062853
  11 N :    0.042194
  12 C :   -0.019447
  13 N :    0.287178
  14 N :    0.261767
  15 H :    0.035253
  16 H :    0.041141
  17 H :    0.041693
  18 H :    0.028205
  19 H :    0.048013
  20 H :    0.029924
  21 H :    0.057762
  22 H :    0.029896
  23 H :    0.055768
  24 H :    0.041163
  25 H :    0.038695
  26 N :    0.292604
  27 H :    0.022474
  28 H :    0.011068
  29 H :    0.016725

  Mayer bond orders larger than 0.100000
B(  0-C ,  1-O ) :   1.7040 B(  0-C ,  2-N ) :   1.0788 B(  0-C ,  3-C ) :   0.1059
B(  0-C ,  6-H ) :  -0.2456 B(  0-C , 29-H ) :   0.9656 B(  2-N ,  3-C ) :   0.7689
B(  2-N ,  6-H ) :   1.2595 B(  2-N ,  7-H ) :   0.1205 B(  2-N ,  8-C ) :   0.1470
B(  3-C ,  4-C ) :   0.9448 B(  3-C ,  6-H ) :  -0.1455 B(  3-C ,  7-H ) :   0.7719
B(  3-C ,  8-C ) :   1.2493 B(  3-C , 15-H ) :   0.1605 B(  3-C , 16-H ) :   0.1682
B(  4-C ,  5-O ) :   1.5277 B(  4-C ,  7-H ) :   0.2990 B(  4-C , 16-H ) :   0.1077
B(  4-C , 26-N ) :   1.5213 B(  4-C , 27-H ) :   0.1241 B(  5-O , 26-N ) :   0.1055
B(  7-H ,  8-C ) :   0.1561 B(  8-C ,  9-C ) :   1.2540 B(  8-C , 15-H ) :   0.7874
B(  8-C , 16-H ) :   0.8506 B(  8-C , 17-H ) :   0.1755 B(  8-C , 18-H ) :   0.1185
B(  9-C , 10-C ) :   1.2334 B(  9-C , 11-N ) :   0.1153 B(  9-C , 15-H ) :   0.1541
B(  9-C , 16-H ) :   0.1002 B(  9-C , 17-H ) :   0.7361 B(  9-C , 18-H ) :   0.7029
B( 10-C , 11-N ) :   0.8640 B( 10-C , 17-H ) :   0.1716 B( 10-C , 18-H ) :   0.1881
B( 10-C , 19-H ) :   0.9677 B( 10-C , 20-H ) :   0.7596 B( 10-C , 21-H ) :  -0.1367
B( 11-N , 12-C ) :   1.0156 B( 11-N , 13-N ) :   0.2624 B( 11-N , 14-N ) :   0.2663
B( 11-N , 19-H ) :   0.1540 B( 11-N , 20-H ) :   0.1409 B( 11-N , 21-H ) :   1.2349
B( 12-C , 13-N ) :   0.9852 B( 12-C , 14-N ) :   0.8175 B( 12-C , 21-H ) :  -0.2666
B( 12-C , 22-H ) :  -0.1783 B( 12-C , 23-H ) :  -0.1208 B( 12-C , 24-H ) :  -0.1136
B( 12-C , 25-H ) :  -0.1288 B( 13-N , 14-N ) :   0.1409 B( 13-N , 22-H ) :   1.1223
B( 13-N , 23-H ) :   1.2667 B( 14-N , 24-H ) :   1.2247 B( 14-N , 25-H ) :   1.1616
B( 16-H , 26-N ) :  -0.1125 B( 22-H , 23-H ) :  -0.1951 B( 24-H , 25-H ) :  -0.1708
B( 26-N , 27-H ) :   1.1096 B( 26-N , 28-H ) :   1.0329 B( 27-H , 28-H ) :  -0.1463

Dispersion correction           -0.012589742
FINAL SINGLE POINT ENERGY      -699.905166826585

DIPOLE MOMENT
-------------
                                X             Y             Z
Electronic contribution:     -4.28265       2.58222      -0.24311
Nuclear contribution   :     10.94994      -1.19465       2.36527
                        -----------------------------------------
Total Dipole Moment    :      6.66730       1.38757       2.12216
                        -----------------------------------------
Magnitude (a.u.)       :      7.13315
Magnitude (Debye)      :     18.13102

Rotational constants in cm-1:     0.036511     0.010357     0.009650
Rotational constants in MHz :  1094.558065   310.495266   289.289803

                             ****ORCA TERMINATED NORMALLY****
TOTAL RUN TIME: 0 days 0 hours 2 minutes 10 seconds 13 msec
