                         Program Version 5.0.0 -  RELEASE  -
|  1> !wB97X-D3 def2-SVPD TightSCF RIJCOSX def2/J CPCM(Water)
|  2> * xyz 0 1
|  3> C         15.17600        6.50400       14.19600
|  4> O         16.09100        5.69500       13.99100
|  5> N         13.96800        6.42800       13.64400
|  6> C         13.54500        5.34700       12.78000
|  7> C         13.31400        5.79800       11.33100
|  8> F         13.72200        6.91400       10.97700
|  9> H         13.30800        7.16700       13.83900
| 10> H         14.34700        4.59500       12.77100
| 11> C         12.28900        4.68500       13.37900
| 12> C         12.55200        4.05800       14.70800
| 13> O         11.88400        4.46400       15.64400
| 14> N         13.52700        3.16200       14.79900
| 15> H         11.50100        5.44200       13.48800
| 16> H         11.92300        3.91500       12.68400
| 17> H         13.76400        2.76200       15.69500
| 18> H         14.03200        2.88000       13.97200
| 19> O         12.72000        4.98200       10.59000
| 20> H         15.36321        7.28988       14.83817
| 21> *
| 22> %MaxCore 64000
| 23> %pal nprocs 8
| 24> end
| 25> %scf
| 26>   Convergence VeryTight
| 27>   MaxIter 150
| 28> end
| 29>
| 30>                          ****END OF INPUT****

CARTESIAN COORDINATES (ANGSTROEM)
---------------------------------
  C     15.176000    6.504000   14.196000
  O     16.091000    5.695000   13.991000
  N     13.968000    6.428000   13.644000
  C     13.545000    5.347000   12.780000
  C     13.314000    5.798000   11.331000
  F     13.722000    6.914000   10.977000
  H     13.308000    7.167000   13.839000
  H     14.347000    4.595000   12.771000
  C     12.289000    4.685000   13.379000
  C     12.552000    4.058000   14.708000
  O     11.884000    4.464000   15.644000
  N     13.527000    3.162000   14.799000
  H     11.501000    5.442000   13.488000
  H     11.923000    3.915000   12.684000
  H     13.764000    2.762000   15.695000
  H     14.032000    2.880000   13.972000
  O     12.720000    4.982000   10.590000
  H     15.363210    7.289880   14.838170

 Total Charge           Charge          ....    0
 Multiplicity           Mult            ....    1
 Number of Electrons    NEL             ....   84
 Basis Dimension        Dim             ....  288

ORBITAL ENERGIES
----------------

  NO   OCC          E(Eh)            E(eV)
   0   2.0000     -24.890929      -677.3166
   1   2.0000     -19.272563      -524.4331
   2   2.0000     -19.229488      -523.2610
   3   2.0000     -19.222965      -523.0835
   4   2.0000     -14.484947      -394.1554
   5   2.0000     -14.465673      -393.6310
   6   2.0000     -10.493491      -285.5424
   7   2.0000     -10.407368      -283.1989
   8   2.0000     -10.402180      -283.0577
   9   2.0000     -10.376230      -282.3516
  10   2.0000     -10.312583      -280.6197
  11   2.0000      -1.446452       -39.3600
  12   2.0000      -1.165031       -31.7021
  13   2.0000      -1.161594       -31.6086
  14   2.0000      -1.155920       -31.4542
  15   2.0000      -1.062366       -28.9084
  16   2.0000      -1.029854       -28.0238
  17   2.0000      -0.917698       -24.9718
  18   2.0000      -0.832639       -22.6573
  19   2.0000      -0.778941       -21.1961
  20   2.0000      -0.732360       -19.9285
  21   2.0000      -0.714550       -19.4439
  22   2.0000      -0.698669       -19.0117
  23   2.0000      -0.669145       -18.2084
  24   2.0000      -0.657718       -17.8974
  25   2.0000      -0.649673       -17.6785
  26   2.0000      -0.628434       -17.1005
  27   2.0000      -0.596474       -16.2309
  28   2.0000      -0.579461       -15.7679
  29   2.0000      -0.568866       -15.4796
  30   2.0000      -0.534920       -14.5559
  31   2.0000      -0.528448       -14.3798
  32   2.0000      -0.525018       -14.2865
  33   2.0000      -0.506042       -13.7701
  34   2.0000      -0.492887       -13.4121
  35   2.0000      -0.483090       -13.1455
  36   2.0000      -0.465262       -12.6604
  37   2.0000      -0.424485       -11.5508
  38   2.0000      -0.384902       -10.4737
  39   2.0000      -0.375453       -10.2166
  40   2.0000      -0.373398       -10.1607
  41   2.0000      -0.365959        -9.9582
  42   0.0000       0.035923         0.9775
  43   0.0000       0.080191         2.1821
  44   0.0000       0.083530         2.2730
  45   0.0000       0.094297         2.5660
  46   0.0000       0.106509         2.8983

MULLIKEN ATOMIC CHARGES
-----------------------
   0 C :    0.967038
   1 O :   -0.485632
   2 N :    0.009143
   3 C :   -0.293719
   4 C :    1.121128
   5 F :   -0.427704
   6 H :   -0.228966
   7 H :    0.090714
   8 C :    0.121581
   9 C :    0.403409
  10 O :   -0.571171
  11 N :    0.146082
  12 H :    0.180124
  13 H :    0.096955
  14 H :   -0.086545
  15 H :    0.076956
  16 O :   -0.559401
  17 H :   -0.559993
Sum of atomic charges:    0.0000000

LOEWDIN ATOMIC CHARGES
----------------------
   0 C :    0.073018
   1 O :   -0.271942
   2 N :    0.051639
   3 C :   -0.002033
   4 C :    0.049907
   5 F :   -0.002875
   6 H :    0.076788
   7 H :    0.060633
   8 C :    0.087475
   9 C :   -0.184509
  10 O :   -0.251095
  11 N :    0.269107
  12 H :    0.053435
  13 H :    0.048365
  14 H :    0.042936
  15 H :    0.033379
  16 O :   -0.155361
  17 H :    0.021132

  Mayer bond orders larger than 0.100000
B(  0-C ,  1-O ) :   1.7258 B(  0-C ,  2-N ) :   1.0884 B(  0-C ,  6-H ) :  -0.2201
B(  0-C , 17-H ) :   0.9647 B(  2-N ,  3-C ) :   0.8869 B(  2-N ,  6-H ) :   1.2993
B(  2-N ,  7-H ) :   0.1859 B(  2-N , 17-H ) :  -0.1151 B(  3-C ,  4-C ) :   0.8894
B(  3-C ,  5-F ) :   0.1652 B(  3-C ,  6-H ) :  -0.1206 B(  3-C ,  7-H ) :   0.8754
B(  3-C ,  8-C ) :   1.2784 B(  3-C , 12-H ) :   0.1910 B(  3-C , 13-H ) :   0.1807
B(  4-C ,  5-F ) :   0.6759 B(  4-C , 16-O ) :   1.7650 B(  5-F , 16-O ) :   0.1106
B(  7-H ,  8-C ) :   0.1161 B(  8-C ,  9-C ) :   1.0346 B(  8-C , 12-H ) :   0.7955
B(  8-C , 13-H ) :   0.8630 B(  9-C , 10-O ) :   1.6984 B(  9-C , 11-N ) :   1.3268
B(  9-C , 12-H ) :   0.1179 B( 11-N , 14-H ) :   1.2000 B( 11-N , 15-H ) :   1.0089
B( 14-H , 15-H ) :  -0.1527

Dispersion correction           -0.007315775
FINAL SINGLE POINT ENERGY      -629.226553849356

DIPOLE MOMENT
-------------
                                X             Y             Z
Electronic contribution:      0.72083       4.81059      -6.55451
Nuclear contribution   :     -0.67449      -4.37289       6.45293
                        -----------------------------------------
Total Dipole Moment    :      0.04634       0.43770      -0.10158
                        -----------------------------------------
Magnitude (a.u.)       :      0.45172
Magnitude (Debye)      :      1.14817

Rotational constants in cm-1:     0.045543     0.028086     0.020826
Rotational constants in MHz :  1365.330009   842.003781   624.358969

                             ****ORCA TERMINATED NORMALLY****
TOTAL RUN TIME: 0 days 0 hours 1 minutes 0 seconds 118 msec
