                         Program Version 5.0.0 -  RELEASE  -
|  1> !wB97X-D3 def2-SVPD TightSCF RIJCOSX def2/J CPCM(Water)
|  2> * xyz 0 1
|  3> C          6.49600        5.51000        9.74200
|  4> O          6.08700        5.88700        8.64000
|  5> N          7.68500        4.89800        9.90500
|  6> C          8.50500        4.57300        8.73700
|  7> C          7.81100        3.57600        7.81100
|  8> O          7.84000        3.74200        6.58000
|  9> H          8.00900        4.66300       10.83100
| 10> H          8.68800        5.49900        8.17400
| 11> C          9.85700        4.01400        9.19900
| 12> C         10.76700        3.57000        8.04700
| 13> C         11.27200        4.69300        7.13900
| 14> N         12.13700        5.62000        7.82400
| 15> C         12.68300        6.71900        7.29500
| 16> N         12.43600        7.05300        6.05300
| 17> C         13.44300        7.50300        8.09000
| 18> H         10.37700        4.78400        9.78500
| 19> H          9.67700        3.15500        9.86000
| 20> H         11.63600        3.05000        8.47200
| 21> H         10.21700        2.84600        7.43000
| 22> H         11.81800        4.25100        6.29300
| 23> H         10.41000        5.24000        6.73200
| 24> H         12.35000        5.42200        8.79000
| 25> H         11.83000        6.47800        5.48700
| 26> H         12.85300        7.88400        5.66100
| 27> H         13.83100        8.36200        7.72900
| 28> H         13.62200        7.23000        9.04400
| 29> N          7.21100        2.52200        8.36900
| 30> H          6.75380        1.85899        7.80276
| 31> H          7.22574        2.40774        9.34674
| 32> H          5.90339        5.67005       10.57159
| 33> *
| 34> %MaxCore 64000
| 35> %pal nprocs 8
| 36> end
| 37> %scf
| 38>   Convergence VeryTight
| 39>   MaxIter 150
| 40> end
| 41>
| 42>                          ****END OF INPUT****

CARTESIAN COORDINATES (ANGSTROEM)
---------------------------------
  C      6.496000    5.510000    9.742000
  O      6.087000    5.887000    8.640000
  N      7.685000    4.898000    9.905000
  C      8.505000    4.573000    8.737000
  C      7.811000    3.576000    7.811000
  O      7.840000    3.742000    6.580000
  H      8.009000    4.663000   10.831000
  H      8.688000    5.499000    8.174000
  C      9.857000    4.014000    9.199000
  C     10.767000    3.570000    8.047000
  C     11.272000    4.693000    7.139000
  N     12.137000    5.620000    7.824000
  C     12.683000    6.719000    7.295000
  N     12.436000    7.053000    6.053000
  C     13.443000    7.503000    8.090000
  H     10.377000    4.784000    9.785000
  H      9.677000    3.155000    9.860000
  H     11.636000    3.050000    8.472000
  H     10.217000    2.846000    7.430000
  H     11.818000    4.251000    6.293000
  H     10.410000    5.240000    6.732000
  H     12.350000    5.422000    8.790000
  H     11.830000    6.478000    5.487000
  H     12.853000    7.884000    5.661000
  H     13.831000    8.362000    7.729000
  H     13.622000    7.230000    9.044000
  N      7.211000    2.522000    8.369000
  H      6.753800    1.858990    7.802760
  H      7.225740    2.407740    9.346740
  H      5.903390    5.670050   10.571590

 Total Charge           Charge          ....    0
 Multiplicity           Mult            ....    1
 Number of Electrons    NEL             ....  108
 Basis Dimension        Dim             ....  414

ORBITAL ENERGIES
----------------

  NO   OCC          E(Eh)            E(eV)
   0   2.0000     -19.228761      -523.2412
   1   2.0000     -19.223545      -523.0992
   2   2.0000     -14.477321      -393.9479
   3   2.0000     -14.461046      -393.5051
   4   2.0000     -14.437684      -392.8694
   5   2.0000     -14.436699      -392.8425
   6   2.0000     -10.409483      -283.2564
   7   2.0000     -10.398215      -282.9498
   8   2.0000     -10.348943      -281.6091
   9   2.0000     -10.348862      -281.6069
  10   2.0000     -10.321467      -280.8614
  11   2.0000     -10.303973      -280.3853
  12   2.0000     -10.297631      -280.2128
  13   2.0000     -10.206799      -277.7411
  14   2.0000      -1.158450       -31.5230
  15   2.0000      -1.147172       -31.2161
  16   2.0000      -1.084636       -29.5144
  17   2.0000      -1.049535       -28.5593
  18   2.0000      -1.022798       -27.8317
  19   2.0000      -0.997414       -27.1410
  20   2.0000      -0.919993       -25.0343
  21   2.0000      -0.863822       -23.5058
  22   2.0000      -0.818854       -22.2821
  23   2.0000      -0.771260       -20.9871
  24   2.0000      -0.737731       -20.0747
  25   2.0000      -0.710522       -19.3343
  26   2.0000      -0.702905       -19.1270
  27   2.0000      -0.698281       -19.0012
  28   2.0000      -0.668304       -18.1855
  29   2.0000      -0.650200       -17.6928
  30   2.0000      -0.646880       -17.6025
  31   2.0000      -0.606726       -16.5099
  32   2.0000      -0.599404       -16.3106
  33   2.0000      -0.588354       -16.0099
  34   2.0000      -0.565316       -15.3830
  35   2.0000      -0.559378       -15.2214
  36   2.0000      -0.556913       -15.1544
  37   2.0000      -0.540610       -14.7107
  38   2.0000      -0.521726       -14.1969
  39   2.0000      -0.512089       -13.9347
  40   2.0000      -0.505142       -13.7456
  41   2.0000      -0.491852       -13.3840
  42   2.0000      -0.490329       -13.3425
  43   2.0000      -0.480311       -13.0699
  44   2.0000      -0.479526       -13.0486
  45   2.0000      -0.445457       -12.1215
  46   2.0000      -0.444969       -12.1082
  47   2.0000      -0.430326       -11.7098
  48   2.0000      -0.386935       -10.5290
  49   2.0000      -0.379598       -10.3294
  50   2.0000      -0.372001       -10.1227
  51   2.0000      -0.357815        -9.7367
  52   2.0000      -0.347030        -9.4432
  53   2.0000      -0.254902        -6.9362
  54   0.0000       0.075707         2.0601
  55   0.0000       0.083774         2.2796
  56   0.0000       0.092255         2.5104
  57   0.0000       0.101361         2.7582
  58   0.0000       0.103315         2.8113

MULLIKEN ATOMIC CHARGES
-----------------------
   0 C :    0.978904
   1 O :   -0.481804
   2 N :    0.051563
   3 C :    0.164196
   4 C :    0.154143
   5 O :   -0.618849
   6 H :   -0.335751
   7 H :   -0.041151
   8 C :    0.028650
   9 C :    0.194970
  10 C :    0.531700
  11 N :   -0.380482
  12 C :    0.546467
  13 N :    0.183458
  14 C :    0.383473
  15 H :    0.013060
  16 H :    0.052079
  17 H :   -0.031569
  18 H :    0.131361
  19 H :   -0.194143
  20 H :    0.032769
  21 H :   -0.210335
  22 H :   -0.086558
  23 H :   -0.072450
  24 H :   -0.470011
  25 H :   -0.281023
  26 N :    0.596749
  27 H :   -0.175138
  28 H :   -0.103026
  29 H :   -0.561253
Sum of atomic charges:    0.0000000

LOEWDIN ATOMIC CHARGES
----------------------
   0 C :    0.069406
   1 O :   -0.263651
   2 N :    0.053002
   3 C :   -0.041580
   4 C :   -0.138468
   5 O :   -0.260434
   6 H :    0.058080
   7 H :    0.058077
   8 C :    0.023893
   9 C :   -0.000530
  10 C :    0.039827
  11 N :   -0.014085
  12 C :   -0.240679
  13 N :    0.208821
  14 C :    0.104308
  15 H :    0.033161
  16 H :    0.038625
  17 H :    0.037338
  18 H :    0.022940
  19 H :    0.033846
  20 H :    0.017594
  21 H :    0.035083
  22 H :   -0.000720
  23 H :    0.028592
  24 H :   -0.121768
  25 H :   -0.121233
  26 N :    0.291745
  27 H :    0.021915
  28 H :    0.010568
  29 H :    0.016330

  Mayer bond orders larger than 0.100000
B(  0-C ,  1-O ) :   1.7035 B(  0-C ,  2-N ) :   1.0791 B(  0-C ,  3-C ) :   0.1056
B(  0-C ,  6-H ) :  -0.2447 B(  0-C , 29-H ) :   0.9658 B(  2-N ,  3-C ) :   0.7715
B(  2-N ,  6-H ) :   1.2572 B(  2-N ,  7-H ) :   0.1208 B(  2-N ,  8-C ) :   0.1464
B(  3-C ,  4-C ) :   0.9497 B(  3-C ,  6-H ) :  -0.1435 B(  3-C ,  7-H ) :   0.7686
B(  3-C ,  8-C ) :   1.2410 B(  3-C , 15-H ) :   0.1602 B(  3-C , 16-H ) :   0.1660
B(  4-C ,  5-O ) :   1.5275 B(  4-C ,  7-H ) :   0.2981 B(  4-C , 16-H ) :   0.1065
B(  4-C , 26-N ) :   1.5179 B(  4-C , 27-H ) :   0.1229 B(  5-O , 26-N ) :   0.1051
B(  7-H ,  8-C ) :   0.1558 B(  8-C ,  9-C ) :   1.2431 B(  8-C , 15-H ) :   0.7898
B(  8-C , 16-H ) :   0.8413 B(  8-C , 17-H ) :   0.1783 B(  8-C , 18-H ) :   0.1150
B(  9-C , 10-C ) :   1.2446 B(  9-C , 11-N ) :   0.1098 B(  9-C , 15-H ) :   0.1637
B(  9-C , 16-H ) :   0.1062 B(  9-C , 17-H ) :   0.7231 B(  9-C , 18-H ) :   0.7070
B( 10-C , 11-N ) :   0.8750 B( 10-C , 17-H ) :   0.1829 B( 10-C , 18-H ) :   0.1932
B( 10-C , 19-H ) :   0.9523 B( 10-C , 20-H ) :   0.7620 B( 10-C , 21-H ) :  -0.1532
B( 11-N , 12-C ) :   1.0705 B( 11-N , 13-N ) :   0.1697 B( 11-N , 14-C ) :   0.2114
B( 11-N , 19-H ) :   0.1678 B( 11-N , 20-H ) :   0.1706 B( 11-N , 21-H ) :   1.1845
B( 12-C , 13-N ) :   1.1077 B( 12-C , 14-C ) :   1.5140 B( 12-C , 21-H ) :  -0.2462
B( 12-C , 24-H ) :   0.1882 B( 13-N , 14-C ) :   0.1707 B( 13-N , 22-H ) :   1.1055
B( 13-N , 23-H ) :   1.1993 B( 14-C , 24-H ) :   0.7771 B( 14-C , 25-H ) :   0.9246
B( 16-H , 26-N ) :  -0.1113 B( 22-H , 23-H ) :  -0.1814 B( 26-N , 27-H ) :   1.1103
B( 26-N , 28-H ) :   1.0330 B( 27-H , 28-H ) :  -0.1464

Dispersion correction           -0.012637700
FINAL SINGLE POINT ENERGY      -683.341949854505

DIPOLE MOMENT
-------------
                                X             Y             Z
Electronic contribution:    -11.42140      -1.77638       0.34436
Nuclear contribution   :     11.50690      -0.83338       2.36498
                        -----------------------------------------
Total Dipole Moment    :      0.08550      -2.60976       2.70934
                        -----------------------------------------
Magnitude (a.u.)       :      3.76280
Magnitude (Debye)      :      9.56429

Rotational constants in cm-1:     0.036802     0.010614     0.009887
Rotational constants in MHz :  1103.304603   318.194125   296.398314

                             ****ORCA TERMINATED NORMALLY****
TOTAL RUN TIME: 0 days 0 hours 2 minutes 31 seconds 647 msec
