                         Program Version 5.0.0 -  RELEASE  -
|  1> !wB97X-D3 def2-SVPD TightSCF RIJCOSX def2/J CPCM(Water)
|  2> * xyz 0 1
|  3> C         15.17600        6.50400       14.19600
|  4> O         16.09100        5.69500       13.99100
|  5> N         13.96800        6.42800       13.64400
|  6> C         13.54500        5.34700       12.78000
|  7> C         13.31400        5.79800       11.33100
|  8> O         13.72200        6.91400       10.97700
|  9> H         13.30800        7.16700       13.83900
| 10> H         14.34700        4.59500       12.77100
| 11> C         12.28900        4.68500       13.37900
| 12> C         12.55200        4.05800       14.70800
| 13> O         11.88400        4.46400       15.64400
| 14> N         13.52700        3.16200       14.79900
| 15> H         11.50100        5.44200       13.48800
| 16> H         11.92300        3.91500       12.68400
| 17> H         13.76400        2.76200       15.69500
| 18> H         14.03200        2.88000       13.97200
| 19> F         12.72000        4.98200       10.59000
| 20> H         15.36321        7.28988       14.83817
| 21> *
| 22> %MaxCore 64000
| 23> %pal nprocs 8
| 24> end
| 25> %scf
| 26>   Convergence VeryTight
| 27>   MaxIter 150
| 28> end
| 29>
| 30>                          ****END OF INPUT****

CARTESIAN COORDINATES (ANGSTROEM)
---------------------------------
  C     15.176000    6.504000   14.196000
  O     16.091000    5.695000   13.991000
  N     13.968000    6.428000   13.644000
  C     13.545000    5.347000   12.780000
  C     13.314000    5.798000   11.331000
  O     13.722000    6.914000   10.977000
  H     13.308000    7.167000   13.839000
  H     14.347000    4.595000   12.771000
  C     12.289000    4.685000   13.379000
  C     12.552000    4.058000   14.708000
  O     11.884000    4.464000   15.644000
  N     13.527000    3.162000   14.799000
  H     11.501000    5.442000   13.488000
  H     11.923000    3.915000   12.684000
  H     13.764000    2.762000   15.695000
  H     14.032000    2.880000   13.972000
  F     12.720000    4.982000   10.590000
  H     15.363210    7.289880   14.838170

 Total Charge           Charge          ....    0
 Multiplicity           Mult            ....    1
 Number of Electrons    NEL             ....   84
 Basis Dimension        Dim             ....  288

ORBITAL ENERGIES
----------------

  NO   OCC          E(Eh)            E(eV)
   0   2.0000     -24.886143      -677.1864
   1   2.0000     -19.275849      -524.5225
   2   2.0000     -19.228895      -523.2448
   3   2.0000     -19.223221      -523.0904
   4   2.0000     -14.484935      -394.1551
   5   2.0000     -14.465875      -393.6365
   6   2.0000     -10.492240      -285.5084
   7   2.0000     -10.407865      -283.2124
   8   2.0000     -10.401797      -283.0473
   9   2.0000     -10.376353      -282.3549
  10   2.0000     -10.314409      -280.6693
  11   2.0000      -1.438025       -39.1306
  12   2.0000      -1.172594       -31.9079
  13   2.0000      -1.162395       -31.6304
  14   2.0000      -1.154323       -31.4107
  15   2.0000      -1.059932       -28.8422
  16   2.0000      -1.030040       -28.0288
  17   2.0000      -0.922253       -25.0958
  18   2.0000      -0.827658       -22.5217
  19   2.0000      -0.782685       -21.2980
  20   2.0000      -0.728378       -19.8202
  21   2.0000      -0.714896       -19.4533
  22   2.0000      -0.696597       -18.9554
  23   2.0000      -0.666452       -18.1351
  24   2.0000      -0.650736       -17.7074
  25   2.0000      -0.648903       -17.6575
  26   2.0000      -0.628804       -17.1106
  27   2.0000      -0.600605       -16.3433
  28   2.0000      -0.577539       -15.7156
  29   2.0000      -0.568122       -15.4594
  30   2.0000      -0.540600       -14.7105
  31   2.0000      -0.527425       -14.3520
  32   2.0000      -0.525098       -14.2886
  33   2.0000      -0.507512       -13.8101
  34   2.0000      -0.497783       -13.5454
  35   2.0000      -0.483713       -13.1625
  36   2.0000      -0.469038       -12.7632
  37   2.0000      -0.421024       -11.4566
  38   2.0000      -0.385443       -10.4884
  39   2.0000      -0.376829       -10.2540
  40   2.0000      -0.374663       -10.1951
  41   2.0000      -0.365126        -9.9356
  42   0.0000       0.039958         1.0873
  43   0.0000       0.079748         2.1701
  44   0.0000       0.084726         2.3055
  45   0.0000       0.093545         2.5455
  46   0.0000       0.106527         2.8987

MULLIKEN ATOMIC CHARGES
-----------------------
   0 C :    0.977913
   1 O :   -0.493167
   2 N :   -0.045518
   3 C :   -0.231780
   4 C :    1.044819
   5 O :   -0.537695
   6 H :   -0.212259
   7 H :    0.092674
   8 C :    0.111691
   9 C :    0.404822
  10 O :   -0.570104
  11 N :    0.143856
  12 H :    0.177661
  13 H :    0.117066
  14 H :   -0.086381
  15 H :    0.076979
  16 F :   -0.416904
  17 H :   -0.553675
Sum of atomic charges:    0.0000000

LOEWDIN ATOMIC CHARGES
----------------------
   0 C :    0.074505
   1 O :   -0.272695
   2 N :    0.062252
   3 C :   -0.008555
   4 C :    0.043496
   5 O :   -0.144162
   6 H :    0.077037
   7 H :    0.060724
   8 C :    0.084284
   9 C :   -0.184881
  10 O :   -0.250917
  11 N :    0.269079
  12 H :    0.053413
  13 H :    0.053772
  14 H :    0.043099
  15 H :    0.033107
  16 F :   -0.015248
  17 H :    0.021690

  Mayer bond orders larger than 0.100000
B(  0-C ,  1-O ) :   1.7289 B(  0-C ,  2-N ) :   1.0975 B(  0-C ,  6-H ) :  -0.2242
B(  0-C , 17-H ) :   0.9665 B(  2-N ,  3-C ) :   0.9245 B(  2-N ,  6-H ) :   1.3050
B(  2-N ,  7-H ) :   0.2066 B(  2-N , 17-H ) :  -0.1075 B(  3-C ,  4-C ) :   0.9102
B(  3-C ,  6-H ) :  -0.1298 B(  3-C ,  7-H ) :   0.8500 B(  3-C ,  8-C ) :   1.2353
B(  3-C , 12-H ) :   0.1993 B(  3-C , 13-H ) :   0.1649 B(  3-C , 16-F ) :   0.1015
B(  4-C ,  5-O ) :   1.8368 B(  4-C , 16-F ) :   0.6729 B(  5-O , 16-F ) :   0.1093
B(  7-H ,  8-C ) :   0.1022 B(  8-C ,  9-C ) :   1.0402 B(  8-C , 12-H ) :   0.7977
B(  8-C , 13-H ) :   0.8471 B(  9-C , 10-O ) :   1.6985 B(  9-C , 11-N ) :   1.3246
B(  9-C , 12-H ) :   0.1228 B( 11-N , 14-H ) :   1.2000 B( 11-N , 15-H ) :   1.0077
B( 14-H , 15-H ) :  -0.1519

Dispersion correction           -0.007360809
FINAL SINGLE POINT ENERGY      -629.231019169834

DIPOLE MOMENT
-------------
                                X             Y             Z
Electronic contribution:     -1.10292       1.29811      -7.25911
Nuclear contribution   :      0.37430      -2.35068       6.85800
                        -----------------------------------------
Total Dipole Moment    :     -0.72862      -1.05256      -0.40111
                        -----------------------------------------
Magnitude (a.u.)       :      1.34152
Magnitude (Debye)      :      3.40986

Rotational constants in cm-1:     0.044387     0.028526     0.020845
Rotational constants in MHz :  1330.684833   855.197255   624.906863

                             ****ORCA TERMINATED NORMALLY****
TOTAL RUN TIME: 0 days 0 hours 1 minutes 3 seconds 685 msec
