                         Program Version 5.0.0 -  RELEASE  -
|  1> !wB97X-D3 def2-SVPD TightSCF RIJCOSX def2/J CPCM(Water)
|  2> * xyz 0 1
|  3> C          6.49600        5.51000        9.74200
|  4> O          6.08700        5.88700        8.64000
|  5> N          7.68500        4.89800        9.90500
|  6> C          8.50500        4.57300        8.73700
|  7> C          7.81100        3.57600        7.81100
|  8> O          7.84000        3.74200        6.58000
|  9> H          8.00900        4.66300       10.83100
| 10> H          8.68800        5.49900        8.17400
| 11> C          9.85700        4.01400        9.19900
| 12> C         10.76700        3.57000        8.04700
| 13> C         11.27200        4.69300        7.13900
| 14> C         12.13700        5.62000        7.82400
| 15> C         12.68300        6.71900        7.29500
| 16> N         12.43600        7.05300        6.05300
| 17> N         13.44300        7.50300        8.09000
| 18> H         10.37700        4.78400        9.78500
| 19> H          9.67700        3.15500        9.86000
| 20> H         11.63600        3.05000        8.47200
| 21> H         10.21700        2.84600        7.43000
| 22> H         11.81800        4.25100        6.29300
| 23> H         10.41000        5.24000        6.73200
| 24> H         12.35000        5.42200        8.79000
| 25> H         11.83000        6.47800        5.48700
| 26> H         12.85300        7.88400        5.66100
| 27> H         13.83100        8.36200        7.72900
| 28> H         13.62200        7.23000        9.04400
| 29> N          7.21100        2.52200        8.36900
| 30> H          6.75380        1.85899        7.80276
| 31> H          7.22574        2.40774        9.34674
| 32> H          5.90339        5.67005       10.57159
| 33> *
| 34> %MaxCore 64000
| 35> %pal nprocs 8
| 36> end
| 37> %scf
| 38>   Convergence VeryTight
| 39>   MaxIter 150
| 40> end
| 41>
| 42>                          ****END OF INPUT****

CARTESIAN COORDINATES (ANGSTROEM)
---------------------------------
  C      6.496000    5.510000    9.742000
  O      6.087000    5.887000    8.640000
  N      7.685000    4.898000    9.905000
  C      8.505000    4.573000    8.737000
  C      7.811000    3.576000    7.811000
  O      7.840000    3.742000    6.580000
  H      8.009000    4.663000   10.831000
  H      8.688000    5.499000    8.174000
  C      9.857000    4.014000    9.199000
  C     10.767000    3.570000    8.047000
  C     11.272000    4.693000    7.139000
  C     12.137000    5.620000    7.824000
  C     12.683000    6.719000    7.295000
  N     12.436000    7.053000    6.053000
  N     13.443000    7.503000    8.090000
  H     10.377000    4.784000    9.785000
  H      9.677000    3.155000    9.860000
  H     11.636000    3.050000    8.472000
  H     10.217000    2.846000    7.430000
  H     11.818000    4.251000    6.293000
  H     10.410000    5.240000    6.732000
  H     12.350000    5.422000    8.790000
  H     11.830000    6.478000    5.487000
  H     12.853000    7.884000    5.661000
  H     13.831000    8.362000    7.729000
  H     13.622000    7.230000    9.044000
  N      7.211000    2.522000    8.369000
  H      6.753800    1.858990    7.802760
  H      7.225740    2.407740    9.346740
  H      5.903390    5.670050   10.571590

 Total Charge           Charge          ....    0
 Multiplicity           Mult            ....    1
 Number of Electrons    NEL             ....  108
 Basis Dimension        Dim             ....  414

ORBITAL ENERGIES
----------------

  NO   OCC          E(Eh)            E(eV)
   0   2.0000     -19.227898      -523.2177
   1   2.0000     -19.221726      -523.0497
   2   2.0000     -14.475830      -393.9074
   3   2.0000     -14.459715      -393.4688
   4   2.0000     -14.435508      -392.8101
   5   2.0000     -14.428105      -392.6087
   6   2.0000     -10.407629      -283.2060
   7   2.0000     -10.397232      -282.9231
   8   2.0000     -10.345453      -281.5141
   9   2.0000     -10.338276      -281.3188
  10   2.0000     -10.296886      -280.1925
  11   2.0000     -10.283728      -279.8345
  12   2.0000     -10.270146      -279.4649
  13   2.0000     -10.210803      -277.8501
  14   2.0000      -1.157187       -31.4887
  15   2.0000      -1.145636       -31.1744
  16   2.0000      -1.069733       -29.1089
  17   2.0000      -1.047838       -28.5131
  18   2.0000      -1.021388       -27.7934
  19   2.0000      -0.973615       -26.4934
  20   2.0000      -0.921672       -25.0800
  21   2.0000      -0.871879       -23.7250
  22   2.0000      -0.815798       -22.1990
  23   2.0000      -0.764415       -20.8008
  24   2.0000      -0.735784       -20.0217
  25   2.0000      -0.703791       -19.1511
  26   2.0000      -0.698896       -19.0179
  27   2.0000      -0.678264       -18.4565
  28   2.0000      -0.665919       -18.1206
  29   2.0000      -0.646543       -17.5933
  30   2.0000      -0.644215       -17.5300
  31   2.0000      -0.609376       -16.5820
  32   2.0000      -0.602853       -16.4045
  33   2.0000      -0.579057       -15.7569
  34   2.0000      -0.568116       -15.4592
  35   2.0000      -0.563306       -15.3283
  36   2.0000      -0.541510       -14.7352
  37   2.0000      -0.537835       -14.6352
  38   2.0000      -0.522769       -14.2253
  39   2.0000      -0.513472       -13.9723
  40   2.0000      -0.509038       -13.8516
  41   2.0000      -0.490071       -13.3355
  42   2.0000      -0.485046       -13.1988
  43   2.0000      -0.473633       -12.8882
  44   2.0000      -0.465001       -12.6533
  45   2.0000      -0.431123       -11.7314
  46   2.0000      -0.420905       -11.4534
  47   2.0000      -0.412906       -11.2357
  48   2.0000      -0.385213       -10.4822
  49   2.0000      -0.378016       -10.2863
  50   2.0000      -0.370731       -10.0881
  51   2.0000      -0.357505        -9.7282
  52   2.0000      -0.354985        -9.6596
  53   2.0000      -0.245540        -6.6815
  54   0.0000       0.077473         2.1081
  55   0.0000       0.085797         2.3347
  56   0.0000       0.093442         2.5427
  57   0.0000       0.102400         2.7864
  58   0.0000       0.105161         2.8616

MULLIKEN ATOMIC CHARGES
-----------------------
   0 C :    0.981145
   1 O :   -0.480827
   2 N :    0.069654
   3 C :    0.202921
   4 C :    0.171566
   5 O :   -0.627629
   6 H :   -0.338178
   7 H :   -0.086891
   8 C :   -0.084154
   9 C :    0.517384
  10 C :   -0.083918
  11 C :   -0.137316
  12 C :    0.890784
  13 N :   -0.071376
  14 N :   -0.105631
  15 H :    0.013150
  16 H :    0.016626
  17 H :    0.044862
  18 H :    0.088786
  19 H :   -0.108770
  20 H :    0.217106
  21 H :   -0.583709
  22 H :    0.004921
  23 H :   -0.170852
  24 H :   -0.082390
  25 H :   -0.001452
  26 N :    0.584258
  27 H :   -0.174290
  28 H :   -0.098201
  29 H :   -0.567579
Sum of atomic charges:    0.0000000

LOEWDIN ATOMIC CHARGES
----------------------
   0 C :    0.068039
   1 O :   -0.265002
   2 N :    0.052222
   3 C :   -0.041603
   4 C :   -0.139071
   5 O :   -0.262782
   6 H :    0.057288
   7 H :    0.056754
   8 C :    0.021764
   9 C :   -0.020330
  10 C :   -0.084170
  11 C :   -0.057968
  12 C :   -0.227716
  13 N :    0.207889
  14 N :    0.180568
  15 H :    0.027791
  16 H :    0.035047
  17 H :    0.032418
  18 H :    0.013440
  19 H :    0.025716
  20 H :    0.009778
  21 H :   -0.061411
  22 H :    0.003955
  23 H :    0.018450
  24 H :    0.002681
  25 H :    0.009042
  26 N :    0.290502
  27 H :    0.021116
  28 H :    0.009823
  29 H :    0.015771

  Mayer bond orders larger than 0.100000
B(  0-C ,  1-O ) :   1.7019 B(  0-C ,  2-N ) :   1.0800 B(  0-C ,  3-C ) :   0.1013
B(  0-C ,  6-H ) :  -0.2433 B(  0-C , 29-H ) :   0.9660 B(  2-N ,  3-C ) :   0.7742
B(  2-N ,  6-H ) :   1.2457 B(  2-N ,  7-H ) :   0.1004 B(  2-N ,  8-C ) :   0.1565
B(  3-C ,  4-C ) :   0.9352 B(  3-C ,  6-H ) :  -0.1369 B(  3-C ,  7-H ) :   0.7849
B(  3-C ,  8-C ) :   1.2301 B(  3-C , 15-H ) :   0.1649 B(  3-C , 16-H ) :   0.1773
B(  4-C ,  5-O ) :   1.5283 B(  4-C ,  7-H ) :   0.3007 B(  4-C , 16-H ) :   0.1078
B(  4-C , 26-N ) :   1.5133 B(  4-C , 27-H ) :   0.1173 B(  5-O , 26-N ) :   0.1062
B(  7-H ,  8-C ) :   0.1554 B(  8-C ,  9-C ) :   1.2261 B(  8-C , 15-H ) :   0.8193
B(  8-C , 16-H ) :   0.8720 B(  8-C , 17-H ) :   0.2043 B(  8-C , 18-H ) :   0.1649
B(  9-C , 10-C ) :   1.2100 B(  9-C , 11-C ) :   0.2179 B(  9-C , 15-H ) :   0.1431
B(  9-C , 17-H ) :   0.6207 B(  9-C , 18-H ) :   0.5730 B(  9-C , 21-H ) :  -0.2027
B( 10-C , 11-C ) :   1.1223 B( 10-C , 12-C ) :  -0.1595 B( 10-C , 17-H ) :   0.2083
B( 10-C , 18-H ) :   0.2441 B( 10-C , 19-H ) :   0.8088 B( 10-C , 20-H ) :   0.6878
B( 10-C , 21-H ) :   0.4831 B( 11-C , 12-C ) :   1.5095 B( 11-C , 13-N ) :   0.2678
B( 11-C , 14-N ) :   0.4145 B( 11-C , 19-H ) :   0.2342 B( 11-C , 20-H ) :   0.1754
B( 11-C , 21-H ) :   0.7064 B( 11-C , 22-H ) :  -0.1471 B( 12-C , 13-N ) :   1.0100
B( 12-C , 14-N ) :   0.6978 B( 12-C , 23-H ) :  -0.1795 B( 13-N , 14-N ) :   0.1039
B( 13-N , 22-H ) :   1.1152 B( 13-N , 23-H ) :   1.3588 B( 14-N , 24-H ) :   1.1761
B( 14-N , 25-H ) :   1.1830 B( 16-H , 26-N ) :  -0.1161 B( 17-H , 18-H ) :  -0.1388
B( 22-H , 23-H ) :  -0.1877 B( 24-H , 25-H ) :  -0.1611 B( 26-N , 27-H ) :   1.1153
B( 26-N , 28-H ) :   1.0348 B( 27-H , 28-H ) :  -0.1485

Dispersion correction           -0.012595594
FINAL SINGLE POINT ENERGY      -683.350416734315

DIPOLE MOMENT
-------------
                                X             Y             Z
Electronic contribution:     -9.66422       0.64834       0.68771
Nuclear contribution   :     11.31801      -1.10573       2.32651
                        -----------------------------------------
Total Dipole Moment    :      1.65379      -0.45739       3.01422
                        -----------------------------------------
Magnitude (a.u.)       :      3.46839
Magnitude (Debye)      :      8.81595

Rotational constants in cm-1:     0.036553     0.010446     0.009725
Rotational constants in MHz :  1095.842581   313.165036   291.543706

                             ****ORCA TERMINATED NORMALLY****
TOTAL RUN TIME: 0 days 0 hours 2 minutes 35 seconds 101 msec
