                         Program Version 5.0.0 -  RELEASE  -
|  1> !wB97X-D3 def2-SVPD TightSCF RIJCOSX def2/J CPCM(Water)
|  2> * xyz 0 1
|  3> C          6.49600        5.51000        9.74200
|  4> O          6.08700        5.88700        8.64000
|  5> N          7.68500        4.89800        9.90500
|  6> C          8.50500        4.57300        8.73700
|  7> C          7.81100        3.57600        7.81100
|  8> O          7.84000        3.74200        6.58000
|  9> H          8.00900        4.66300       10.83100
| 10> H          8.68800        5.49900        8.17400
| 11> C          9.85700        4.01400        9.19900
| 12> C         10.76700        3.57000        8.04700
| 13> C         11.27200        4.69300        7.13900
| 14> N         12.13700        5.62000        7.82400
| 15> C         12.68300        6.71900        7.29500
| 16> C         12.43600        7.05300        6.05300
| 17> N         13.44300        7.50300        8.09000
| 18> H         10.37700        4.78400        9.78500
| 19> H          9.67700        3.15500        9.86000
| 20> H         11.63600        3.05000        8.47200
| 21> H         10.21700        2.84600        7.43000
| 22> H         11.81800        4.25100        6.29300
| 23> H         10.41000        5.24000        6.73200
| 24> H         12.35000        5.42200        8.79000
| 25> H         11.83000        6.47800        5.48700
| 26> H         12.85300        7.88400        5.66100
| 27> H         13.83100        8.36200        7.72900
| 28> H         13.62200        7.23000        9.04400
| 29> N          7.21100        2.52200        8.36900
| 30> H          6.75380        1.85899        7.80276
| 31> H          7.22574        2.40774        9.34674
| 32> H          5.90339        5.67005       10.57159
| 33> *
| 34> %MaxCore 64000
| 35> %pal nprocs 8
| 36> end
| 37> %scf
| 38>   Convergence VeryTight
| 39>   MaxIter 150
| 40> end
| 41>
| 42>                          ****END OF INPUT****

CARTESIAN COORDINATES (ANGSTROEM)
---------------------------------
  C      6.496000    5.510000    9.742000
  O      6.087000    5.887000    8.640000
  N      7.685000    4.898000    9.905000
  C      8.505000    4.573000    8.737000
  C      7.811000    3.576000    7.811000
  O      7.840000    3.742000    6.580000
  H      8.009000    4.663000   10.831000
  H      8.688000    5.499000    8.174000
  C      9.857000    4.014000    9.199000
  C     10.767000    3.570000    8.047000
  C     11.272000    4.693000    7.139000
  N     12.137000    5.620000    7.824000
  C     12.683000    6.719000    7.295000
  C     12.436000    7.053000    6.053000
  N     13.443000    7.503000    8.090000
  H     10.377000    4.784000    9.785000
  H      9.677000    3.155000    9.860000
  H     11.636000    3.050000    8.472000
  H     10.217000    2.846000    7.430000
  H     11.818000    4.251000    6.293000
  H     10.410000    5.240000    6.732000
  H     12.350000    5.422000    8.790000
  H     11.830000    6.478000    5.487000
  H     12.853000    7.884000    5.661000
  H     13.831000    8.362000    7.729000
  H     13.622000    7.230000    9.044000
  N      7.211000    2.522000    8.369000
  H      6.753800    1.858990    7.802760
  H      7.225740    2.407740    9.346740
  H      5.903390    5.670050   10.571590

 Total Charge           Charge          ....    0
 Multiplicity           Mult            ....    1
 Number of Electrons    NEL             ....  108
 Basis Dimension        Dim             ....  414

ORBITAL ENERGIES
----------------

  NO   OCC          E(Eh)            E(eV)
   0   2.0000     -19.228668      -523.2386
   1   2.0000     -19.223358      -523.0942
   2   2.0000     -14.477204      -393.9447
   3   2.0000     -14.460910      -393.5014
   4   2.0000     -14.437241      -392.8573
   5   2.0000     -14.431115      -392.6906
   6   2.0000     -10.409298      -283.2514
   7   2.0000     -10.398120      -282.9472
   8   2.0000     -10.348555      -281.5985
   9   2.0000     -10.344015      -281.4750
  10   2.0000     -10.319942      -280.8199
  11   2.0000     -10.303386      -280.3694
  12   2.0000     -10.296269      -280.1757
  13   2.0000     -10.210344      -277.8376
  14   2.0000      -1.158322       -31.5195
  15   2.0000      -1.147017       -31.2119
  16   2.0000      -1.075997       -29.2794
  17   2.0000      -1.049369       -28.5548
  18   2.0000      -1.022656       -27.8279
  19   2.0000      -0.990665       -26.9574
  20   2.0000      -0.917855       -24.9761
  21   2.0000      -0.855792       -23.2873
  22   2.0000      -0.826867       -22.5002
  23   2.0000      -0.785496       -21.3744
  24   2.0000      -0.739877       -20.1331
  25   2.0000      -0.709361       -19.3027
  26   2.0000      -0.700388       -19.0585
  27   2.0000      -0.676644       -18.4124
  28   2.0000      -0.666235       -18.1292
  29   2.0000      -0.650185       -17.6924
  30   2.0000      -0.640722       -17.4349
  31   2.0000      -0.613829       -16.7031
  32   2.0000      -0.605986       -16.4897
  33   2.0000      -0.582230       -15.8433
  34   2.0000      -0.572934       -15.5903
  35   2.0000      -0.555929       -15.1276
  36   2.0000      -0.543754       -14.7963
  37   2.0000      -0.540269       -14.7015
  38   2.0000      -0.523522       -14.2458
  39   2.0000      -0.514557       -14.0018
  40   2.0000      -0.502131       -13.6637
  41   2.0000      -0.496937       -13.5223
  42   2.0000      -0.486164       -13.2292
  43   2.0000      -0.483359       -13.1529
  44   2.0000      -0.476493       -12.9660
  45   2.0000      -0.447552       -12.1785
  46   2.0000      -0.443047       -12.0559
  47   2.0000      -0.428323       -11.6553
  48   2.0000      -0.386771       -10.5246
  49   2.0000      -0.379417       -10.3245
  50   2.0000      -0.371871       -10.1191
  51   2.0000      -0.357145        -9.7184
  52   2.0000      -0.336984        -9.1698
  53   2.0000      -0.269075        -7.3219
  54   0.0000       0.075861         2.0643
  55   0.0000       0.084165         2.2903
  56   0.0000       0.092495         2.5169
  57   0.0000       0.102013         2.7759
  58   0.0000       0.103189         2.8079

MULLIKEN ATOMIC CHARGES
-----------------------
   0 C :    0.976035
   1 O :   -0.481178
   2 N :    0.056663
   3 C :    0.171726
   4 C :    0.150131
   5 O :   -0.618550
   6 H :   -0.336455
   7 H :   -0.041740
   8 C :    0.022964
   9 C :    0.236723
  10 C :    0.523695
  11 N :   -0.452067
  12 C :    0.566382
  13 C :    0.325476
  14 N :    0.015290
  15 H :    0.027400
  16 H :    0.044796
  17 H :   -0.039660
  18 H :    0.112053
  19 H :   -0.209330
  20 H :    0.086066
  21 H :   -0.284126
  22 H :    0.138525
  23 H :   -0.635658
  24 H :   -0.041920
  25 H :   -0.070390
  26 N :    0.598181
  27 H :   -0.176577
  28 H :   -0.102376
  29 H :   -0.562079
Sum of atomic charges:    0.0000000

LOEWDIN ATOMIC CHARGES
----------------------
   0 C :    0.069277
   1 O :   -0.263724
   2 N :    0.052919
   3 C :   -0.041569
   4 C :   -0.138509
   5 O :   -0.260465
   6 H :    0.057972
   7 H :    0.057957
   8 C :    0.023133
   9 C :   -0.000931
  10 C :    0.041420
  11 N :   -0.020156
  12 C :   -0.241333
  13 C :    0.128423
  14 N :    0.186740
  15 H :    0.032214
  16 H :    0.038160
  17 H :    0.036204
  18 H :    0.022754
  19 H :    0.034495
  20 H :    0.017840
  21 H :    0.030453
  22 H :   -0.118843
  23 H :   -0.101059
  24 H :    0.013021
  25 H :    0.003346
  26 N :    0.291640
  27 H :    0.021854
  28 H :    0.010497
  29 H :    0.016273

  Mayer bond orders larger than 0.100000
B(  0-C ,  1-O ) :   1.7034 B(  0-C ,  2-N ) :   1.0797 B(  0-C ,  3-C ) :   0.1061
B(  0-C ,  6-H ) :  -0.2440 B(  0-C , 29-H ) :   0.9671 B(  2-N ,  3-C ) :   0.7706
B(  2-N ,  6-H ) :   1.2536 B(  2-N ,  7-H ) :   0.1232 B(  2-N ,  8-C ) :   0.1490
B(  3-C ,  4-C ) :   0.9520 B(  3-C ,  6-H ) :  -0.1417 B(  3-C ,  7-H ) :   0.7628
B(  3-C ,  8-C ) :   1.2422 B(  3-C , 15-H ) :   0.1564 B(  3-C , 16-H ) :   0.1654
B(  4-C ,  5-O ) :   1.5247 B(  4-C ,  7-H ) :   0.3003 B(  4-C , 16-H ) :   0.1099
B(  4-C , 26-N ) :   1.5166 B(  4-C , 27-H ) :   0.1244 B(  4-C , 28-H ) :   0.1001
B(  5-O , 26-N ) :   0.1060 B(  7-H ,  8-C ) :   0.1559 B(  8-C ,  9-C ) :   1.2469
B(  8-C , 15-H ) :   0.7904 B(  8-C , 16-H ) :   0.8474 B(  8-C , 17-H ) :   0.1773
B(  8-C , 18-H ) :   0.1077 B(  9-C , 10-C ) :   1.2245 B(  9-C , 15-H ) :   0.1556
B(  9-C , 16-H ) :   0.1048 B(  9-C , 17-H ) :   0.7239 B(  9-C , 18-H ) :   0.7142
B( 10-C , 11-N ) :   0.9153 B( 10-C , 13-C ) :   0.1221 B( 10-C , 17-H ) :   0.1630
B( 10-C , 18-H ) :   0.1850 B( 10-C , 19-H ) :   0.9860 B( 10-C , 20-H ) :   0.7572
B( 10-C , 21-H ) :  -0.1312 B( 11-N , 12-C ) :   1.0588 B( 11-N , 13-C ) :   0.3125
B( 11-N , 14-N ) :   0.1885 B( 11-N , 19-H ) :   0.1606 B( 11-N , 20-H ) :   0.1374
B( 11-N , 21-H ) :   1.3077 B( 12-C , 13-C ) :   1.7262 B( 12-C , 14-N ) :   0.9031
B( 12-C , 21-H ) :  -0.3761 B( 12-C , 22-H ) :   0.3241 B( 12-C , 23-H ) :   0.1921
B( 13-C , 14-N ) :   0.2424 B( 13-C , 22-H ) :   0.5394 B( 13-C , 23-H ) :   0.8726
B( 14-N , 23-H ) :   0.1246 B( 14-N , 24-H ) :   1.1920 B( 14-N , 25-H ) :   1.1291
B( 16-H , 26-N ) :  -0.1137 B( 17-H , 18-H ) :  -0.1006 B( 22-H , 25-H ) :   0.1057
B( 24-H , 25-H ) :  -0.1644 B( 26-N , 27-H ) :   1.1095 B( 26-N , 28-H ) :   1.0328
B( 27-H , 28-H ) :  -0.1465

Dispersion correction           -0.012621307
FINAL SINGLE POINT ENERGY      -683.345737929629

DIPOLE MOMENT
-------------
                                X             Y             Z
Electronic contribution:    -10.10204      -1.13990       2.90255
Nuclear contribution   :     11.36125      -0.89846       2.07036
                        -----------------------------------------
Total Dipole Moment    :      1.25921      -2.03837       4.97292
                        -----------------------------------------
Magnitude (a.u.)       :      5.52000
Magnitude (Debye)      :     14.03074

Rotational constants in cm-1:     0.036861     0.010572     0.009811
Rotational constants in MHz :  1105.074208   316.937395   294.138283

                             ****ORCA TERMINATED NORMALLY****
TOTAL RUN TIME: 0 days 0 hours 2 minutes 27 seconds 478 msec
