                         Program Version 5.0.0 -  RELEASE  -
|  1> !CAM-B3LYP RIJCOSX def2-SVPD def2/J TightSCF
|  2> *xyz -1 1
|  3> C          1.22302        2.46987       -3.75691
|  4> O          2.35381        1.71203       -3.93448
|  5> H          1.26998        3.33359       -4.38673
|  6> H          1.15671        2.77738       -2.73420
|  7> H          0.36099        1.88932       -4.01140
|  8> *
|  9>
| 10> %MaxCore 64000
| 11>
| 12> %pal nprocs 4
| 13> end
| 14>
| 15> %scf
| 16>   MaxIter 150
| 17> end
| 18>
| 19>
| 20>                          ****END OF INPUT****

CARTESIAN COORDINATES (ANGSTROEM)
---------------------------------
  C      1.223020    2.469870   -3.756910
  O      2.353810    1.712030   -3.934480
  H      1.269980    3.333590   -4.386730
  H      1.156710    2.777380   -2.734200
  H      0.360990    1.889320   -4.011400

 Total Charge           Charge          ....   -1
 Multiplicity           Mult            ....    1
 Number of Electrons    NEL             ....   18
 Basis Dimension        Dim             ....   67

ORBITAL ENERGIES
----------------

  NO   OCC          E(Eh)            E(eV)
   0   2.0000     -18.858236      -513.1587
   1   2.0000     -10.045445      -273.3504
   2   2.0000      -0.727606       -19.7992
   3   2.0000      -0.468544       -12.7497
   4   2.0000      -0.266137        -7.2419
   5   2.0000      -0.266116        -7.2414
   6   2.0000      -0.164233        -4.4690
   7   2.0000      -0.013098        -0.3564
   8   2.0000      -0.013086        -0.3561
   9   0.0000       0.225687         6.1413
  10   0.0000       0.300326         8.1723
  11   0.0000       0.300328         8.1723
  12   0.0000       0.309306         8.4166
  13   0.0000       0.344856         9.3840

MULLIKEN ATOMIC CHARGES
-----------------------
   0 C :    0.971732
   1 O :   -1.020581
   2 H :   -0.317248
   3 H :   -0.317086
   4 H :   -0.316818
Sum of atomic charges:   -1.0000000

LOEWDIN ATOMIC CHARGES
----------------------
   0 C :   -0.113208
   1 O :   -0.655081
   2 H :   -0.077246
   3 H :   -0.077260
   4 H :   -0.077204

  Mayer bond orders larger than 0.100000
B(  0-C ,  1-O ) :   1.1927 B(  0-C ,  2-H ) :   0.8763 B(  0-C ,  3-H ) :   0.8758
B(  0-C ,  4-H ) :   0.8763

FINAL SINGLE POINT ENERGY      -114.968529522635

DIPOLE MOMENT
-------------
                                X             Y             Z
Electronic contribution:      1.47694      -0.98978      -0.23176
Nuclear contribution   :     -2.37854       1.59406       0.37350
                        -----------------------------------------
Total Dipole Moment    :     -0.90160       0.60427       0.14174
                        -----------------------------------------
Magnitude (a.u.)       :      1.09459
Magnitude (Debye)      :      2.78223

Rotational constants in cm-1:     5.477743     0.935515     0.935515
Rotational constants in MHz : 164218.600605 28046.042741 28046.034116

                             ****ORCA TERMINATED NORMALLY****
TOTAL RUN TIME: 0 days 0 hours 0 minutes 4 seconds 484 msec
