                         Program Version 5.0.0 -  RELEASE  -
|  1> !CAM-B3LYP RIJCOSX def2-SVPD def2/J TightSCF
|  2> *xyz 1 1
|  3> C          1.63556       -1.67040       -5.29211
|  4> N          2.48451       -0.50741       -5.14039
|  5> C          3.45115       -0.14953       -5.95259
|  6> N          3.92267        1.08956       -5.85071
|  7> N          3.96616       -1.00618       -6.86788
|  8> H          3.52139       -1.90647       -6.99527
|  9> H          4.44482       -0.62347       -7.67035
| 10> H          2.25200        0.24080       -4.49879
| 11> H          3.46428        1.64078       -5.13639
| 12> H          4.83447        1.31375       -6.22465
| 13> H          2.06372       -2.33262       -6.01532
| 14> H          0.66479       -1.36293       -5.62068
| 15> H          1.55078       -2.17513       -4.35245
| 16> *
| 17>
| 18> %MaxCore 64000
| 19>
| 20> %pal nprocs 4
| 21> end
| 22>
| 23> %scf
| 24>   MaxIter 150
| 25> end
| 26>
| 27>
| 28>                          ****END OF INPUT****

CARTESIAN COORDINATES (ANGSTROEM)
---------------------------------
  C      1.635560   -1.670400   -5.292110
  N      2.484510   -0.507410   -5.140390
  C      3.451150   -0.149530   -5.952590
  N      3.922670    1.089560   -5.850710
  N      3.966160   -1.006180   -6.867880
  H      3.521390   -1.906470   -6.995270
  H      4.444820   -0.623470   -7.670350
  H      2.252000    0.240800   -4.498790
  H      3.464280    1.640780   -5.136390
  H      4.834470    1.313750   -6.224650
  H      2.063720   -2.332620   -6.015320
  H      0.664790   -1.362930   -5.620680
  H      1.550780   -2.175130   -4.352450

 Total Charge           Charge          ....    1
 Multiplicity           Mult            ....    1
 Number of Electrons    NEL             ....   40
 Basis Dimension        Dim             ....  164

ORBITAL ENERGIES
----------------

  NO   OCC          E(Eh)            E(eV)
   0   2.0000     -14.641652      -398.4196
   1   2.0000     -14.634153      -398.2155
   2   2.0000     -14.631111      -398.1328
   3   2.0000     -10.603572      -288.5379
   4   2.0000     -10.470764      -284.9240
   5   2.0000      -1.303189       -35.4616
   6   2.0000      -1.186853       -32.2959
   7   2.0000      -1.172731       -31.9116
   8   2.0000      -0.991254       -26.9734
   9   2.0000      -0.904391       -24.6097
  10   2.0000      -0.862124       -23.4596
  11   2.0000      -0.835210       -22.7272
  12   2.0000      -0.767253       -20.8780
  13   2.0000      -0.763218       -20.7682
  14   2.0000      -0.735864       -20.0239
  15   2.0000      -0.720737       -19.6122
  16   2.0000      -0.666356       -18.1325
  17   2.0000      -0.656851       -17.8738
  18   2.0000      -0.549259       -14.9461
  19   2.0000      -0.526768       -14.3341
  20   0.0000      -0.129294        -3.5183
  21   0.0000      -0.125892        -3.4257
  22   0.0000      -0.092817        -2.5257
  23   0.0000      -0.079402        -2.1606
  24   0.0000      -0.048381        -1.3165

MULLIKEN ATOMIC CHARGES
-----------------------
   0 C :    1.475024
   1 N :   -0.525806
   2 C :    1.039375
   3 N :    0.114042
   4 N :    0.140340
   5 H :   -0.090086
   6 H :   -0.103012
   7 H :   -0.257463
   8 H :   -0.003044
   9 H :   -0.111534
  10 H :   -0.366234
  11 H :   -0.154711
  12 H :   -0.156890
Sum of atomic charges:    1.0000000

LOEWDIN ATOMIC CHARGES
----------------------
   0 C :    0.275542
   1 N :    0.020029
   2 C :   -0.036999
   3 N :    0.268109
   4 N :    0.281151
   5 H :    0.003876
   6 H :    0.037068
   7 H :    0.057504
   8 H :    0.033240
   9 H :    0.045207
  10 H :   -0.016598
  11 H :    0.015611
  12 H :    0.016261

  Mayer bond orders larger than 0.100000
B(  0-C ,  1-N ) :   0.9706 B(  0-C ,  7-H ) :  -0.1873 B(  0-C , 10-H ) :   0.7467
B(  0-C , 11-H ) :   0.7106 B(  0-C , 12-H ) :   0.6841 B(  1-N ,  2-C ) :   1.0724
B(  1-N ,  3-N ) :   0.2518 B(  1-N ,  4-N ) :   0.1470 B(  1-N ,  7-H ) :   1.3348
B(  1-N , 10-H ) :   0.2433 B(  1-N , 11-H ) :   0.1891 B(  1-N , 12-H ) :   0.2220
B(  2-C ,  3-N ) :   1.0102 B(  2-C ,  4-N ) :   1.0601 B(  2-C ,  6-H ) :  -0.1248
B(  2-C ,  7-H ) :  -0.2518 B(  2-C ,  9-H ) :  -0.1062 B(  3-N ,  4-N ) :   0.1400
B(  3-N ,  8-H ) :   1.0763 B(  3-N ,  9-H ) :   1.2088 B(  4-N ,  5-H ) :   1.0541
B(  4-N ,  6-H ) :   1.1972 B(  5-H ,  6-H ) :  -0.1602 B(  5-H , 10-H ) :   0.1057
B(  8-H ,  9-H ) :  -0.1468

FINAL SINGLE POINT ENERGY      -244.794065485879

DIPOLE MOMENT
-------------
                                X             Y             Z
Electronic contribution:      1.95979       1.91553      -0.26143
Nuclear contribution   :     -1.83770      -1.53167       0.12165
                        -----------------------------------------
Total Dipole Moment    :      0.12209       0.38386      -0.13977
                        -----------------------------------------
Magnitude (a.u.)       :      0.42637
Magnitude (Debye)      :      1.08374

Rotational constants in cm-1:     0.307545     0.135665     0.096412
Rotational constants in MHz :  9219.967860  4067.145400  2890.348280

                             ****ORCA TERMINATED NORMALLY****
TOTAL RUN TIME: 0 days 0 hours 0 minutes 23 seconds 14 msec
