                         Program Version 5.0.0 -  RELEASE  -
|  1> !CAM-B3LYP RIJCOSX def2-SVPD def2/J TightSCF xyzfile
|  2>
|  3> *xyzfile 0 1 B.xyz
|  4>
|  5> %MaxCore 64000
|  6>
|  7> %pal nprocs 4
|  8> end
|  9>
| 10> %scf
| 11>   MaxIter 150
| 12> end
| 13>
| 14>
| 15>                          ****END OF INPUT****

CARTESIAN COORDINATES (ANGSTROEM)
---------------------------------
  C      1.635557   -1.670396   -5.292109
  C      0.338484   -1.500907   -4.505398
  N      2.484511   -0.507410   -5.140392
  C     -0.684873   -0.528026   -5.099889
  C     -0.290406    0.951335   -5.153423
  H      0.607991    1.070692   -5.764412
  C     -0.055168    1.619420   -3.788577
  H     -1.080912    1.483775   -5.689436
  H      0.045006    0.862302   -3.003015
  H     -0.922936    2.230329   -3.517028
  C      1.223022    2.469865   -3.756911
  H      1.114701    3.258074   -4.532999
  H      1.237732    3.011242   -2.792157
  O      2.353815    1.712032   -3.934477
  H      1.398337   -1.829239   -6.352591
  H      2.155864   -2.565398   -4.932091
  C      3.451149   -0.149530   -5.952589
  N      3.922667    1.089559   -5.850711
  N      3.966162   -1.006183   -6.867880
  H      3.521391   -1.906467   -6.995270
  H      4.444824   -0.623472   -7.670348
  H      2.251995    0.240804   -4.498792
  H      3.464277    1.640782   -5.136392
  H      4.834470    1.313745   -6.224653
  H     -0.937999   -0.869056   -6.110838
  H     -1.604638   -0.622496   -4.513132
  H      0.594887   -1.211578   -3.482312
  H     -0.126530   -2.487656   -4.434176

 Total Charge           Charge          ....    0
 Multiplicity           Mult            ....    1
 Number of Electrons    NEL             ....   88
 Basis Dimension        Dim             ....  359

ORBITAL ENERGIES
----------------

  NO   OCC          E(Eh)            E(eV)
   0   2.0000     -19.078980      -519.1654
   1   2.0000     -14.465218      -393.6186
   2   2.0000     -14.420509      -392.4020
   3   2.0000     -14.419412      -392.3721
   4   2.0000     -10.409137      -283.2470
   5   2.0000     -10.311005      -280.5767
   6   2.0000     -10.261781      -279.2373
   7   2.0000     -10.248661      -278.8802
   8   2.0000     -10.236670      -278.5539
   9   2.0000     -10.229991      -278.3722
  10   2.0000     -10.211609      -277.8720
  11   2.0000      -1.109601       -30.1938
  12   2.0000      -1.002714       -27.2852
  13   2.0000      -0.982285       -26.7293
  14   2.0000      -0.952202       -25.9107
  15   2.0000      -0.877624       -23.8814
  16   2.0000      -0.822587       -22.3837
  17   2.0000      -0.765407       -20.8278
  18   2.0000      -0.726983       -19.7822
  19   2.0000      -0.700716       -19.0675
  20   2.0000      -0.673151       -18.3174
  21   2.0000      -0.651283       -17.7223
  22   2.0000      -0.635156       -17.2835
  23   2.0000      -0.598563       -16.2877
  24   2.0000      -0.581229       -15.8160
  25   2.0000      -0.569485       -15.4965
  26   2.0000      -0.561014       -15.2660
  27   2.0000      -0.549335       -14.9482
  28   2.0000      -0.511638       -13.9224
  29   2.0000      -0.496682       -13.5154
  30   2.0000      -0.486320       -13.2334
  31   2.0000      -0.480501       -13.0751
  32   2.0000      -0.453050       -12.3281
  33   2.0000      -0.433452       -11.7948
  34   2.0000      -0.425654       -11.5826
  35   2.0000      -0.404111       -10.9964
  36   2.0000      -0.385758       -10.4970
  37   2.0000      -0.377689       -10.2774
  38   2.0000      -0.369911       -10.0658
  39   2.0000      -0.361344        -9.8327
  40   2.0000      -0.355222        -9.6661
  41   2.0000      -0.326174        -8.8757
  42   2.0000      -0.241569        -6.5734
  43   2.0000      -0.234845        -6.3905
  44   0.0000       0.022861         0.6221
  45   0.0000       0.051285         1.3955
  46   0.0000       0.051768         1.4087
  47   0.0000       0.067663         1.8412
  48   0.0000       0.077148         2.0993

MULLIKEN ATOMIC CHARGES
-----------------------
   0 C :    0.819203
   1 C :    0.289445
   2 N :    0.175720
   3 C :    0.344827
   4 C :    0.326624
   5 H :   -0.092498
   6 C :    0.185593
   7 H :   -0.339291
   8 H :   -0.110098
   9 H :   -0.301115
  10 C :    0.972586
  11 H :   -0.198276
  12 H :   -0.234648
  13 O :   -1.067532
  14 H :   -0.051033
  15 H :   -0.292694
  16 C :    0.905678
  17 N :    0.455276
  18 N :    0.123296
  19 H :   -0.086726
  20 H :   -0.145662
  21 H :   -0.686142
  22 H :   -0.203805
  23 H :   -0.272692
  24 H :    0.006940
  25 H :   -0.200952
  26 H :   -0.051680
  27 H :   -0.270345
Sum of atomic charges:    0.0000000

LOEWDIN ATOMIC CHARGES
----------------------
   0 C :    0.055482
   1 C :   -0.016605
   2 N :    0.070556
   3 C :   -0.030387
   4 C :   -0.026926
   5 H :    0.003882
   6 C :   -0.022354
   7 H :    0.015291
   8 H :    0.007365
   9 H :    0.013361
  10 C :   -0.068568
  11 H :    0.012373
  12 H :    0.007178
  13 O :   -0.437239
  14 H :    0.022664
  15 H :    0.024481
  16 C :   -0.045178
  17 N :    0.272930
  18 N :    0.246866
  19 H :   -0.009158
  20 H :    0.009444
  21 H :   -0.102892
  22 H :   -0.102065
  23 H :    0.015670
  24 H :    0.017354
  25 H :    0.022720
  26 H :    0.021853
  27 H :    0.021902

  Mayer bond orders larger than 0.100000
B(  0-C ,  1-C ) :   1.1924 B(  0-C ,  2-N ) :   0.9342 B(  0-C , 14-H ) :   0.7071
B(  0-C , 15-H ) :   0.8162 B(  0-C , 21-H ) :  -0.2127 B(  0-C , 26-H ) :   0.1414
B(  0-C , 27-H ) :   0.2255 B(  1-C ,  2-N ) :   0.1188 B(  1-C ,  3-C ) :   1.2068
B(  1-C , 24-H ) :   0.1693 B(  1-C , 25-H ) :   0.2101 B(  1-C , 26-H ) :   0.7464
B(  1-C , 27-H ) :   0.7183 B(  2-N , 14-H ) :   0.3195 B(  2-N , 15-H ) :   0.1523
B(  2-N , 16-C ) :   1.2956 B(  2-N , 17-N ) :   0.1250 B(  2-N , 18-N ) :   0.1187
B(  2-N , 21-H ) :   0.9731 B(  3-C ,  4-C ) :   1.2542 B(  3-C ,  5-H ) :   0.1683
B(  3-C ,  7-H ) :   0.1375 B(  3-C , 24-H ) :   0.6357 B(  3-C , 25-H ) :   0.7851
B(  3-C , 26-H ) :   0.1688 B(  3-C , 27-H ) :   0.1504 B(  4-C ,  5-H ) :   0.7734
B(  4-C ,  6-C ) :   1.1804 B(  4-C ,  7-H ) :   0.7113 B(  4-C ,  8-H ) :   0.1327
B(  4-C ,  9-H ) :   0.1896 B(  4-C , 10-C ) :   0.1005 B(  4-C , 24-H ) :   0.2446
B(  4-C , 25-H ) :   0.1232 B(  5-H ,  6-C ) :   0.1443 B(  5-H , 13-O ) :   0.1069
B(  6-C ,  7-H ) :   0.1053 B(  6-C ,  8-H ) :   0.8176 B(  6-C ,  9-H ) :   0.8886
B(  6-C , 10-C ) :   1.0581 B(  6-C , 11-H ) :   0.1058 B(  6-C , 12-H ) :   0.2151
B(  6-C , 13-O ) :   0.1150 B(  8-H ,  9-H ) :  -0.1132 B( 10-C , 11-H ) :   0.7966
B( 10-C , 12-H ) :   0.7699 B( 10-C , 13-O ) :   0.9957 B( 11-H , 13-O ) :   0.2499
B( 13-O , 21-H ) :   0.3428 B( 13-O , 22-H ) :   0.3173 B( 14-H , 25-H ) :  -0.1021
B( 16-C , 17-N ) :   0.9654 B( 16-C , 18-N ) :   0.9415 B( 16-C , 19-H ) :  -0.1028
B( 16-C , 20-H ) :  -0.1018 B( 16-C , 21-H ) :  -0.4672 B( 16-C , 22-H ) :  -0.1254
B( 16-C , 23-H ) :  -0.1345 B( 17-N , 18-N ) :   0.1191 B( 17-N , 22-H ) :   1.0431
B( 17-N , 23-H ) :   1.2684 B( 18-N , 19-H ) :   1.0661 B( 18-N , 20-H ) :   1.2314
B( 19-H , 20-H ) :  -0.1592 B( 22-H , 23-H ) :  -0.1948 B( 24-H , 25-H ) :  -0.1150

FINAL SINGLE POINT ENERGY      -515.851034878469

DIPOLE MOMENT
-------------
                                X             Y             Z
Electronic contribution:      8.33227      -0.93349      -2.26614
Nuclear contribution   :     -7.46499      -1.05836       0.01518
                        -----------------------------------------
Total Dipole Moment    :      0.86728      -1.99185      -2.25096
                        -----------------------------------------
Magnitude (a.u.)       :      3.12833
Magnitude (Debye)      :      7.95159

Rotational constants in cm-1:     0.044680     0.028958     0.019773
Rotational constants in MHz :  1339.486245   868.136755   592.791310

                             ****ORCA TERMINATED NORMALLY****
TOTAL RUN TIME: 0 days 0 hours 2 minutes 56 seconds 118 msec
