                         Program Version 5.0.0 -  RELEASE  -
|  1> !CAM-B3LYP RIJCOSX def2-SVPD def2/J TightSCF
|  2> *xyz 0 1
|  3> C          1.22302        2.46987       -3.75691
|  4> F          2.35381        1.71203       -3.93448
|  5> H          1.26998        3.33359       -4.38673
|  6> H          1.15671        2.77738       -2.73420
|  7> H          0.36099        1.88932       -4.01140
|  8> *
|  9>
| 10> %MaxCore 64000
| 11>
| 12> %pal nprocs 4
| 13> end
| 14>
| 15> %scf
| 16>   MaxIter 150
| 17> end
| 18>
| 19>
| 20>                          ****END OF INPUT****

CARTESIAN COORDINATES (ANGSTROEM)
---------------------------------
  C      1.223020    2.469870   -3.756910
  F      2.353810    1.712030   -3.934480
  H      1.269980    3.333590   -4.386730
  H      1.156710    2.777380   -2.734200
  H      0.360990    1.889320   -4.011400

 Total Charge           Charge          ....    0
 Multiplicity           Mult            ....    1
 Number of Electrons    NEL             ....   18
 Basis Dimension        Dim             ....   67

ORBITAL ENERGIES
----------------

  NO   OCC          E(Eh)            E(eV)
   0   2.0000     -24.758608      -673.7160
   1   2.0000     -10.332458      -281.1605
   2   2.0000      -1.263513       -34.3819
   3   2.0000      -0.783161       -21.3109
   4   2.0000      -0.570851       -15.5337
   5   2.0000      -0.566295       -15.4097
   6   2.0000      -0.566276       -15.4091
   7   2.0000      -0.423314       -11.5190
   8   2.0000      -0.423291       -11.5183
   9   0.0000       0.053329         1.4512
  10   0.0000       0.097716         2.6590
  11   0.0000       0.132686         3.6106
  12   0.0000       0.132686         3.6106
  13   0.0000       0.174384         4.7452

MULLIKEN ATOMIC CHARGES
-----------------------
   0 C :    1.047200
   1 F :   -0.477633
   2 H :   -0.190258
   3 H :   -0.189642
   4 H :   -0.189668
Sum of atomic charges:   -0.0000000

LOEWDIN ATOMIC CHARGES
----------------------
   0 C :    0.267393
   1 F :   -0.251990
   2 H :   -0.005155
   3 H :   -0.005142
   4 H :   -0.005106

  Mayer bond orders larger than 0.100000
B(  0-C ,  1-F ) :   0.8522 B(  0-C ,  2-H ) :   0.9105 B(  0-C ,  3-H ) :   0.9099
B(  0-C ,  4-H ) :   0.9105

FINAL SINGLE POINT ENERGY      -139.595659451781

DIPOLE MOMENT
-------------
                                X             Y             Z
Electronic contribution:      2.39446      -1.60461      -0.37598
Nuclear contribution   :     -3.01708       2.02200       0.47377
                        -----------------------------------------
Total Dipole Moment    :     -0.62262       0.41739       0.09779
                        -----------------------------------------
Magnitude (a.u.)       :      0.75594
Magnitude (Debye)      :      1.92143

Rotational constants in cm-1:     5.477743     0.870792     0.870792
Rotational constants in MHz : 164218.600605 26105.683059 26105.675587

                             ****ORCA TERMINATED NORMALLY****
TOTAL RUN TIME: 0 days 0 hours 0 minutes 4 seconds 139 msec
