                         Program Version 5.0.0 -  RELEASE  -
|  1> !CAM-B3LYP RIJCOSX def2-SVPD def2/J TightSCF
|  2> *xyz 0 1
|  3> C          1.63556       -1.67040       -5.29211
|  4> C          2.48451       -0.50741       -5.14039
|  5> C          3.45115       -0.14953       -5.95259
|  6> N          3.92267        1.08956       -5.85071
|  7> N          3.96616       -1.00618       -6.86788
|  8> H          3.52139       -1.90647       -6.99527
|  9> H          4.44482       -0.62347       -7.67035
| 10> H          2.25200        0.24080       -4.49879
| 11> H          3.46428        1.64078       -5.13639
| 12> H          4.83447        1.31375       -6.22465
| 13> H          2.06372       -2.33262       -6.01532
| 14> H          0.66479       -1.36293       -5.62068
| 15> H          1.55078       -2.17513       -4.35245
| 16> *
| 17>
| 18> %MaxCore 64000
| 19>
| 20> %pal nprocs 4
| 21> end
| 22>
| 23> %scf
| 24>   MaxIter 150
| 25> end
| 26>
| 27>
| 28>                          ****END OF INPUT****

CARTESIAN COORDINATES (ANGSTROEM)
---------------------------------
  C      1.635560   -1.670400   -5.292110
  C      2.484510   -0.507410   -5.140390
  C      3.451150   -0.149530   -5.952590
  N      3.922670    1.089560   -5.850710
  N      3.966160   -1.006180   -6.867880
  H      3.521390   -1.906470   -6.995270
  H      4.444820   -0.623470   -7.670350
  H      2.252000    0.240800   -4.498790
  H      3.464280    1.640780   -5.136390
  H      4.834470    1.313750   -6.224650
  H      2.063720   -2.332620   -6.015320
  H      0.664790   -1.362930   -5.620680
  H      1.550780   -2.175130   -4.352450

 Total Charge           Charge          ....    0
 Multiplicity           Mult            ....    1
 Number of Electrons    NEL             ....   40
 Basis Dimension        Dim             ....  164

ORBITAL ENERGIES
----------------

  NO   OCC          E(Eh)            E(eV)
   0   2.0000     -14.402590      -391.9144
   1   2.0000     -14.399951      -391.8426
   2   2.0000     -10.298521      -280.2370
   3   2.0000     -10.227304      -278.2991
   4   2.0000     -10.183437      -277.1054
   5   2.0000      -1.032247       -28.0889
   6   2.0000      -0.941872       -25.6296
   7   2.0000      -0.832613       -22.6565
   8   2.0000      -0.732435       -19.9306
   9   2.0000      -0.656126       -17.8541
  10   2.0000      -0.610585       -16.6149
  11   2.0000      -0.580872       -15.8063
  12   2.0000      -0.536367       -14.5953
  13   2.0000      -0.495814       -13.4918
  14   2.0000      -0.480247       -13.0682
  15   2.0000      -0.450556       -12.2603
  16   2.0000      -0.428891       -11.6707
  17   2.0000      -0.413608       -11.2548
  18   2.0000      -0.329582        -8.9684
  19   2.0000      -0.219950        -5.9852
  20   0.0000       0.049905         1.3580
  21   0.0000       0.074706         2.0329
  22   0.0000       0.084785         2.3071
  23   0.0000       0.111974         3.0470
  24   0.0000       0.122011         3.3201

MULLIKEN ATOMIC CHARGES
-----------------------
   0 C :    1.174986
   1 C :   -0.595281
   2 C :    0.566977
   3 N :    0.146301
   4 N :    0.141173
   5 H :   -0.087382
   6 H :   -0.197691
   7 H :   -0.400023
   8 H :    0.015139
   9 H :   -0.217838
  10 H :   -0.437200
  11 H :   -0.091532
  12 H :   -0.017629
Sum of atomic charges:    0.0000000

LOEWDIN ATOMIC CHARGES
----------------------
   0 C :    0.110081
   1 C :   -0.067357
   2 C :   -0.232648
   3 N :    0.176262
   4 N :    0.198188
   5 H :   -0.028606
   6 H :   -0.014249
   7 H :   -0.052325
   8 H :   -0.001223
   9 H :   -0.008712
  10 H :   -0.045350
  11 H :   -0.016233
  12 H :   -0.017828

  Mayer bond orders larger than 0.100000
B(  0-C ,  1-C ) :   1.1205 B(  0-C ,  7-H ) :   0.1687 B(  0-C , 10-H ) :   0.6886
B(  0-C , 11-H ) :   0.7302 B(  0-C , 12-H ) :   0.5184 B(  1-C ,  2-C ) :   1.6759
B(  1-C ,  3-N ) :   0.3262 B(  1-C ,  4-N ) :   0.1713 B(  1-C ,  7-H ) :   0.9090
B(  1-C , 10-H ) :   0.4215 B(  1-C , 11-H ) :   0.1367 B(  1-C , 12-H ) :   0.3252
B(  2-C ,  3-N ) :   1.0225 B(  2-C ,  4-N ) :   1.1041 B(  2-C ,  7-H ) :   0.2926
B(  3-N ,  8-H ) :   1.0605 B(  3-N ,  9-H ) :   1.1968 B(  4-N ,  5-H ) :   1.0434
B(  4-N ,  6-H ) :   1.1653 B(  5-H ,  6-H ) :  -0.1346 B(  8-H ,  9-H ) :  -0.1447
B( 10-H , 11-H ) :   0.1167 B( 10-H , 12-H ) :   0.2419

FINAL SINGLE POINT ENERGY      -228.329772926437

DIPOLE MOMENT
-------------
                                X             Y             Z
Electronic contribution:      2.39330       1.85933      -0.76931
Nuclear contribution   :     -1.96139      -1.54412       0.26148
                        -----------------------------------------
Total Dipole Moment    :      0.43192       0.31521      -0.50783
                        -----------------------------------------
Magnitude (a.u.)       :      0.73743
Magnitude (Debye)      :      1.87439

Rotational constants in cm-1:     0.312277     0.136708     0.097371
Rotational constants in MHz :  9361.815989  4098.393303  2919.105491

                             ****ORCA TERMINATED NORMALLY****
TOTAL RUN TIME: 0 days 0 hours 0 minutes 23 seconds 330 msec
