                         Program Version 5.0.0 -  RELEASE  -
|  1> !CAM-B3LYP RIJCOSX def2-SVPD def2/J TightSCF
|  2> *xyz 0 1
|  3> C          1.63556       -1.67040       -5.29211
|  4> N          2.48451       -0.50741       -5.14039
|  5> C          3.45115       -0.14953       -5.95259
|  6> C          3.92267        1.08956       -5.85071
|  7> N          3.96616       -1.00618       -6.86788
|  8> H          3.52139       -1.90647       -6.99527
|  9> H          4.44482       -0.62347       -7.67035
| 10> H          2.25200        0.24080       -4.49879
| 11> H          3.46428        1.64078       -5.13639
| 12> H          4.83447        1.31375       -6.22465
| 13> H          2.06372       -2.33262       -6.01532
| 14> H          0.66479       -1.36293       -5.62068
| 15> H          1.55078       -2.17513       -4.35245
| 16> *
| 17>
| 18> %MaxCore 64000
| 19>
| 20> %pal nprocs 4
| 21> end
| 22>
| 23> %scf
| 24>   MaxIter 150
| 25> end
| 26>
| 27>
| 28>                          ****END OF INPUT****

CARTESIAN COORDINATES (ANGSTROEM)
---------------------------------
  C      1.635560   -1.670400   -5.292110
  N      2.484510   -0.507410   -5.140390
  C      3.451150   -0.149530   -5.952590
  C      3.922670    1.089560   -5.850710
  N      3.966160   -1.006180   -6.867880
  H      3.521390   -1.906470   -6.995270
  H      4.444820   -0.623470   -7.670350
  H      2.252000    0.240800   -4.498790
  H      3.464280    1.640780   -5.136390
  H      4.834470    1.313750   -6.224650
  H      2.063720   -2.332620   -6.015320
  H      0.664790   -1.362930   -5.620680
  H      1.550780   -2.175130   -4.352450

 Total Charge           Charge          ....    0
 Multiplicity           Mult            ....    1
 Number of Electrons    NEL             ....   40
 Basis Dimension        Dim             ....  164

ORBITAL ENERGIES
----------------

  NO   OCC          E(Eh)            E(eV)
   0   2.0000     -14.407074      -392.0364
   1   2.0000     -14.405305      -391.9883
   2   2.0000     -10.305851      -280.4365
   3   2.0000     -10.295039      -280.1423
   4   2.0000     -10.168184      -276.6903
   5   2.0000      -1.047292       -28.4983
   6   2.0000      -0.956115       -26.0172
   7   2.0000      -0.827500       -22.5174
   8   2.0000      -0.740457       -20.1489
   9   2.0000      -0.673146       -18.3172
  10   2.0000      -0.610706       -16.6182
  11   2.0000      -0.564682       -15.3658
  12   2.0000      -0.547105       -14.8875
  13   2.0000      -0.527864       -14.3639
  14   2.0000      -0.478439       -13.0190
  15   2.0000      -0.460924       -12.5424
  16   2.0000      -0.449960       -12.2440
  17   2.0000      -0.431886       -11.7522
  18   2.0000      -0.322408        -8.7732
  19   2.0000      -0.221249        -6.0205
  20   0.0000       0.042428         1.1545
  21   0.0000       0.077241         2.1018
  22   0.0000       0.079122         2.1530
  23   0.0000       0.114545         3.1169
  24   0.0000       0.119337         3.2473

MULLIKEN ATOMIC CHARGES
-----------------------
   0 C :    1.503054
   1 N :   -0.453250
   2 C :    0.444139
   3 C :    0.621213
   4 N :    0.197729
   5 H :   -0.220351
   6 H :   -0.110629
   7 H :   -0.287280
   8 H :   -0.310326
   9 H :   -0.534800
  10 H :   -0.414205
  11 H :   -0.211420
  12 H :   -0.223875
Sum of atomic charges:    0.0000000

LOEWDIN ATOMIC CHARGES
----------------------
   0 C :    0.223177
   1 N :   -0.044192
   2 C :   -0.237012
   3 C :    0.136584
   4 N :    0.201322
   5 H :   -0.041260
   6 H :    0.003960
   7 H :    0.030337
   8 H :   -0.107441
   9 H :   -0.100910
  10 H :   -0.035716
  11 H :   -0.015074
  12 H :   -0.013776

  Mayer bond orders larger than 0.100000
B(  0-C ,  1-N ) :   0.9370 B(  0-C ,  7-H ) :  -0.1897 B(  0-C , 10-H ) :   0.7336
B(  0-C , 11-H ) :   0.7125 B(  0-C , 12-H ) :   0.6723 B(  1-N ,  2-C ) :   1.1014
B(  1-N ,  3-C ) :   0.2513 B(  1-N ,  7-H ) :   1.2862 B(  1-N , 10-H ) :   0.2686
B(  1-N , 11-H ) :   0.1730 B(  1-N , 12-H ) :   0.2413 B(  2-C ,  3-C ) :   1.6477
B(  2-C ,  4-N ) :   1.0289 B(  2-C ,  6-H ) :  -0.1061 B(  2-C ,  7-H ) :  -0.1912
B(  2-C ,  8-H ) :   0.2388 B(  2-C ,  9-H ) :   0.2537 B(  3-C ,  4-N ) :   0.2261
B(  3-C ,  8-H ) :   0.7645 B(  3-C ,  9-H ) :   0.6184 B(  4-N ,  5-H ) :   1.0496
B(  4-N ,  6-H ) :   1.1707 B(  5-H ,  6-H ) :  -0.1549 B(  5-H , 10-H ) :   0.1082

FINAL SINGLE POINT ENERGY      -228.315772041853

DIPOLE MOMENT
-------------
                                X             Y             Z
Electronic contribution:      0.99856       0.28873      -0.22105
Nuclear contribution   :     -1.67010      -1.22066       0.11760
                        -----------------------------------------
Total Dipole Moment    :     -0.67154      -0.93193      -0.10344
                        -----------------------------------------
Magnitude (a.u.)       :      1.15333
Magnitude (Debye)      :      2.93153

Rotational constants in cm-1:     0.314526     0.141398     0.099973
Rotational constants in MHz :  9429.255015  4239.015262  2997.111162

                             ****ORCA TERMINATED NORMALLY****
TOTAL RUN TIME: 0 days 0 hours 0 minutes 22 seconds 658 msec
