                         Program Version 5.0.0 -  RELEASE  -
|  1> !CAM-B3LYP RIJCOSX def2-SVPD def2/J TightSCF
|  2> *xyz 0 1
|  3> C          1.63556       -1.67040       -5.29211
|  4> N          2.48451       -0.50741       -5.14039
|  5> C          3.45115       -0.14953       -5.95259
|  6> N          3.92267        1.08956       -5.85071
|  7> C          3.96616       -1.00618       -6.86788
|  8> H          3.52139       -1.90647       -6.99527
|  9> H          4.44482       -0.62347       -7.67035
| 10> H          2.25200        0.24080       -4.49879
| 11> H          3.46428        1.64078       -5.13639
| 12> H          4.83447        1.31375       -6.22465
| 13> H          2.06372       -2.33262       -6.01532
| 14> H          0.66479       -1.36293       -5.62068
| 15> H          1.55078       -2.17513       -4.35245
| 16> *
| 17>
| 18> %MaxCore 64000
| 19>
| 20> %pal nprocs 4
| 21> end
| 22>
| 23> %scf
| 24>   MaxIter 150
| 25> end
| 26>
| 27>
| 28>                          ****END OF INPUT****

CARTESIAN COORDINATES (ANGSTROEM)
---------------------------------
  C      1.635560   -1.670400   -5.292110
  N      2.484510   -0.507410   -5.140390
  C      3.451150   -0.149530   -5.952590
  N      3.922670    1.089560   -5.850710
  C      3.966160   -1.006180   -6.867880
  H      3.521390   -1.906470   -6.995270
  H      4.444820   -0.623470   -7.670350
  H      2.252000    0.240800   -4.498790
  H      3.464280    1.640780   -5.136390
  H      4.834470    1.313750   -6.224650
  H      2.063720   -2.332620   -6.015320
  H      0.664790   -1.362930   -5.620680
  H      1.550780   -2.175130   -4.352450

 Total Charge           Charge          ....    0
 Multiplicity           Mult            ....    1
 Number of Electrons    NEL             ....   40
 Basis Dimension        Dim             ....  164

ORBITAL ENERGIES
----------------

  NO   OCC          E(Eh)            E(eV)
   0   2.0000     -14.412154      -392.1746
   1   2.0000     -14.408231      -392.0679
   2   2.0000     -10.308311      -280.5034
   3   2.0000     -10.286048      -279.8976
   4   2.0000     -10.168669      -276.7036
   5   2.0000      -1.055475       -28.7209
   6   2.0000      -0.961029       -26.1509
   7   2.0000      -0.794792       -21.6274
   8   2.0000      -0.776556       -21.1312
   9   2.0000      -0.638832       -17.3835
  10   2.0000      -0.618009       -16.8169
  11   2.0000      -0.601832       -16.3767
  12   2.0000      -0.530432       -14.4338
  13   2.0000      -0.522290       -14.2122
  14   2.0000      -0.486590       -13.2408
  15   2.0000      -0.453673       -12.3451
  16   2.0000      -0.441118       -12.0034
  17   2.0000      -0.428633       -11.6637
  18   2.0000      -0.319767        -8.7013
  19   2.0000      -0.222413        -6.0522
  20   0.0000       0.043839         1.1929
  21   0.0000       0.068353         1.8600
  22   0.0000       0.084486         2.2990
  23   0.0000       0.112522         3.0619
  24   0.0000       0.118955         3.2369

MULLIKEN ATOMIC CHARGES
-----------------------
   0 C :    1.520551
   1 N :   -0.406444
   2 C :    0.417211
   3 N :    0.196072
   4 C :    0.563217
   5 H :   -0.422288
   6 H :   -0.390226
   7 H :   -0.394618
   8 H :   -0.160723
   9 H :   -0.115210
  10 H :   -0.401846
  11 H :   -0.209440
  12 H :   -0.196254
Sum of atomic charges:    0.0000000

LOEWDIN ATOMIC CHARGES
----------------------
   0 C :    0.231846
   1 N :   -0.047254
   2 C :   -0.243411
   3 N :    0.189924
   4 C :    0.154453
   5 H :   -0.135108
   6 H :   -0.108276
   7 H :    0.016877
   8 H :   -0.014579
   9 H :    0.011810
  10 H :   -0.031623
  11 H :   -0.012214
  12 H :   -0.012446

  Mayer bond orders larger than 0.100000
B(  0-C ,  1-N ) :   0.9427 B(  0-C ,  7-H ) :  -0.1709 B(  0-C , 10-H ) :   0.7261
B(  0-C , 11-H ) :   0.6791 B(  0-C , 12-H ) :   0.6476 B(  1-N ,  2-C ) :   1.0945
B(  1-N ,  3-N ) :   0.1565 B(  1-N ,  4-C ) :   0.2720 B(  1-N ,  7-H ) :   1.3045
B(  1-N , 10-H ) :   0.2348 B(  1-N , 11-H ) :   0.2054 B(  1-N , 12-H ) :   0.2400
B(  2-C ,  3-N ) :   0.9801 B(  2-C ,  4-C ) :   1.8175 B(  2-C ,  5-H ) :   0.2432
B(  2-C ,  6-H ) :   0.2496 B(  2-C ,  7-H ) :  -0.2199 B(  3-N ,  4-C ) :   0.2602
B(  3-N ,  8-H ) :   1.0883 B(  3-N ,  9-H ) :   1.1916 B(  4-C ,  5-H ) :   0.6385
B(  4-C ,  6-H ) :   0.6808 B(  5-H ,  6-H ) :   0.2652 B(  5-H , 10-H ) :   0.1628
B(  8-H ,  9-H ) :  -0.1375

FINAL SINGLE POINT ENERGY      -228.314983706442

DIPOLE MOMENT
-------------
                                X             Y             Z
Electronic contribution:      1.04501       2.33731       0.86043
Nuclear contribution   :     -1.66129      -1.64514      -0.08842
                        -----------------------------------------
Total Dipole Moment    :     -0.61628       0.69216       0.77201
                        -----------------------------------------
Magnitude (a.u.)       :      1.20619
Magnitude (Debye)      :      3.06589

Rotational constants in cm-1:     0.330436     0.136339     0.098902
Rotational constants in MHz :  9906.231858  4087.333233  2964.994979

                             ****ORCA TERMINATED NORMALLY****
TOTAL RUN TIME: 0 days 0 hours 0 minutes 23 seconds 391 msec
