                         Program Version 5.0.0 -  RELEASE  -
|  1> !DLPNO-CCSD(T) aug-cc-pVTZ aug-cc-pVTZ/C TightSCF TightPNO RIJCOSX def2/J
|  2> *xyz -1 1
|  3> C          3.34350        3.35457       -3.59200
|  4> C          2.95263        1.86308       -3.57485
|  5> C          4.12921        0.89839       -3.41895
|  6> H          3.73369       -0.10060       -3.23763
|  7> H          4.71910        0.86256       -4.33901
|  8> C          5.01734        1.31521       -2.22130
|  9> H          2.27894        1.73525       -2.72550
| 10> H          2.37747        1.62579       -4.47587
| 11> O          4.73706        0.85411       -1.12283
| 12> O          5.92815        2.16811       -2.49136
| 13> H          4.00801        3.53975       -4.40994
| 14> H          3.83025        3.60631       -2.67298
| 15> H          2.46347        3.95263       -3.70497
| 16> *
| 17> %MaxCore 64000
| 18>
| 19> %pal nprocs 8
| 20> end
| 21>
| 22> %scf
| 23>   MaxIter 150
| 24> end
| 25>
| 26>
| 27>                          ****END OF INPUT****

CARTESIAN COORDINATES (ANGSTROEM)
---------------------------------
  C      3.343500    3.354570   -3.592000
  C      2.952630    1.863080   -3.574850
  C      4.129210    0.898390   -3.418950
  H      3.733690   -0.100600   -3.237630
  H      4.719100    0.862560   -4.339010
  C      5.017340    1.315210   -2.221300
  H      2.278940    1.735250   -2.725500
  H      2.377470    1.625790   -4.475870
  O      4.737060    0.854110   -1.122830
  O      5.928150    2.168110   -2.491360
  H      4.008010    3.539750   -4.409940
  H      3.830250    3.606310   -2.672980
  H      2.463470    3.952630   -3.704970

 Total Charge           Charge          ....   -1
 Multiplicity           Mult            ....    1
 Number of Electrons    NEL             ....   48
 Basis Dimension        Dim             ....  437

ORBITAL ENERGIES
----------------

  NO   OCC          E(Eh)            E(eV)
   0   2.0000     -20.293929      -552.2259
   1   2.0000     -20.279370      -551.8297
   2   2.0000     -11.127731      -302.8009
   3   2.0000     -11.078309      -301.4561
   4   2.0000     -11.060309      -300.9663
   5   2.0000     -11.051641      -300.7305
   6   2.0000      -1.173383       -31.9294
   7   2.0000      -1.060897       -28.8685
   8   2.0000      -0.908216       -24.7138
   9   2.0000      -0.788674       -21.4609
  10   2.0000      -0.663668       -18.0593
  11   2.0000      -0.520996       -14.1770
  12   2.0000      -0.472166       -12.8483
  13   2.0000      -0.461223       -12.5505
  14   2.0000      -0.422147       -11.4872
  15   2.0000      -0.412217       -11.2170
  16   2.0000      -0.375642       -10.2218
  17   2.0000      -0.360469        -9.8089
  18   2.0000      -0.350339        -9.5332
  19   2.0000      -0.319122        -8.6838
  20   2.0000      -0.312531        -8.5044
  21   2.0000      -0.203685        -5.5425
  22   2.0000      -0.191886        -5.2215
  23   2.0000      -0.189236        -5.1494
  24   0.0000       0.113557         3.0901
  25   0.0000       0.123576         3.3627
  26   0.0000       0.133142         3.6230
  27   0.0000       0.142717         3.8835
  28   0.0000       0.149572         4.0701

MULLIKEN ATOMIC CHARGES
-----------------------
   0 C :   -0.954843
   1 C :   -0.495925
   2 C :   -0.257615
   3 H :    0.243799
   4 H :    0.257518
   5 C :    0.676234
   6 H :    0.251667
   7 H :    0.271289
   8 O :   -0.933198
   9 O :   -0.924950
  10 H :    0.297827
  11 H :    0.317565
  12 H :    0.250633
Sum of atomic charges:   -1.0000000

LOEWDIN ATOMIC CHARGES
----------------------
   0 C :    0.569104
   1 C :    0.231451
   2 C :    0.195263
   3 H :   -0.195163
   4 H :   -0.182748
   5 C :   -1.208690
   6 H :   -0.165033
   7 H :   -0.164198
   8 O :    0.281309
   9 O :    0.244356
  10 H :   -0.188502
  11 H :   -0.213305
  12 H :   -0.203844

  Mayer bond orders larger than 0.100000
B(  0-C ,  1-C ) :   0.7940 B(  0-C , 10-H ) :   0.9307 B(  0-C , 11-H ) :   0.9120
B(  0-C , 12-H ) :   0.9927 B(  1-C ,  2-C ) :   0.8669 B(  1-C ,  5-C ) :   0.1504
B(  1-C ,  6-H ) :   0.9494 B(  1-C ,  7-H ) :   0.9331 B(  2-C ,  3-H ) :   0.9788
B(  2-C ,  4-H ) :   0.9545 B(  2-C ,  5-C ) :   0.6760 B(  5-C ,  8-O ) :   1.2693
B(  5-C ,  9-O ) :   1.3634

E(0)                                       ...   -305.420827948
E(0)                                       ...   -305.420827948
E(CORR)(strong-pairs)                      ...     -1.211509519
E(CORR)(weak-pairs)                        ...     -0.001185645
E(CORR)(corrected)                         ...     -1.212695164
E(TOT)                                     ...   -306.633523112
E(CCSD(T))                                 ...   -306.685041355
FINAL SINGLE POINT ENERGY      -306.685041355384

DIPOLE MOMENT
-------------
                                X             Y             Z
Electronic contribution:      4.83676      -2.57442       4.36640
Nuclear contribution   :     -6.63819       2.74067      -6.05656
                        -----------------------------------------
Total Dipole Moment    :     -1.80144       0.16625      -1.69016
                        -----------------------------------------
Magnitude (a.u.)       :      2.47577
Magnitude (Debye)      :      6.29292

Rotational constants in cm-1:     0.190880     0.089683     0.076466
Rotational constants in MHz :  5722.446013  2688.617255  2292.390699

                             ****ORCA TERMINATED NORMALLY****
TOTAL RUN TIME: 0 days 0 hours 15 minutes 30 seconds 824 msec
