                         Program Version 5.0.0 -  RELEASE  -
|  1> !DLPNO-CCSD(T) aug-cc-pVTZ aug-cc-pVTZ/C TightSCF TightPNO RIJCOSX def2/J
|  2> *xyz 1 1
|  3> C          3.34350        3.35457       -3.59200
|  4> C          2.95263        1.86308       -3.57485
|  5> C          4.12921        0.89839       -3.41895
|  6> C          4.25587        3.70385       -4.72605
|  7> N          3.73403        4.29378       -5.80077
|  8> N          5.51504        3.40725       -4.63718
|  9> H          6.14919        3.60120       -5.39905
| 10> H          5.81358        2.89950       -3.80879
| 11> H          2.74138        4.51311       -5.82470
| 12> H          4.28755        4.52126       -6.61434
| 13> H          2.27894        1.73525       -2.72550
| 14> H          2.37747        1.62579       -4.47587
| 15> H          3.86125        3.59725       -2.66298
| 16> H          2.44649        3.97346       -3.65656
| 17> H          4.79753        1.01430       -4.24649
| 18> H          3.76482       -0.10731       -3.39293
| 19> H          4.64840        1.11330       -2.50837
| 20> *
| 21> %MaxCore 64000
| 22>
| 23> %pal nprocs 8
| 24> end
| 25>
| 26> %scf
| 27>   MaxIter 150
| 28> end
| 29>
| 30>
| 31>                          ****END OF INPUT****

CARTESIAN COORDINATES (ANGSTROEM)
---------------------------------
  C      3.343500    3.354570   -3.592000
  C      2.952630    1.863080   -3.574850
  C      4.129210    0.898390   -3.418950
  C      4.255870    3.703850   -4.726050
  N      3.734030    4.293780   -5.800770
  N      5.515040    3.407250   -4.637180
  H      6.149190    3.601200   -5.399050
  H      5.813580    2.899500   -3.808790
  H      2.741380    4.513110   -5.824700
  H      4.287550    4.521260   -6.614340
  H      2.278940    1.735250   -2.725500
  H      2.377470    1.625790   -4.475870
  H      3.861250    3.597250   -2.662980
  H      2.446490    3.973460   -3.656560
  H      4.797530    1.014300   -4.246490
  H      3.764820   -0.107310   -3.392930
  H      4.648400    1.113300   -2.508370

 Total Charge           Charge          ....    1
 Multiplicity           Mult            ....    1
 Number of Electrons    NEL             ....   48
 Basis Dimension        Dim             ....  529

ORBITAL ENERGIES
----------------

  NO   OCC          E(Eh)            E(eV)
   0   2.0000     -15.804571      -430.0642
   1   2.0000     -15.800294      -429.9478
   2   2.0000     -11.564507      -314.6862
   3   2.0000     -11.419912      -310.7516
   4   2.0000     -11.386652      -309.8466
   5   2.0000     -11.353533      -308.9453
   6   2.0000      -1.519896       -41.3585
   7   2.0000      -1.401949       -38.1490
   8   2.0000      -1.246736       -33.9254
   9   2.0000      -1.141808       -31.0702
  10   2.0000      -1.045642       -28.4534
  11   2.0000      -0.994882       -27.0721
  12   2.0000      -0.956095       -26.0167
  13   2.0000      -0.925870       -25.1942
  14   2.0000      -0.867909       -23.6170
  15   2.0000      -0.816587       -22.2205
  16   2.0000      -0.783748       -21.3269
  17   2.0000      -0.767429       -20.8828
  18   2.0000      -0.730879       -19.8882
  19   2.0000      -0.714047       -19.4302
  20   2.0000      -0.649595       -17.6764
  21   2.0000      -0.643364       -17.5068
  22   2.0000      -0.641955       -17.4685
  23   2.0000      -0.619914       -16.8687
  24   0.0000      -0.094488        -2.5712
  25   0.0000      -0.072988        -1.9861
  26   0.0000      -0.072105        -1.9621
  27   0.0000      -0.059696        -1.6244
  28   0.0000      -0.049179        -1.3382

MULLIKEN ATOMIC CHARGES
-----------------------
   0 C :   -0.023580
   1 C :   -0.468546
   2 C :   -0.918459
   3 C :    0.741438
   4 N :   -0.500709
   5 N :   -0.328100
   6 H :    0.140192
   7 H :    0.141498
   8 H :    0.117645
   9 H :    0.151645
  10 H :    0.280139
  11 H :    0.253505
  12 H :    0.253824
  13 H :    0.283815
  14 H :    0.303481
  15 H :    0.255974
  16 H :    0.316235
Sum of atomic charges:    1.0000000

LOEWDIN ATOMIC CHARGES
----------------------
   0 C :    0.356381
   1 C :    0.315279
   2 C :    0.621834
   3 C :   -0.219619
   4 N :    0.952361
   5 N :    0.945498
   6 H :   -0.212766
   7 H :   -0.245585
   8 H :   -0.232589
   9 H :   -0.233110
  10 H :   -0.131058
  11 H :   -0.130208
  12 H :   -0.125901
  13 H :   -0.130365
  14 H :   -0.204169
  15 H :   -0.157087
  16 H :   -0.168895

  Mayer bond orders larger than 0.100000
B(  0-C ,  1-C ) :   0.8644 B(  0-C ,  3-C ) :   0.3957 B(  0-C ,  5-N ) :  -0.1131
B(  0-C , 12-H ) :   0.9651 B(  0-C , 13-H ) :   0.9699 B(  1-C ,  2-C ) :   0.8032
B(  1-C ,  3-C ) :   0.1548 B(  1-C , 10-H ) :   0.9676 B(  1-C , 11-H ) :   0.9244
B(  2-C , 14-H ) :   0.8983 B(  2-C , 15-H ) :   1.0339 B(  2-C , 16-H ) :   0.9116
B(  3-C ,  4-N ) :   0.8117 B(  3-C ,  5-N ) :   0.9960 B(  4-N ,  8-H ) :   1.1256
B(  4-N ,  9-H ) :   1.0686 B(  5-N ,  6-H ) :   1.0660 B(  5-N ,  7-H ) :   1.0921

E(0)                                       ...   -266.691023399
E(0)                                       ...   -266.691023399
E(CORR)(strong-pairs)                      ...     -1.157520941
E(CORR)(weak-pairs)                        ...     -0.001217889
E(CORR)(corrected)                         ...     -1.158738830
E(TOT)                                     ...   -267.849762228
E(CCSD(T))                                 ...   -267.895965170
FINAL SINGLE POINT ENERGY      -267.895965169657

DIPOLE MOMENT
-------------
                                X             Y             Z
Electronic contribution:      1.40511       4.41537      -2.88839
Nuclear contribution   :     -0.87169      -3.40560       1.97790
                        -----------------------------------------
Total Dipole Moment    :      0.53341       1.00978      -0.91049
                        -----------------------------------------
Magnitude (a.u.)       :      1.46054
Magnitude (Debye)      :      3.71240

Rotational constants in cm-1:     0.188632     0.081113     0.066356
Rotational constants in MHz :  5655.057814  2431.708101  1989.304146

                             ****ORCA TERMINATED NORMALLY****
TOTAL RUN TIME: 0 days 0 hours 21 minutes 49 seconds 193 msec
