                         Program Version 5.0.0 -  RELEASE  -
|  1> !DLPNO-CCSD(T) aug-cc-pVTZ aug-cc-pVTZ/C TightSCF TightPNO RIJCOSX def2/J
|  2>
|  3> *xyzfile 0 1 B.xyz
|  4>
|  5> %MaxCore 64000
|  6>
|  7> %pal nprocs 18
|  8> end
|  9>
| 10> %scf
| 11>   MaxIter 150
| 12> end
| 13>
| 14>
| 15>                          ****END OF INPUT****

CARTESIAN COORDINATES (ANGSTROEM)
---------------------------------
  C      3.343500    3.354571   -3.591998
  C      2.952633    1.863077   -3.574849
  C      4.129209    0.898394   -3.418950
  H      3.733687   -0.100605   -3.237633
  H      4.719095    0.862556   -4.339005
  C      5.017344    1.315212   -2.221305
  C      4.255868    3.703851   -4.726054
  N      3.734032    4.293783   -5.800770
  N      5.515039    3.407255   -4.637185
  H      6.149187    3.601203   -5.399053
  H      5.813584    2.899504   -3.808785
  H      2.741380    4.513109   -5.824701
  H      4.287548    4.521260   -6.614341
  H      2.278938    1.735250   -2.725496
  H      2.377466    1.625787   -4.475869
  O      4.737055    0.854112   -1.122825
  O      5.928146    2.168108   -2.491365
  H      3.861246    3.597252   -2.662979
  H      2.446493    3.973461   -3.656556

 Total Charge           Charge          ....    0
 Multiplicity           Mult            ....    1
 Number of Electrons    NEL             ....   70
 Basis Dimension        Dim             ....  644

ORBITAL ENERGIES
----------------

  NO   OCC          E(Eh)            E(eV)
   0   2.0000     -20.454615      -556.5984
   1   2.0000     -20.446170      -556.3686
   2   2.0000     -15.663128      -426.2154
   3   2.0000     -15.621208      -425.0747
   4   2.0000     -11.411109      -310.5121
   5   2.0000     -11.289878      -307.2132
   6   2.0000     -11.273671      -306.7722
   7   2.0000     -11.249109      -306.1038
   8   2.0000     -11.207294      -304.9660
   9   2.0000      -1.367424       -37.2095
  10   2.0000      -1.336536       -36.3690
  11   2.0000      -1.253657       -34.1137
  12   2.0000      -1.230557       -33.4852
  13   2.0000      -1.101335       -29.9688
  14   2.0000      -0.994652       -27.0658
  15   2.0000      -0.899744       -24.4833
  16   2.0000      -0.847561       -23.0633
  17   2.0000      -0.805333       -21.9142
  18   2.0000      -0.786422       -21.3996
  19   2.0000      -0.727519       -19.7968
  20   2.0000      -0.675596       -18.3839
  21   2.0000      -0.667448       -18.1622
  22   2.0000      -0.633792       -17.2463
  23   2.0000      -0.620420       -16.8825
  24   2.0000      -0.590954       -16.0807
  25   2.0000      -0.574066       -15.6211
  26   2.0000      -0.550557       -14.9814
  27   2.0000      -0.531765       -14.4701
  28   2.0000      -0.524195       -14.2641
  29   2.0000      -0.489150       -13.3105
  30   2.0000      -0.477083       -12.9821
  31   2.0000      -0.467589       -12.7237
  32   2.0000      -0.377064       -10.2604
  33   2.0000      -0.357666        -9.7326
  34   2.0000      -0.352020        -9.5789
  35   0.0000      -0.003120        -0.0849
  36   0.0000       0.016475         0.4483
  37   0.0000       0.028309         0.7703
  38   0.0000       0.031510         0.8574
  39   0.0000       0.047640         1.2964

MULLIKEN ATOMIC CHARGES
-----------------------
   0 C :    0.027967
   1 C :   -0.500054
   2 C :   -0.233236
   3 H :    0.300867
   4 H :    0.169998
   5 C :    0.671093
   6 C :    0.626427
   7 N :   -0.580243
   8 N :   -0.419705
   9 H :    0.097246
  10 H :    0.262256
  11 H :    0.092842
  12 H :    0.122675
  13 H :    0.226872
  14 H :    0.251952
  15 O :   -0.945102
  16 O :   -0.688124
  17 H :    0.176318
  18 H :    0.339954
Sum of atomic charges:    0.0000000

LOEWDIN ATOMIC CHARGES
----------------------
   0 C :    0.342391
   1 C :    0.295134
   2 C :    0.247933
   3 H :   -0.166270
   4 H :   -0.177036
   5 C :   -1.042289
   6 C :   -0.223484
   7 N :    0.920923
   8 N :    0.940032
   9 H :   -0.219102
  10 H :   -0.680683
  11 H :   -0.251970
  12 H :   -0.250491
  13 H :   -0.136967
  14 H :   -0.140823
  15 O :    0.346518
  16 O :    0.486604
  17 H :   -0.148981
  18 H :   -0.141438

  Mayer bond orders larger than 0.100000
B(  0-C ,  1-C ) :   0.7832 B(  0-C ,  6-C ) :   0.3726 B(  0-C , 17-H ) :   1.0012
B(  0-C , 18-H ) :   0.9059 B(  1-C ,  2-C ) :   0.8301 B(  1-C ,  5-C ) :   0.1717
B(  1-C ,  6-C ) :   0.1591 B(  1-C , 13-H ) :   0.9987 B(  1-C , 14-H ) :   0.9010
B(  2-C ,  3-H ) :   0.9423 B(  2-C ,  4-H ) :   1.0260 B(  2-C ,  5-C ) :   0.7123
B(  5-C , 15-O ) :   1.2298 B(  5-C , 16-O ) :   1.2456 B(  6-C ,  7-N ) :   0.6935
B(  6-C ,  8-N ) :   0.9470 B(  6-C ,  9-H ) :  -0.1289 B(  7-N , 11-H ) :   1.1398
B(  7-N , 12-H ) :   1.1159 B(  8-N ,  9-H ) :   1.1210 B(  8-N , 10-H ) :   0.8808
B( 10-H , 16-O ) :   0.1701

E(0)                                       ...   -453.958308924
E(0)                                       ...   -453.958308924
E(CORR)(strong-pairs)                      ...     -1.783784425
E(CORR)(weak-pairs)                        ...     -0.002306651
E(CORR)(corrected)                         ...     -1.786091077
E(TOT)                                     ...   -455.744400001
E(CCSD(T))                                 ...   -455.822146550
FINAL SINGLE POINT ENERGY      -455.822146550261

DIPOLE MOMENT
-------------
                                X             Y             Z
Electronic contribution:      3.74875       0.07343       2.41914
Nuclear contribution   :     -5.42217       2.65262      -7.07590
                        -----------------------------------------
Total Dipole Moment    :     -1.67342       2.72605      -4.65676
                        -----------------------------------------
Magnitude (a.u.)       :      5.64952
Magnitude (Debye)      :     14.35994

Rotational constants in cm-1:     0.107541     0.035862     0.030371
Rotational constants in MHz :  3223.996852  1075.120464   910.508313

                             ****ORCA TERMINATED NORMALLY****
TOTAL RUN TIME: 0 days 0 hours 45 minutes 34 seconds 332 msec
