                         Program Version 5.0.0 -  RELEASE  -
|  1> !DLPNO-CCSD(T) aug-cc-pVTZ aug-cc-pVTZ/C TightSCF TightPNO RIJCOSX def2/J
|  2> *xyz 0 1
|  3> C          3.34350        3.35457       -3.59200
|  4> C          2.95263        1.86308       -3.57485
|  5> C          4.12921        0.89839       -3.41895
|  6> H          3.73369       -0.10060       -3.23763
|  7> H          4.71910        0.86256       -4.33901
|  8> C          5.01734        1.31521       -2.22130
|  9> H          2.27894        1.73525       -2.72550
| 10> H          2.37747        1.62579       -4.47587
| 11> F          4.73706        0.85411       -1.12283
| 12> O          5.92815        2.16811       -2.49136
| 13> H          4.00801        3.53975       -4.40994
| 14> H          3.83025        3.60631       -2.67298
| 15> H          2.46347        3.95263       -3.70497
| 16> *
| 17> %MaxCore 64000
| 18>
| 19> %pal nprocs 2
| 20> end
| 21>
| 22> %scf
| 23>   MaxIter 150
| 24> end
| 25>
| 26>
| 27>                          ****END OF INPUT****

CARTESIAN COORDINATES (ANGSTROEM)
---------------------------------
  C      3.343500    3.354570   -3.592000
  C      2.952630    1.863080   -3.574850
  C      4.129210    0.898390   -3.418950
  H      3.733690   -0.100600   -3.237630
  H      4.719100    0.862560   -4.339010
  C      5.017340    1.315210   -2.221300
  H      2.278940    1.735250   -2.725500
  H      2.377470    1.625790   -4.475870
  F      4.737060    0.854110   -1.122830
  O      5.928150    2.168110   -2.491360
  H      4.008010    3.539750   -4.409940
  H      3.830250    3.606310   -2.672980
  H      2.463470    3.952630   -3.704970

 Total Charge           Charge          ....    0
 Multiplicity           Mult            ....    1
 Number of Electrons    NEL             ....   48
 Basis Dimension        Dim             ....  437

ORBITAL ENERGIES
----------------

  NO   OCC          E(Eh)            E(eV)
   0   2.0000     -26.390860      -718.1318
   1   2.0000     -20.557444      -559.3965
   2   2.0000     -11.433094      -311.1103
   3   2.0000     -11.258897      -306.3702
   4   2.0000     -11.243416      -305.9489
   5   2.0000     -11.209971      -305.0388
   6   2.0000      -1.757999       -47.8376
   7   2.0000      -1.358949       -36.9789
   8   2.0000      -1.090754       -29.6809
   9   2.0000      -0.984760       -26.7967
  10   2.0000      -0.917894       -24.9772
  11   2.0000      -0.839672       -22.8486
  12   2.0000      -0.789483       -21.4829
  13   2.0000      -0.780608       -21.2414
  14   2.0000      -0.702354       -19.1120
  15   2.0000      -0.642410       -17.4809
  16   2.0000      -0.622870       -16.9492
  17   2.0000      -0.579894       -15.7797
  18   2.0000      -0.563597       -15.3363
  19   2.0000      -0.514272       -13.9941
  20   2.0000      -0.510476       -13.8908
  21   2.0000      -0.491412       -13.3720
  22   2.0000      -0.476864       -12.9761
  23   2.0000      -0.450631       -12.2623
  24   0.0000       0.026301         0.7157
  25   0.0000       0.036617         0.9964
  26   0.0000       0.039465         1.0739
  27   0.0000       0.045732         1.2444
  28   0.0000       0.058195         1.5836

MULLIKEN ATOMIC CHARGES
-----------------------
   0 C :   -0.929355
   1 C :   -0.512781
   2 C :   -0.268266
   3 H :    0.278680
   4 H :    0.300984
   5 C :    0.718176
   6 H :    0.242644
   7 H :    0.301842
   8 F :   -0.325972
   9 O :   -0.699163
  10 H :    0.309171
  11 H :    0.309505
  12 H :    0.274534
Sum of atomic charges:   -0.0000000

LOEWDIN ATOMIC CHARGES
----------------------
   0 C :    0.592728
   1 C :    0.260675
   2 C :    0.266550
   3 H :   -0.174371
   4 H :   -0.153514
   5 C :   -0.926795
   6 H :   -0.156777
   7 H :   -0.139891
   8 F :    0.621505
   9 O :    0.381201
  10 H :   -0.177843
  11 H :   -0.211268
  12 H :   -0.182200

  Mayer bond orders larger than 0.100000
B(  0-C ,  1-C ) :   0.8137 B(  0-C , 10-H ) :   0.9183 B(  0-C , 11-H ) :   0.9267
B(  0-C , 12-H ) :   0.9821 B(  1-C ,  2-C ) :   0.8739 B(  1-C ,  5-C ) :   0.1650
B(  1-C ,  6-H ) :   0.9576 B(  1-C ,  7-H ) :   0.9156 B(  2-C ,  3-H ) :   0.9532
B(  2-C ,  4-H ) :   0.9133 B(  2-C ,  5-C ) :   0.7396 B(  5-C ,  8-F ) :   0.7562
B(  5-C ,  9-O ) :   1.6549

E(0)                                       ...   -329.960302762
E(0)                                       ...   -329.960302762
E(CORR)(strong-pairs)                      ...     -1.213199297
E(CORR)(weak-pairs)                        ...     -0.001158789
E(CORR)(corrected)                         ...     -1.214358087
E(TOT)                                     ...   -331.174660848
E(CCSD(T))                                 ...   -331.222883654
FINAL SINGLE POINT ENERGY      -331.222883654289

DIPOLE MOMENT
-------------
                                X             Y             Z
Electronic contribution:      5.97406      -4.43978       7.54578
Nuclear contribution   :     -7.06456       3.75953      -7.86734
                        -----------------------------------------
Total Dipole Moment    :     -1.09050      -0.68024      -0.32155
                        -----------------------------------------
Magnitude (a.u.)       :      1.32488
Magnitude (Debye)      :      3.36758

Rotational constants in cm-1:     0.185871     0.085512     0.073500
Rotational constants in MHz :  5572.269993  2563.593529  2203.466497

                             ****ORCA TERMINATED NORMALLY****
TOTAL RUN TIME: 0 days 0 hours 50 minutes 25 seconds 274 msec
