                         Program Version 5.0.0 -  RELEASE  -
|  1> !DLPNO-CCSD(T) aug-cc-pVTZ aug-cc-pVTZ/C TightSCF TightPNO RIJCOSX def2/J
|  2> *xyz 0 1
|  3> C          3.34350        3.35457       -3.59200
|  4> C          2.95263        1.86308       -3.57485
|  5> C          4.12921        0.89839       -3.41895
|  6> C          4.25587        3.70385       -4.72605
|  7> C          3.73403        4.29378       -5.80077
|  8> N          5.51504        3.40725       -4.63718
|  9> H          6.14919        3.60120       -5.39905
| 10> H          5.81358        2.89950       -3.80879
| 11> H          2.74138        4.51311       -5.82470
| 12> H          4.28755        4.52126       -6.61434
| 13> H          2.27894        1.73525       -2.72550
| 14> H          2.37747        1.62579       -4.47587
| 15> H          3.86125        3.59725       -2.66298
| 16> H          2.44649        3.97346       -3.65656
| 17> H          4.79753        1.01430       -4.24649
| 18> H          3.76482       -0.10731       -3.39293
| 19> H          4.64840        1.11330       -2.50837
| 20> *
| 21> %MaxCore 64000
| 22>
| 23> %pal nprocs 2
| 24> end
| 25>
| 26> %scf
| 27>   MaxIter 150
| 28> end
| 29>
| 30>
| 31>                          ****END OF INPUT****

CARTESIAN COORDINATES (ANGSTROEM)
---------------------------------
  C      3.343500    3.354570   -3.592000
  C      2.952630    1.863080   -3.574850
  C      4.129210    0.898390   -3.418950
  C      4.255870    3.703850   -4.726050
  C      3.734030    4.293780   -5.800770
  N      5.515040    3.407250   -4.637180
  H      6.149190    3.601200   -5.399050
  H      5.813580    2.899500   -3.808790
  H      2.741380    4.513110   -5.824700
  H      4.287550    4.521260   -6.614340
  H      2.278940    1.735250   -2.725500
  H      2.377470    1.625790   -4.475870
  H      3.861250    3.597250   -2.662980
  H      2.446490    3.973460   -3.656560
  H      4.797530    1.014300   -4.246490
  H      3.764820   -0.107310   -3.392930
  H      4.648400    1.113300   -2.508370

 Total Charge           Charge          ....    0
 Multiplicity           Mult            ....    1
 Number of Electrons    NEL             ....   48
 Basis Dimension        Dim             ....  529

ORBITAL ENERGIES
----------------

  NO   OCC          E(Eh)            E(eV)
   0   2.0000     -15.560902      -423.4337
   1   2.0000     -11.253366      -306.2197
   2   2.0000     -11.223230      -305.3996
   3   2.0000     -11.221564      -305.3543
   4   2.0000     -11.207772      -304.9790
   5   2.0000     -11.149438      -303.3916
   6   2.0000      -1.248392       -33.9705
   7   2.0000      -1.068476       -29.0747
   8   2.0000      -0.999827       -27.2067
   9   2.0000      -0.928008       -25.2524
  10   2.0000      -0.826722       -22.4962
  11   2.0000      -0.765325       -20.8256
  12   2.0000      -0.708583       -19.2815
  13   2.0000      -0.660773       -17.9806
  14   2.0000      -0.615772       -16.7560
  15   2.0000      -0.599176       -16.3044
  16   2.0000      -0.567190       -15.4340
  17   2.0000      -0.551705       -15.0127
  18   2.0000      -0.526030       -14.3140
  19   2.0000      -0.512356       -13.9419
  20   2.0000      -0.480364       -13.0714
  21   2.0000      -0.467654       -12.7255
  22   2.0000      -0.464992       -12.6531
  23   2.0000      -0.285100        -7.7580
  24   0.0000       0.027902         0.7592
  25   0.0000       0.034874         0.9490
  26   0.0000       0.038675         1.0524
  27   0.0000       0.040025         1.0891
  28   0.0000       0.053133         1.4458

MULLIKEN ATOMIC CHARGES
-----------------------
   0 C :   -0.019812
   1 C :   -0.484960
   2 C :   -0.972424
   3 C :    1.044477
   4 C :   -1.656173
   5 N :   -0.588583
   6 H :    0.006829
   7 H :    0.092605
   8 H :    0.203031
   9 H :    0.515498
  10 H :    0.250551
  11 H :    0.258526
  12 H :    0.199764
  13 H :    0.293888
  14 H :    0.332003
  15 H :    0.230235
  16 H :    0.294545
Sum of atomic charges:   -0.0000000

LOEWDIN ATOMIC CHARGES
----------------------
   0 C :    0.292685
   1 C :    0.289674
   2 C :    0.598811
   3 C :   -0.316464
   4 C :    0.567190
   5 N :    0.840024
   6 H :   -0.249860
   7 H :   -0.287087
   8 H :   -0.295618
   9 H :   -0.292697
  10 H :   -0.152678
  11 H :   -0.138901
  12 H :   -0.145416
  13 H :   -0.146812
  14 H :   -0.206806
  15 H :   -0.177177
  16 H :   -0.178866

  Mayer bond orders larger than 0.100000
B(  0-C ,  1-C ) :   0.8611 B(  0-C ,  3-C ) :   0.4611 B(  0-C ,  5-N ) :  -0.1233
B(  0-C , 12-H ) :   0.9992 B(  0-C , 13-H ) :   1.0227 B(  1-C ,  2-C ) :   0.7832
B(  1-C ,  3-C ) :   0.1402 B(  1-C , 10-H ) :   0.9903 B(  1-C , 11-H ) :   0.9193
B(  2-C , 14-H ) :   0.8815 B(  2-C , 15-H ) :   1.0480 B(  2-C , 16-H ) :   0.9328
B(  3-C ,  4-C ) :   0.7380 B(  3-C ,  5-N ) :   0.6564 B(  3-C ,  7-H ) :  -0.1026
B(  3-C ,  8-H ) :  -0.1267 B(  4-C ,  5-N ) :  -0.1431 B(  4-C ,  8-H ) :   1.4153
B(  4-C ,  9-H ) :   0.6026 B(  5-N ,  6-H ) :   1.1935 B(  5-N ,  7-H ) :   1.1496

E(0)                                       ...   -250.250092171
E(0)                                       ...   -250.250092171
E(CORR)(strong-pairs)                      ...     -1.138281594
E(CORR)(weak-pairs)                        ...     -0.001213959
E(CORR)(corrected)                         ...     -1.139495554
E(TOT)                                     ...   -251.389587724
E(CCSD(T))                                 ...   -251.436079581
FINAL SINGLE POINT ENERGY      -251.436079580530

DIPOLE MOMENT
-------------
                                X             Y             Z
Electronic contribution:      1.43118       2.61610      -1.16474
Nuclear contribution   :     -0.93682      -3.08083       1.62582
                        -----------------------------------------
Total Dipole Moment    :      0.49437      -0.46472       0.46107
                        -----------------------------------------
Magnitude (a.u.)       :      0.82034
Magnitude (Debye)      :      2.08513

Rotational constants in cm-1:     0.191400     0.084268     0.068511
Rotational constants in MHz :  5738.038424  2526.291061  2053.912421

                             ****ORCA TERMINATED NORMALLY****
TOTAL RUN TIME: 0 days 1 hours 20 minutes 24 seconds 251 msec
