                         Program Version 5.0.0 -  RELEASE  -
|  1> !DLPNO-CCSD(T) aug-cc-pVTZ aug-cc-pVTZ/C TightSCF TightPNO RIJCOSX def2/J
|  2> *xyz 0 1
|  3> C          3.34350        3.35457       -3.59200
|  4> C          2.95263        1.86308       -3.57485
|  5> C          4.12921        0.89839       -3.41895
|  6> H          3.73369       -0.10060       -3.23763
|  7> H          4.71910        0.86256       -4.33901
|  8> C          5.01734        1.31521       -2.22130
|  9> H          2.27894        1.73525       -2.72550
| 10> H          2.37747        1.62579       -4.47587
| 11> O          4.73706        0.85411       -1.12283
| 12> F          5.92815        2.16811       -2.49136
| 13> H          4.00801        3.53975       -4.40994
| 14> H          3.83025        3.60631       -2.67298
| 15> H          2.46347        3.95263       -3.70497
| 16> *
| 17> %MaxCore 64000
| 18>
| 19> %pal nprocs 8
| 20> end
| 21>
| 22> %scf
| 23>   MaxIter 150
| 24> end
| 25>
| 26>
| 27>                          ****END OF INPUT****

CARTESIAN COORDINATES (ANGSTROEM)
---------------------------------
  C      3.343500    3.354570   -3.592000
  C      2.952630    1.863080   -3.574850
  C      4.129210    0.898390   -3.418950
  H      3.733690   -0.100600   -3.237630
  H      4.719100    0.862560   -4.339010
  C      5.017340    1.315210   -2.221300
  H      2.278940    1.735250   -2.725500
  H      2.377470    1.625790   -4.475870
  O      4.737060    0.854110   -1.122830
  F      5.928150    2.168110   -2.491360
  H      4.008010    3.539750   -4.409940
  H      3.830250    3.606310   -2.672980
  H      2.463470    3.952630   -3.704970

 Total Charge           Charge          ....    0
 Multiplicity           Mult            ....    1
 Number of Electrons    NEL             ....   48
 Basis Dimension        Dim             ....  437

ORBITAL ENERGIES
----------------

  NO   OCC          E(Eh)            E(eV)
   0   2.0000     -26.366787      -717.4768
   1   2.0000     -20.569179      -559.7158
   2   2.0000     -11.426998      -310.9444
   3   2.0000     -11.257924      -306.3437
   4   2.0000     -11.243606      -305.9541
   5   2.0000     -11.219979      -305.3111
   6   2.0000      -1.712959       -46.6120
   7   2.0000      -1.398530       -38.0559
   8   2.0000      -1.092602       -29.7312
   9   2.0000      -0.982685       -26.7402
  10   2.0000      -0.897135       -24.4123
  11   2.0000      -0.834973       -22.7208
  12   2.0000      -0.762391       -20.7457
  13   2.0000      -0.755757       -20.5652
  14   2.0000      -0.712821       -19.3968
  15   2.0000      -0.642223       -17.4758
  16   2.0000      -0.624700       -16.9990
  17   2.0000      -0.588734       -16.0203
  18   2.0000      -0.579071       -15.7573
  19   2.0000      -0.535811       -14.5802
  20   2.0000      -0.512814       -13.9544
  21   2.0000      -0.492903       -13.4126
  22   2.0000      -0.489482       -13.3195
  23   2.0000      -0.460972       -12.5437
  24   0.0000       0.026824         0.7299
  25   0.0000       0.036516         0.9937
  26   0.0000       0.038998         1.0612
  27   0.0000       0.045546         1.2394
  28   0.0000       0.059097         1.6081

MULLIKEN ATOMIC CHARGES
-----------------------
   0 C :   -0.959710
   1 C :   -0.462849
   2 C :   -0.324301
   3 H :    0.288949
   4 H :    0.289480
   5 C :    0.784961
   6 H :    0.272306
   7 H :    0.303114
   8 O :   -0.731709
   9 F :   -0.333187
  10 H :    0.302982
  11 H :    0.290450
  12 H :    0.279512
Sum of atomic charges:    0.0000000

LOEWDIN ATOMIC CHARGES
----------------------
   0 C :    0.598318
   1 C :    0.261681
   2 C :    0.265324
   3 H :   -0.165095
   4 H :   -0.162185
   5 C :   -0.926890
   6 H :   -0.152653
   7 H :   -0.140501
   8 O :    0.413897
   9 F :    0.568842
  10 H :   -0.181124
  11 H :   -0.201373
  12 H :   -0.178240

  Mayer bond orders larger than 0.100000
B(  0-C ,  1-C ) :   0.8065 B(  0-C , 10-H ) :   0.9212 B(  0-C , 11-H ) :   0.9211
B(  0-C , 12-H ) :   0.9878 B(  1-C ,  2-C ) :   0.8934 B(  1-C ,  5-C ) :   0.1263
B(  1-C ,  6-H ) :   0.9417 B(  1-C ,  7-H ) :   0.9046 B(  2-C ,  3-H ) :   0.9363
B(  2-C ,  4-H ) :   0.9307 B(  2-C ,  5-C ) :   0.7738 B(  5-C ,  8-O ) :   1.5507
B(  5-C ,  9-F ) :   0.7920

E(0)                                       ...   -329.979208374
E(0)                                       ...   -329.979208374
E(CORR)(strong-pairs)                      ...     -1.211100113
E(CORR)(weak-pairs)                        ...     -0.001149533
E(CORR)(corrected)                         ...     -1.212249646
E(TOT)                                     ...   -331.191458020
E(CCSD(T))                                 ...   -331.239029686
FINAL SINGLE POINT ENERGY      -331.239029686000

DIPOLE MOMENT
-------------
                                X             Y             Z
Electronic contribution:      8.03796      -2.11904       5.11872
Nuclear contribution   :     -8.40998       2.27527      -6.32148
                        -----------------------------------------
Total Dipole Moment    :     -0.37202       0.15623      -1.20276
                        -----------------------------------------
Magnitude (a.u.)       :      1.26864
Magnitude (Debye)      :      3.22463

Rotational constants in cm-1:     0.181105     0.088112     0.073966
Rotational constants in MHz :  5429.384816  2641.525058  2217.445966

                             ****ORCA TERMINATED NORMALLY****
TOTAL RUN TIME: 0 days 0 hours 13 minutes 6 seconds 17 msec
