                         Program Version 5.0.0 -  RELEASE  -
|  1> !DLPNO-CCSD(T) aug-cc-pVTZ aug-cc-pVTZ/C TightSCF TightPNO RIJCOSX def2/J
|  2> *xyz 0 1
|  3> C          3.34350        3.35457       -3.59200
|  4> C          2.95263        1.86308       -3.57485
|  5> C          4.12921        0.89839       -3.41895
|  6> C          4.25587        3.70385       -4.72605
|  7> N          3.73403        4.29378       -5.80077
|  8> C          5.51504        3.40725       -4.63718
|  9> H          6.14919        3.60120       -5.39905
| 10> H          5.81358        2.89950       -3.80879
| 11> H          2.74138        4.51311       -5.82470
| 12> H          4.28755        4.52126       -6.61434
| 13> H          2.27894        1.73525       -2.72550
| 14> H          2.37747        1.62579       -4.47587
| 15> H          3.86125        3.59725       -2.66298
| 16> H          2.44649        3.97346       -3.65656
| 17> H          4.79753        1.01430       -4.24649
| 18> H          3.76482       -0.10731       -3.39293
| 19> H          4.64840        1.11330       -2.50837
| 20> *
| 21> %MaxCore 64000
| 22>
| 23> %pal nprocs 8
| 24> end
| 25>
| 26> %scf
| 27>   MaxIter 150
| 28> end
| 29>
| 30>
| 31>                          ****END OF INPUT****

CARTESIAN COORDINATES (ANGSTROEM)
---------------------------------
  C      3.343500    3.354570   -3.592000
  C      2.952630    1.863080   -3.574850
  C      4.129210    0.898390   -3.418950
  C      4.255870    3.703850   -4.726050
  N      3.734030    4.293780   -5.800770
  C      5.515040    3.407250   -4.637180
  H      6.149190    3.601200   -5.399050
  H      5.813580    2.899500   -3.808790
  H      2.741380    4.513110   -5.824700
  H      4.287550    4.521260   -6.614340
  H      2.278940    1.735250   -2.725500
  H      2.377470    1.625790   -4.475870
  H      3.861250    3.597250   -2.662980
  H      2.446490    3.973460   -3.656560
  H      4.797530    1.014300   -4.246490
  H      3.764820   -0.107310   -3.392930
  H      4.648400    1.113300   -2.508370

 Total Charge           Charge          ....    0
 Multiplicity           Mult            ....    1
 Number of Electrons    NEL             ....   48
 Basis Dimension        Dim             ....  529

ORBITAL ENERGIES
----------------

  NO   OCC          E(Eh)            E(eV)
   0   2.0000     -15.557685      -423.3461
   1   2.0000     -11.248513      -306.0876
   2   2.0000     -11.222070      -305.3681
   3   2.0000     -11.219288      -305.2924
   4   2.0000     -11.195526      -304.6457
   5   2.0000     -11.146819      -303.3204
   6   2.0000      -1.229781       -33.4640
   7   2.0000      -1.069775       -29.1101
   8   2.0000      -0.996945       -27.1283
   9   2.0000      -0.934564       -25.4308
  10   2.0000      -0.816527       -22.2188
  11   2.0000      -0.760383       -20.6911
  12   2.0000      -0.696354       -18.9487
  13   2.0000      -0.655410       -17.8346
  14   2.0000      -0.618948       -16.8424
  15   2.0000      -0.596067       -16.2198
  16   2.0000      -0.554628       -15.0922
  17   2.0000      -0.548422       -14.9233
  18   2.0000      -0.527347       -14.3499
  19   2.0000      -0.507868       -13.8198
  20   2.0000      -0.476094       -12.9552
  21   2.0000      -0.464276       -12.6336
  22   2.0000      -0.458317       -12.4714
  23   2.0000      -0.293356        -7.9826
  24   0.0000       0.027000         0.7347
  25   0.0000       0.035216         0.9583
  26   0.0000       0.038411         1.0452
  27   0.0000       0.042086         1.1452
  28   0.0000       0.054254         1.4763

MULLIKEN ATOMIC CHARGES
-----------------------
   0 C :   -0.058125
   1 C :   -0.514861
   2 C :   -0.919856
   3 C :    0.834661
   4 N :   -0.732245
   5 C :   -1.401272
   6 H :    0.515443
   7 H :    0.296130
   8 H :    0.045833
   9 H :    0.032285
  10 H :    0.221548
  11 H :    0.257338
  12 H :    0.275066
  13 H :    0.272124
  14 H :    0.311417
  15 H :    0.271697
  16 H :    0.292816
Sum of atomic charges:    0.0000000

LOEWDIN ATOMIC CHARGES
----------------------
   0 C :    0.296969
   1 C :    0.289884
   2 C :    0.597021
   3 C :   -0.303424
   4 N :    0.846445
   5 C :    0.545426
   6 H :   -0.271521
   7 H :   -0.294870
   8 H :   -0.280050
   9 H :   -0.270532
  10 H :   -0.153449
  11 H :   -0.140052
  12 H :   -0.142499
  13 H :   -0.150558
  14 H :   -0.213279
  15 H :   -0.180031
  16 H :   -0.175480

  Mayer bond orders larger than 0.100000
B(  0-C ,  1-C ) :   0.8466 B(  0-C ,  3-C ) :   0.5612 B(  0-C ,  4-N ) :  -0.1130
B(  0-C , 12-H ) :   1.0219 B(  0-C , 13-H ) :   0.9761 B(  1-C ,  2-C ) :   0.7930
B(  1-C ,  3-C ) :   0.1715 B(  1-C , 10-H ) :   0.9965 B(  1-C , 11-H ) :   0.9540
B(  2-C , 14-H ) :   0.9185 B(  2-C , 15-H ) :   0.9890 B(  2-C , 16-H ) :   0.9444
B(  3-C ,  4-N ) :   0.6694 B(  3-C ,  5-C ) :   1.1054 B(  4-N ,  5-C ) :  -0.2812
B(  4-N ,  8-H ) :   1.2135 B(  4-N ,  9-H ) :   1.1940 B(  5-C ,  6-H ) :   0.6654
B(  5-C ,  7-H ) :   1.2317

E(0)                                       ...   -250.249543841
E(0)                                       ...   -250.249543841
E(CORR)(strong-pairs)                      ...     -1.138670286
E(CORR)(weak-pairs)                        ...     -0.001221995
E(CORR)(corrected)                         ...     -1.139892280
E(TOT)                                     ...   -251.389436121
E(CCSD(T))                                 ...   -251.435842995
FINAL SINGLE POINT ENERGY      -251.435842995030

DIPOLE MOMENT
-------------
                                X             Y             Z
Electronic contribution:     -0.09156       3.43671      -2.19831
Nuclear contribution   :     -0.51555      -3.29052       1.90104
                        -----------------------------------------
Total Dipole Moment    :     -0.60712       0.14619      -0.29727
                        -----------------------------------------
Magnitude (a.u.)       :      0.69161
Magnitude (Debye)      :      1.75794

Rotational constants in cm-1:     0.197086     0.081749     0.067746
Rotational constants in MHz :  5908.486274  2450.769911  2030.963952

                             ****ORCA TERMINATED NORMALLY****
TOTAL RUN TIME: 0 days 0 hours 24 minutes 6 seconds 40 msec
