                         Program Version 5.0.0 -  RELEASE  -
|  1> !DLPNO-CCSD(T) aug-cc-pVTZ aug-cc-pVTZ/C TightSCF TightPNO RIJCOSX def2/J
|  2>
|  3> *xyzfile 0 1 D4.xyz
|  4>
|  5> %MaxCore 64000
|  6>
|  7> %pal nprocs 18
|  8> end
|  9>
| 10> %scf
| 11>   MaxIter 150
| 12> end
| 13>
| 14>
| 15>                          ****END OF INPUT****

CARTESIAN COORDINATES (ANGSTROEM)
---------------------------------
  C      3.343500    3.354571   -3.591998
  C      2.952633    1.863077   -3.574849
  C      4.129209    0.898394   -3.418950
  H      3.733687   -0.100605   -3.237633
  H      4.719095    0.862556   -4.339005
  C      5.017344    1.315212   -2.221305
  C      4.255868    3.703851   -4.726054
  N      3.734032    4.293783   -5.800770
  C      5.515039    3.407255   -4.637185
  H      6.149187    3.601203   -5.399053
  H      5.813584    2.899504   -3.808785
  H      2.741380    4.513109   -5.824701
  H      4.287548    4.521260   -6.614341
  H      2.278938    1.735250   -2.725496
  H      2.377466    1.625787   -4.475869
  O      4.737055    0.854112   -1.122825
  F      5.928146    2.168108   -2.491365
  H      3.861246    3.597252   -2.662979
  H      2.446493    3.973461   -3.656556

 Total Charge           Charge          ....    0
 Multiplicity           Mult            ....    1
 Number of Electrons    NEL             ....   70
 Basis Dimension        Dim             ....  644

ORBITAL ENERGIES
----------------

  NO   OCC          E(Eh)            E(eV)
   0   2.0000     -26.369451      -717.5492
   1   2.0000     -20.571367      -559.7754
   2   2.0000     -15.562269      -423.4709
   3   2.0000     -11.429058      -311.0005
   4   2.0000     -11.254816      -306.2591
   5   2.0000     -11.253359      -306.2195
   6   2.0000     -11.247182      -306.0514
   7   2.0000     -11.237724      -305.7940
   8   2.0000     -11.139712      -303.1270
   9   2.0000      -1.725714       -46.9591
  10   2.0000      -1.400948       -38.1217
  11   2.0000      -1.235390       -33.6167
  12   2.0000      -1.101126       -29.9632
  13   2.0000      -1.024055       -27.8659
  14   2.0000      -0.968469       -26.3534
  15   2.0000      -0.916661       -24.9436
  16   2.0000      -0.846064       -23.0226
  17   2.0000      -0.803264       -21.8579
  18   2.0000      -0.767181       -20.8761
  19   2.0000      -0.748666       -20.3723
  20   2.0000      -0.714722       -19.4486
  21   2.0000      -0.699592       -19.0369
  22   2.0000      -0.662805       -18.0358
  23   2.0000      -0.639532       -17.4025
  24   2.0000      -0.616988       -16.7891
  25   2.0000      -0.595156       -16.1950
  26   2.0000      -0.554091       -15.0776
  27   2.0000      -0.539682       -14.6855
  28   2.0000      -0.530266       -14.4293
  29   2.0000      -0.528824       -14.3900
  30   2.0000      -0.500725       -13.6254
  31   2.0000      -0.479990       -13.0612
  32   2.0000      -0.474281       -12.9058
  33   2.0000      -0.462619       -12.5885
  34   2.0000      -0.297033        -8.0827
  35   0.0000       0.022646         0.6162
  36   0.0000       0.032624         0.8877
  37   0.0000       0.035241         0.9590
  38   0.0000       0.040894         1.1128
  39   0.0000       0.052151         1.4191

MULLIKEN ATOMIC CHARGES
-----------------------
   0 C :   -0.021197
   1 C :   -0.517656
   2 C :   -0.304951
   3 H :    0.322458
   4 H :    0.265840
   5 C :    0.764961
   6 C :    0.770726
   7 N :   -0.807798
   8 C :   -1.474640
   9 H :    0.382602
  10 H :    0.752878
  11 H :   -0.008144
  12 H :    0.019250
  13 H :    0.204084
  14 H :    0.300819
  15 O :   -0.840202
  16 F :   -0.290574
  17 H :    0.125829
  18 H :    0.355715
Sum of atomic charges:   -0.0000000

LOEWDIN ATOMIC CHARGES
----------------------
   0 C :    0.301412
   1 C :    0.298034
   2 C :    0.285072
   3 H :   -0.158106
   4 H :   -0.168496
   5 C :   -0.841581
   6 C :   -0.288234
   7 N :    0.846774
   8 C :    0.554533
   9 H :   -0.260008
  10 H :   -0.602668
  11 H :   -0.281190
  12 H :   -0.270029
  13 H :   -0.145905
  14 H :   -0.129499
  15 O :    0.427613
  16 F :    0.728727
  17 H :   -0.154575
  18 H :   -0.141875

  Mayer bond orders larger than 0.100000
B(  0-C ,  1-C ) :   0.7977 B(  0-C ,  6-C ) :   0.5690 B(  0-C ,  7-N ) :  -0.1290
B(  0-C , 17-H ) :   1.0904 B(  0-C , 18-H ) :   0.9254 B(  1-C ,  2-C ) :   0.8585
B(  1-C ,  5-C ) :   0.1610 B(  1-C ,  6-C ) :   0.1691 B(  1-C , 13-H ) :   1.0075
B(  1-C , 14-H ) :   0.9019 B(  2-C ,  3-H ) :   0.9213 B(  2-C ,  4-H ) :   0.9688
B(  2-C ,  5-C ) :   0.7511 B(  5-C , 15-O ) :   1.4474 B(  5-C , 16-F ) :   0.8249
B(  6-C ,  7-N ) :   0.5992 B(  6-C ,  8-C ) :   1.1404 B(  6-C , 11-H ) :  -0.1405
B(  6-C , 18-H ) :  -0.1181 B(  7-N ,  8-C ) :  -0.3807 B(  7-N , 11-H ) :   1.3182
B(  7-N , 12-H ) :   1.2255 B(  8-C ,  9-H ) :   0.9448 B(  8-C , 10-H ) :   0.6755
B( 10-H , 16-F ) :  -0.2762

E(0)                                       ...   -461.889702040
E(0)                                       ...   -461.889702040
E(CORR)(strong-pairs)                      ...     -1.763899621
E(CORR)(weak-pairs)                        ...     -0.002240607
E(CORR)(corrected)                         ...     -1.766140228
E(TOT)                                     ...   -463.655842267
E(CCSD(T))                                 ...   -463.729615344
FINAL SINGLE POINT ENERGY      -463.729615344045

DIPOLE MOMENT
-------------
                                X             Y             Z
Electronic contribution:      6.15261      -2.84085       7.01678
Nuclear contribution   :     -6.99695       3.07955      -8.37829
                        -----------------------------------------
Total Dipole Moment    :     -0.84434       0.23870      -1.36151
                        -----------------------------------------
Magnitude (a.u.)       :      1.61976
Magnitude (Debye)      :      4.11709

Rotational constants in cm-1:     0.106302     0.035771     0.030198
Rotational constants in MHz :  3186.860872  1072.397550   905.318354

                             ****ORCA TERMINATED NORMALLY****
TOTAL RUN TIME: 0 days 1 hours 36 minutes 21 seconds 579 msec
