                         Program Version 5.0.0 -  RELEASE  -
|  1> !wB97X-D3 RIJCOSX def2-SVPD def2/J TightSCF CPCM(Water)
|  2> *xyz -1 1
|  3> C          1.44442        5.26658       -0.97546
|  4> O          1.56525        4.23349       -1.86489
|  5> C          0.14812        5.21087       -0.13809
|  6> H          1.47425        6.26464       -1.47692
|  7> H          2.28962        5.30327       -0.26445
|  8> H         -0.69779        5.17417       -0.79230
|  9> H          0.08430        6.08276        0.47887
| 10> H          0.15965        4.33708        0.47938
| 11> *
| 12> %MaxCore 64000
| 13>
| 14> %pal nprocs 18
| 15> end
| 16>
| 17> %scf
| 18>   MaxIter 150
| 19> end
| 20>
| 21>
| 22>                          ****END OF INPUT****

CARTESIAN COORDINATES (ANGSTROEM)
---------------------------------
  C      1.444420    5.266580   -0.975460
  O      1.565250    4.233490   -1.864890
  C      0.148120    5.210870   -0.138090
  H      1.474250    6.264640   -1.476920
  H      2.289620    5.303270   -0.264450
  H     -0.697790    5.174170   -0.792300
  H      0.084300    6.082760    0.478870
  H      0.159650    4.337080    0.479380

 Total Charge           Charge          ....   -1
 Multiplicity           Mult            ....    1
 Number of Electrons    NEL             ....   26
 Basis Dimension        Dim             ....  103

ORBITAL ENERGIES
----------------

  NO   OCC          E(Eh)            E(eV)
   0   2.0000     -19.120362      -520.2915
   1   2.0000     -10.287660      -279.9415
   2   2.0000     -10.245728      -278.8004
   3   2.0000      -0.989121       -26.9154
   4   2.0000      -0.805556       -21.9203
   5   2.0000      -0.656500       -17.8643
   6   2.0000      -0.526338       -14.3224
   7   2.0000      -0.498815       -13.5735
   8   2.0000      -0.448825       -12.2132
   9   2.0000      -0.430198       -11.7063
  10   2.0000      -0.413302       -11.2465
  11   2.0000      -0.272046        -7.4027
  12   2.0000      -0.270340        -7.3563
  13   0.0000       0.106768         2.9053
  14   0.0000       0.134442         3.6583
  15   0.0000       0.151393         4.1196
  16   0.0000       0.155630         4.2349
  17   0.0000       0.189100         5.1457

MULLIKEN ATOMIC CHARGES
-----------------------
   0 C :    0.101245
   1 O :   -0.958476
   2 C :    0.368451
   3 H :   -0.132732
   4 H :   -0.160013
   5 H :   -0.096897
   6 H :   -0.034307
   7 H :   -0.087271
Sum of atomic charges:   -1.0000000

LOEWDIN ATOMIC CHARGES
----------------------
   0 C :   -0.270605
   1 O :   -0.680832
   2 C :    0.081247
   3 H :   -0.013530
   4 H :   -0.018788
   5 H :   -0.033341
   6 H :   -0.031770
   7 H :   -0.032380

  Mayer bond orders larger than 0.100000
B(  0-C ,  1-O ) :   1.2851 B(  0-C ,  2-C ) :   1.2127 B(  0-C ,  3-H ) :   0.9647
B(  0-C ,  4-H ) :   0.9699 B(  0-C ,  5-H ) :   0.1562 B(  0-C ,  6-H ) :   0.1086
B(  0-C ,  7-H ) :   0.1489 B(  2-C ,  5-H ) :   0.8865 B(  2-C ,  6-H ) :   0.8774
B(  2-C ,  7-H ) :   0.8865

Dispersion correction           -0.000864061
FINAL SINGLE POINT ENERGY      -154.390642323564

DIPOLE MOMENT
-------------
                                X             Y             Z
Electronic contribution:      0.91293      -1.06142      -1.43294
Nuclear contribution   :     -1.83256       2.47114       3.17273
                        -----------------------------------------
Total Dipole Moment    :     -0.91962       1.40972       1.73979
                        -----------------------------------------
Magnitude (a.u.)       :      2.42072
Magnitude (Debye)      :      6.15299

Rotational constants in cm-1:     1.286062     0.322579     0.284728
Rotational constants in MHz : 38555.180127  9670.683110  8535.939140

                             ****ORCA TERMINATED NORMALLY****
TOTAL RUN TIME: 0 days 0 hours 0 minutes 5 seconds 299 msec
