                         Program Version 5.0.0 -  RELEASE  -
|  1> !wB97X-D3 RIJCOSX def2-SVPD def2/J TightSCF CPCM(Water)
|  2> *xyz 1 1
|  3> C         -0.70169        4.07250       -4.00392
|  4> N          0.68053        4.61482       -4.04800
|  5> H          0.69993        5.58489       -4.38827
|  6> H          1.27804        4.05598       -4.66824
|  7> H          1.08573        4.53358       -3.10652
|  8> C         -1.70347        5.09320       -3.47740
|  9> H         -0.99590        3.74039       -5.00065
| 10> H         -0.64358        3.20191       -3.35153
| 11> H         -1.73704        5.93384       -4.13853
| 12> H         -1.40338        5.41759       -2.50291
| 13> H         -2.67335        4.64479       -3.42108
| 14> *
| 15> %MaxCore 64000
| 16>
| 17> %pal nprocs 18
| 18> end
| 19>
| 20> %scf
| 21>   MaxIter 150
| 22> end
| 23>
| 24>
| 25>                          ****END OF INPUT****

CARTESIAN COORDINATES (ANGSTROEM)
---------------------------------
  C     -0.701690    4.072500   -4.003920
  N      0.680530    4.614820   -4.048000
  H      0.699930    5.584890   -4.388270
  H      1.278040    4.055980   -4.668240
  H      1.085730    4.533580   -3.106520
  C     -1.703470    5.093200   -3.477400
  H     -0.995900    3.740390   -5.000650
  H     -0.643580    3.201910   -3.351530
  H     -1.737040    5.933840   -4.138530
  H     -1.403380    5.417590   -2.502910
  H     -2.673350    4.644790   -3.421080

 Total Charge           Charge          ....    1
 Multiplicity           Mult            ....    1
 Number of Electrons    NEL             ....   26
 Basis Dimension        Dim             ....  124

ORBITAL ENERGIES
----------------

  NO   OCC          E(Eh)            E(eV)
   0   2.0000     -14.556213      -396.0947
   1   2.0000     -10.351391      -281.6757
   2   2.0000     -10.289413      -279.9892
   3   2.0000      -1.109879       -30.2013
   4   2.0000      -0.885366       -24.0920
   5   2.0000      -0.759272       -20.6608
   6   2.0000      -0.691483       -18.8162
   7   2.0000      -0.675130       -18.3712
   8   2.0000      -0.598563       -16.2877
   9   2.0000      -0.554297       -15.0832
  10   2.0000      -0.501303       -13.6412
  11   2.0000      -0.481131       -13.0923
  12   2.0000      -0.463262       -12.6060
  13   0.0000       0.085436         2.3248
  14   0.0000       0.119143         3.2421
  15   0.0000       0.127499         3.4694
  16   0.0000       0.146572         3.9884
  17   0.0000       0.167121         4.5476

MULLIKEN ATOMIC CHARGES
-----------------------
   0 C :    0.088124
   1 N :   -0.935883
   2 H :    0.469339
   3 H :    0.423118
   4 H :    0.479436
   5 C :    0.427580
   6 H :   -0.010134
   7 H :   -0.019866
   8 H :    0.016408
   9 H :    0.037562
  10 H :    0.024316
Sum of atomic charges:    1.0000000

LOEWDIN ATOMIC CHARGES
----------------------
   0 C :    0.053022
   1 N :    0.349724
   2 H :    0.117158
   3 H :    0.116812
   4 H :    0.119092
   5 C :    0.150201
   6 H :    0.050371
   7 H :    0.050188
   8 H :   -0.003687
   9 H :   -0.003367
  10 H :    0.000484

  Mayer bond orders larger than 0.100000
B(  0-C ,  1-N ) :   0.7481 B(  0-C ,  5-C ) :   1.3039 B(  0-C ,  6-H ) :   0.9790
B(  0-C ,  7-H ) :   0.9506 B(  0-C ,  8-H ) :   0.1423 B(  0-C ,  9-H ) :   0.1342
B(  0-C , 10-H ) :   0.1700 B(  1-N ,  2-H ) :   0.6308 B(  1-N ,  3-H ) :   0.7088
B(  1-N ,  4-H ) :   0.6319 B(  1-N ,  7-H ) :   0.1124 B(  5-C ,  8-H ) :   0.8640
B(  5-C ,  9-H ) :   0.8571 B(  5-C , 10-H ) :   0.8378

Dispersion correction           -0.001512076
FINAL SINGLE POINT ENERGY      -135.520966837826

DIPOLE MOMENT
-------------
                                X             Y             Z
Electronic contribution:      2.17814      -0.33055      -0.52242
Nuclear contribution   :     -0.23930       0.27560       0.19485
                        -----------------------------------------
Total Dipole Moment    :      1.93884      -0.05494      -0.32756
                        -----------------------------------------
Magnitude (a.u.)       :      1.96709
Magnitude (Debye)      :      4.99994

Rotational constants in cm-1:     1.018556     0.279088     0.248454
Rotational constants in MHz : 30535.536069  8366.847891  7448.451392

                             ****ORCA TERMINATED NORMALLY****
TOTAL RUN TIME: 0 days 0 hours 0 minutes 6 seconds 134 msec
