                         Program Version 5.0.0 -  RELEASE  -
|  1> !wB97X-D3 RIJCOSX def2-SVPD def2/J TightSCF CPCM(Water) xyzfile
|  2>
|  3> *xyzfile 0 1 B.xyz
|  4>
|  5> %MaxCore 64000
|  6>
|  7> %pal nprocs 18
|  8> end
|  9>
| 10> %scf
| 11>   MaxIter 150
| 12> end
| 13>
| 14>
| 15>                          ****END OF INPUT****

CARTESIAN COORDINATES (ANGSTROEM)
---------------------------------
  C     -0.701686    4.072499   -4.003920
  N      0.680528    4.614820   -4.048005
  C      1.444422    5.266576   -0.975463
  O      1.565248    4.233493   -1.864885
  H      0.699926    5.584890   -4.388272
  H      1.278044    4.055977   -4.668235
  H      1.085729    4.533581   -3.106524
  C     -1.703475    5.093197   -3.477396
  H     -0.995895    3.740394   -5.000654
  H     -0.643580    3.201910   -3.351533
  C     -1.313997    5.785995   -2.169271
  H     -1.877057    5.850103   -4.251154
  H     -2.653264    4.564475   -3.354796
  H     -2.097137    6.509395   -1.929558
  H     -0.416875    6.387594   -2.339097
  C     -1.073895    4.844728   -0.979904
  H     -1.968893    4.809608   -0.352568
  C      0.148120    5.210874   -0.138092
  H     -0.909754    3.827531   -1.338975
  H      1.474250    6.264638   -1.476917
  H      2.289622    5.303267   -0.264450
  H      0.261827    4.450942    0.640711
  H     -0.002516    6.171031    0.371483

 Total Charge           Charge          ....    0
 Multiplicity           Mult            ....    1
 Number of Electrons    NEL             ....   66
 Basis Dimension        Dim             ....  283

ORBITAL ENERGIES
----------------

  NO   OCC          E(Eh)            E(eV)
   0   2.0000     -19.141673      -520.8714
   1   2.0000     -14.485793      -394.1785
   2   2.0000     -10.328955      -281.0652
   3   2.0000     -10.297842      -280.2185
   4   2.0000     -10.289116      -279.9811
   5   2.0000     -10.277060      -279.6530
   6   2.0000     -10.268921      -279.4315
   7   2.0000     -10.262189      -279.2484
   8   2.0000      -1.071532       -29.1579
   9   2.0000      -1.020042       -27.7568
  10   2.0000      -0.909013       -24.7355
  11   2.0000      -0.853026       -23.2120
  12   2.0000      -0.796443       -21.6723
  13   2.0000      -0.740183       -20.1414
  14   2.0000      -0.688336       -18.7306
  15   2.0000      -0.657896       -17.9023
  16   2.0000      -0.642015       -17.4701
  17   2.0000      -0.630193       -17.1484
  18   2.0000      -0.571307       -15.5460
  19   2.0000      -0.558491       -15.1973
  20   2.0000      -0.553798       -15.0696
  21   2.0000      -0.516337       -14.0502
  22   2.0000      -0.504135       -13.7182
  23   2.0000      -0.484426       -13.1819
  24   2.0000      -0.472564       -12.8591
  25   2.0000      -0.454829       -12.3765
  26   2.0000      -0.445566       -12.1245
  27   2.0000      -0.429624       -11.6907
  28   2.0000      -0.407393       -11.0857
  29   2.0000      -0.401819       -10.9341
  30   2.0000      -0.394933       -10.7467
  31   2.0000      -0.299388        -8.1468
  32   2.0000      -0.297665        -8.0999
  33   0.0000       0.093345         2.5400
  34   0.0000       0.110456         3.0057
  35   0.0000       0.112359         3.0574
  36   0.0000       0.118343         3.2203
  37   0.0000       0.141584         3.8527

MULLIKEN ATOMIC CHARGES
-----------------------
   0 C :    0.638270
   1 N :   -0.211866
   2 C :    0.501008
   3 O :   -0.715758
   4 H :    0.428992
   5 H :    0.379425
   6 H :   -0.500227
   7 C :    0.069202
   8 H :   -0.213511
   9 H :    0.095099
  10 C :    0.072994
  11 H :    0.058390
  12 H :   -0.076435
  13 H :   -0.204193
  14 H :    0.004802
  15 C :    0.075781
  16 H :   -0.218176
  17 C :    0.156577
  18 H :    0.058383
  19 H :    0.163292
  20 H :   -0.419876
  21 H :    0.000219
  22 H :   -0.142391
Sum of atomic charges:    0.0000000

LOEWDIN ATOMIC CHARGES
----------------------
   0 C :    0.092014
   1 N :    0.332301
   2 C :   -0.093065
   3 O :   -0.447163
   4 H :    0.103596
   5 H :    0.104365
   6 H :   -0.201204
   7 C :   -0.015029
   8 H :    0.039022
   9 H :    0.030351
  10 C :   -0.014641
  11 H :    0.030752
  12 H :    0.033534
  13 H :    0.022712
  14 H :   -0.001609
  15 C :   -0.027455
  16 H :    0.017683
  17 C :   -0.039324
  18 H :   -0.004073
  19 H :    0.005201
  20 H :   -0.001778
  21 H :    0.014248
  22 H :    0.019561

  Mayer bond orders larger than 0.100000
B(  0-C ,  1-N ) :   0.7992 B(  0-C ,  7-C ) :   1.2014 B(  0-C ,  8-H ) :   0.9710
B(  0-C ,  9-H ) :   0.7425 B(  0-C , 11-H ) :   0.1172 B(  0-C , 12-H ) :   0.1392
B(  1-N ,  4-H ) :   0.7172 B(  1-N ,  5-H ) :   0.7787 B(  1-N ,  6-H ) :   1.4131
B(  1-N ,  9-H ) :   0.1412 B(  2-C ,  3-O ) :   1.0531 B(  2-C , 17-C ) :   1.1428
B(  2-C , 19-H ) :   0.7606 B(  2-C , 20-H ) :   1.0329 B(  2-C , 21-H ) :   0.1067
B(  2-C , 22-H ) :   0.1048 B(  3-O ,  6-H ) :   0.4305 B(  7-C ,  9-H ) :   0.1240
B(  7-C , 10-C ) :   1.2398 B(  7-C , 11-H ) :   0.7616 B(  7-C , 12-H ) :   0.9252
B(  7-C , 13-H ) :   0.1183 B(  8-H ,  9-H ) :  -0.1206 B( 10-C , 11-H ) :   0.1690
B( 10-C , 12-H ) :   0.1034 B( 10-C , 13-H ) :   0.8315 B( 10-C , 14-H ) :   0.8839
B( 10-C , 15-C ) :   1.1977 B( 10-C , 16-H ) :   0.1942 B( 13-H , 15-C ) :   0.1498
B( 14-H , 15-C ) :   0.1040 B( 15-C , 16-H ) :   0.8932 B( 15-C , 17-C ) :   1.2423
B( 15-C , 18-H ) :   0.8328 B( 15-C , 21-H ) :   0.1865 B( 15-C , 22-H ) :   0.1238
B( 17-C , 18-H ) :   0.1011 B( 17-C , 20-H ) :   0.1483 B( 17-C , 21-H ) :   0.7347
B( 17-C , 22-H ) :   0.9221 B( 19-H , 20-H ) :  -0.1039

Dispersion correction           -0.009075075
FINAL SINGLE POINT ENERGY      -367.297234583463

DIPOLE MOMENT
-------------
                                X             Y             Z
Electronic contribution:      1.61997      -1.17873      -1.98648
Nuclear contribution   :     -3.16446       1.92310      -1.11926
                        -----------------------------------------
Total Dipole Moment    :     -1.54449       0.74438      -3.10573
                        -----------------------------------------
Magnitude (a.u.)       :      3.54755
Magnitude (Debye)      :      9.01717

Rotational constants in cm-1:     0.085554     0.055600     0.038553
Rotational constants in MHz :  2564.854379  1666.836664  1155.798427

                             ****ORCA TERMINATED NORMALLY****
TOTAL RUN TIME: 0 days 0 hours 0 minutes 28 seconds 405 msec
