                         Program Version 5.0.0 -  RELEASE  -
|  1> !wB97X-D3 RIJCOSX def2-SVPD def2/J TightSCF CPCM(Water)
|  2> *xyz 0 1
|  3> C          1.44442        5.26658       -0.97546
|  4> F          1.56525        4.23349       -1.86489
|  5> C          0.14812        5.21087       -0.13809
|  6> H          1.47425        6.26464       -1.47692
|  7> H          2.28962        5.30327       -0.26445
|  8> H         -0.69779        5.17417       -0.79230
|  9> H          0.08430        6.08276        0.47887
| 10> H          0.15965        4.33708        0.47938
| 11> *
| 12> %MaxCore 64000
| 13>
| 14> %pal nprocs 18
| 15> end
| 16>
| 17> %scf
| 18>   MaxIter 150
| 19> end
| 20>
| 21>
| 22>                          ****END OF INPUT****

CARTESIAN COORDINATES (ANGSTROEM)
---------------------------------
  C      1.444420    5.266580   -0.975460
  F      1.565250    4.233490   -1.864890
  C      0.148120    5.210870   -0.138090
  H      1.474250    6.264640   -1.476920
  H      2.289620    5.303270   -0.264450
  H     -0.697790    5.174170   -0.792300
  H      0.084300    6.082760    0.478870
  H      0.159650    4.337080    0.479380

 Total Charge           Charge          ....    0
 Multiplicity           Mult            ....    1
 Number of Electrons    NEL             ....   26
 Basis Dimension        Dim             ....  103

ORBITAL ENERGIES
----------------

  NO   OCC          E(Eh)            E(eV)
   0   2.0000     -24.797821      -674.7830
   1   2.0000     -10.364903      -282.0434
   2   2.0000     -10.276936      -279.6496
   3   2.0000      -1.307470       -35.5781
   4   2.0000      -0.866201       -23.5705
   5   2.0000      -0.734360       -19.9830
   6   2.0000      -0.615295       -16.7430
   7   2.0000      -0.599419       -16.3110
   8   2.0000      -0.565185       -15.3795
   9   2.0000      -0.503046       -13.6886
  10   2.0000      -0.491025       -13.3615
  11   2.0000      -0.432041       -11.7564
  12   2.0000      -0.422726       -11.5030
  13   0.0000       0.100856         2.7444
  14   0.0000       0.129241         3.5168
  15   0.0000       0.154856         4.2138
  16   0.0000       0.166563         4.5324
  17   0.0000       0.197648         5.3783

MULLIKEN ATOMIC CHARGES
-----------------------
   0 C :    0.322014
   1 F :   -0.480511
   2 C :    0.202479
   3 H :    0.010986
   4 H :   -0.021698
   5 H :   -0.027914
   6 H :    0.014745
   7 H :   -0.020101
Sum of atomic charges:    0.0000000

LOEWDIN ATOMIC CHARGES
----------------------
   0 C :    0.069817
   1 F :   -0.244692
   2 C :    0.134691
   3 H :    0.040565
   4 H :    0.033748
   5 H :   -0.013757
   6 H :   -0.006325
   7 H :   -0.014048

  Mayer bond orders larger than 0.100000
B(  0-C ,  1-F ) :   0.7209 B(  0-C ,  2-C ) :   1.3240 B(  0-C ,  3-H ) :   0.9579
B(  0-C ,  4-H ) :   0.9677 B(  0-C ,  5-H ) :   0.1227 B(  0-C ,  6-H ) :   0.1060
B(  0-C ,  7-H ) :   0.1164 B(  2-C ,  5-H ) :   0.9096 B(  2-C ,  6-H ) :   0.8806
B(  2-C ,  7-H ) :   0.9096

Dispersion correction           -0.000873893
FINAL SINGLE POINT ENERGY      -178.892057050752

DIPOLE MOMENT
-------------
                                X             Y             Z
Electronic contribution:      2.29028      -2.58672      -3.57163
Nuclear contribution   :     -2.43357       3.25919       4.19687
                        -----------------------------------------
Total Dipole Moment    :     -0.14329       0.67247       0.62524
                        -----------------------------------------
Magnitude (a.u.)       :      0.92934
Magnitude (Debye)      :      2.36221

Rotational constants in cm-1:     1.264662     0.300144     0.266170
Rotational constants in MHz : 37913.611527  8998.095216  7979.576054

                             ****ORCA TERMINATED NORMALLY****
TOTAL RUN TIME: 0 days 0 hours 0 minutes 5 seconds 2 msec
