                         Program Version 5.0.0 -  RELEASE  -
|  1> !wB97X-D3 RIJCOSX def2-SVPD def2/J TightSCF CPCM(Water)
|  2> *xyz 0 1
|  3> C         -0.70169        4.07250       -4.00392
|  4> C          0.68053        4.61482       -4.04800
|  5> H          0.69993        5.58489       -4.38827
|  6> H          1.27804        4.05598       -4.66824
|  7> H          1.08573        4.53358       -3.10652
|  8> C         -1.70347        5.09320       -3.47740
|  9> H         -0.99590        3.74039       -5.00065
| 10> H         -0.64358        3.20191       -3.35153
| 11> H         -1.73704        5.93384       -4.13853
| 12> H         -1.40338        5.41759       -2.50291
| 13> H         -2.67335        4.64479       -3.42108
| 14> *
| 15> %MaxCore 64000
| 16>
| 17> %pal nprocs 18
| 18> end
| 19>
| 20> %scf
| 21>   MaxIter 150
| 22> end
| 23>
| 24>
| 25>                          ****END OF INPUT****

CARTESIAN COORDINATES (ANGSTROEM)
---------------------------------
  C     -0.701690    4.072500   -4.003920
  C      0.680530    4.614820   -4.048000
  H      0.699930    5.584890   -4.388270
  H      1.278040    4.055980   -4.668240
  H      1.085730    4.533580   -3.106520
  C     -1.703470    5.093200   -3.477400
  H     -0.995900    3.740390   -5.000650
  H     -0.643580    3.201910   -3.351530
  H     -1.737040    5.933840   -4.138530
  H     -1.403380    5.417590   -2.502910
  H     -2.673350    4.644790   -3.421080

 Total Charge           Charge          ....    0
 Multiplicity           Mult            ....    1
 Number of Electrons    NEL             ....   26
 Basis Dimension        Dim             ....  124

ORBITAL ENERGIES
----------------

  NO   OCC          E(Eh)            E(eV)
   0   2.0000     -10.271487      -279.5014
   1   2.0000     -10.263676      -279.2888
   2   2.0000     -10.245137      -278.7843
   3   2.0000      -0.898682       -24.4544
   4   2.0000      -0.794330       -21.6148
   5   2.0000      -0.685275       -18.6473
   6   2.0000      -0.567819       -15.4511
   7   2.0000      -0.542279       -14.7562
   8   2.0000      -0.496689       -13.5156
   9   2.0000      -0.484673       -13.1886
  10   2.0000      -0.427489       -11.6326
  11   2.0000      -0.423910       -11.5352
  12   2.0000      -0.414987       -11.2924
  13   0.0000       0.102201         2.7810
  14   0.0000       0.127603         3.4722
  15   0.0000       0.135002         3.6736
  16   0.0000       0.167892         4.5686
  17   0.0000       0.185778         5.0553

MULLIKEN ATOMIC CHARGES
-----------------------
   0 C :   -0.666856
   1 C :    0.840985
   2 H :   -0.197383
   3 H :   -0.151114
   4 H :   -0.117845
   5 C :    0.539868
   6 H :   -0.083145
   7 H :   -0.059984
   8 H :   -0.013656
   9 H :   -0.037137
  10 H :   -0.053732
Sum of atomic charges:   -0.0000000

LOEWDIN ATOMIC CHARGES
----------------------
   0 C :   -0.122882
   1 C :    0.107976
   2 H :   -0.028868
   3 H :   -0.032443
   4 H :   -0.026303
   5 C :    0.109493
   6 H :    0.021164
   7 H :    0.021530
   8 H :   -0.014958
   9 H :   -0.013954
  10 H :   -0.020756

  Mayer bond orders larger than 0.100000
B(  0-C ,  1-C ) :   1.2707 B(  0-C ,  2-H ) :   0.1878 B(  0-C ,  3-H ) :   0.1933
B(  0-C ,  4-H ) :   0.2515 B(  0-C ,  5-C ) :   1.2425 B(  0-C ,  6-H ) :   0.9774
B(  0-C ,  7-H ) :   0.9554 B(  0-C ,  8-H ) :   0.1471 B(  0-C ,  9-H ) :   0.1726
B(  0-C , 10-H ) :   0.1743 B(  1-C ,  2-H ) :   0.7774 B(  1-C ,  3-H ) :   0.7507
B(  1-C ,  4-H ) :   0.7132 B(  1-C ,  7-H ) :   0.1187 B(  5-C ,  8-H ) :   0.8491
B(  5-C ,  9-H ) :   0.8556 B(  5-C , 10-H ) :   0.8436

Dispersion correction           -0.001459471
FINAL SINGLE POINT ENERGY      -119.013328368381

DIPOLE MOMENT
-------------
                                X             Y             Z
Electronic contribution:     -0.12469      -0.31480      -0.13745
Nuclear contribution   :      0.16058       0.27975       0.12812
                        -----------------------------------------
Total Dipole Moment    :      0.03588      -0.03505      -0.00933
                        -----------------------------------------
Magnitude (a.u.)       :      0.05102
Magnitude (Debye)      :      0.12969

Rotational constants in cm-1:     1.027122     0.293327     0.260229
Rotational constants in MHz : 30792.337141  8793.723318  7801.458329

                             ****ORCA TERMINATED NORMALLY****
TOTAL RUN TIME: 0 days 0 hours 0 minutes 6 seconds 853 msec
