                         Program Version 5.0.0 -  RELEASE  -
|  1> !CAM-B3LYP RIJCOSX def2-SVP def2/J TightSCF
|  2> *xyz -1 1
|  3> C         -0.10608        1.76991       -4.08984
|  4> C         -0.25875        1.00432       -5.40983
|  5> C          0.39596       -0.37070       -5.33994
|  6> H          0.23915        1.56939       -6.20125
|  7> H         -1.30936        0.88869       -5.68245
|  8> O         -0.32633       -1.39040       -5.49128
|  9> O          1.61941       -0.40073       -5.03683
| 10> H         -0.57627        2.72718       -4.17630
| 11> H          0.93321        1.90140       -3.87192
| 12> H         -0.56868        1.21534       -3.30031
| 13> *
| 14> %MaxCore 64000
| 15>
| 16> %pal nprocs 4
| 17> end
| 18>
| 19> %scf
| 20>   MaxIter 150
| 21> end
| 22>
| 23>
| 24>                          ****END OF INPUT****

CARTESIAN COORDINATES (ANGSTROEM)
---------------------------------
  C     -0.106080    1.769910   -4.089840
  C     -0.258750    1.004320   -5.409830
  C      0.395960   -0.370700   -5.339940
  H      0.239150    1.569390   -6.201250
  H     -1.309360    0.888690   -5.682450
  O     -0.326330   -1.390400   -5.491280
  O      1.619410   -0.400730   -5.036830
  H     -0.576270    2.727180   -4.176300
  H      0.933210    1.901400   -3.871920
  H     -0.568680    1.215340   -3.300310

 Total Charge           Charge          ....   -1
 Multiplicity           Mult            ....    1
 Number of Electrons    NEL             ....   40
 Basis Dimension        Dim             ....   95

ORBITAL ENERGIES
----------------

  NO   OCC          E(Eh)            E(eV)
   0   2.0000     -18.904391      -514.4146
   1   2.0000     -18.903656      -514.3946
   2   2.0000     -10.111439      -275.1462
   3   2.0000     -10.088218      -274.5144
   4   2.0000     -10.067741      -273.9572
   5   2.0000      -0.853147       -23.2153
   6   2.0000      -0.755765       -20.5654
   7   2.0000      -0.668060       -18.1788
   8   2.0000      -0.532928       -14.5017
   9   2.0000      -0.372478       -10.1357
  10   2.0000      -0.350532        -9.5385
  11   2.0000      -0.305795        -8.3211
  12   2.0000      -0.278599        -7.5811
  13   2.0000      -0.262361        -7.1392
  14   2.0000      -0.250887        -6.8270
  15   2.0000      -0.215937        -5.8759
  16   2.0000      -0.201882        -5.4935
  17   2.0000      -0.073591        -2.0025
  18   2.0000      -0.071930        -1.9573
  19   2.0000      -0.056122        -1.5272
  20   0.0000       0.257556         7.0085
  21   0.0000       0.308515         8.3951
  22   0.0000       0.323637         8.8066
  23   0.0000       0.325756         8.8643
  24   0.0000       0.336069         9.1449

MULLIKEN ATOMIC CHARGES
-----------------------
   0 C :    0.031084
   1 C :    0.042989
   2 C :   -0.005880
   3 H :   -0.051749
   4 H :   -0.063943
   5 O :   -0.424403
   6 O :   -0.440585
   7 H :   -0.057533
   8 H :   -0.010070
   9 H :   -0.019909
Sum of atomic charges:   -1.0000000

LOEWDIN ATOMIC CHARGES
----------------------
   0 C :   -0.058658
   1 C :   -0.085967
   2 C :   -0.051315
   3 H :    0.001696
   4 H :   -0.006257
   5 O :   -0.400138
   6 O :   -0.410393
   7 H :   -0.008986
   8 H :    0.010622
   9 H :    0.009396

  Mayer bond orders larger than 0.100000
B(  0-C ,  1-C ) :   1.0963 B(  0-C ,  7-H ) :   0.9635 B(  0-C ,  8-H ) :   0.9623
B(  0-C ,  9-H ) :   0.9725 B(  1-C ,  2-C ) :   0.9246 B(  1-C ,  3-H ) :   0.9315
B(  1-C ,  4-H ) :   0.9330 B(  2-C ,  5-O ) :   1.8894 B(  2-C ,  6-O ) :   1.8368
B(  5-O ,  6-O ) :   0.1099

FINAL SINGLE POINT ENERGY      -267.496930172608

DIPOLE MOMENT
-------------
                                X             Y             Z
Electronic contribution:      1.80654      -5.48065      -1.70643
Nuclear contribution   :     -2.46071       7.20791       1.95694
                        -----------------------------------------
Total Dipole Moment    :     -0.65417       1.72726       0.25050
                        -----------------------------------------
Magnitude (a.u.)       :      1.86390
Magnitude (Debye)      :      4.73766

Rotational constants in cm-1:     0.309435     0.135317     0.107436
Rotational constants in MHz :  9276.637721  4056.700783  3220.846587

                             ****ORCA TERMINATED NORMALLY****
TOTAL RUN TIME: 0 days 0 hours 0 minutes 15 seconds 257 msec
