                         Program Version 5.0.0 -  RELEASE  -
|  1> !CAM-B3LYP RIJCOSX def2-SVP def2/J TightSCF
|  2> *xyz 1 1
|  3> C          0.81607       -2.10149       -2.18655
|  4> H          1.69623       -2.36869       -1.60046
|  5> N          1.10055       -2.46749       -3.59927
|  6> C          0.51624       -0.61363       -2.03937
|  7> H         -0.02007       -2.71285       -1.84084
|  8> H          1.70061       -1.75723       -4.07838
|  9> H          0.29386       -2.35977       -4.25632
| 10> H          1.50132       -3.42848       -3.69491
| 11> H         -0.34841       -0.36504       -2.61858
| 12> H          1.35358       -0.04503       -2.38643
| 13> H          0.33317       -0.38682       -1.00984
| 14> *
| 15> %MaxCore 64000
| 16>
| 17> %pal nprocs 4
| 18> end
| 19>
| 20> %scf
| 21>   MaxIter 150
| 22> end
| 23>
| 24>
| 25>                          ****END OF INPUT****

CARTESIAN COORDINATES (ANGSTROEM)
---------------------------------
  C      0.816070   -2.101490   -2.186550
  H      1.696230   -2.368690   -1.600460
  N      1.100550   -2.467490   -3.599270
  C      0.516240   -0.613630   -2.039370
  H     -0.020070   -2.712850   -1.840840
  H      1.700610   -1.757230   -4.078380
  H      0.293860   -2.359770   -4.256320
  H      1.501320   -3.428480   -3.694910
  H     -0.348410   -0.365040   -2.618580
  H      1.353580   -0.045030   -2.386430
  H      0.333170   -0.386820   -1.009840

 Total Charge           Charge          ....    1
 Multiplicity           Mult            ....    1
 Number of Electrons    NEL             ....   26
 Basis Dimension        Dim             ....   82

ORBITAL ENERGIES
----------------

  NO   OCC          E(Eh)            E(eV)
   0   2.0000     -14.745638      -401.2492
   1   2.0000     -10.513138      -286.0770
   2   2.0000     -10.435088      -283.9532
   3   2.0000      -1.286278       -35.0014
   4   2.0000      -1.041441       -28.3390
   5   2.0000      -0.924562       -25.1586
   6   2.0000      -0.862474       -23.4691
   7   2.0000      -0.846203       -23.0263
   8   2.0000      -0.772455       -21.0196
   9   2.0000      -0.707090       -19.2409
  10   2.0000      -0.649892       -17.6845
  11   2.0000      -0.635001       -17.2793
  12   2.0000      -0.616193       -16.7675
  13   0.0000      -0.145674        -3.9640
  14   0.0000      -0.085025        -2.3136
  15   0.0000      -0.081075        -2.2062
  16   0.0000      -0.050252        -1.3674
  17   0.0000      -0.004982        -0.1356

MULLIKEN ATOMIC CHARGES
-----------------------
   0 C :   -0.012380
   1 H :    0.098238
   2 N :   -0.022822
   3 C :   -0.027099
   4 H :    0.101779
   5 H :    0.210122
   6 H :    0.213474
   7 H :    0.234778
   8 H :    0.055570
   9 H :    0.055479
  10 H :    0.092860
Sum of atomic charges:    1.0000000

LOEWDIN ATOMIC CHARGES
----------------------
   0 C :    0.051338
   1 H :    0.056026
   2 N :    0.270076
   3 C :   -0.040305
   4 H :    0.056784
   5 H :    0.151661
   6 H :    0.153473
   7 H :    0.158480
   8 H :    0.039126
   9 H :    0.038837
  10 H :    0.064505

  Mayer bond orders larger than 0.100000
B(  0-C ,  1-H ) :   0.9532 B(  0-C ,  2-N ) :   0.9169 B(  0-C ,  3-C ) :   1.0986
B(  0-C ,  4-H ) :   0.9530 B(  2-N ,  5-H ) :   0.9294 B(  2-N ,  6-H ) :   0.9288
B(  2-N ,  7-H ) :   0.9244 B(  3-C ,  8-H ) :   0.9728 B(  3-C ,  9-H ) :   0.9684
B(  3-C , 10-H ) :   0.9576

FINAL SINGLE POINT ENERGY      -135.348710468295

DIPOLE MOMENT
-------------
                                X             Y             Z
Electronic contribution:      0.43513      -1.46884      -1.12907
Nuclear contribution   :     -0.07506       0.54337      -0.16191
                        -----------------------------------------
Total Dipole Moment    :      0.36008      -0.92548      -1.29098
                        -----------------------------------------
Magnitude (a.u.)       :      1.62874
Magnitude (Debye)      :      4.13992

Rotational constants in cm-1:     0.999557     0.280801     0.246932
Rotational constants in MHz : 29965.963633  8418.199581  7402.841054

                             ****ORCA TERMINATED NORMALLY****
TOTAL RUN TIME: 0 days 0 hours 0 minutes 11 seconds 813 msec
