                         Program Version 5.0.0 -  RELEASE  -
|  1> !CAM-B3LYP RIJCOSX def2-TZVP def2/J TightSCF xyzfile
|  2>
|  3> *xyzfile 0 1 B.xyz
|  4>
|  5> %MaxCore 64000
|  6>
|  7> %pal nprocs 18
|  8> end
|  9>
| 10> %scf
| 11>   MaxIter 150
| 12> end
| 13>
| 14>
| 15>                          ****END OF INPUT****

CARTESIAN COORDINATES (ANGSTROEM)
---------------------------------
  C      0.816067   -2.101491   -2.186546
  H      1.696232   -2.368691   -1.600457
  N      1.100552   -2.467492   -3.599269
  C      0.516243   -0.613634   -2.039373
  H     -0.020066   -2.712849   -1.840844
  C     -0.868621   -0.193925   -2.546303
  C     -0.984801    1.284739   -2.928686
  H     -0.764939    1.904116   -2.051568
  H     -2.032613    1.478953   -3.178952
  C     -0.106085    1.769914   -4.089836
  H     -0.347744    2.822196   -4.262942
  H      0.949683    1.745875   -3.808781
  C     -0.258747    1.004323   -5.409829
  C      0.395958   -0.370696   -5.339939
  H      0.239150    1.569393   -6.201253
  H     -1.309360    0.888694   -5.682455
  H      1.700606   -1.757225   -4.078378
  H      0.293855   -2.359766   -4.256324
  H      1.501324   -3.428479   -3.694915
  O     -0.326329   -1.390398   -5.491279
  O      1.619412   -0.400726   -5.036827
  H     -1.607271   -0.412651   -1.768955
  H     -1.157234   -0.796164   -3.409254
  H      1.299044   -0.056805   -2.558982
  H      0.612393   -0.365579   -0.979171

 Total Charge           Charge          ....    0
 Multiplicity           Mult            ....    1
 Number of Electrons    NEL             ....   80
 Basis Dimension        Dim             ....  400

ORBITAL ENERGIES
----------------

  NO   OCC          E(Eh)            E(eV)
   0   2.0000     -19.131048      -520.5823
   1   2.0000     -19.129730      -520.5464
   2   2.0000     -14.475388      -393.8953
   3   2.0000     -10.319676      -280.8127
   4   2.0000     -10.317012      -280.7402
   5   2.0000     -10.257249      -279.1139
   6   2.0000     -10.238876      -278.6140
   7   2.0000     -10.234657      -278.4992
   8   2.0000     -10.227631      -278.3080
   9   2.0000     -10.218857      -278.0692
  10   2.0000      -1.111939       -30.2574
  11   2.0000      -1.061258       -28.8783
  12   2.0000      -1.009705       -27.4755
  13   2.0000      -0.898960       -24.4619
  14   2.0000      -0.854886       -23.2626
  15   2.0000      -0.806539       -21.9470
  16   2.0000      -0.740801       -20.1582
  17   2.0000      -0.705805       -19.2059
  18   2.0000      -0.650504       -17.7011
  19   2.0000      -0.639906       -17.4127
  20   2.0000      -0.614960       -16.7339
  21   2.0000      -0.587576       -15.9887
  22   2.0000      -0.553301       -15.0561
  23   2.0000      -0.540586       -14.7101
  24   2.0000      -0.526329       -14.3221
  25   2.0000      -0.514972       -14.0131
  26   2.0000      -0.493766       -13.4361
  27   2.0000      -0.487414       -13.2632
  28   2.0000      -0.468163       -12.7394
  29   2.0000      -0.457536       -12.4502
  30   2.0000      -0.452822       -12.3219
  31   2.0000      -0.438847       -11.9416
  32   2.0000      -0.418146       -11.3783
  33   2.0000      -0.413786       -11.2597
  34   2.0000      -0.388909       -10.5827
  35   2.0000      -0.375064       -10.2060
  36   2.0000      -0.370665       -10.0863
  37   2.0000      -0.313105        -8.5200
  38   2.0000      -0.301967        -8.2169
  39   2.0000      -0.294953        -8.0261
  40   0.0000       0.034857         0.9485
  41   0.0000       0.072111         1.9622
  42   0.0000       0.084553         2.3008
  43   0.0000       0.095677         2.6035
  44   0.0000       0.098116         2.6699

MULLIKEN ATOMIC CHARGES
-----------------------
   0 C :   -0.149695
   1 H :    0.140077
   2 N :   -0.303506
   3 C :   -0.262359
   4 H :    0.139035
   5 C :   -0.238586
   6 C :   -0.206024
   7 H :    0.096359
   8 H :    0.106154
   9 C :   -0.225708
  10 H :    0.104113
  11 H :    0.123787
  12 C :   -0.140952
  13 C :    0.221948
  14 H :    0.105338
  15 H :    0.092709
  16 H :    0.297927
  17 H :    0.296889
  18 H :    0.262662
  19 O :   -0.487560
  20 O :   -0.504412
  21 H :    0.101151
  22 H :    0.150062
  23 H :    0.165788
  24 H :    0.114805
Sum of atomic charges:   -0.0000000

LOEWDIN ATOMIC CHARGES
----------------------
   0 C :   -0.277007
   1 H :    0.134674
   2 N :    0.115114
   3 C :   -0.266707
   4 H :    0.136289
   5 C :   -0.269585
   6 C :   -0.265852
   7 H :    0.134487
   8 H :    0.138103
   9 C :   -0.266675
  10 H :    0.135354
  11 H :    0.137707
  12 C :   -0.234004
  13 C :   -0.632054
  14 H :    0.145733
  15 H :    0.138404
  16 H :    0.183393
  17 H :    0.183957
  18 H :    0.194332
  19 O :   -0.070130
  20 O :   -0.064687
  21 H :    0.133880
  22 H :    0.144916
  23 H :    0.148930
  24 H :    0.141429

  Mayer bond orders larger than 0.100000
B(  0-C ,  1-H ) :   0.9828 B(  0-C ,  2-N ) :   0.8912 B(  0-C ,  3-C ) :   0.9542
B(  0-C ,  4-H ) :   0.9781 B(  2-N , 16-H ) :   0.7650 B(  2-N , 17-H ) :   0.7758
B(  2-N , 18-H ) :   0.9072 B(  3-C ,  5-C ) :   0.8941 B(  3-C , 23-H ) :   0.9796
B(  3-C , 24-H ) :   0.9630 B(  5-C ,  6-C ) :   0.9455 B(  5-C , 21-H ) :   0.9685
B(  5-C , 22-H ) :   0.9832 B(  6-C ,  7-H ) :   0.9779 B(  6-C ,  8-H ) :   0.9779
B(  6-C ,  9-C ) :   0.9633 B(  9-C , 10-H ) :   0.9780 B(  9-C , 11-H ) :   0.9806
B(  9-C , 12-C ) :   0.9355 B( 12-C , 13-C ) :   0.9434 B( 12-C , 14-H ) :   0.9523
B( 12-C , 15-H ) :   0.9726 B( 13-C , 19-O ) :   1.7458 B( 13-C , 20-O ) :   1.7019
B( 16-H , 20-O ) :   0.1971 B( 17-H , 19-O ) :   0.1872

FINAL SINGLE POINT ENERGY      -480.945657776949

DIPOLE MOMENT
-------------
                                X             Y             Z
Electronic contribution:      2.30252      -3.11216      -6.24986
Nuclear contribution   :     -2.02598       1.95876       8.24116
                        -----------------------------------------
Total Dipole Moment    :      0.27654      -1.15340       1.99130
                        -----------------------------------------
Magnitude (a.u.)       :      2.31777
Magnitude (Debye)      :      5.89131

Rotational constants in cm-1:     0.052900     0.041948     0.028766
Rotational constants in MHz :  1585.892512  1257.572595   862.390225

                             ****ORCA TERMINATED NORMALLY****
TOTAL RUN TIME: 0 days 0 hours 0 minutes 54 seconds 484 msec
