                         Program Version 5.0.0 -  RELEASE  -
|  1> !CAM-B3LYP RIJCOSX def2-SVP def2/J TightSCF
|  2> *xyz 0 1
|  3> C         -0.10608        1.76991       -4.08984
|  4> C         -0.25875        1.00432       -5.40983
|  5> C          0.39596       -0.37070       -5.33994
|  6> H          0.23915        1.56939       -6.20125
|  7> H         -1.30936        0.88869       -5.68245
|  8> F         -0.32633       -1.39040       -5.49128
|  9> O          1.61941       -0.40073       -5.03683
| 10> H         -0.57627        2.72718       -4.17630
| 11> H          0.93321        1.90140       -3.87192
| 12> H         -0.56868        1.21534       -3.30031
| 13> *
| 14> %MaxCore 64000
| 15>
| 16> %pal nprocs 4
| 17> end
| 18>
| 19> %scf
| 20>   MaxIter 150
| 21> end
| 22>
| 23>
| 24>                          ****END OF INPUT****

CARTESIAN COORDINATES (ANGSTROEM)
---------------------------------
  C     -0.106080    1.769910   -4.089840
  C     -0.258750    1.004320   -5.409830
  C      0.395960   -0.370700   -5.339940
  H      0.239150    1.569390   -6.201250
  H     -1.309360    0.888690   -5.682450
  F     -0.326330   -1.390400   -5.491280
  O      1.619410   -0.400730   -5.036830
  H     -0.576270    2.727180   -4.176300
  H      0.933210    1.901400   -3.871920
  H     -0.568680    1.215340   -3.300310

 Total Charge           Charge          ....    0
 Multiplicity           Mult            ....    1
 Number of Electrons    NEL             ....   40
 Basis Dimension        Dim             ....   95

ORBITAL ENERGIES
----------------

  NO   OCC          E(Eh)            E(eV)
   0   2.0000     -24.827146      -675.5810
   1   2.0000     -19.207590      -522.6651
   2   2.0000     -10.432621      -283.8860
   3   2.0000     -10.287810      -279.9455
   4   2.0000     -10.263830      -279.2930
   5   2.0000      -1.374771       -37.4094
   6   2.0000      -1.093596       -29.7583
   7   2.0000      -0.874609       -23.7993
   8   2.0000      -0.757515       -20.6130
   9   2.0000      -0.705656       -19.2019
  10   2.0000      -0.616716       -16.7817
  11   2.0000      -0.601775       -16.3751
  12   2.0000      -0.571822       -15.5601
  13   2.0000      -0.532919       -14.5015
  14   2.0000      -0.498009       -13.5515
  15   2.0000      -0.463757       -12.6195
  16   2.0000      -0.441709       -12.0195
  17   2.0000      -0.438313       -11.9271
  18   2.0000      -0.404097       -10.9960
  19   2.0000      -0.352606        -9.5949
  20   0.0000       0.028354         0.7716
  21   0.0000       0.102473         2.7884
  22   0.0000       0.147206         4.0057
  23   0.0000       0.151593         4.1251
  24   0.0000       0.172071         4.6823

MULLIKEN ATOMIC CHARGES
-----------------------
   0 C :    0.013660
   1 C :   -0.044737
   2 C :    0.206028
   3 H :    0.052696
   4 H :    0.018526
   5 F :   -0.069023
   6 O :   -0.256190
   7 H :    0.019917
   8 H :    0.040700
   9 H :    0.018424
Sum of atomic charges:    0.0000000

LOEWDIN ATOMIC CHARGES
----------------------
   0 C :   -0.035445
   1 C :   -0.068080
   2 C :    0.105664
   3 H :    0.049826
   4 H :    0.026852
   5 F :    0.040704
   6 O :   -0.203255
   7 H :    0.026987
   8 H :    0.031664
   9 H :    0.025084

  Mayer bond orders larger than 0.100000
B(  0-C ,  1-C ) :   1.0916 B(  0-C ,  7-H ) :   0.9699 B(  0-C ,  8-H ) :   0.9709
B(  0-C ,  9-H ) :   0.9776 B(  1-C ,  2-C ) :   0.9961 B(  1-C ,  3-H ) :   0.9332
B(  1-C ,  4-H ) :   0.9393 B(  2-C ,  5-F ) :   1.2142 B(  2-C ,  6-O ) :   2.0805

FINAL SINGLE POINT ENERGY      -292.054434088156

DIPOLE MOMENT
-------------
                                X             Y             Z
Electronic contribution:      0.89573      -8.23386      -2.57339
Nuclear contribution   :     -1.80992       8.85192       2.42184
                        -----------------------------------------
Total Dipole Moment    :     -0.91420       0.61806      -0.15155
                        -----------------------------------------
Magnitude (a.u.)       :      1.11388
Magnitude (Debye)      :      2.83125

Rotational constants in cm-1:     0.298360     0.128849     0.102271
Rotational constants in MHz :  8944.606599  3862.796179  3066.020510

                             ****ORCA TERMINATED NORMALLY****
TOTAL RUN TIME: 0 days 0 hours 0 minutes 14 seconds 984 msec
