                         Program Version 5.0.0 -  RELEASE  -
|  1> !CAM-B3LYP RIJCOSX def2-SVP def2/J TightSCF
|  2> *xyz 0 1
|  3> C          0.81607       -2.10149       -2.18655
|  4> H          1.69623       -2.36869       -1.60046
|  5> C          1.10055       -2.46749       -3.59927
|  6> C          0.51624       -0.61363       -2.03937
|  7> H         -0.02007       -2.71285       -1.84084
|  8> H          1.70061       -1.75723       -4.07838
|  9> H          0.29386       -2.35977       -4.25632
| 10> H          1.50132       -3.42848       -3.69491
| 11> H         -0.34841       -0.36504       -2.61858
| 12> H          1.35358       -0.04503       -2.38643
| 13> H          0.33317       -0.38682       -1.00984
| 14> *
| 15> %MaxCore 64000
| 16>
| 17> %pal nprocs 4
| 18> end
| 19>
| 20> %scf
| 21>   MaxIter 150
| 22> end
| 23>
| 24>
| 25>                          ****END OF INPUT****

CARTESIAN COORDINATES (ANGSTROEM)
---------------------------------
  C      0.816070   -2.101490   -2.186550
  H      1.696230   -2.368690   -1.600460
  C      1.100550   -2.467490   -3.599270
  C      0.516240   -0.613630   -2.039370
  H     -0.020070   -2.712850   -1.840840
  H      1.700610   -1.757230   -4.078380
  H      0.293860   -2.359770   -4.256320
  H      1.501320   -3.428480   -3.694910
  H     -0.348410   -0.365040   -2.618580
  H      1.353580   -0.045030   -2.386430
  H      0.333170   -0.386820   -1.009840

 Total Charge           Charge          ....    0
 Multiplicity           Mult            ....    1
 Number of Electrons    NEL             ....   26
 Basis Dimension        Dim             ....   82

ORBITAL ENERGIES
----------------

  NO   OCC          E(Eh)            E(eV)
   0   2.0000     -10.245402      -278.7916
   1   2.0000     -10.237751      -278.5834
   2   2.0000     -10.225572      -278.2520
   3   2.0000      -0.864604       -23.5271
   4   2.0000      -0.760326       -20.6895
   5   2.0000      -0.659354       -17.9419
   6   2.0000      -0.529243       -14.4014
   7   2.0000      -0.514070       -13.9885
   8   2.0000      -0.479097       -13.0369
   9   2.0000      -0.441086       -12.0025
  10   2.0000      -0.405200       -11.0261
  11   2.0000      -0.400672       -10.9028
  12   2.0000      -0.383261       -10.4291
  13   0.0000       0.105036         2.8582
  14   0.0000       0.153832         4.1860
  15   0.0000       0.155177         4.2226
  16   0.0000       0.158288         4.3072
  17   0.0000       0.190309         5.1786

MULLIKEN ATOMIC CHARGES
-----------------------
   0 C :   -0.040507
   1 H :    0.001475
   2 C :    0.051315
   3 C :    0.013232
   4 H :    0.003640
   5 H :   -0.024350
   6 H :   -0.020320
   7 H :    0.000109
   8 H :    0.004447
   9 H :    0.005668
  10 H :    0.005290
Sum of atomic charges:    0.0000000

LOEWDIN ATOMIC CHARGES
----------------------
   0 C :   -0.038466
   1 H :    0.019390
   2 C :   -0.056861
   3 C :   -0.050957
   4 H :    0.019422
   5 H :    0.015821
   6 H :    0.016222
   7 H :    0.017263
   8 H :    0.018944
   9 H :    0.019148
  10 H :    0.020074

  Mayer bond orders larger than 0.100000
B(  0-C ,  1-H ) :   0.9560 B(  0-C ,  2-C ) :   1.1064 B(  0-C ,  3-C ) :   1.1007
B(  0-C ,  4-H ) :   0.9556 B(  2-C ,  5-H ) :   0.9626 B(  2-C ,  6-H ) :   0.9613
B(  2-C ,  7-H ) :   0.9681 B(  3-C ,  8-H ) :   0.9769 B(  3-C ,  9-H ) :   0.9739
B(  3-C , 10-H ) :   0.9702

FINAL SINGLE POINT ENERGY      -118.958072774823

DIPOLE MOMENT
-------------
                                X             Y             Z
Electronic contribution:     -0.01916      -0.29723       0.46084
Nuclear contribution   :      0.01737       0.30387      -0.47422
                        -----------------------------------------
Total Dipole Moment    :     -0.00178       0.00664      -0.01337
                        -----------------------------------------
Magnitude (a.u.)       :      0.01504
Magnitude (Debye)      :      0.03822

Rotational constants in cm-1:     1.006891     0.295208     0.258491
Rotational constants in MHz : 30185.831813  8850.104914  7749.351732

                             ****ORCA TERMINATED NORMALLY****
TOTAL RUN TIME: 0 days 0 hours 0 minutes 10 seconds 954 msec
