                         Program Version 5.0.0 -  RELEASE  -
|  1> !CAM-B3LYP RIJCOSX def2-SVP def2/J TightSCF
|  2> *xyz 0 1
|  3> C         -0.10608        1.76991       -4.08984
|  4> C         -0.25875        1.00432       -5.40983
|  5> C          0.39596       -0.37070       -5.33994
|  6> H          0.23915        1.56939       -6.20125
|  7> H         -1.30936        0.88869       -5.68245
|  8> O         -0.32633       -1.39040       -5.49128
|  9> F          1.61941       -0.40073       -5.03683
| 10> H         -0.57627        2.72718       -4.17630
| 11> H          0.93321        1.90140       -3.87192
| 12> H         -0.56868        1.21534       -3.30031
| 13> *
| 14> %MaxCore 64000
| 15>
| 16> %pal nprocs 4
| 17> end
| 18>
| 19> %scf
| 20>   MaxIter 150
| 21> end
| 22>
| 23>
| 24>                          ****END OF INPUT****

CARTESIAN COORDINATES (ANGSTROEM)
---------------------------------
  C     -0.106080    1.769910   -4.089840
  C     -0.258750    1.004320   -5.409830
  C      0.395960   -0.370700   -5.339940
  H      0.239150    1.569390   -6.201250
  H     -1.309360    0.888690   -5.682450
  O     -0.326330   -1.390400   -5.491280
  F      1.619410   -0.400730   -5.036830
  H     -0.576270    2.727180   -4.176300
  H      0.933210    1.901400   -3.871920
  H     -0.568680    1.215340   -3.300310

 Total Charge           Charge          ....    0
 Multiplicity           Mult            ....    1
 Number of Electrons    NEL             ....   40
 Basis Dimension        Dim             ....   95

ORBITAL ENERGIES
----------------

  NO   OCC          E(Eh)            E(eV)
   0   2.0000     -24.826448      -675.5620
   1   2.0000     -19.207911      -522.6738
   2   2.0000     -10.431566      -283.8573
   3   2.0000     -10.287263      -279.9306
   4   2.0000     -10.268872      -279.4302
   5   2.0000      -1.373718       -37.3808
   6   2.0000      -1.093099       -29.7447
   7   2.0000      -0.879295       -23.9268
   8   2.0000      -0.754789       -20.5388
   9   2.0000      -0.709103       -19.2957
  10   2.0000      -0.618397       -16.8274
  11   2.0000      -0.605590       -16.4789
  12   2.0000      -0.564778       -15.3684
  13   2.0000      -0.532574       -14.4921
  14   2.0000      -0.500170       -13.6103
  15   2.0000      -0.466739       -12.7006
  16   2.0000      -0.447274       -12.1709
  17   2.0000      -0.442106       -12.0303
  18   2.0000      -0.408444       -11.1143
  19   2.0000      -0.349279        -9.5044
  20   0.0000       0.032729         0.8906
  21   0.0000       0.098003         2.6668
  22   0.0000       0.144041         3.9195
  23   0.0000       0.152951         4.1620
  24   0.0000       0.174314         4.7433

MULLIKEN ATOMIC CHARGES
-----------------------
   0 C :   -0.007482
   1 C :   -0.037333
   2 C :    0.202979
   3 H :    0.035753
   4 H :    0.045165
   5 O :   -0.242289
   6 F :   -0.078370
   7 H :    0.026511
   8 H :    0.025279
   9 H :    0.029787
Sum of atomic charges:   -0.0000000

LOEWDIN ATOMIC CHARGES
----------------------
   0 C :   -0.044029
   1 C :   -0.064402
   2 C :    0.104037
   3 H :    0.039005
   4 H :    0.043520
   5 O :   -0.195976
   6 F :    0.035579
   7 H :    0.029870
   8 H :    0.024606
   9 H :    0.027791

  Mayer bond orders larger than 0.100000
B(  0-C ,  1-C ) :   1.0757 B(  0-C ,  7-H ) :   0.9698 B(  0-C ,  8-H ) :   0.9738
B(  0-C ,  9-H ) :   0.9774 B(  1-C ,  2-C ) :   1.0064 B(  1-C ,  3-H ) :   0.9308
B(  1-C ,  4-H ) :   0.9501 B(  2-C ,  5-O ) :   2.1115 B(  2-C ,  6-F ) :   1.1932

FINAL SINGLE POINT ENERGY      -292.055678935314

DIPOLE MOMENT
-------------
                                X             Y             Z
Electronic contribution:      4.08524      -6.59056      -1.81712
Nuclear contribution   :     -3.93139       7.77287       1.92635
                        -----------------------------------------
Total Dipole Moment    :      0.15385       1.18231       0.10923
                        -----------------------------------------
Magnitude (a.u.)       :      1.19727
Magnitude (Debye)      :      3.04323

Rotational constants in cm-1:     0.286068     0.133630     0.103472
Rotational constants in MHz :  8576.109806  4006.118234  3102.010802

                             ****ORCA TERMINATED NORMALLY****
TOTAL RUN TIME: 0 days 0 hours 0 minutes 14 seconds 770 msec
