                         Program Version 5.0.0 -  RELEASE  -
|  1> !B3LYP D3BJ RIJCOSX def2-SVP def2/J TightSCF
|  2> *xyz -1 1
|  3> C          2.49556        1.81615       -2.13636
|  4> C          1.87218        0.42790       -2.07750
|  5> H          2.61427       -0.36583       -2.19889
|  6> H          1.38995        0.27309       -1.11236
|  7> S          0.57902        0.14047       -3.29794
|  8> O          0.22886       -1.24687       -3.12787
|  9> O         -0.43927        1.11897       -3.01455
| 10> O          1.24788        0.40347       -4.59565
| 11> H          2.96535        1.95613       -3.08747
| 12> H          3.22581        1.91242       -1.36024
| 13> H          1.73350        2.55528       -2.00274
| 14> *
| 15>
| 16> %MaxCore 64000
| 17>
| 18> %pal nprocs 4
| 19> end
| 20>
| 21> %scf
| 22>   MaxIter 150
| 23> end
| 24>
| 25>
| 26>                          ****END OF INPUT****

CARTESIAN COORDINATES (ANGSTROEM)
---------------------------------
  C      2.495560    1.816150   -2.136360
  C      1.872180    0.427900   -2.077500
  H      2.614270   -0.365830   -2.198890
  H      1.389950    0.273090   -1.112360
  S      0.579020    0.140470   -3.297940
  O      0.228860   -1.246870   -3.127870
  O     -0.439270    1.118970   -3.014550
  O      1.247880    0.403470   -4.595650
  H      2.965350    1.956130   -3.087470
  H      3.225810    1.912420   -1.360240
  H      1.733500    2.555280   -2.002740

 Total Charge           Charge          ....   -1
 Multiplicity           Mult            ....    1
 Number of Electrons    NEL             ....   58
 Basis Dimension        Dim             ....  113

ORBITAL ENERGIES
----------------

  NO   OCC          E(Eh)            E(eV)
   0   2.0000     -88.838441     -2417.4169
   1   2.0000     -18.881110      -513.7811
   2   2.0000     -18.880790      -513.7724
   3   2.0000     -18.864642      -513.3330
   4   2.0000     -10.029157      -272.9072
   5   2.0000     -10.023523      -272.7539
   6   2.0000      -7.899138      -214.9465
   7   2.0000      -5.867527      -159.6635
   8   2.0000      -5.867325      -159.6580
   9   2.0000      -5.867182      -159.6541
  10   2.0000      -0.900617       -24.5070
  11   2.0000      -0.762820       -20.7574
  12   2.0000      -0.734404       -19.9842
  13   2.0000      -0.611144       -16.6301
  14   2.0000      -0.485155       -13.2017
  15   2.0000      -0.356234        -9.6936
  16   2.0000      -0.302754        -8.2383
  17   2.0000      -0.292645        -7.9633
  18   2.0000      -0.255948        -6.9647
  19   2.0000      -0.236947        -6.4476
  20   2.0000      -0.233376        -6.3505
  21   2.0000      -0.213354        -5.8057
  22   2.0000      -0.196755        -5.3540
  23   2.0000      -0.119386        -3.2487
  24   2.0000      -0.118159        -3.2153
  25   2.0000      -0.086981        -2.3669
  26   2.0000      -0.078958        -2.1486
  27   2.0000      -0.067271        -1.8306
  28   2.0000      -0.032573        -0.8863
  29   0.0000       0.206165         5.6100
  30   0.0000       0.255892         6.9632
  31   0.0000       0.263224         7.1627
  32   0.0000       0.270585         7.3630
  33   0.0000       0.300521         8.1776

MULLIKEN ATOMIC CHARGES
-----------------------
   0 C :    0.064593
   1 C :   -0.067091
   2 H :   -0.018192
   3 H :   -0.026117
   4 S :    0.869238
   5 O :   -0.570217
   6 O :   -0.571534
   7 O :   -0.617168
   8 H :   -0.006670
   9 H :   -0.048905
  10 H :   -0.007938
Sum of atomic charges:   -1.0000000

LOEWDIN ATOMIC CHARGES
----------------------
   0 C :   -0.066921
   1 C :   -0.182947
   2 H :    0.002124
   3 H :   -0.002087
   4 S :    1.099754
   5 O :   -0.607842
   6 O :   -0.608413
   7 O :   -0.654924
   8 H :    0.012096
   9 H :   -0.003233
  10 H :    0.012393

  Mayer bond orders larger than 0.100000
B(  0-C ,  1-C ) :   1.0640 B(  0-C ,  8-H ) :   0.9634 B(  0-C ,  9-H ) :   0.9559
B(  0-C , 10-H ) :   0.9637 B(  1-C ,  2-H ) :   0.9397 B(  1-C ,  3-H ) :   0.9355
B(  1-C ,  4-S ) :   0.8899 B(  4-S ,  5-O ) :   1.6377 B(  4-S ,  6-O ) :   1.6242
B(  4-S ,  7-O ) :   1.5782

Dispersion correction           -0.016774163
FINAL SINGLE POINT ENERGY      -702.527199983366

DIPOLE MOMENT
-------------
                                X             Y             Z
Electronic contribution:     -5.82456      -3.66162      -4.20587
Nuclear contribution   :      6.89220       4.11756       5.35566
                        -----------------------------------------
Total Dipole Moment    :      1.06763       0.45594       1.14979
                        -----------------------------------------
Magnitude (a.u.)       :      1.63394
Magnitude (Debye)      :      4.15314

Rotational constants in cm-1:     0.162183     0.084017     0.082390
Rotational constants in MHz :  4862.117324  2518.774315  2469.980309

                             ****ORCA TERMINATED NORMALLY****
TOTAL RUN TIME: 0 days 0 hours 0 minutes 8 seconds 668 msec
