                         Program Version 5.0.0 -  RELEASE  -
|  1> !B3LYP D3BJ RIJCOSX def2-SVP def2/J TightSCF
|  2> *xyz 1 1
|  3> C          3.38093        2.08304       -3.35013
|  4> N          4.53592        1.18245       -3.42852
|  5> C          2.49556        1.81615       -2.13636
|  6> C          4.67196        0.12227       -4.22060
|  7> N          5.86602       -0.50785       -4.22428
|  8> N          3.69888       -0.31284       -4.98699
|  9> H          2.73141       -0.05009       -4.84900
| 10> H          3.89005       -1.05517       -5.64373
| 11> H          5.25193        1.30346       -2.72101
| 12> H          6.69516       -0.06232       -3.85160
| 13> H          5.97538       -1.39688       -4.69141
| 14> H          2.80646        1.98651       -4.26848
| 15> H          3.77871        3.09828       -3.30738
| 16> H          2.11090        0.81901       -2.18783
| 17> H          1.68276        2.51198       -2.12786
| 18> H          3.07216        1.93031       -1.24227
| 19> *
| 20>
| 21> %MaxCore 64000
| 22>
| 23> %pal nprocs 4
| 24> end
| 25>
| 26> %scf
| 27>   MaxIter 150
| 28> end
| 29>
| 30>
| 31>                          ****END OF INPUT****

CARTESIAN COORDINATES (ANGSTROEM)
---------------------------------
  C      3.380930    2.083040   -3.350130
  N      4.535920    1.182450   -3.428520
  C      2.495560    1.816150   -2.136360
  C      4.671960    0.122270   -4.220600
  N      5.866020   -0.507850   -4.224280
  N      3.698880   -0.312840   -4.986990
  H      2.731410   -0.050090   -4.849000
  H      3.890050   -1.055170   -5.643730
  H      5.251930    1.303460   -2.721010
  H      6.695160   -0.062320   -3.851600
  H      5.975380   -1.396880   -4.691410
  H      2.806460    1.986510   -4.268480
  H      3.778710    3.098280   -3.307380
  H      2.110900    0.819010   -2.187830
  H      1.682760    2.511980   -2.127860
  H      3.072160    1.930310   -1.242270

 Total Charge           Charge          ....    1
 Multiplicity           Mult            ....    1
 Number of Electrons    NEL             ....   48
 Basis Dimension        Dim             ....  134

ORBITAL ENERGIES
----------------

  NO   OCC          E(Eh)            E(eV)
   0   2.0000     -14.552867      -396.0037
   1   2.0000     -14.545492      -395.8030
   2   2.0000     -14.544585      -395.7783
   3   2.0000     -10.514780      -286.1217
   4   2.0000     -10.386679      -282.6359
   5   2.0000     -10.317649      -280.7575
   6   2.0000      -1.200751       -32.6741
   7   2.0000      -1.092041       -29.7159
   8   2.0000      -1.076500       -29.2930
   9   2.0000      -0.920273       -25.0419
  10   2.0000      -0.833881       -22.6910
  11   2.0000      -0.795676       -21.6514
  12   2.0000      -0.782444       -21.2914
  13   2.0000      -0.737735       -20.0748
  14   2.0000      -0.693813       -18.8796
  15   2.0000      -0.690369       -18.7859
  16   2.0000      -0.639378       -17.3984
  17   2.0000      -0.626716       -17.0538
  18   2.0000      -0.600151       -16.3309
  19   2.0000      -0.554574       -15.0907
  20   2.0000      -0.527115       -14.3435
  21   2.0000      -0.511565       -13.9204
  22   2.0000      -0.473551       -12.8860
  23   2.0000      -0.443342       -12.0640
  24   0.0000      -0.156307        -4.2533
  25   0.0000      -0.134859        -3.6697
  26   0.0000      -0.102185        -2.7806
  27   0.0000      -0.092721        -2.5231
  28   0.0000      -0.077193        -2.1005

MULLIKEN ATOMIC CHARGES
-----------------------
   0 C :    0.049275
   1 N :   -0.118314
   2 C :    0.039018
   3 C :    0.027654
   4 N :   -0.037705
   5 N :    0.002375
   6 H :    0.171511
   7 H :    0.165338
   8 H :    0.158412
   9 H :    0.168314
  10 H :    0.163372
  11 H :    0.035521
  12 H :    0.064161
  13 H :    0.017128
  14 H :    0.057956
  15 H :    0.035983
Sum of atomic charges:    1.0000000

LOEWDIN ATOMIC CHARGES
----------------------
   0 C :    0.049911
   1 N :    0.029825
   2 C :   -0.039093
   3 C :    0.141054
   4 N :    0.035579
   5 N :    0.063722
   6 H :    0.111037
   7 H :    0.111176
   8 H :    0.104146
   9 H :    0.109105
  10 H :    0.105710
  11 H :    0.028974
  12 H :    0.045723
  13 H :    0.024168
  14 H :    0.046313
  15 H :    0.032650

  Mayer bond orders larger than 0.100000
B(  0-C ,  1-N ) :   0.9340 B(  0-C ,  2-C ) :   1.1050 B(  0-C , 11-H ) :   0.9504
B(  0-C , 12-H ) :   0.9456 B(  1-N ,  3-C ) :   1.3788 B(  1-N ,  8-H ) :   0.9106
B(  2-C , 13-H ) :   0.9672 B(  2-C , 14-H ) :   0.9617 B(  2-C , 15-H ) :   0.9676
B(  3-C ,  4-N ) :   1.3656 B(  3-C ,  5-N ) :   1.4136 B(  4-N ,  9-H ) :   0.9276
B(  4-N , 10-H ) :   0.9310 B(  5-N ,  6-H ) :   0.9241 B(  5-N ,  7-H ) :   0.9250

Dispersion correction           -0.019882208
FINAL SINGLE POINT ENERGY      -284.035210453543

DIPOLE MOMENT
-------------
                                X             Y             Z
Electronic contribution:      3.61681      -2.71718      -2.85931
Nuclear contribution   :     -2.93277       1.85779       2.25966
                        -----------------------------------------
Total Dipole Moment    :      0.68404      -0.85939      -0.59965
                        -----------------------------------------
Magnitude (a.u.)       :      1.25142
Magnitude (Debye)      :      3.18085

Rotational constants in cm-1:     0.245511     0.068839     0.059711
Rotational constants in MHz :  7360.233487  2063.743353  1790.088408

                             ****ORCA TERMINATED NORMALLY****
TOTAL RUN TIME: 0 days 0 hours 0 minutes 11 seconds 705 msec
