                         Program Version 5.0.0 -  RELEASE  -
|  1> !B3LYP D3BJ RIJCOSX def2-TZVP def2/J TightSCF xyzfile
|  2>
|  3> *xyzfile 0 1 B.xyz
|  4>
|  5> %MaxCore 64000
|  6>
|  7> %pal nprocs 18
|  8> end
|  9>
| 10> %scf
| 11>   MaxIter 150
| 12> end
| 13>
| 14>
| 15>                          ****END OF INPUT****

CARTESIAN COORDINATES (ANGSTROEM)
---------------------------------
  C      3.380928    2.083045   -3.350127
  N      4.535924    1.182447   -3.428518
  C      2.495557    1.816150   -2.136364
  C      1.872181    0.427903   -2.077497
  H      2.614270   -0.365825   -2.198894
  H      1.389953    0.273087   -1.112360
  S      0.579024    0.140472   -3.297943
  C      4.671956    0.122273   -4.220598
  N      5.866023   -0.507849   -4.224284
  N      3.698881   -0.312844   -4.986988
  H      2.731405   -0.050091   -4.849000
  H      3.890046   -1.055172   -5.643730
  H      5.251933    1.303459   -2.721014
  H      6.695165   -0.062322   -3.851596
  H      5.975383   -1.396884   -4.691414
  O      0.228860   -1.246868   -3.127871
  O     -0.439269    1.118966   -3.014550
  O      1.247881    0.403474   -4.595647
  H      1.697003    2.561969   -2.141109
  H      3.080787    1.987436   -1.225838
  H      2.806463    1.986511   -4.268484
  H      3.778714    3.098282   -3.307383

 Total Charge           Charge          ....    0
 Multiplicity           Mult            ....    1
 Number of Electrons    NEL             ....   96
 Basis Dimension        Dim             ....  413

ORBITAL ENERGIES
----------------

  NO   OCC          E(Eh)            E(eV)
   0   2.0000     -88.979772     -2421.2627
   1   2.0000     -19.054427      -518.4973
   2   2.0000     -19.038124      -518.0537
   3   2.0000     -19.037923      -518.0482
   4   2.0000     -14.407207      -392.0400
   5   2.0000     -14.401474      -391.8840
   6   2.0000     -14.371603      -391.0712
   7   2.0000     -10.362120      -281.9676
   8   2.0000     -10.231317      -278.4083
   9   2.0000     -10.181590      -277.0551
  10   2.0000     -10.166679      -276.6494
  11   2.0000      -8.023204      -218.3225
  12   2.0000      -5.987046      -162.9158
  13   2.0000      -5.985999      -162.8873
  14   2.0000      -5.984826      -162.8554
  15   2.0000      -1.073866       -29.2214
  16   2.0000      -1.067653       -29.0523
  17   2.0000      -0.965823       -26.2814
  18   2.0000      -0.951169       -25.8826
  19   2.0000      -0.931041       -25.3349
  20   2.0000      -0.930438       -25.3185
  21   2.0000      -0.806945       -21.9581
  22   2.0000      -0.736110       -20.0306
  23   2.0000      -0.684916       -18.6375
  24   2.0000      -0.648107       -17.6359
  25   2.0000      -0.638335       -17.3700
  26   2.0000      -0.603682       -16.4270
  27   2.0000      -0.563920       -15.3450
  28   2.0000      -0.549317       -14.9477
  29   2.0000      -0.526275       -14.3207
  30   2.0000      -0.505305       -13.7500
  31   2.0000      -0.486880       -13.2487
  32   2.0000      -0.470535       -12.8039
  33   2.0000      -0.448734       -12.2107
  34   2.0000      -0.431334       -11.7372
  35   2.0000      -0.414793       -11.2871
  36   2.0000      -0.395115       -10.7516
  37   2.0000      -0.379949       -10.3389
  38   2.0000      -0.372735       -10.1426
  39   2.0000      -0.361438        -9.8352
  40   2.0000      -0.338758        -9.2181
  41   2.0000      -0.311248        -8.4695
  42   2.0000      -0.299022        -8.1368
  43   2.0000      -0.290954        -7.9173
  44   2.0000      -0.261542        -7.1169
  45   2.0000      -0.250934        -6.8283
  46   2.0000      -0.245098        -6.6694
  47   2.0000      -0.212246        -5.7755
  48   0.0000      -0.038880        -1.0580
  49   0.0000      -0.027263        -0.7419
  50   0.0000      -0.002063        -0.0561
  51   0.0000       0.016310         0.4438
  52   0.0000       0.051742         1.4080

MULLIKEN ATOMIC CHARGES
-----------------------
   0 C :   -0.178933
   1 N :   -0.283881
   2 C :   -0.135842
   3 C :   -0.284176
   4 H :    0.091522
   5 H :    0.118151
   6 S :    0.871512
   7 C :    0.448025
   8 N :   -0.458708
   9 N :   -0.372436
  10 H :    0.301931
  11 H :    0.229906
  12 H :    0.217671
  13 H :    0.252360
  14 H :    0.256542
  15 O :   -0.508880
  16 O :   -0.503311
  17 O :   -0.590120
  18 H :    0.129647
  19 H :    0.081388
  20 H :    0.196822
  21 H :    0.120810
Sum of atomic charges:   -0.0000000

LOEWDIN ATOMIC CHARGES
----------------------
   0 C :   -0.259961
   1 N :    0.158785
   2 C :   -0.285863
   3 C :   -0.393280
   4 H :    0.119751
   5 H :    0.135891
   6 S :    0.440210
   7 C :   -0.427156
   8 N :    0.016317
   9 N :    0.094479
  10 H :    0.139862
  11 H :    0.182498
  12 H :    0.194397
  13 H :    0.179451
  14 H :    0.181423
  15 O :   -0.337000
  16 O :   -0.330546
  17 O :   -0.377748
  18 H :    0.153906
  19 H :    0.130778
  20 H :    0.149276
  21 H :    0.134530

  Mayer bond orders larger than 0.100000
B(  0-C ,  1-N ) :   0.8312 B(  0-C ,  2-C ) :   0.9633 B(  0-C , 20-H ) :   0.9530
B(  0-C , 21-H ) :   0.9693 B(  1-N ,  7-C ) :   1.3524 B(  1-N , 12-H ) :   0.9188
B(  2-C ,  3-C ) :   0.9515 B(  2-C , 18-H ) :   0.9472 B(  2-C , 19-H ) :   0.9594
B(  3-C ,  4-H ) :   0.9554 B(  3-C ,  5-H ) :   0.9584 B(  3-C ,  6-S ) :   0.8929
B(  6-S , 15-O ) :   1.8581 B(  6-S , 16-O ) :   1.8378 B(  6-S , 17-O ) :   1.4676
B(  7-C ,  8-N ) :   1.2122 B(  7-C ,  9-N ) :   1.4467 B(  8-N , 13-H ) :   0.9118
B(  8-N , 14-H ) :   0.9117 B(  9-N , 10-H ) :   0.7364 B(  9-N , 11-H ) :   0.9195
B( 10-H , 17-O ) :   0.2221

Dispersion correction           -0.042041631
FINAL SINGLE POINT ENERGY      -947.117898446549

DIPOLE MOMENT
-------------
                                X             Y             Z
Electronic contribution:     -7.10504      -3.23102      -2.45930
Nuclear contribution   :     13.40759       3.44219       2.21042
                        -----------------------------------------
Total Dipole Moment    :      6.30255       0.21117      -0.24888
                        -----------------------------------------
Magnitude (a.u.)       :      6.31100
Magnitude (Debye)      :     16.04128

Rotational constants in cm-1:     0.059860     0.020817     0.017914
Rotational constants in MHz :  1794.564877   624.092098   537.039275

                             ****ORCA TERMINATED NORMALLY****
TOTAL RUN TIME: 0 days 0 hours 0 minutes 28 seconds 408 msec
