                         Program Version 5.0.0 -  RELEASE  -
|  1> !B3LYP D3BJ RIJCOSX def2-SVP def2/J TightSCF
|  2> *xyz 0 1
|  3> C          2.49556        1.81615       -2.13636
|  4> C          1.87218        0.42790       -2.07750
|  5> H          2.61427       -0.36583       -2.19889
|  6> H          1.38995        0.27309       -1.11236
|  7> S          0.57902        0.14047       -3.29794
|  8> F          0.22886       -1.24687       -3.12787
|  9> O         -0.43927        1.11897       -3.01455
| 10> O          1.24788        0.40347       -4.59565
| 11> H          2.96535        1.95613       -3.08747
| 12> H          3.22581        1.91242       -1.36024
| 13> H          1.73350        2.55528       -2.00274
| 14> *
| 15>
| 16> %MaxCore 64000
| 17>
| 18> %pal nprocs 4
| 19> end
| 20>
| 21> %scf
| 22>   MaxIter 150
| 23> end
| 24>
| 25>
| 26>                          ****END OF INPUT****

CARTESIAN COORDINATES (ANGSTROEM)
---------------------------------
  C      2.495560    1.816150   -2.136360
  C      1.872180    0.427900   -2.077500
  H      2.614270   -0.365830   -2.198890
  H      1.389950    0.273090   -1.112360
  S      0.579020    0.140470   -3.297940
  F      0.228860   -1.246870   -3.127870
  O     -0.439270    1.118970   -3.014550
  O      1.247880    0.403470   -4.595650
  H      2.965350    1.956130   -3.087470
  H      3.225810    1.912420   -1.360240
  H      1.733500    2.555280   -2.002740

 Total Charge           Charge          ....    0
 Multiplicity           Mult            ....    1
 Number of Electrons    NEL             ....   58
 Basis Dimension        Dim             ....  113

ORBITAL ENERGIES
----------------

  NO   OCC          E(Eh)            E(eV)
   0   2.0000     -89.112503     -2424.8745
   1   2.0000     -24.799047      -674.8164
   2   2.0000     -19.133261      -520.6425
   3   2.0000     -19.117189      -520.2052
   4   2.0000     -10.236736      -278.5557
   5   2.0000     -10.199268      -277.5362
   6   2.0000      -8.175641      -222.4705
   7   2.0000      -6.148029      -167.2964
   8   2.0000      -6.141590      -167.1212
   9   2.0000      -6.140264      -167.0851
  10   2.0000      -1.368433       -37.2370
  11   2.0000      -1.096051       -29.8251
  12   2.0000      -0.988072       -26.8868
  13   2.0000      -0.811236       -22.0749
  14   2.0000      -0.728006       -19.8100
  15   2.0000      -0.667451       -18.1623
  16   2.0000      -0.581334       -15.8189
  17   2.0000      -0.580267       -15.7899
  18   2.0000      -0.544548       -14.8179
  19   2.0000      -0.489136       -13.3101
  20   2.0000      -0.473918       -12.8960
  21   2.0000      -0.431013       -11.7285
  22   2.0000      -0.425266       -11.5721
  23   2.0000      -0.405725       -11.0403
  24   2.0000      -0.383878       -10.4459
  25   2.0000      -0.373819       -10.1721
  26   2.0000      -0.322159        -8.7664
  27   2.0000      -0.307623        -8.3708
  28   2.0000      -0.290672        -7.9096
  29   0.0000       0.038666         1.0522
  30   0.0000       0.050126         1.3640
  31   0.0000       0.078906         2.1472
  32   0.0000       0.088958         2.4207
  33   0.0000       0.098159         2.6711

MULLIKEN ATOMIC CHARGES
-----------------------
   0 C :    0.045569
   1 C :   -0.103922
   2 H :    0.049298
   3 H :    0.044295
   4 S :    0.942923
   5 F :   -0.170333
   6 O :   -0.433887
   7 O :   -0.479072
   8 H :    0.040666
   9 H :    0.026783
  10 H :    0.037680
Sum of atomic charges:   -0.0000000

LOEWDIN ATOMIC CHARGES
----------------------
   0 C :   -0.040443
   1 C :   -0.147119
   2 H :    0.029712
   3 H :    0.027032
   4 S :    1.156165
   5 F :   -0.117329
   6 O :   -0.479871
   7 O :   -0.526336
   8 H :    0.032649
   9 H :    0.033243
  10 H :    0.032298

  Mayer bond orders larger than 0.100000
B(  0-C ,  1-C ) :   1.0810 B(  0-C ,  8-H ) :   0.9697 B(  0-C ,  9-H ) :   0.9607
B(  0-C , 10-H ) :   0.9690 B(  1-C ,  2-H ) :   0.9304 B(  1-C ,  3-H ) :   0.9287
B(  1-C ,  4-S ) :   0.9214 B(  4-S ,  5-F ) :   1.0217 B(  4-S ,  6-O ) :   1.7759
B(  4-S ,  7-O ) :   1.7322

Dispersion correction           -0.016029955
FINAL SINGLE POINT ENERGY      -727.029228072773

DIPOLE MOMENT
-------------
                                X             Y             Z
Electronic contribution:     -6.87700      -6.44031      -4.13964
Nuclear contribution   :      7.60530       5.82028       5.38743
                        -----------------------------------------
Total Dipole Moment    :      0.72830      -0.62003       1.24780
                        -----------------------------------------
Magnitude (a.u.)       :      1.57221
Magnitude (Debye)      :      3.99624

Rotational constants in cm-1:     0.157861     0.081452     0.078859
Rotational constants in MHz :  4732.562506  2441.865430  2364.129821

                             ****ORCA TERMINATED NORMALLY****
TOTAL RUN TIME: 0 days 0 hours 0 minutes 9 seconds 388 msec
