                         Program Version 5.0.0 -  RELEASE  -
|  1> !B3LYP D3BJ RIJCOSX def2-SVP def2/J TightSCF
|  2> *xyz 0 1
|  3> C          3.38093        2.08304       -3.35013
|  4> C          4.53592        1.18245       -3.42852
|  5> C          2.49556        1.81615       -2.13636
|  6> C          4.67196        0.12227       -4.22060
|  7> N          5.86602       -0.50785       -4.22428
|  8> N          3.69888       -0.31284       -4.98699
|  9> H          2.73141       -0.05009       -4.84900
| 10> H          3.89005       -1.05517       -5.64373
| 11> H          5.25193        1.30346       -2.72101
| 12> H          6.69516       -0.06232       -3.85160
| 13> H          5.97538       -1.39688       -4.69141
| 14> H          2.80646        1.98651       -4.26848
| 15> H          3.77871        3.09828       -3.30738
| 16> H          2.11090        0.81901       -2.18783
| 17> H          1.68276        2.51198       -2.12786
| 18> H          3.07216        1.93031       -1.24227
| 19> *
| 20>
| 21> %MaxCore 64000
| 22>
| 23> %pal nprocs 4
| 24> end
| 25>
| 26> %scf
| 27>   MaxIter 150
| 28> end
| 29>
| 30>
| 31>                          ****END OF INPUT****

CARTESIAN COORDINATES (ANGSTROEM)
---------------------------------
  C      3.380930    2.083040   -3.350130
  C      4.535920    1.182450   -3.428520
  C      2.495560    1.816150   -2.136360
  C      4.671960    0.122270   -4.220600
  N      5.866020   -0.507850   -4.224280
  N      3.698880   -0.312840   -4.986990
  H      2.731410   -0.050090   -4.849000
  H      3.890050   -1.055170   -5.643730
  H      5.251930    1.303460   -2.721010
  H      6.695160   -0.062320   -3.851600
  H      5.975380   -1.396880   -4.691410
  H      2.806460    1.986510   -4.268480
  H      3.778710    3.098280   -3.307380
  H      2.110900    0.819010   -2.187830
  H      1.682760    2.511980   -2.127860
  H      3.072160    1.930310   -1.242270

 Total Charge           Charge          ....    0
 Multiplicity           Mult            ....    1
 Number of Electrons    NEL             ....   48
 Basis Dimension        Dim             ....  134

ORBITAL ENERGIES
----------------

  NO   OCC          E(Eh)            E(eV)
   0   2.0000     -14.322840      -389.7443
   1   2.0000     -14.314508      -389.5176
   2   2.0000     -10.216499      -278.0051
   3   2.0000     -10.148324      -276.1499
   4   2.0000     -10.143380      -276.0154
   5   2.0000     -10.092278      -274.6248
   6   2.0000      -0.940828       -25.6012
   7   2.0000      -0.849391       -23.1131
   8   2.0000      -0.753113       -20.4932
   9   2.0000      -0.677644       -18.4396
  10   2.0000      -0.602853       -16.4045
  11   2.0000      -0.565591       -15.3905
  12   2.0000      -0.534020       -14.5314
  13   2.0000      -0.495212       -13.4754
  14   2.0000      -0.471579       -12.8323
  15   2.0000      -0.432336       -11.7644
  16   2.0000      -0.406200       -11.0533
  17   2.0000      -0.382099       -10.3974
  18   2.0000      -0.368051       -10.0152
  19   2.0000      -0.341517        -9.2932
  20   2.0000      -0.318601        -8.6696
  21   2.0000      -0.311899        -8.4872
  22   2.0000      -0.252360        -6.8671
  23   2.0000      -0.144048        -3.9197
  24   0.0000       0.044502         1.2110
  25   0.0000       0.072645         1.9768
  26   0.0000       0.094996         2.5850
  27   0.0000       0.103034         2.8037
  28   0.0000       0.115654         3.1471

MULLIKEN ATOMIC CHARGES
-----------------------
   0 C :    0.087343
   1 C :   -0.184835
   2 C :    0.081460
   3 C :   -0.050446
   4 N :   -0.072579
   5 N :   -0.032692
   6 H :    0.118055
   7 H :    0.091843
   8 H :   -0.109844
   9 H :    0.112941
  10 H :    0.085800
  11 H :   -0.047930
  12 H :   -0.023360
  13 H :   -0.023411
  14 H :   -0.019215
  15 H :   -0.013131
Sum of atomic charges:    0.0000000

LOEWDIN ATOMIC CHARGES
----------------------
   0 C :   -0.032672
   1 C :   -0.213977
   2 C :   -0.047870
   3 C :    0.018987
   4 N :   -0.031155
   5 N :   -0.006289
   6 H :    0.079545
   7 H :    0.062943
   8 H :   -0.014630
   9 H :    0.078907
  10 H :    0.056689
  11 H :    0.003085
  12 H :    0.016646
  13 H :    0.008322
  14 H :    0.007304
  15 H :    0.014167

  Mayer bond orders larger than 0.100000
B(  0-C ,  1-C ) :   1.0783 B(  0-C ,  2-C ) :   1.0942 B(  0-C , 11-H ) :   0.9302
B(  0-C , 12-H ) :   0.9138 B(  1-C ,  3-C ) :   1.6876 B(  1-C ,  8-H ) :   0.9428
B(  2-C , 13-H ) :   0.9674 B(  2-C , 14-H ) :   0.9588 B(  2-C , 15-H ) :   0.9670
B(  3-C ,  4-N ) :   1.2140 B(  3-C ,  5-N ) :   1.2600 B(  4-N ,  9-H ) :   0.9442
B(  4-N , 10-H ) :   0.9499 B(  5-N ,  6-H ) :   0.9391 B(  5-N ,  7-H ) :   0.9459

Dispersion correction           -0.020813658
FINAL SINGLE POINT ENERGY      -267.559019995765

DIPOLE MOMENT
-------------
                                X             Y             Z
Electronic contribution:      3.05813      -2.94452      -3.00477
Nuclear contribution   :     -2.84307       1.95814       2.32378
                        -----------------------------------------
Total Dipole Moment    :      0.21506      -0.98638      -0.68100
                        -----------------------------------------
Magnitude (a.u.)       :      1.21777
Magnitude (Debye)      :      3.09532

Rotational constants in cm-1:     0.248902     0.068887     0.059904
Rotational constants in MHz :  7461.898926  2065.183281  1795.882140

                             ****ORCA TERMINATED NORMALLY****
TOTAL RUN TIME: 0 days 0 hours 0 minutes 12 seconds 358 msec
