                         Program Version 5.0.0 -  RELEASE  -
|  1> !B3LYP D3BJ RIJCOSX def2-SVP def2/J TightSCF
|  2> *xyz 0 1
|  3> C          2.49556        1.81615       -2.13636
|  4> C          1.87218        0.42790       -2.07750
|  5> H          2.61427       -0.36583       -2.19889
|  6> H          1.38995        0.27309       -1.11236
|  7> S          0.57902        0.14047       -3.29794
|  8> O          0.22886       -1.24687       -3.12787
|  9> F         -0.43927        1.11897       -3.01455
| 10> O          1.24788        0.40347       -4.59565
| 11> H          2.96535        1.95613       -3.08747
| 12> H          3.22581        1.91242       -1.36024
| 13> H          1.73350        2.55528       -2.00274
| 14> *
| 15>
| 16> %MaxCore 64000
| 17>
| 18> %pal nprocs 4
| 19> end
| 20>
| 21> %scf
| 22>   MaxIter 150
| 23> end
| 24>
| 25>
| 26>                          ****END OF INPUT****

CARTESIAN COORDINATES (ANGSTROEM)
---------------------------------
  C      2.495560    1.816150   -2.136360
  C      1.872180    0.427900   -2.077500
  H      2.614270   -0.365830   -2.198890
  H      1.389950    0.273090   -1.112360
  S      0.579020    0.140470   -3.297940
  O      0.228860   -1.246870   -3.127870
  F     -0.439270    1.118970   -3.014550
  O      1.247880    0.403470   -4.595650
  H      2.965350    1.956130   -3.087470
  H      3.225810    1.912420   -1.360240
  H      1.733500    2.555280   -2.002740

 Total Charge           Charge          ....    0
 Multiplicity           Mult            ....    1
 Number of Electrons    NEL             ....   58
 Basis Dimension        Dim             ....  113

ORBITAL ENERGIES
----------------

  NO   OCC          E(Eh)            E(eV)
   0   2.0000     -89.112684     -2424.8794
   1   2.0000     -24.799297      -674.8232
   2   2.0000     -19.133549      -520.6503
   3   2.0000     -19.118397      -520.2380
   4   2.0000     -10.236538      -278.5504
   5   2.0000     -10.202494      -277.6240
   6   2.0000      -8.175806      -222.4750
   7   2.0000      -6.148297      -167.3037
   8   2.0000      -6.141677      -167.1235
   9   2.0000      -6.140417      -167.0892
  10   2.0000      -1.368832       -37.2478
  11   2.0000      -1.095689       -29.8152
  12   2.0000      -0.989411       -26.9232
  13   2.0000      -0.814302       -22.1583
  14   2.0000      -0.724423       -19.7126
  15   2.0000      -0.671370       -18.2689
  16   2.0000      -0.591344       -16.0913
  17   2.0000      -0.579380       -15.7657
  18   2.0000      -0.537720       -14.6321
  19   2.0000      -0.488681       -13.2977
  20   2.0000      -0.472630       -12.8609
  21   2.0000      -0.444135       -12.0855
  22   2.0000      -0.424926       -11.5628
  23   2.0000      -0.405020       -11.0212
  24   2.0000      -0.392704       -10.6860
  25   2.0000      -0.369394       -10.0517
  26   2.0000      -0.321874        -8.7586
  27   2.0000      -0.308030        -8.3819
  28   2.0000      -0.293041        -7.9741
  29   0.0000       0.029442         0.8012
  30   0.0000       0.058999         1.6054
  31   0.0000       0.074631         2.0308
  32   0.0000       0.093893         2.5550
  33   0.0000       0.095123         2.5884

MULLIKEN ATOMIC CHARGES
-----------------------
   0 C :    0.034685
   1 C :   -0.109550
   2 H :    0.080504
   3 H :    0.044935
   4 S :    0.943057
   5 O :   -0.428687
   6 F :   -0.172076
   7 O :   -0.478295
   8 H :    0.042696
   9 H :    0.027444
  10 H :    0.015288
Sum of atomic charges:    0.0000000

LOEWDIN ATOMIC CHARGES
----------------------
   0 C :   -0.054540
   1 C :   -0.143795
   2 H :    0.049455
   3 H :    0.026667
   4 S :    1.156565
   5 O :   -0.477375
   6 F :   -0.118078
   7 O :   -0.525310
   8 H :    0.031443
   9 H :    0.032835
  10 H :    0.022133

  Mayer bond orders larger than 0.100000
B(  0-C ,  1-C ) :   1.0571 B(  0-C ,  8-H ) :   0.9690 B(  0-C ,  9-H ) :   0.9593
B(  0-C , 10-H ) :   0.9712 B(  1-C ,  2-H ) :   0.9383 B(  1-C ,  3-H ) :   0.9325
B(  1-C ,  4-S ) :   0.9203 B(  4-S ,  5-O ) :   1.7862 B(  4-S ,  6-F ) :   1.0154
B(  4-S ,  7-O ) :   1.7323

Dispersion correction           -0.015948362
FINAL SINGLE POINT ENERGY      -727.029322315735

DIPOLE MOMENT
-------------
                                X             Y             Z
Electronic contribution:     -8.00113      -2.44707      -3.94568
Nuclear contribution   :      8.30151       3.35500       5.26935
                        -----------------------------------------
Total Dipole Moment    :      0.30038       0.90793       1.32367
                        -----------------------------------------
Magnitude (a.u.)       :      1.63299
Magnitude (Debye)      :      4.15074

Rotational constants in cm-1:     0.152913     0.083043     0.080351
Rotational constants in MHz :  4584.227971  2489.580280  2408.872860

                             ****ORCA TERMINATED NORMALLY****
TOTAL RUN TIME: 0 days 0 hours 0 minutes 8 seconds 497 msec
