                         Program Version 5.0.0 -  RELEASE  -
|  1> !B3LYP D3BJ RIJCOSX def2-SVP def2/J TightSCF
|  2> *xyz 0 1
|  3> C          3.38093        2.08304       -3.35013
|  4> N          4.53592        1.18245       -3.42852
|  5> C          2.49556        1.81615       -2.13636
|  6> C          4.67196        0.12227       -4.22060
|  7> C          5.86602       -0.50785       -4.22428
|  8> N          3.69888       -0.31284       -4.98699
|  9> H          2.73141       -0.05009       -4.84900
| 10> H          3.89005       -1.05517       -5.64373
| 11> H          5.25193        1.30346       -2.72101
| 12> H          6.69516       -0.06232       -3.85160
| 13> H          5.97538       -1.39688       -4.69141
| 14> H          2.80646        1.98651       -4.26848
| 15> H          3.77871        3.09828       -3.30738
| 16> H          2.11090        0.81901       -2.18783
| 17> H          1.68276        2.51198       -2.12786
| 18> H          3.07216        1.93031       -1.24227
| 19> *
| 20>
| 21> %MaxCore 64000
| 22>
| 23> %pal nprocs 4
| 24> end
| 25>
| 26> %scf
| 27>   MaxIter 150
| 28> end
| 29>
| 30>
| 31>                          ****END OF INPUT****

CARTESIAN COORDINATES (ANGSTROEM)
---------------------------------
  C      3.380930    2.083040   -3.350130
  N      4.535920    1.182450   -3.428520
  C      2.495560    1.816150   -2.136360
  C      4.671960    0.122270   -4.220600
  C      5.866020   -0.507850   -4.224280
  N      3.698880   -0.312840   -4.986990
  H      2.731410   -0.050090   -4.849000
  H      3.890050   -1.055170   -5.643730
  H      5.251930    1.303460   -2.721010
  H      6.695160   -0.062320   -3.851600
  H      5.975380   -1.396880   -4.691410
  H      2.806460    1.986510   -4.268480
  H      3.778710    3.098280   -3.307380
  H      2.110900    0.819010   -2.187830
  H      1.682760    2.511980   -2.127860
  H      3.072160    1.930310   -1.242270

 Total Charge           Charge          ....    0
 Multiplicity           Mult            ....    1
 Number of Electrons    NEL             ....   48
 Basis Dimension        Dim             ....  134

ORBITAL ENERGIES
----------------

  NO   OCC          E(Eh)            E(eV)
   0   2.0000     -14.323159      -389.7530
   1   2.0000     -14.318158      -389.6169
   2   2.0000     -10.220263      -278.1075
   3   2.0000     -10.219189      -278.0783
   4   2.0000     -10.175315      -276.8844
   5   2.0000     -10.084239      -274.4061
   6   2.0000      -0.949545       -25.8384
   7   2.0000      -0.869738       -23.6668
   8   2.0000      -0.758489       -20.6395
   9   2.0000      -0.681734       -18.5509
  10   2.0000      -0.615764       -16.7558
  11   2.0000      -0.592243       -16.1157
  12   2.0000      -0.534923       -14.5560
  13   2.0000      -0.489938       -13.3319
  14   2.0000      -0.474537       -12.9128
  15   2.0000      -0.440144       -11.9769
  16   2.0000      -0.422076       -11.4853
  17   2.0000      -0.395718       -10.7680
  18   2.0000      -0.379867       -10.3367
  19   2.0000      -0.363631        -9.8949
  20   2.0000      -0.358769        -9.7626
  21   2.0000      -0.343999        -9.3607
  22   2.0000      -0.243775        -6.6335
  23   2.0000      -0.145291        -3.9536
  24   0.0000       0.041928         1.1409
  25   0.0000       0.074679         2.0321
  26   0.0000       0.085350         2.3225
  27   0.0000       0.106433         2.8962
  28   0.0000       0.109699         2.9851

MULLIKEN ATOMIC CHARGES
-----------------------
   0 C :    0.088104
   1 N :   -0.139341
   2 C :    0.054724
   3 C :   -0.056146
   4 C :   -0.080022
   5 N :   -0.041019
   6 H :    0.095474
   7 H :    0.116114
   8 H :    0.112725
   9 H :   -0.071185
  10 H :   -0.079745
  11 H :   -0.003867
  12 H :    0.002610
  13 H :   -0.000919
  14 H :   -0.000033
  15 H :    0.002526
Sum of atomic charges:    0.0000000

LOEWDIN ATOMIC CHARGES
----------------------
   0 C :    0.038167
   1 N :   -0.025079
   2 C :   -0.056347
   3 C :    0.032012
   4 C :   -0.265733
   5 N :   -0.003648
   6 H :    0.061332
   7 H :    0.083399
   8 H :    0.080888
   9 H :   -0.014350
  10 H :   -0.016797
  11 H :    0.014427
  12 H :    0.017139
  13 H :    0.016588
  14 H :    0.019507
  15 H :    0.018496

  Mayer bond orders larger than 0.100000
B(  0-C ,  1-N ) :   1.0139 B(  0-C ,  2-C ) :   1.0975 B(  0-C , 11-H ) :   0.9469
B(  0-C , 12-H ) :   0.9489 B(  1-N ,  3-C ) :   1.2020 B(  1-N ,  8-H ) :   0.9287
B(  2-C , 13-H ) :   0.9663 B(  2-C , 14-H ) :   0.9583 B(  2-C , 15-H ) :   0.9669
B(  3-C ,  4-C ) :   1.7114 B(  3-C ,  5-N ) :   1.2543 B(  4-C ,  9-H ) :   0.9343
B(  4-C , 10-H ) :   0.9329 B(  5-N ,  6-H ) :   0.9458 B(  5-N ,  7-H ) :   0.9403

Dispersion correction           -0.020550625
FINAL SINGLE POINT ENERGY      -267.550907665173

DIPOLE MOMENT
-------------
                                X             Y             Z
Electronic contribution:      1.48178      -1.14075      -2.07961
Nuclear contribution   :     -2.56090       1.59955       2.15496
                        -----------------------------------------
Total Dipole Moment    :     -1.07912       0.45880       0.07535
                        -----------------------------------------
Magnitude (a.u.)       :      1.17502
Magnitude (Debye)      :      2.98667

Rotational constants in cm-1:     0.249834     0.071381     0.061833
Rotational constants in MHz :  7489.842787  2139.945635  1853.706310

                             ****ORCA TERMINATED NORMALLY****
TOTAL RUN TIME: 0 days 0 hours 0 minutes 11 seconds 352 msec
