                         Program Version 5.0.0 -  RELEASE  -
|  1> !B3LYP D3BJ RIJCOSX def2-SVP def2/J TightSCF
|  2> *xyz 0 1
|  3> C          2.49556        1.81615       -2.13636
|  4> C          1.87218        0.42790       -2.07750
|  5> H          2.61427       -0.36583       -2.19889
|  6> H          1.38995        0.27309       -1.11236
|  7> S          0.57902        0.14047       -3.29794
|  8> O          0.22886       -1.24687       -3.12787
|  9> O         -0.43927        1.11897       -3.01455
| 10> F          1.24788        0.40347       -4.59565
| 11> H          2.96535        1.95613       -3.08747
| 12> H          3.22581        1.91242       -1.36024
| 13> H          1.73350        2.55528       -2.00274
| 14> *
| 15>
| 16> %MaxCore 64000
| 17>
| 18> %pal nprocs 4
| 19> end
| 20>
| 21> %scf
| 22>   MaxIter 150
| 23> end
| 24>
| 25>
| 26>                          ****END OF INPUT****

CARTESIAN COORDINATES (ANGSTROEM)
---------------------------------
  C      2.495560    1.816150   -2.136360
  C      1.872180    0.427900   -2.077500
  H      2.614270   -0.365830   -2.198890
  H      1.389950    0.273090   -1.112360
  S      0.579020    0.140470   -3.297940
  O      0.228860   -1.246870   -3.127870
  O     -0.439270    1.118970   -3.014550
  F      1.247880    0.403470   -4.595650
  H      2.965350    1.956130   -3.087470
  H      3.225810    1.912420   -1.360240
  H      1.733500    2.555280   -2.002740

 Total Charge           Charge          ....    0
 Multiplicity           Mult            ....    1
 Number of Electrons    NEL             ....   58
 Basis Dimension        Dim             ....  113

ORBITAL ENERGIES
----------------

  NO   OCC          E(Eh)            E(eV)
   0   2.0000     -89.111288     -2424.8414
   1   2.0000     -24.776764      -674.2100
   2   2.0000     -19.134255      -520.6696
   3   2.0000     -19.133488      -520.6487
   4   2.0000     -10.235531      -278.5230
   5   2.0000     -10.203171      -277.6424
   6   2.0000      -8.174252      -222.4327
   7   2.0000      -6.146491      -167.2545
   8   2.0000      -6.140442      -167.0899
   9   2.0000      -6.139068      -167.0525
  10   2.0000      -1.331507       -36.2322
  11   2.0000      -1.106835       -30.1185
  12   2.0000      -1.012060       -27.5396
  13   2.0000      -0.813787       -22.1443
  14   2.0000      -0.710548       -19.3350
  15   2.0000      -0.663883       -18.0652
  16   2.0000      -0.574463       -15.6319
  17   2.0000      -0.553719       -15.0674
  18   2.0000      -0.534775       -14.5520
  19   2.0000      -0.489466       -13.3191
  20   2.0000      -0.470598       -12.8056
  21   2.0000      -0.446895       -12.1606
  22   2.0000      -0.430248       -11.7076
  23   2.0000      -0.405437       -11.0325
  24   2.0000      -0.397622       -10.8199
  25   2.0000      -0.373942       -10.1755
  26   2.0000      -0.330084        -8.9820
  27   2.0000      -0.320520        -8.7218
  28   2.0000      -0.309313        -8.4168
  29   0.0000       0.030290         0.8242
  30   0.0000       0.063914         1.7392
  31   0.0000       0.079679         2.1682
  32   0.0000       0.094384         2.5683
  33   0.0000       0.096719         2.6319

MULLIKEN ATOMIC CHARGES
-----------------------
   0 C :    0.031504
   1 C :   -0.113991
   2 H :    0.054491
   3 H :    0.074276
   4 S :    0.953891
   5 O :   -0.433800
   6 O :   -0.438806
   7 F :   -0.214316
   8 H :    0.019965
   9 H :    0.028736
  10 H :    0.038049
Sum of atomic charges:   -0.0000000

LOEWDIN ATOMIC CHARGES
----------------------
   0 C :   -0.055354
   1 C :   -0.146048
   2 H :    0.032005
   3 H :    0.046074
   4 S :    1.163438
   5 O :   -0.481568
   6 O :   -0.483669
   7 F :   -0.161416
   8 H :    0.023006
   9 H :    0.033390
  10 H :    0.030141

  Mayer bond orders larger than 0.100000
B(  0-C ,  1-C ) :   1.0571 B(  0-C ,  8-H ) :   0.9730 B(  0-C ,  9-H ) :   0.9600
B(  0-C , 10-H ) :   0.9684 B(  1-C ,  2-H ) :   0.9352 B(  1-C ,  3-H ) :   0.9367
B(  1-C ,  4-S ) :   0.9224 B(  4-S ,  5-O ) :   1.7900 B(  4-S ,  6-O ) :   1.7803
B(  4-S ,  7-F ) :   0.9688

Dispersion correction           -0.015943738
FINAL SINGLE POINT ENERGY      -727.049075929852

DIPOLE MOMENT
-------------
                                X             Y             Z
Electronic contribution:     -5.14328      -3.64565      -6.62080
Nuclear contribution   :      6.54345       4.10057       6.91691
                        -----------------------------------------
Total Dipole Moment    :      1.40017       0.45492       0.29610
                        -----------------------------------------
Magnitude (a.u.)       :      1.50170
Magnitude (Debye)      :      3.81701

Rotational constants in cm-1:     0.152835     0.082826     0.080611
Rotational constants in MHz :  4581.878371  2483.049050  2416.647141

                             ****ORCA TERMINATED NORMALLY****
TOTAL RUN TIME: 0 days 0 hours 0 minutes 8 seconds 355 msec
