                         Program Version 5.0.0 -  RELEASE  -
|  1> !B3LYP D3BJ RIJCOSX def2-SVP def2/J TightSCF
|  2> *xyz 0 1
|  3> C          3.38093        2.08304       -3.35013
|  4> N          4.53592        1.18245       -3.42852
|  5> C          2.49556        1.81615       -2.13636
|  6> C          4.67196        0.12227       -4.22060
|  7> N          5.86602       -0.50785       -4.22428
|  8> C          3.69888       -0.31284       -4.98699
|  9> H          2.73141       -0.05009       -4.84900
| 10> H          3.89005       -1.05517       -5.64373
| 11> H          5.25193        1.30346       -2.72101
| 12> H          6.69516       -0.06232       -3.85160
| 13> H          5.97538       -1.39688       -4.69141
| 14> H          2.80646        1.98651       -4.26848
| 15> H          3.77871        3.09828       -3.30738
| 16> H          2.11090        0.81901       -2.18783
| 17> H          1.68276        2.51198       -2.12786
| 18> H          3.07216        1.93031       -1.24227
| 19> *
| 20>
| 21> %MaxCore 64000
| 22>
| 23> %pal nprocs 4
| 24> end
| 25>
| 26> %scf
| 27>   MaxIter 150
| 28> end
| 29>
| 30>
| 31>                          ****END OF INPUT****

CARTESIAN COORDINATES (ANGSTROEM)
---------------------------------
  C      3.380930    2.083040   -3.350130
  N      4.535920    1.182450   -3.428520
  C      2.495560    1.816150   -2.136360
  C      4.671960    0.122270   -4.220600
  N      5.866020   -0.507850   -4.224280
  C      3.698880   -0.312840   -4.986990
  H      2.731410   -0.050090   -4.849000
  H      3.890050   -1.055170   -5.643730
  H      5.251930    1.303460   -2.721010
  H      6.695160   -0.062320   -3.851600
  H      5.975380   -1.396880   -4.691410
  H      2.806460    1.986510   -4.268480
  H      3.778710    3.098280   -3.307380
  H      2.110900    0.819010   -2.187830
  H      1.682760    2.511980   -2.127860
  H      3.072160    1.930310   -1.242270

 Total Charge           Charge          ....    0
 Multiplicity           Mult            ....    1
 Number of Electrons    NEL             ....   48
 Basis Dimension        Dim             ....  134

ORBITAL ENERGIES
----------------

  NO   OCC          E(Eh)            E(eV)
   0   2.0000     -14.317999      -389.6125
   1   2.0000     -14.315560      -389.5462
   2   2.0000     -10.217778      -278.0399
   3   2.0000     -10.209924      -277.8262
   4   2.0000     -10.167006      -276.6583
   5   2.0000     -10.087445      -274.4933
   6   2.0000      -0.942700       -25.6522
   7   2.0000      -0.859889       -23.3988
   8   2.0000      -0.743123       -20.2214
   9   2.0000      -0.694663       -18.9027
  10   2.0000      -0.627321       -17.0703
  11   2.0000      -0.553566       -15.0633
  12   2.0000      -0.534321       -14.5396
  13   2.0000      -0.504612       -13.7312
  14   2.0000      -0.451747       -12.2927
  15   2.0000      -0.441861       -12.0236
  16   2.0000      -0.412158       -11.2154
  17   2.0000      -0.394658       -10.7392
  18   2.0000      -0.371797       -10.1171
  19   2.0000      -0.369254       -10.0479
  20   2.0000      -0.348473        -9.4824
  21   2.0000      -0.340311        -9.2603
  22   2.0000      -0.236036        -6.4229
  23   2.0000      -0.156450        -4.2572
  24   0.0000       0.050200         1.3660
  25   0.0000       0.073130         1.9900
  26   0.0000       0.092504         2.5171
  27   0.0000       0.106024         2.8851
  28   0.0000       0.118182         3.2159

MULLIKEN ATOMIC CHARGES
-----------------------
   0 C :    0.117787
   1 N :   -0.159802
   2 C :    0.043012
   3 C :    0.009309
   4 N :   -0.088554
   5 C :   -0.093652
   6 H :   -0.058595
   7 H :   -0.080115
   8 H :    0.087751
   9 H :    0.090517
  10 H :    0.112630
  11 H :    0.018298
  12 H :   -0.005822
  13 H :    0.014568
  14 H :    0.000156
  15 H :   -0.007490
Sum of atomic charges:    0.0000000

LOEWDIN ATOMIC CHARGES
----------------------
   0 C :    0.051452
   1 N :   -0.030867
   2 C :   -0.054119
   3 C :    0.037889
   4 N :   -0.030837
   5 C :   -0.246028
   6 H :   -0.010253
   7 H :   -0.011243
   8 H :    0.059846
   9 H :    0.058855
  10 H :    0.077461
  11 H :    0.026561
  12 H :    0.013910
  13 H :    0.023308
  14 H :    0.020188
  15 H :    0.013878

  Mayer bond orders larger than 0.100000
B(  0-C ,  1-N ) :   0.9957 B(  0-C ,  2-C ) :   1.1126 B(  0-C , 11-H ) :   0.9371
B(  0-C , 12-H ) :   0.9525 B(  1-N ,  3-C ) :   1.1741 B(  1-N ,  8-H ) :   0.9318
B(  2-C , 13-H ) :   0.9686 B(  2-C , 14-H ) :   0.9601 B(  2-C , 15-H ) :   0.9665
B(  3-C ,  4-N ) :   1.2134 B(  3-C ,  5-C ) :   1.7675 B(  4-N ,  9-H ) :   0.9497
B(  4-N , 10-H ) :   0.9466 B(  5-C ,  6-H ) :   0.9305 B(  5-C ,  7-H ) :   0.9233

Dispersion correction           -0.020679111
FINAL SINGLE POINT ENERGY      -267.554618204551

DIPOLE MOMENT
-------------
                                X             Y             Z
Electronic contribution:      3.79163      -1.34997      -1.33134
Nuclear contribution   :     -3.02065       1.64092       1.99316
                        -----------------------------------------
Total Dipole Moment    :      0.77098       0.29095       0.66182
                        -----------------------------------------
Magnitude (a.u.)       :      1.05692
Magnitude (Debye)      :      2.68647

Rotational constants in cm-1:     0.259304     0.069422     0.060943
Rotational constants in MHz :  7773.747720  2081.225169  1827.013389

                             ****ORCA TERMINATED NORMALLY****
TOTAL RUN TIME: 0 days 0 hours 0 minutes 11 seconds 181 msec
