                         Program Version 5.0.0 -  RELEASE  -
|  1> !B3LYP D3BJ RIJCOSX def2-TZVP def2/J TightSCF xyzfile
|  2>
|  3> *xyzfile 0 1 D3.xyz
|  4>
|  5> %MaxCore 64000
|  6>
|  7> %pal nprocs 18
|  8> end
|  9>
| 10> %scf
| 11>   MaxIter 150
| 12> end
| 13>
| 14>
| 15>                          ****END OF INPUT****

CARTESIAN COORDINATES (ANGSTROEM)
---------------------------------
  C      3.380928    2.083045   -3.350127
  N      4.535924    1.182447   -3.428518
  C      2.495557    1.816150   -2.136364
  C      1.872181    0.427903   -2.077497
  H      2.614270   -0.365825   -2.198894
  H      1.389953    0.273087   -1.112360
  S      0.579024    0.140472   -3.297943
  C      4.671956    0.122273   -4.220598
  N      5.866023   -0.507849   -4.224284
  C      3.698881   -0.312844   -4.986988
  H      2.731405   -0.050091   -4.849000
  H      3.890046   -1.055172   -5.643730
  H      5.251933    1.303459   -2.721014
  H      6.695165   -0.062322   -3.851596
  H      5.975383   -1.396884   -4.691414
  F      0.228860   -1.246868   -3.127871
  O     -0.439269    1.118966   -3.014550
  O      1.247881    0.403474   -4.595647
  H      1.697003    2.561969   -2.141109
  H      3.080787    1.987436   -1.225838
  H      2.806463    1.986511   -4.268484
  H      3.778714    3.098282   -3.307383

 Total Charge           Charge          ....    0
 Multiplicity           Mult            ....    1
 Number of Electrons    NEL             ....   96
 Basis Dimension        Dim             ....  413

ORBITAL ENERGIES
----------------

  NO   OCC          E(Eh)            E(eV)
   0   2.0000     -89.097728     -2424.4724
   1   2.0000     -24.802276      -674.9042
   2   2.0000     -19.137633      -520.7615
   3   2.0000     -19.122433      -520.3479
   4   2.0000     -14.313879      -389.5004
   5   2.0000     -14.303412      -389.2156
   6   2.0000     -10.223267      -278.1892
   7   2.0000     -10.203810      -277.6598
   8   2.0000     -10.202266      -277.6178
   9   2.0000     -10.195495      -277.4335
  10   2.0000     -10.055063      -273.6122
  11   2.0000      -8.141736      -221.5479
  12   2.0000      -6.108440      -166.2191
  13   2.0000      -6.102098      -166.0465
  14   2.0000      -6.101893      -166.0409
  15   2.0000      -1.385073       -37.6897
  16   2.0000      -1.107595       -30.1392
  17   2.0000      -1.010435       -27.4953
  18   2.0000      -0.958037       -26.0695
  19   2.0000      -0.877260       -23.8715
  20   2.0000      -0.820587       -22.3293
  21   2.0000      -0.752263       -20.4701
  22   2.0000      -0.715081       -19.4583
  23   2.0000      -0.693282       -18.8652
  24   2.0000      -0.640857       -17.4386
  25   2.0000      -0.588637       -16.0176
  26   2.0000      -0.585006       -15.9188
  27   2.0000      -0.570912       -15.5353
  28   2.0000      -0.552808       -15.0427
  29   2.0000      -0.535102       -14.5609
  30   2.0000      -0.514117       -13.9898
  31   2.0000      -0.491357       -13.3705
  32   2.0000      -0.488440       -13.2911
  33   2.0000      -0.454144       -12.3579
  34   2.0000      -0.450511       -12.2590
  35   2.0000      -0.444990       -12.1088
  36   2.0000      -0.404848       -11.0165
  37   2.0000      -0.396854       -10.7990
  38   2.0000      -0.389006       -10.5854
  39   2.0000      -0.381058       -10.3691
  40   2.0000      -0.376634       -10.2487
  41   2.0000      -0.367829       -10.0091
  42   2.0000      -0.347431        -9.4541
  43   2.0000      -0.334473        -9.1015
  44   2.0000      -0.317853        -8.6492
  45   2.0000      -0.281011        -7.6467
  46   2.0000      -0.245458        -6.6792
  47   2.0000      -0.159524        -4.3409
  48   0.0000       0.016323         0.4442
  49   0.0000       0.022082         0.6009
  50   0.0000       0.037588         1.0228
  51   0.0000       0.059466         1.6182
  52   0.0000       0.062280         1.6947

MULLIKEN ATOMIC CHARGES
-----------------------
   0 C :   -0.127604
   1 N :   -0.352517
   2 C :   -0.175126
   3 C :   -0.259347
   4 H :    0.161794
   5 H :    0.134167
   6 S :    0.878136
   7 C :    0.439164
   8 N :   -0.505398
   9 C :   -0.591441
  10 H :    0.158072
  11 H :    0.064851
  12 H :    0.174161
  13 H :    0.200727
  14 H :    0.230378
  15 F :   -0.101452
  16 O :   -0.409509
  17 O :   -0.426279
  18 H :    0.118620
  19 H :    0.099581
  20 H :    0.182004
  21 H :    0.107018
Sum of atomic charges:   -0.0000000

LOEWDIN ATOMIC CHARGES
----------------------
   0 C :   -0.263972
   1 N :    0.111403
   2 C :   -0.277044
   3 C :   -0.365841
   4 H :    0.144939
   5 H :    0.136319
   6 S :    0.549849
   7 C :   -0.478703
   8 N :   -0.031280
   9 C :   -0.331765
  10 H :    0.078148
  11 H :    0.093946
  12 H :    0.170779
  13 H :    0.151298
  14 H :    0.169894
  15 F :    0.101647
  16 O :   -0.261338
  17 O :   -0.266216
  18 H :    0.147258
  19 H :    0.140771
  20 H :    0.149280
  21 H :    0.130628

  Mayer bond orders larger than 0.100000
B(  0-C ,  1-N ) :   0.8802 B(  0-C ,  2-C ) :   0.9712 B(  0-C , 20-H ) :   0.9635
B(  0-C , 21-H ) :   0.9767 B(  1-N ,  7-C ) :   1.1363 B(  1-N , 12-H ) :   0.9309
B(  2-C ,  3-C ) :   0.9710 B(  2-C , 18-H ) :   0.9541 B(  2-C , 19-H ) :   0.9536
B(  3-C ,  4-H ) :   0.9331 B(  3-C ,  5-H ) :   0.9386 B(  3-C ,  6-S ) :   0.9233
B(  6-S , 15-F ) :   1.1354 B(  6-S , 16-O ) :   1.9285 B(  6-S , 17-O ) :   1.7894
B(  7-C ,  8-N ) :   1.0637 B(  7-C ,  9-C ) :   1.5977 B(  8-N , 13-H ) :   0.9283
B(  8-N , 14-H ) :   0.9261 B(  9-C , 10-H ) :   0.9911 B(  9-C , 11-H ) :   1.0121

Dispersion correction           -0.042328389
FINAL SINGLE POINT ENERGY      -954.981067223657

DIPOLE MOMENT
-------------
                                X             Y             Z
Electronic contribution:    -14.66536      -5.49924       0.05353
Nuclear contribution   :     15.84345       5.19593       1.66752
                        -----------------------------------------
Total Dipole Moment    :      1.17809      -0.30330       1.72105
                        -----------------------------------------
Magnitude (a.u.)       :      2.10758
Magnitude (Debye)      :      5.35704

Rotational constants in cm-1:     0.059060     0.020573     0.017713
Rotational constants in MHz :  1770.576058   616.749938   531.036486

                             ****ORCA TERMINATED NORMALLY****
TOTAL RUN TIME: 0 days 0 hours 0 minutes 37 seconds 943 msec
