                         Program Version 5.0.0 -  RELEASE  -
|  1> !B3LYP D3BJ RIJCOSX def2-TZVP def2/J TightSCF xyzfile
|  2>
|  3> *xyzfile 0 1 D4.xyz
|  4>
|  5> %MaxCore 64000
|  6>
|  7> %pal nprocs 18
|  8> end
|  9>
| 10> %scf
| 11>   MaxIter 150
| 12> end
| 13>
| 14>
| 15>                          ****END OF INPUT****

CARTESIAN COORDINATES (ANGSTROEM)
---------------------------------
  C      3.380928    2.083045   -3.350127
  C      4.535924    1.182447   -3.428518
  C      2.495557    1.816150   -2.136364
  C      1.872181    0.427903   -2.077497
  H      2.614270   -0.365825   -2.198894
  H      1.389953    0.273087   -1.112360
  S      0.579024    0.140472   -3.297943
  C      4.671956    0.122273   -4.220598
  N      5.866023   -0.507849   -4.224284
  N      3.698881   -0.312844   -4.986988
  H      2.731405   -0.050091   -4.849000
  H      3.890046   -1.055172   -5.643730
  H      5.251933    1.303459   -2.721014
  H      6.695165   -0.062322   -3.851596
  H      5.975383   -1.396884   -4.691414
  O      0.228860   -1.246868   -3.127871
  F     -0.439269    1.118966   -3.014550
  O      1.247881    0.403474   -4.595647
  H      1.697003    2.561969   -2.141109
  H      3.080787    1.987436   -1.225838
  H      2.806463    1.986511   -4.268484
  H      3.778714    3.098282   -3.307383

 Total Charge           Charge          ....    0
 Multiplicity           Mult            ....    1
 Number of Electrons    NEL             ....   96
 Basis Dimension        Dim             ....  413

ORBITAL ENERGIES
----------------

  NO   OCC          E(Eh)            E(eV)
   0   2.0000     -89.106570     -2424.7130
   1   2.0000     -24.809411      -675.0984
   2   2.0000     -19.145326      -520.9708
   3   2.0000     -19.139298      -520.8068
   4   2.0000     -14.304196      -389.2370
   5   2.0000     -14.287875      -388.7928
   6   2.0000     -10.217942      -278.0443
   7   2.0000     -10.206126      -277.7228
   8   2.0000     -10.177488      -276.9435
   9   2.0000     -10.143837      -276.0278
  10   2.0000     -10.085699      -274.4458
  11   2.0000      -8.150584      -221.7887
  12   2.0000      -6.117357      -166.4618
  13   2.0000      -6.111225      -166.2949
  14   2.0000      -6.110366      -166.2715
  15   2.0000      -1.392518       -37.8923
  16   2.0000      -1.117005       -30.3953
  17   2.0000      -1.023715       -27.8567
  18   2.0000      -0.948279       -25.8040
  19   2.0000      -0.857248       -23.3269
  20   2.0000      -0.824205       -22.4277
  21   2.0000      -0.760535       -20.6952
  22   2.0000      -0.725294       -19.7362
  23   2.0000      -0.681093       -18.5335
  24   2.0000      -0.624085       -16.9822
  25   2.0000      -0.601278       -16.3616
  26   2.0000      -0.591866       -16.1055
  27   2.0000      -0.579036       -15.7564
  28   2.0000      -0.547702       -14.9037
  29   2.0000      -0.530473       -14.4349
  30   2.0000      -0.512328       -13.9411
  31   2.0000      -0.485888       -13.2217
  32   2.0000      -0.479542       -13.0490
  33   2.0000      -0.473144       -12.8749
  34   2.0000      -0.451061       -12.2740
  35   2.0000      -0.438883       -11.9426
  36   2.0000      -0.409657       -11.1473
  37   2.0000      -0.399770       -10.8783
  38   2.0000      -0.396264       -10.7829
  39   2.0000      -0.376725       -10.2512
  40   2.0000      -0.356581        -9.7031
  41   2.0000      -0.347945        -9.4681
  42   2.0000      -0.339790        -9.2462
  43   2.0000      -0.333218        -9.0673
  44   2.0000      -0.324741        -8.8366
  45   2.0000      -0.307948        -8.3797
  46   2.0000      -0.251193        -6.8353
  47   2.0000      -0.155261        -4.2249
  48   0.0000       0.009805         0.2668
  49   0.0000       0.033177         0.9028
  50   0.0000       0.039775         1.0823
  51   0.0000       0.051425         1.3994
  52   0.0000       0.069794         1.8992

MULLIKEN ATOMIC CHARGES
-----------------------
   0 C :   -0.199127
   1 C :   -0.381265
   2 C :   -0.125059
   3 C :   -0.296019
   4 H :    0.180881
   5 H :    0.135747
   6 S :    0.890697
   7 C :    0.354458
   8 N :   -0.483505
   9 N :   -0.468727
  10 H :    0.276824
  11 H :    0.194306
  12 H :    0.071268
  13 H :    0.229800
  14 H :    0.202436
  15 O :   -0.400002
  16 F :   -0.099314
  17 O :   -0.472957
  18 H :    0.084751
  19 H :    0.092433
  20 H :    0.128940
  21 H :    0.083435
Sum of atomic charges:    0.0000000

LOEWDIN ATOMIC CHARGES
----------------------
   0 C :   -0.282639
   1 C :   -0.289748
   2 C :   -0.281430
   3 C :   -0.360666
   4 H :    0.155412
   5 H :    0.136771
   6 S :    0.557697
   7 C :   -0.464372
   8 N :   -0.025880
   9 N :    0.011248
  10 H :    0.137647
  11 H :    0.158684
  12 H :    0.114957
  13 H :    0.170250
  14 H :    0.153891
  15 O :   -0.255157
  16 F :    0.105318
  17 O :   -0.290920
  18 H :    0.129062
  19 H :    0.141606
  20 H :    0.140553
  21 H :    0.137716

  Mayer bond orders larger than 0.100000
B(  0-C ,  1-C ) :   1.0071 B(  0-C ,  2-C ) :   0.9358 B(  0-C , 20-H ) :   0.9791
B(  0-C , 21-H ) :   0.9773 B(  1-C ,  7-C ) :   1.6131 B(  1-C , 12-H ) :   0.9907
B(  2-C ,  3-C ) :   0.9466 B(  2-C , 18-H ) :   0.9624 B(  2-C , 19-H ) :   0.9528
B(  3-C ,  4-H ) :   0.9333 B(  3-C ,  5-H ) :   0.9498 B(  3-C ,  6-S ) :   0.9305
B(  6-S , 15-O ) :   1.9526 B(  6-S , 16-F ) :   1.1394 B(  6-S , 17-O ) :   1.7229
B(  7-C ,  8-N ) :   1.1076 B(  7-C ,  9-N ) :   1.1927 B(  8-N , 13-H ) :   0.9228
B(  8-N , 14-H ) :   0.9288 B(  9-N , 10-H ) :   0.8412 B(  9-N , 11-H ) :   0.9328
B( 10-H , 17-O ) :   0.1105

Dispersion correction           -0.042312235
FINAL SINGLE POINT ENERGY      -955.012077599908

DIPOLE MOMENT
-------------
                                X             Y             Z
Electronic contribution:    -16.39195      -2.74103      -1.03551
Nuclear contribution   :     16.65743       2.74852       1.69529
                        -----------------------------------------
Total Dipole Moment    :      0.26548       0.00749       0.65977
                        -----------------------------------------
Magnitude (a.u.)       :      0.71122
Magnitude (Debye)      :      1.80777

Rotational constants in cm-1:     0.059907     0.020458     0.017675
Rotational constants in MHz :  1795.978106   613.328205   529.885290

                             ****ORCA TERMINATED NORMALLY****
TOTAL RUN TIME: 0 days 0 hours 0 minutes 34 seconds 928 msec
