                         Program Version 5.0.0 -  RELEASE  -
|  1> !B3LYP D3BJ RIJCOSX def2-TZVP def2/J TightSCF xyzfile
|  2>
|  3> *xyzfile 0 1 D6.xyz
|  4>
|  5> %MaxCore 64000
|  6>
|  7> %pal nprocs 18
|  8> end
|  9>
| 10> %scf
| 11>   MaxIter 150
| 12> end
| 13>
| 14>
| 15>                          ****END OF INPUT****

CARTESIAN COORDINATES (ANGSTROEM)
---------------------------------
  C      3.380928    2.083045   -3.350127
  N      4.535924    1.182447   -3.428518
  C      2.495557    1.816150   -2.136364
  C      1.872181    0.427903   -2.077497
  H      2.614270   -0.365825   -2.198894
  H      1.389953    0.273087   -1.112360
  S      0.579024    0.140472   -3.297943
  C      4.671956    0.122273   -4.220598
  N      5.866023   -0.507849   -4.224284
  C      3.698881   -0.312844   -4.986988
  H      2.731405   -0.050091   -4.849000
  H      3.890046   -1.055172   -5.643730
  H      5.251933    1.303459   -2.721014
  H      6.695165   -0.062322   -3.851596
  H      5.975383   -1.396884   -4.691414
  O      0.228860   -1.246868   -3.127871
  F     -0.439269    1.118966   -3.014550
  O      1.247881    0.403474   -4.595647
  H      1.697003    2.561969   -2.141109
  H      3.080787    1.987436   -1.225838
  H      2.806463    1.986511   -4.268484
  H      3.778714    3.098282   -3.307383

 Total Charge           Charge          ....    0
 Multiplicity           Mult            ....    1
 Number of Electrons    NEL             ....   96
 Basis Dimension        Dim             ....  413

ORBITAL ENERGIES
----------------

  NO   OCC          E(Eh)            E(eV)
   0   2.0000     -89.096680     -2424.4439
   1   2.0000     -24.802207      -674.9024
   2   2.0000     -19.136978      -520.7437
   3   2.0000     -19.123871      -520.3870
   4   2.0000     -14.314309      -389.5121
   5   2.0000     -14.301897      -389.1744
   6   2.0000     -10.223115      -278.1851
   7   2.0000     -10.205917      -277.7171
   8   2.0000     -10.200799      -277.5778
   9   2.0000     -10.197898      -277.4989
  10   2.0000     -10.054634      -273.6005
  11   2.0000      -8.140739      -221.5208
  12   2.0000      -6.107590      -166.1960
  13   2.0000      -6.101012      -166.0170
  14   2.0000      -6.100846      -166.0125
  15   2.0000      -1.385794       -37.7094
  16   2.0000      -1.106140       -30.0996
  17   2.0000      -1.010662       -27.5015
  18   2.0000      -0.957652       -26.0590
  19   2.0000      -0.876952       -23.8631
  20   2.0000      -0.823235       -22.4013
  21   2.0000      -0.749437       -20.3932
  22   2.0000      -0.716614       -19.5001
  23   2.0000      -0.693435       -18.8693
  24   2.0000      -0.641163       -17.4469
  25   2.0000      -0.596699       -16.2370
  26   2.0000      -0.588930       -16.0256
  27   2.0000      -0.566554       -15.4167
  28   2.0000      -0.551479       -15.0065
  29   2.0000      -0.531666       -14.4674
  30   2.0000      -0.512804       -13.9541
  31   2.0000      -0.491484       -13.3740
  32   2.0000      -0.485269       -13.2048
  33   2.0000      -0.462076       -12.5737
  34   2.0000      -0.448919       -12.2157
  35   2.0000      -0.442891       -12.0517
  36   2.0000      -0.413167       -11.2429
  37   2.0000      -0.397334       -10.8120
  38   2.0000      -0.392778       -10.6880
  39   2.0000      -0.384519       -10.4633
  40   2.0000      -0.375005       -10.2044
  41   2.0000      -0.364560        -9.9202
  42   2.0000      -0.348194        -9.4748
  43   2.0000      -0.323610        -8.8059
  44   2.0000      -0.309062        -8.4100
  45   2.0000      -0.295082        -8.0296
  46   2.0000      -0.245277        -6.6743
  47   2.0000      -0.157941        -4.2978
  48   0.0000       0.010965         0.2984
  49   0.0000       0.025403         0.6912
  50   0.0000       0.037036         1.0078
  51   0.0000       0.054501         1.4830
  52   0.0000       0.060721         1.6523

MULLIKEN ATOMIC CHARGES
-----------------------
   0 C :   -0.109349
   1 N :   -0.353462
   2 C :   -0.184328
   3 C :   -0.265258
   4 H :    0.182227
   5 H :    0.135689
   6 S :    0.869127
   7 C :    0.423616
   8 N :   -0.506475
   9 C :   -0.571024
  10 H :    0.169770
  11 H :    0.065450
  12 H :    0.174361
  13 H :    0.199953
  14 H :    0.231877
  15 O :   -0.400288
  16 F :   -0.105276
  17 O :   -0.431119
  18 H :    0.095618
  19 H :    0.100260
  20 H :    0.172550
  21 H :    0.106080
Sum of atomic charges:    0.0000000

LOEWDIN ATOMIC CHARGES
----------------------
   0 C :   -0.267662
   1 N :    0.110767
   2 C :   -0.289253
   3 C :   -0.360289
   4 H :    0.157490
   5 H :    0.136475
   6 S :    0.545621
   7 C :   -0.478950
   8 N :   -0.031065
   9 C :   -0.319889
  10 H :    0.081553
  11 H :    0.095245
  12 H :    0.170771
  13 H :    0.151055
  14 H :    0.170622
  15 O :   -0.254690
  16 F :    0.097676
  17 O :   -0.268634
  18 H :    0.137036
  19 H :    0.139434
  20 H :    0.146950
  21 H :    0.129737

  Mayer bond orders larger than 0.100000
B(  0-C ,  1-N ) :   0.8850 B(  0-C ,  2-C ) :   0.9557 B(  0-C , 20-H ) :   0.9632
B(  0-C , 21-H ) :   0.9765 B(  1-N ,  7-C ) :   1.1262 B(  1-N , 12-H ) :   0.9306
B(  2-C ,  3-C ) :   0.9531 B(  2-C , 18-H ) :   0.9634 B(  2-C , 19-H ) :   0.9540
B(  3-C ,  4-H ) :   0.9373 B(  3-C ,  5-H ) :   0.9482 B(  3-C ,  6-S ) :   0.9210
B(  6-S , 15-O ) :   1.9515 B(  6-S , 16-F ) :   1.1212 B(  6-S , 17-O ) :   1.7885
B(  7-C ,  8-N ) :   1.0625 B(  7-C ,  9-C ) :   1.6096 B(  8-N , 13-H ) :   0.9288
B(  8-N , 14-H ) :   0.9257 B(  9-C , 10-H ) :   0.9894 B(  9-C , 11-H ) :   1.0105

Dispersion correction           -0.042278460
FINAL SINGLE POINT ENERGY      -954.980578435078

DIPOLE MOMENT
-------------
                                X             Y             Z
Electronic contribution:    -15.79166      -1.45017       0.23524
Nuclear contribution   :     16.57580       2.60270       1.54331
                        -----------------------------------------
Total Dipole Moment    :      0.78414       1.15253       1.77855
                        -----------------------------------------
Magnitude (a.u.)       :      2.25974
Magnitude (Debye)      :      5.74381

Rotational constants in cm-1:     0.060402     0.020377     0.017632
Rotational constants in MHz :  1810.792194   610.900365   528.582827

                             ****ORCA TERMINATED NORMALLY****
TOTAL RUN TIME: 0 days 0 hours 0 minutes 36 seconds 860 msec
