                         Program Version 5.0.0 -  RELEASE  -
|  1> !B3LYP D3BJ RIJCOSX def2-TZVP def2/J TightSCF xyzfile
|  2>
|  3> *xyzfile 0 1 D7.xyz
|  4>
|  5> %MaxCore 64000
|  6>
|  7> %pal nprocs 18
|  8> end
|  9>
| 10> %scf
| 11>   MaxIter 150
| 12> end
| 13>
| 14>
| 15>                          ****END OF INPUT****

CARTESIAN COORDINATES (ANGSTROEM)
---------------------------------
  C      3.380928    2.083045   -3.350127
  C      4.535924    1.182447   -3.428518
  C      2.495557    1.816150   -2.136364
  C      1.872181    0.427903   -2.077497
  H      2.614270   -0.365825   -2.198894
  H      1.389953    0.273087   -1.112360
  S      0.579024    0.140472   -3.297943
  C      4.671956    0.122273   -4.220598
  N      5.866023   -0.507849   -4.224284
  N      3.698881   -0.312844   -4.986988
  H      2.731405   -0.050091   -4.849000
  H      3.890046   -1.055172   -5.643730
  H      5.251933    1.303459   -2.721014
  H      6.695165   -0.062322   -3.851596
  H      5.975383   -1.396884   -4.691414
  O      0.228860   -1.246868   -3.127871
  O     -0.439269    1.118966   -3.014550
  F      1.247881    0.403474   -4.595647
  H      1.697003    2.561969   -2.141109
  H      3.080787    1.987436   -1.225838
  H      2.806463    1.986511   -4.268484
  H      3.778714    3.098282   -3.307383

 Total Charge           Charge          ....    0
 Multiplicity           Mult            ....    1
 Number of Electrons    NEL             ....   96
 Basis Dimension        Dim             ....  413

ORBITAL ENERGIES
----------------

  NO   OCC          E(Eh)            E(eV)
   0   2.0000     -89.096036     -2424.4264
   1   2.0000     -24.797347      -674.7701
   2   2.0000     -19.139905      -520.8233
   3   2.0000     -19.139217      -520.8046
   4   2.0000     -14.317674      -389.6037
   5   2.0000     -14.317651      -389.6031
   6   2.0000     -10.222159      -278.1591
   7   2.0000     -10.214615      -277.9538
   8   2.0000     -10.177144      -276.9342
   9   2.0000     -10.158538      -276.4279
  10   2.0000     -10.100530      -274.8494
  11   2.0000      -8.140575      -221.5163
  12   2.0000      -6.107857      -166.2032
  13   2.0000      -6.100544      -166.0042
  14   2.0000      -6.100432      -166.0012
  15   2.0000      -1.371376       -37.3170
  16   2.0000      -1.118953       -30.4483
  17   2.0000      -1.028037       -27.9743
  18   2.0000      -0.968504       -26.3543
  19   2.0000      -0.877750       -23.8848
  20   2.0000      -0.825072       -22.4514
  21   2.0000      -0.764273       -20.7969
  22   2.0000      -0.730249       -19.8711
  23   2.0000      -0.685973       -18.6663
  24   2.0000      -0.642580       -17.4855
  25   2.0000      -0.596434       -16.2298
  26   2.0000      -0.586856       -15.9692
  27   2.0000      -0.572714       -15.5843
  28   2.0000      -0.551093       -14.9960
  29   2.0000      -0.545923       -14.8553
  30   2.0000      -0.513370       -13.9695
  31   2.0000      -0.490562       -13.3489
  32   2.0000      -0.477650       -12.9975
  33   2.0000      -0.470868       -12.8130
  34   2.0000      -0.458570       -12.4783
  35   2.0000      -0.452680       -12.3181
  36   2.0000      -0.412955       -11.2371
  37   2.0000      -0.406275       -11.0553
  38   2.0000      -0.404044       -10.9946
  39   2.0000      -0.384958       -10.4752
  40   2.0000      -0.363156        -9.8820
  41   2.0000      -0.351286        -9.5590
  42   2.0000      -0.342460        -9.3188
  43   2.0000      -0.337312        -9.1787
  44   2.0000      -0.327409        -8.9093
  45   2.0000      -0.321372        -8.7450
  46   2.0000      -0.271096        -7.3769
  47   2.0000      -0.170085        -4.6282
  48   0.0000       0.010608         0.2887
  49   0.0000       0.023544         0.6407
  50   0.0000       0.043993         1.1971
  51   0.0000       0.057746         1.5713
  52   0.0000       0.059930         1.6308

MULLIKEN ATOMIC CHARGES
-----------------------
   0 C :   -0.228411
   1 C :   -0.354983
   2 C :   -0.121328
   3 C :   -0.296840
   4 H :    0.168988
   5 H :    0.150021
   6 S :    0.874560
   7 C :    0.365436
   8 N :   -0.481841
   9 N :   -0.477386
  10 H :    0.247452
  11 H :    0.207183
  12 H :    0.079199
  13 H :    0.235128
  14 H :    0.205064
  15 O :   -0.413275
  16 O :   -0.410617
  17 F :   -0.150227
  18 H :    0.115644
  19 H :    0.090997
  20 H :    0.101045
  21 H :    0.094191
Sum of atomic charges:   -0.0000000

LOEWDIN ATOMIC CHARGES
----------------------
   0 C :   -0.281022
   1 C :   -0.278816
   2 C :   -0.279976
   3 C :   -0.360382
   4 H :    0.144438
   5 H :    0.148542
   6 S :    0.547896
   7 C :   -0.464243
   8 N :   -0.022293
   9 N :    0.002578
  10 H :    0.140335
  11 H :    0.163416
  12 H :    0.118126
  13 H :    0.173167
  14 H :    0.155341
  15 O :   -0.262644
  16 O :   -0.257961
  17 F :    0.060544
  18 H :    0.138830
  19 H :    0.141615
  20 H :    0.130840
  21 H :    0.141669

  Mayer bond orders larger than 0.100000
B(  0-C ,  1-C ) :   1.0019 B(  0-C ,  2-C ) :   0.9511 B(  0-C , 20-H ) :   0.9846
B(  0-C , 21-H ) :   0.9794 B(  1-C ,  7-C ) :   1.6377 B(  1-C , 12-H ) :   0.9902
B(  2-C ,  3-C ) :   0.9469 B(  2-C , 18-H ) :   0.9591 B(  2-C , 19-H ) :   0.9502
B(  3-C ,  4-H ) :   0.9380 B(  3-C ,  5-H ) :   0.9457 B(  3-C ,  6-S ) :   0.9214
B(  6-S , 15-O ) :   1.9380 B(  6-S , 16-O ) :   1.9346 B(  6-S , 17-F ) :   1.0056
B(  7-C ,  8-N ) :   1.1104 B(  7-C ,  9-N ) :   1.1477 B(  8-N , 13-H ) :   0.9211
B(  8-N , 14-H ) :   0.9284 B(  9-N , 10-H ) :   0.8907 B(  9-N , 11-H ) :   0.9277

Dispersion correction           -0.041912823
FINAL SINGLE POINT ENERGY      -955.017424251929

DIPOLE MOMENT
-------------
                                X             Y             Z
Electronic contribution:    -13.20430      -3.92162      -3.71547
Nuclear contribution   :     14.80811       3.53278       3.42836
                        -----------------------------------------
Total Dipole Moment    :      1.60381      -0.38884      -0.28712
                        -----------------------------------------
Magnitude (a.u.)       :      1.67507
Magnitude (Debye)      :      4.25768

Rotational constants in cm-1:     0.059173     0.020923     0.018056
Rotational constants in MHz :  1773.956621   627.264018   541.303397

                             ****ORCA TERMINATED NORMALLY****
TOTAL RUN TIME: 0 days 0 hours 0 minutes 32 seconds 120 msec
