                         Program Version 5.0.0 -  RELEASE  -
|  1> !B3LYP D3BJ RIJCOSX def2-TZVP def2/J TightSCF xyzfile
|  2>
|  3> *xyzfile 0 1 D8.xyz
|  4>
|  5> %MaxCore 64000
|  6>
|  7> %pal nprocs 18
|  8> end
|  9>
| 10> %scf
| 11>   MaxIter 150
| 12> end
| 13>
| 14>
| 15>                          ****END OF INPUT****

CARTESIAN COORDINATES (ANGSTROEM)
---------------------------------
  C      3.380928    2.083045   -3.350127
  N      4.535924    1.182447   -3.428518
  C      2.495557    1.816150   -2.136364
  C      1.872181    0.427903   -2.077497
  H      2.614270   -0.365825   -2.198894
  H      1.389953    0.273087   -1.112360
  S      0.579024    0.140472   -3.297943
  C      4.671956    0.122273   -4.220598
  C      5.866023   -0.507849   -4.224284
  N      3.698881   -0.312844   -4.986988
  H      2.731405   -0.050091   -4.849000
  H      3.890046   -1.055172   -5.643730
  H      5.251933    1.303459   -2.721014
  H      6.695165   -0.062322   -3.851596
  H      5.975383   -1.396884   -4.691414
  O      0.228860   -1.246868   -3.127871
  O     -0.439269    1.118966   -3.014550
  F      1.247881    0.403474   -4.595647
  H      1.697003    2.561969   -2.141109
  H      3.080787    1.987436   -1.225838
  H      2.806463    1.986511   -4.268484
  H      3.778714    3.098282   -3.307383

 Total Charge           Charge          ....    0
 Multiplicity           Mult            ....    1
 Number of Electrons    NEL             ....   96
 Basis Dimension        Dim             ....  413

ORBITAL ENERGIES
----------------

  NO   OCC          E(Eh)            E(eV)
   0   2.0000     -89.109666     -2424.7973
   1   2.0000     -24.809345      -675.0966
   2   2.0000     -19.152535      -521.1670
   3   2.0000     -19.151703      -521.1443
   4   2.0000     -14.327305      -389.8658
   5   2.0000     -14.315588      -389.5469
   6   2.0000     -10.233863      -278.4776
   7   2.0000     -10.226310      -278.2720
   8   2.0000     -10.222110      -278.1577
   9   2.0000     -10.205169      -277.6968
  10   2.0000     -10.082800      -274.3669
  11   2.0000      -8.154073      -221.8836
  12   2.0000      -6.121318      -166.5695
  13   2.0000      -6.114183      -166.3754
  14   2.0000      -6.113888      -166.3673
  15   2.0000      -1.383559       -37.6486
  16   2.0000      -1.131430       -30.7878
  17   2.0000      -1.040371       -28.3099
  18   2.0000      -0.977978       -26.6121
  19   2.0000      -0.898861       -24.4593
  20   2.0000      -0.836972       -22.7752
  21   2.0000      -0.771943       -21.0056
  22   2.0000      -0.726515       -19.7695
  23   2.0000      -0.701977       -19.1018
  24   2.0000      -0.643025       -17.4976
  25   2.0000      -0.614834       -16.7305
  26   2.0000      -0.609297       -16.5798
  27   2.0000      -0.593997       -16.1635
  28   2.0000      -0.562990       -15.3197
  29   2.0000      -0.536879       -14.6092
  30   2.0000      -0.515484       -14.0270
  31   2.0000      -0.497659       -13.5420
  32   2.0000      -0.491046       -13.3620
  33   2.0000      -0.484827       -13.1928
  34   2.0000      -0.469978       -12.7887
  35   2.0000      -0.459113       -12.4931
  36   2.0000      -0.427523       -11.6335
  37   2.0000      -0.410385       -11.1671
  38   2.0000      -0.406705       -11.0670
  39   2.0000      -0.394789       -10.7428
  40   2.0000      -0.387520       -10.5450
  41   2.0000      -0.379764       -10.3339
  42   2.0000      -0.361924        -9.8485
  43   2.0000      -0.354385        -9.6433
  44   2.0000      -0.343172        -9.3382
  45   2.0000      -0.335691        -9.1346
  46   2.0000      -0.264301        -7.1920
  47   2.0000      -0.164815        -4.4849
  48   0.0000       0.000538         0.0146
  49   0.0000       0.020175         0.5490
  50   0.0000       0.038119         1.0373
  51   0.0000       0.049367         1.3433
  52   0.0000       0.057513         1.5650

MULLIKEN ATOMIC CHARGES
-----------------------
   0 C :   -0.195577
   1 N :   -0.311098
   2 C :   -0.148402
   3 C :   -0.285900
   4 H :    0.173581
   5 H :    0.157630
   6 S :    0.877301
   7 C :    0.406463
   8 C :   -0.574054
   9 N :   -0.480741
  10 H :    0.229177
  11 H :    0.232995
  12 H :    0.213113
  13 H :    0.089074
  14 H :    0.080790
  15 O :   -0.403198
  16 O :   -0.409186
  17 F :   -0.146686
  18 H :    0.123203
  19 H :    0.105999
  20 H :    0.142840
  21 H :    0.122679
Sum of atomic charges:    0.0000000

LOEWDIN ATOMIC CHARGES
----------------------
   0 C :   -0.283913
   1 N :    0.122058
   2 C :   -0.288076
   3 C :   -0.360365
   4 H :    0.147520
   5 H :    0.151621
   6 S :    0.547388
   7 C :   -0.476068
   8 C :   -0.353668
   9 N :    0.002599
  10 H :    0.129810
  11 H :    0.179791
  12 H :    0.193015
  13 H :    0.091778
  14 H :    0.091226
  15 O :   -0.253815
  16 O :   -0.256092
  17 F :    0.061340
  18 H :    0.145601
  19 H :    0.142724
  20 H :    0.130758
  21 H :    0.134769

  Mayer bond orders larger than 0.100000
B(  0-C ,  1-N ) :   0.9070 B(  0-C ,  2-C ) :   0.9519 B(  0-C , 20-H ) :   0.9781
B(  0-C , 21-H ) :   0.9788 B(  1-N ,  7-C ) :   1.1706 B(  1-N , 12-H ) :   0.9260
B(  2-C ,  3-C ) :   0.9430 B(  2-C , 18-H ) :   0.9565 B(  2-C , 19-H ) :   0.9504
B(  3-C ,  4-H ) :   0.9357 B(  3-C ,  5-H ) :   0.9438 B(  3-C ,  6-S ) :   0.9167
B(  6-S , 15-O ) :   1.9467 B(  6-S , 16-O ) :   1.9305 B(  6-S , 17-F ) :   1.0101
B(  7-C ,  8-C ) :   1.5441 B(  7-C ,  9-N ) :   1.1655 B(  8-C , 13-H ) :   1.0057
B(  8-C , 14-H ) :   1.0084 B(  9-N , 10-H ) :   0.8954 B(  9-N , 11-H ) :   0.9245

Dispersion correction           -0.041474239
FINAL SINGLE POINT ENERGY      -955.003079376386

DIPOLE MOMENT
-------------
                                X             Y             Z
Electronic contribution:    -14.67676      -2.44185      -2.91795
Nuclear contribution   :     14.93782       3.36795       3.35075
                        -----------------------------------------
Total Dipole Moment    :      0.26106       0.92610       0.43280
                        -----------------------------------------
Magnitude (a.u.)       :      1.05505
Magnitude (Debye)      :      2.68172

Rotational constants in cm-1:     0.059219     0.021387     0.018380
Rotational constants in MHz :  1775.354399   641.172207   551.019443

                             ****ORCA TERMINATED NORMALLY****
TOTAL RUN TIME: 0 days 0 hours 0 minutes 38 seconds 371 msec
