                         Program Version 5.0.0 -  RELEASE  -
|  1> !B3LYP D3BJ RIJCOSX def2-TZVP def2/J TightSCF xyzfile
|  2>
|  3> *xyzfile 0 1 D9.xyz
|  4>
|  5> %MaxCore 64000
|  6>
|  7> %pal nprocs 18
|  8> end
|  9>
| 10> %scf
| 11>   MaxIter 150
| 12> end
| 13>
| 14>
| 15>                          ****END OF INPUT****

CARTESIAN COORDINATES (ANGSTROEM)
---------------------------------
  C      3.380928    2.083045   -3.350127
  N      4.535924    1.182447   -3.428518
  C      2.495557    1.816150   -2.136364
  C      1.872181    0.427903   -2.077497
  H      2.614270   -0.365825   -2.198894
  H      1.389953    0.273087   -1.112360
  S      0.579024    0.140472   -3.297943
  C      4.671956    0.122273   -4.220598
  N      5.866023   -0.507849   -4.224284
  C      3.698881   -0.312844   -4.986988
  H      2.731405   -0.050091   -4.849000
  H      3.890046   -1.055172   -5.643730
  H      5.251933    1.303459   -2.721014
  H      6.695165   -0.062322   -3.851596
  H      5.975383   -1.396884   -4.691414
  O      0.228860   -1.246868   -3.127871
  O     -0.439269    1.118966   -3.014550
  F      1.247881    0.403474   -4.595647
  H      1.697003    2.561969   -2.141109
  H      3.080787    1.987436   -1.225838
  H      2.806463    1.986511   -4.268484
  H      3.778714    3.098282   -3.307383

 Total Charge           Charge          ....    0
 Multiplicity           Mult            ....    1
 Number of Electrons    NEL             ....   96
 Basis Dimension        Dim             ....  413

ORBITAL ENERGIES
----------------

  NO   OCC          E(Eh)            E(eV)
   0   2.0000     -89.091396     -2424.3001
   1   2.0000     -24.777800      -674.2382
   2   2.0000     -19.135000      -520.6898
   3   2.0000     -19.133382      -520.6458
   4   2.0000     -14.328587      -389.9007
   5   2.0000     -14.317664      -389.6034
   6   2.0000     -10.221203      -278.1331
   7   2.0000     -10.219948      -278.0989
   8   2.0000     -10.219591      -278.0892
   9   2.0000     -10.197277      -277.4820
  10   2.0000     -10.080552      -274.3058
  11   2.0000      -8.135473      -221.3775
  12   2.0000      -6.102443      -166.0559
  13   2.0000      -6.095876      -165.8772
  14   2.0000      -6.095446      -165.8655
  15   2.0000      -1.353503       -36.8307
  16   2.0000      -1.112913       -30.2839
  17   2.0000      -1.022794       -27.8316
  18   2.0000      -0.973419       -26.4881
  19   2.0000      -0.891285       -24.2531
  20   2.0000      -0.823344       -22.4043
  21   2.0000      -0.748475       -20.3670
  22   2.0000      -0.729771       -19.8581
  23   2.0000      -0.693741       -18.8776
  24   2.0000      -0.650180       -17.6923
  25   2.0000      -0.586518       -15.9600
  26   2.0000      -0.581797       -15.8315
  27   2.0000      -0.562605       -15.3093
  28   2.0000      -0.553474       -15.0608
  29   2.0000      -0.541844       -14.7443
  30   2.0000      -0.517172       -14.0730
  31   2.0000      -0.493991       -13.4422
  32   2.0000      -0.479364       -13.0442
  33   2.0000      -0.465134       -12.6569
  34   2.0000      -0.461919       -12.5695
  35   2.0000      -0.445752       -12.1295
  36   2.0000      -0.416482       -11.3330
  37   2.0000      -0.410323       -11.1654
  38   2.0000      -0.396638       -10.7931
  39   2.0000      -0.385606       -10.4929
  40   2.0000      -0.381074       -10.3696
  41   2.0000      -0.371240       -10.1020
  42   2.0000      -0.355502        -9.6737
  43   2.0000      -0.337810        -9.1923
  44   2.0000      -0.327233        -8.9045
  45   2.0000      -0.318189        -8.6584
  46   2.0000      -0.258896        -7.0449
  47   2.0000      -0.178372        -4.8537
  48   0.0000       0.009054         0.2464
  49   0.0000       0.024635         0.6704
  50   0.0000       0.037143         1.0107
  51   0.0000       0.057572         1.5666
  52   0.0000       0.063861         1.7378

MULLIKEN ATOMIC CHARGES
-----------------------
   0 C :   -0.141203
   1 N :   -0.338222
   2 C :   -0.175246
   3 C :   -0.265008
   4 H :    0.168838
   5 H :    0.150015
   6 S :    0.883286
   7 C :    0.442398
   8 N :   -0.501877
   9 C :   -0.564761
  10 H :    0.108221
  11 H :    0.076612
  12 H :    0.182133
  13 H :    0.207211
  14 H :    0.235357
  15 O :   -0.413457
  16 O :   -0.422811
  17 F :   -0.121051
  18 H :    0.123069
  19 H :    0.097608
  20 H :    0.153602
  21 H :    0.115286
Sum of atomic charges:   -0.0000000

LOEWDIN ATOMIC CHARGES
----------------------
   0 C :   -0.266890
   1 N :    0.116056
   2 C :   -0.288321
   3 C :   -0.359607
   4 H :    0.146707
   5 H :    0.147984
   6 S :    0.551874
   7 C :   -0.470101
   8 N :   -0.022737
   9 C :   -0.337374
  10 H :    0.077651
  11 H :    0.098166
  12 H :    0.174907
  13 H :    0.155123
  14 H :    0.172700
  15 O :   -0.260038
  16 O :   -0.266369
  17 F :    0.072628
  18 H :    0.145912
  19 H :    0.139361
  20 H :    0.139137
  21 H :    0.133231

  Mayer bond orders larger than 0.100000
B(  0-C ,  1-N ) :   0.8783 B(  0-C ,  2-C ) :   0.9690 B(  0-C , 20-H ) :   0.9715
B(  0-C , 21-H ) :   0.9776 B(  1-N ,  7-C ) :   1.1488 B(  1-N , 12-H ) :   0.9286
B(  2-C ,  3-C ) :   0.9528 B(  2-C , 18-H ) :   0.9581 B(  2-C , 19-H ) :   0.9521
B(  3-C ,  4-H ) :   0.9407 B(  3-C ,  5-H ) :   0.9445 B(  3-C ,  6-S ) :   0.9136
B(  6-S , 15-O ) :   1.9396 B(  6-S , 16-O ) :   1.9185 B(  6-S , 17-F ) :   1.0568
B(  7-C ,  8-N ) :   1.0804 B(  7-C ,  9-C ) :   1.5811 B(  8-N , 13-H ) :   0.9274
B(  8-N , 14-H ) :   0.9243 B(  9-C , 10-H ) :   1.0265 B(  9-C , 11-H ) :   1.0061

Dispersion correction           -0.041869844
FINAL SINGLE POINT ENERGY      -955.000093782733

DIPOLE MOMENT
-------------
                                X             Y             Z
Electronic contribution:    -12.60808      -2.65415      -2.42186
Nuclear contribution   :     14.72648       3.38697       3.27638
                        -----------------------------------------
Total Dipole Moment    :      2.11840       0.73282       0.85452
                        -----------------------------------------
Magnitude (a.u.)       :      2.39893
Magnitude (Debye)      :      6.09759

Rotational constants in cm-1:     0.059651     0.020833     0.018010
Rotational constants in MHz :  1788.283887   624.555661   539.921162

                             ****ORCA TERMINATED NORMALLY****
TOTAL RUN TIME: 0 days 0 hours 0 minutes 35 seconds 274 msec
