                         Program Version 5.0.0 -  RELEASE  -
|  1> !wB97X-D3 RIJCOSX def2-TZVP def2/J TightSCF
|  2> *xyz -1 1
|  3> C         -0.87096        0.24804       -2.66280
|  4> C         -0.47749        0.60819       -4.10105
|  5> H          0.20677        1.45830       -4.11875
|  6> H         -1.36844        0.92942       -4.64785
|  7> C          0.18467       -0.50664       -4.91676
|  8> O         -0.15869       -1.70109       -4.65798
|  9> O          1.05594       -0.17441       -5.74037
| 10> H         -1.54056       -0.58646       -2.67455
| 11> H         -1.35339        1.08600       -2.20455
| 12> H          0.00660       -0.00662       -2.10609
| 13> *
| 14>
| 15> %MaxCore 64000
| 16>
| 17> %pal nprocs 4
| 18> end
| 19>
| 20> %scf
| 21>   MaxIter 150
| 22> end
| 23>
| 24>
| 25>                          ****END OF INPUT****

CARTESIAN COORDINATES (ANGSTROEM)
---------------------------------
  C     -0.870960    0.248040   -2.662800
  C     -0.477490    0.608190   -4.101050
  H      0.206770    1.458300   -4.118750
  H     -1.368440    0.929420   -4.647850
  C      0.184670   -0.506640   -4.916760
  O     -0.158690   -1.701090   -4.657980
  O      1.055940   -0.174410   -5.740370
  H     -1.540560   -0.586460   -2.674550
  H     -1.353390    1.086000   -2.204550
  H      0.006600   -0.006620   -2.106090

 Total Charge           Charge          ....   -1
 Multiplicity           Mult            ....    1
 Number of Electrons    NEL             ....   40
 Basis Dimension        Dim             ....  185

ORBITAL ENERGIES
----------------

  NO   OCC          E(Eh)            E(eV)
   0   2.0000     -18.954060      -515.7662
   1   2.0000     -18.950574      -515.6713
   2   2.0000     -10.150155      -276.1998
   3   2.0000     -10.105937      -274.9965
   4   2.0000     -10.096993      -274.7531
   5   2.0000      -0.927020       -25.2255
   6   2.0000      -0.830671       -22.6037
   7   2.0000      -0.716492       -19.4967
   8   2.0000      -0.583682       -15.8828
   9   2.0000      -0.417037       -11.3482
  10   2.0000      -0.391512       -10.6536
  11   2.0000      -0.356914        -9.7121
  12   2.0000      -0.322864        -8.7856
  13   2.0000      -0.308312        -8.3896
  14   2.0000      -0.299274        -8.1437
  15   2.0000      -0.268276        -7.3002
  16   2.0000      -0.249622        -6.7926
  17   2.0000      -0.131825        -3.5871
  18   2.0000      -0.127581        -3.4716
  19   2.0000      -0.114412        -3.1133
  20   0.0000       0.262414         7.1407
  21   0.0000       0.305063         8.3012
  22   0.0000       0.319681         8.6990
  23   0.0000       0.328647         8.9429
  24   0.0000       0.345016         9.3884

MULLIKEN ATOMIC CHARGES
-----------------------
   0 C :   -0.296389
   1 C :   -0.154637
   2 H :    0.051695
   3 H :    0.042672
   4 C :    0.254848
   5 O :   -0.580790
   6 O :   -0.549801
   7 H :    0.098274
   8 H :    0.051700
   9 H :    0.082430
Sum of atomic charges:   -1.0000000

LOEWDIN ATOMIC CHARGES
----------------------
   0 C :   -0.325547
   1 C :   -0.291828
   2 H :    0.121167
   3 H :    0.122375
   4 C :   -0.690707
   5 O :   -0.141181
   6 O :   -0.103692
   7 H :    0.110913
   8 H :    0.091646
   9 H :    0.106854

  Mayer bond orders larger than 0.100000
B(  0-C ,  1-C ) :   0.9520 B(  0-C ,  7-H ) :   0.9772 B(  0-C ,  8-H ) :   0.9744
B(  0-C ,  9-H ) :   0.9834 B(  1-C ,  2-H ) :   0.9706 B(  1-C ,  3-H ) :   0.9634
B(  1-C ,  4-C ) :   0.9519 B(  4-C ,  5-O ) :   1.8048 B(  4-C ,  6-O ) :   1.8652

Dispersion correction           -0.001934019
FINAL SINGLE POINT ENERGY      -267.865974331442

DIPOLE MOMENT
-------------
                                X             Y             Z
Electronic contribution:      2.64291      -2.92512      -4.58457
Nuclear contribution   :     -3.54611       4.15440       5.90446
                        -----------------------------------------
Total Dipole Moment    :     -0.90320       1.22928       1.31989
                        -----------------------------------------
Magnitude (a.u.)       :      2.01718
Magnitude (Debye)      :      5.12726

Rotational constants in cm-1:     0.332789     0.132085     0.101080
Rotational constants in MHz :  9976.755824  3959.803182  3030.288811

                             ****ORCA TERMINATED NORMALLY****
TOTAL RUN TIME: 0 days 0 hours 0 minutes 26 seconds 393 msec
