                         Program Version 5.0.0 -  RELEASE  -
|  1> !wB97X-D3 RIJCOSX def2-TZVP def2/J TightSCF
|  2> *xyz 1 1
|  3> C          2.48645       -2.67712       -2.56345
|  4> C          3.03764       -2.36672       -3.92351
|  5> N          2.28036       -2.45441       -4.96769
|  6> N          4.32174       -2.01793       -4.01664
|  7> H          4.87994       -1.91167       -3.17382
|  8> H          4.71015       -1.67088       -4.88356
|  9> H          1.27042       -2.41265       -4.86614
| 10> H          2.58183       -2.05528       -5.84688
| 11> C          2.49799       -1.46946       -1.61030
| 12> H          1.47259       -3.05153       -2.69437
| 13> H          3.08320       -3.49064       -2.14147
| 14> H          1.91240       -0.67831       -2.02991
| 15> H          3.50450       -1.13364       -1.47227
| 16> H          2.08509       -1.75655       -0.66585
| 17> *
| 18>
| 19> %MaxCore 64000
| 20>
| 21> %pal nprocs 4
| 22> end
| 23>
| 24> %scf
| 25>   MaxIter 150
| 26> end
| 27>
| 28>
| 29>                          ****END OF INPUT****

CARTESIAN COORDINATES (ANGSTROEM)
---------------------------------
  C      2.486450   -2.677120   -2.563450
  C      3.037640   -2.366720   -3.923510
  N      2.280360   -2.454410   -4.967690
  N      4.321740   -2.017930   -4.016640
  H      4.879940   -1.911670   -3.173820
  H      4.710150   -1.670880   -4.883560
  H      1.270420   -2.412650   -4.866140
  H      2.581830   -2.055280   -5.846880
  C      2.497990   -1.469460   -1.610300
  H      1.472590   -3.051530   -2.694370
  H      3.083200   -3.490640   -2.141470
  H      1.912400   -0.678310   -2.029910
  H      3.504500   -1.133640   -1.472270
  H      2.085090   -1.756550   -0.665850

 Total Charge           Charge          ....    1
 Multiplicity           Mult            ....    1
 Number of Electrons    NEL             ....   40
 Basis Dimension        Dim             ....  209

ORBITAL ENERGIES
----------------

  NO   OCC          E(Eh)            E(eV)
   0   2.0000     -14.670386      -399.2015
   1   2.0000     -14.665066      -399.0567
   2   2.0000     -10.602875      -288.5189
   3   2.0000     -10.474382      -285.0224
   4   2.0000     -10.431034      -283.8429
   5   2.0000      -1.326276       -36.0898
   6   2.0000      -1.227058       -33.3899
   7   2.0000      -1.086187       -29.5567
   8   2.0000      -0.976972       -26.5848
   9   2.0000      -0.923964       -25.1423
  10   2.0000      -0.877450       -23.8766
  11   2.0000      -0.854859       -23.2619
  12   2.0000      -0.800343       -21.7784
  13   2.0000      -0.754738       -20.5375
  14   2.0000      -0.723011       -19.6741
  15   2.0000      -0.708161       -19.2700
  16   2.0000      -0.644058       -17.5257
  17   2.0000      -0.634035       -17.2530
  18   2.0000      -0.623756       -16.9733
  19   2.0000      -0.589444       -16.0396
  20   0.0000      -0.129970        -3.5367
  21   0.0000      -0.074936        -2.0391
  22   0.0000      -0.030789        -0.8378
  23   0.0000      -0.028705        -0.7811
  24   0.0000       0.004253         0.1157

MULLIKEN ATOMIC CHARGES
-----------------------
   0 C :   -0.249975
   1 C :    0.364270
   2 N :   -0.367301
   3 N :   -0.402797
   4 H :    0.314073
   5 H :    0.295698
   6 H :    0.314308
   7 H :    0.290928
   8 C :   -0.335851
   9 H :    0.148662
  10 H :    0.187591
  11 H :    0.143109
  12 H :    0.119533
  13 H :    0.177751
Sum of atomic charges:    1.0000000

LOEWDIN ATOMIC CHARGES
----------------------
   0 C :   -0.218361
   1 C :   -0.284089
   2 N :    0.121134
   3 N :    0.098708
   4 H :    0.209184
   5 H :    0.197923
   6 H :    0.214812
   7 H :    0.202411
   8 C :   -0.259908
   9 H :    0.158003
  10 H :    0.171666
  11 H :    0.128704
  12 H :    0.120644
  13 H :    0.139171

  Mayer bond orders larger than 0.100000
B(  0-C ,  1-C ) :   0.9642 B(  0-C ,  8-C ) :   0.9621 B(  0-C ,  9-H ) :   0.9754
B(  0-C , 10-H ) :   0.9383 B(  1-C ,  2-N ) :   1.4809 B(  1-C ,  3-N ) :   1.4243
B(  2-N ,  6-H ) :   0.8767 B(  2-N ,  7-H ) :   0.8881 B(  3-N ,  4-H ) :   0.8836
B(  3-N ,  5-H ) :   0.8878 B(  8-C , 11-H ) :   0.9621 B(  8-C , 12-H ) :   0.9723
B(  8-C , 13-H ) :   0.9650

Dispersion correction           -0.002999211
FINAL SINGLE POINT ENERGY      -229.054143393230

DIPOLE MOMENT
-------------
                                X             Y             Z
Electronic contribution:      1.05445      -1.06568      -3.92540
Nuclear contribution   :     -0.84604       1.34287       2.92710
                        -----------------------------------------
Total Dipole Moment    :      0.20841       0.27719      -0.99831
                        -----------------------------------------
Magnitude (a.u.)       :      1.05683
Magnitude (Debye)      :      2.68624

Rotational constants in cm-1:     0.265816     0.126189     0.097583
Rotational constants in MHz :  7968.948902  3783.040103  2925.457702

                             ****ORCA TERMINATED NORMALLY****
TOTAL RUN TIME: 0 days 0 hours 0 minutes 37 seconds 955 msec
