                         Program Version 5.0.0 -  RELEASE  -
|  1> !wB97X-D3 RIJCOSX def2-TZVP def2/J TightSCF
|  2> *xyz 0 1
|  3> C         -0.87096        0.24804       -2.66280
|  4> C         -0.47749        0.60819       -4.10105
|  5> H          0.20677        1.45830       -4.11875
|  6> H         -1.36844        0.92942       -4.64785
|  7> C          0.18467       -0.50664       -4.91676
|  8> F         -0.15869       -1.70109       -4.65798
|  9> O          1.05594       -0.17441       -5.74037
| 10> H         -1.54056       -0.58646       -2.67455
| 11> H         -1.35339        1.08600       -2.20455
| 12> H          0.00660       -0.00662       -2.10609
| 13> *
| 14>
| 15> %MaxCore 64000
| 16>
| 17> %pal nprocs 4
| 18> end
| 19>
| 20> %scf
| 21>   MaxIter 150
| 22> end
| 23>
| 24>
| 25>                          ****END OF INPUT****

CARTESIAN COORDINATES (ANGSTROEM)
---------------------------------
  C     -0.870960    0.248040   -2.662800
  C     -0.477490    0.608190   -4.101050
  H      0.206770    1.458300   -4.118750
  H     -1.368440    0.929420   -4.647850
  C      0.184670   -0.506640   -4.916760
  F     -0.158690   -1.701090   -4.657980
  O      1.055940   -0.174410   -5.740370
  H     -1.540560   -0.586460   -2.674550
  H     -1.353390    1.086000   -2.204550
  H      0.006600   -0.006620   -2.106090

 Total Charge           Charge          ....    0
 Multiplicity           Mult            ....    1
 Number of Electrons    NEL             ....   40
 Basis Dimension        Dim             ....  185

ORBITAL ENERGIES
----------------

  NO   OCC          E(Eh)            E(eV)
   0   2.0000     -24.849924      -676.2008
   1   2.0000     -19.235507      -523.4248
   2   2.0000     -10.453696      -284.4595
   3   2.0000     -10.307796      -280.4894
   4   2.0000     -10.281475      -279.7732
   5   2.0000      -1.425281       -38.7839
   6   2.0000      -1.154183       -31.4069
   7   2.0000      -0.919379       -25.0176
   8   2.0000      -0.796791       -21.6818
   9   2.0000      -0.749360       -20.3911
  10   2.0000      -0.650096       -17.6900
  11   2.0000      -0.642846       -17.4927
  12   2.0000      -0.599447       -16.3118
  13   2.0000      -0.568156       -15.4603
  14   2.0000      -0.533000       -14.5037
  15   2.0000      -0.499755       -13.5990
  16   2.0000      -0.484733       -13.1903
  17   2.0000      -0.474418       -12.9096
  18   2.0000      -0.443916       -12.0796
  19   2.0000      -0.388133       -10.5616
  20   0.0000       0.060443         1.6447
  21   0.0000       0.108687         2.9575
  22   0.0000       0.155091         4.2203
  23   0.0000       0.175695         4.7809
  24   0.0000       0.182288         4.9603

MULLIKEN ATOMIC CHARGES
-----------------------
   0 C :   -0.336027
   1 C :   -0.225150
   2 H :    0.142217
   3 H :    0.126747
   4 C :    0.385649
   5 F :   -0.118287
   6 O :   -0.344974
   7 H :    0.120247
   8 H :    0.126372
   9 H :    0.123208
Sum of atomic charges:   -0.0000000

LOEWDIN ATOMIC CHARGES
----------------------
   0 C :   -0.295596
   1 C :   -0.257547
   2 H :    0.154091
   3 H :    0.152574
   4 C :   -0.487040
   5 F :    0.303092
   6 O :    0.071842
   7 H :    0.118756
   8 H :    0.120232
   9 H :    0.119597

  Mayer bond orders larger than 0.100000
B(  0-C ,  1-C ) :   0.9680 B(  0-C ,  7-H ) :   0.9712 B(  0-C ,  8-H ) :   0.9733
B(  0-C ,  9-H ) :   0.9760 B(  1-C ,  2-H ) :   0.9658 B(  1-C ,  3-H ) :   0.9423
B(  1-C ,  4-C ) :   1.0049 B(  4-C ,  5-F ) :   1.1375 B(  4-C ,  6-O ) :   2.0552

Dispersion correction           -0.001890936
FINAL SINGLE POINT ENERGY      -292.440304232618

DIPOLE MOMENT
-------------
                                X             Y             Z
Electronic contribution:      2.60532      -5.36166      -5.29550
Nuclear contribution   :     -3.42837       5.66737       6.17046
                        -----------------------------------------
Total Dipole Moment    :     -0.82305       0.30571       0.87495
                        -----------------------------------------
Magnitude (a.u.)       :      1.23952
Magnitude (Debye)      :      3.15061

Rotational constants in cm-1:     0.304660     0.130969     0.097716
Rotational constants in MHz :  9133.464515  3926.366384  2929.457090

                             ****ORCA TERMINATED NORMALLY****
TOTAL RUN TIME: 0 days 0 hours 0 minutes 27 seconds 797 msec
