                         Program Version 5.0.0 -  RELEASE  -
|  1> !wB97X-D3 RIJCOSX def2-TZVP def2/J TightSCF
|  2> *xyz 0 1
|  3> C          2.48645       -2.67712       -2.56345
|  4> C          3.03764       -2.36672       -3.92351
|  5> C          2.28036       -2.45441       -4.96769
|  6> N          4.32174       -2.01793       -4.01664
|  7> H          4.87994       -1.91167       -3.17382
|  8> H          4.71015       -1.67088       -4.88356
|  9> H          1.27042       -2.41265       -4.86614
| 10> H          2.58183       -2.05528       -5.84688
| 11> C          2.49799       -1.46946       -1.61030
| 12> H          1.47259       -3.05153       -2.69437
| 13> H          3.08320       -3.49064       -2.14147
| 14> H          1.91240       -0.67831       -2.02991
| 15> H          3.50450       -1.13364       -1.47227
| 16> H          2.08509       -1.75655       -0.66585
| 17> *
| 18>
| 19> %MaxCore 64000
| 20>
| 21> %pal nprocs 4
| 22> end
| 23>
| 24> %scf
| 25>   MaxIter 150
| 26> end
| 27>
| 28>
| 29>                          ****END OF INPUT****

CARTESIAN COORDINATES (ANGSTROEM)
---------------------------------
  C      2.486450   -2.677120   -2.563450
  C      3.037640   -2.366720   -3.923510
  C      2.280360   -2.454410   -4.967690
  N      4.321740   -2.017930   -4.016640
  H      4.879940   -1.911670   -3.173820
  H      4.710150   -1.670880   -4.883560
  H      1.270420   -2.412650   -4.866140
  H      2.581830   -2.055280   -5.846880
  C      2.497990   -1.469460   -1.610300
  H      1.472590   -3.051530   -2.694370
  H      3.083200   -3.490640   -2.141470
  H      1.912400   -0.678310   -2.029910
  H      3.504500   -1.133640   -1.472270
  H      2.085090   -1.756550   -0.665850

 Total Charge           Charge          ....    0
 Multiplicity           Mult            ....    1
 Number of Electrons    NEL             ....   40
 Basis Dimension        Dim             ....  209

ORBITAL ENERGIES
----------------

  NO   OCC          E(Eh)            E(eV)
   0   2.0000     -14.419622      -392.3779
   1   2.0000     -10.295666      -280.1593
   2   2.0000     -10.273950      -279.5684
   3   2.0000     -10.262123      -279.2466
   4   2.0000     -10.200309      -277.5645
   5   2.0000      -1.041352       -28.3366
   6   2.0000      -0.895611       -24.3708
   7   2.0000      -0.839497       -22.8439
   8   2.0000      -0.747222       -20.3329
   9   2.0000      -0.672066       -18.2878
  10   2.0000      -0.626216       -17.0402
  11   2.0000      -0.579450       -15.7676
  12   2.0000      -0.536064       -14.5871
  13   2.0000      -0.530967       -14.4483
  14   2.0000      -0.484693       -13.1892
  15   2.0000      -0.479984       -13.0610
  16   2.0000      -0.449013       -12.2183
  17   2.0000      -0.427441       -11.6313
  18   2.0000      -0.420010       -11.4291
  19   2.0000      -0.284134        -7.7317
  20   0.0000       0.105565         2.8726
  21   0.0000       0.123865         3.3705
  22   0.0000       0.153721         4.1830
  23   0.0000       0.159290         4.3345
  24   0.0000       0.171234         4.6595

MULLIKEN ATOMIC CHARGES
-----------------------
   0 C :   -0.202433
   1 C :    0.215806
   2 C :   -0.389410
   3 N :   -0.513525
   4 H :    0.238908
   5 H :    0.243089
   6 H :    0.099408
   7 H :    0.076651
   8 C :   -0.318903
   9 H :    0.114026
  10 H :    0.108197
  11 H :    0.119708
  12 H :    0.088399
  13 H :    0.120080
Sum of atomic charges:   -0.0000000

LOEWDIN ATOMIC CHARGES
----------------------
   0 C :   -0.235001
   1 C :   -0.362139
   2 C :   -0.276960
   3 N :   -0.012584
   4 H :    0.168876
   5 H :    0.171480
   6 H :    0.109368
   7 H :    0.099954
   8 C :   -0.292727
   9 H :    0.146301
  10 H :    0.139989
  11 H :    0.118994
  12 H :    0.108819
  13 H :    0.115628

  Mayer bond orders larger than 0.100000
B(  0-C ,  1-C ) :   0.9605 B(  0-C ,  8-C ) :   0.9602 B(  0-C ,  9-H ) :   0.9873
B(  0-C , 10-H ) :   0.9719 B(  1-C ,  2-C ) :   1.8153 B(  1-C ,  3-N ) :   1.1275
B(  2-C ,  6-H ) :   0.9913 B(  2-C ,  7-H ) :   0.9960 B(  3-N ,  4-H ) :   0.9263
B(  3-N ,  5-H ) :   0.9198 B(  8-C , 11-H ) :   0.9768 B(  8-C , 12-H ) :   0.9790
B(  8-C , 13-H ) :   0.9807

Dispersion correction           -0.003007167
FINAL SINGLE POINT ENERGY      -212.580542884478

DIPOLE MOMENT
-------------
                                X             Y             Z
Electronic contribution:      1.55583      -0.86757      -2.11529
Nuclear contribution   :     -0.99743       1.27863       2.57190
                        -----------------------------------------
Total Dipole Moment    :      0.55839       0.41106       0.45661
                        -----------------------------------------
Magnitude (a.u.)       :      0.83022
Magnitude (Debye)      :      2.11025

Rotational constants in cm-1:     0.274050     0.130114     0.100964
Rotational constants in MHz :  8215.815505  3900.722919  3026.834930

                             ****ORCA TERMINATED NORMALLY****
TOTAL RUN TIME: 0 days 0 hours 0 minutes 37 seconds 574 msec
