                         Program Version 5.0.0 -  RELEASE  -
|  1> !wB97X-D3 RIJCOSX def2-TZVP def2/J TightSCF
|  2> *xyz 0 1
|  3> C         -0.87096        0.24804       -2.66280
|  4> C         -0.47749        0.60819       -4.10105
|  5> H          0.20677        1.45830       -4.11875
|  6> H         -1.36844        0.92942       -4.64785
|  7> C          0.18467       -0.50664       -4.91676
|  8> O         -0.15869       -1.70109       -4.65798
|  9> F          1.05594       -0.17441       -5.74037
| 10> H         -1.54056       -0.58646       -2.67455
| 11> H         -1.35339        1.08600       -2.20455
| 12> H          0.00660       -0.00662       -2.10609
| 13> *
| 14>
| 15> %MaxCore 64000
| 16>
| 17> %pal nprocs 4
| 18> end
| 19>
| 20> %scf
| 21>   MaxIter 150
| 22> end
| 23>
| 24>
| 25>                          ****END OF INPUT****

CARTESIAN COORDINATES (ANGSTROEM)
---------------------------------
  C     -0.870960    0.248040   -2.662800
  C     -0.477490    0.608190   -4.101050
  H      0.206770    1.458300   -4.118750
  H     -1.368440    0.929420   -4.647850
  C      0.184670   -0.506640   -4.916760
  O     -0.158690   -1.701090   -4.657980
  F      1.055940   -0.174410   -5.740370
  H     -1.540560   -0.586460   -2.674550
  H     -1.353390    1.086000   -2.204550
  H      0.006600   -0.006620   -2.106090

 Total Charge           Charge          ....    0
 Multiplicity           Mult            ....    1
 Number of Electrons    NEL             ....   40
 Basis Dimension        Dim             ....  185

ORBITAL ENERGIES
----------------

  NO   OCC          E(Eh)            E(eV)
   0   2.0000     -24.859535      -676.4623
   1   2.0000     -19.232251      -523.3362
   2   2.0000     -10.456171      -284.5269
   3   2.0000     -10.308973      -280.5214
   4   2.0000     -10.275443      -279.6090
   5   2.0000      -1.444143       -39.2971
   6   2.0000      -1.139045       -30.9950
   7   2.0000      -0.915384       -24.9089
   8   2.0000      -0.806349       -21.9419
   9   2.0000      -0.748389       -20.3647
  10   2.0000      -0.658076       -17.9072
  11   2.0000      -0.643678       -17.5154
  12   2.0000      -0.611742       -16.6463
  13   2.0000      -0.567314       -15.4374
  14   2.0000      -0.531275       -14.4567
  15   2.0000      -0.490939       -13.3591
  16   2.0000      -0.471398       -12.8274
  17   2.0000      -0.469826       -12.7846
  18   2.0000      -0.439235       -11.9522
  19   2.0000      -0.386016       -10.5040
  20   0.0000       0.057667         1.5692
  21   0.0000       0.113561         3.0902
  22   0.0000       0.154998         4.2177
  23   0.0000       0.172786         4.7018
  24   0.0000       0.182747         4.9728

MULLIKEN ATOMIC CHARGES
-----------------------
   0 C :   -0.331516
   1 C :   -0.222494
   2 H :    0.118093
   3 H :    0.128989
   4 C :    0.397867
   5 O :   -0.372899
   6 F :   -0.096412
   7 H :    0.138297
   8 H :    0.120993
   9 H :    0.119084
Sum of atomic charges:   -0.0000000

LOEWDIN ATOMIC CHARGES
----------------------
   0 C :   -0.285420
   1 C :   -0.261941
   2 H :    0.141586
   3 H :    0.153944
   4 C :   -0.491595
   5 O :    0.038825
   6 F :    0.341369
   7 H :    0.124978
   8 H :    0.118073
   9 H :    0.120181

  Mayer bond orders larger than 0.100000
B(  0-C ,  1-C ) :   0.9830 B(  0-C ,  7-H ) :   0.9692 B(  0-C ,  8-H ) :   0.9717
B(  0-C ,  9-H ) :   0.9783 B(  1-C ,  2-H ) :   0.9657 B(  1-C ,  3-H ) :   0.9352
B(  1-C ,  4-C ) :   0.9984 B(  4-C ,  5-O ) :   2.0117 B(  4-C ,  6-F ) :   1.1707

Dispersion correction           -0.001905701
FINAL SINGLE POINT ENERGY      -292.433482731537

DIPOLE MOMENT
-------------
                                X             Y             Z
Electronic contribution:      4.65475      -2.82538      -7.13411
Nuclear contribution   :     -4.75269       4.00281       7.35060
                        -----------------------------------------
Total Dipole Moment    :     -0.09794       1.17744       0.21649
                        -----------------------------------------
Magnitude (a.u.)       :      1.20117
Magnitude (Debye)      :      3.05314

Rotational constants in cm-1:     0.323805     0.124913     0.096140
Rotational constants in MHz :  9707.430323  3744.789513  2882.191141

                             ****ORCA TERMINATED NORMALLY****
TOTAL RUN TIME: 0 days 0 hours 0 minutes 28 seconds 953 msec
