                         Program Version 5.0.0 -  RELEASE  -
|  1> !wB97X-D3 RIJCOSX def2-TZVP def2/J TightSCF
|  2> *xyz 0 1
|  3> C          2.48645       -2.67712       -2.56345
|  4> C          3.03764       -2.36672       -3.92351
|  5> N          2.28036       -2.45441       -4.96769
|  6> C          4.32174       -2.01793       -4.01664
|  7> H          4.87994       -1.91167       -3.17382
|  8> H          4.71015       -1.67088       -4.88356
|  9> H          1.27042       -2.41265       -4.86614
| 10> H          2.58183       -2.05528       -5.84688
| 11> C          2.49799       -1.46946       -1.61030
| 12> H          1.47259       -3.05153       -2.69437
| 13> H          3.08320       -3.49064       -2.14147
| 14> H          1.91240       -0.67831       -2.02991
| 15> H          3.50450       -1.13364       -1.47227
| 16> H          2.08509       -1.75655       -0.66585
| 17> *
| 18>
| 19> %MaxCore 64000
| 20>
| 21> %pal nprocs 4
| 22> end
| 23>
| 24> %scf
| 25>   MaxIter 150
| 26> end
| 27>
| 28>
| 29>                          ****END OF INPUT****

CARTESIAN COORDINATES (ANGSTROEM)
---------------------------------
  C      2.486450   -2.677120   -2.563450
  C      3.037640   -2.366720   -3.923510
  N      2.280360   -2.454410   -4.967690
  C      4.321740   -2.017930   -4.016640
  H      4.879940   -1.911670   -3.173820
  H      4.710150   -1.670880   -4.883560
  H      1.270420   -2.412650   -4.866140
  H      2.581830   -2.055280   -5.846880
  C      2.497990   -1.469460   -1.610300
  H      1.472590   -3.051530   -2.694370
  H      3.083200   -3.490640   -2.141470
  H      1.912400   -0.678310   -2.029910
  H      3.504500   -1.133640   -1.472270
  H      2.085090   -1.756550   -0.665850

 Total Charge           Charge          ....    0
 Multiplicity           Mult            ....    1
 Number of Electrons    NEL             ....   40
 Basis Dimension        Dim             ....  209

ORBITAL ENERGIES
----------------

  NO   OCC          E(Eh)            E(eV)
   0   2.0000     -14.423310      -392.4782
   1   2.0000     -10.295986      -280.1680
   2   2.0000     -10.274554      -279.5848
   3   2.0000     -10.258107      -279.1373
   4   2.0000     -10.201243      -277.5899
   5   2.0000      -1.056759       -28.7559
   6   2.0000      -0.897031       -24.4095
   7   2.0000      -0.823100       -22.3977
   8   2.0000      -0.752397       -20.4738
   9   2.0000      -0.675521       -18.3819
  10   2.0000      -0.623089       -16.9551
  11   2.0000      -0.583996       -15.8913
  12   2.0000      -0.545945       -14.8559
  13   2.0000      -0.506690       -13.7877
  14   2.0000      -0.492240       -13.3945
  15   2.0000      -0.474895       -12.9225
  16   2.0000      -0.446988       -12.1632
  17   2.0000      -0.430296       -11.7090
  18   2.0000      -0.428945       -11.6722
  19   2.0000      -0.274192        -7.4611
  20   0.0000       0.108080         2.9410
  21   0.0000       0.118366         3.2209
  22   0.0000       0.151785         4.1303
  23   0.0000       0.158290         4.3073
  24   0.0000       0.173756         4.7281

MULLIKEN ATOMIC CHARGES
-----------------------
   0 C :   -0.199153
   1 C :    0.222589
   2 N :   -0.476784
   3 C :   -0.444374
   4 H :    0.101296
   5 H :    0.093078
   6 H :    0.235378
   7 H :    0.241883
   8 C :   -0.319290
   9 H :    0.084882
  10 H :    0.124741
  11 H :    0.107526
  12 H :    0.115487
  13 H :    0.112740
Sum of atomic charges:   -0.0000000

LOEWDIN ATOMIC CHARGES
----------------------
   0 C :   -0.235463
   1 C :   -0.374658
   2 N :    0.007812
   3 C :   -0.281589
   4 H :    0.103575
   5 H :    0.094608
   6 H :    0.170608
   7 H :    0.175400
   8 C :   -0.287403
   9 H :    0.131224
  10 H :    0.149606
  11 H :    0.115833
  12 H :    0.117457
  13 H :    0.112992

  Mayer bond orders larger than 0.100000
B(  0-C ,  1-C ) :   0.9180 B(  0-C ,  8-C ) :   0.9715 B(  0-C ,  9-H ) :   0.9941
B(  0-C , 10-H ) :   0.9795 B(  1-C ,  2-N ) :   1.1840 B(  1-C ,  3-C ) :   1.7409
B(  2-N ,  6-H ) :   0.9206 B(  2-N ,  7-H ) :   0.9203 B(  3-C ,  4-H ) :   1.0037
B(  3-C ,  5-H ) :   0.9928 B(  8-C , 11-H ) :   0.9777 B(  8-C , 12-H ) :   0.9786
B(  8-C , 13-H ) :   0.9789

Dispersion correction           -0.002981099
FINAL SINGLE POINT ENERGY      -212.580874264476

DIPOLE MOMENT
-------------
                                X             Y             Z
Electronic contribution:     -0.29179      -1.19158      -2.97784
Nuclear contribution   :     -0.52463       1.37972       2.79217
                        -----------------------------------------
Total Dipole Moment    :     -0.81642       0.18814      -0.18567
                        -----------------------------------------
Magnitude (a.u.)       :      0.85815
Magnitude (Debye)      :      2.18123

Rotational constants in cm-1:     0.281086     0.127387     0.100311
Rotational constants in MHz :  8426.743103  3818.969834  3007.238026

                             ****ORCA TERMINATED NORMALLY****
TOTAL RUN TIME: 0 days 0 hours 0 minutes 40 seconds 753 msec
