                         Program Version 5.0.0 -  RELEASE  -
|  1> !wB97X-D3 RIJCOSX def2-TZVP def2/J TightSCF xyzfile
|  2>
|  3> *xyzfile 0 1 D1.xyz
|  4>
|  5> %MaxCore 64000
|  6>
|  7> %pal nprocs 18
|  8> end
|  9>
| 10> %scf
| 11>   MaxIter 150
| 12> end
| 13>
| 14>
| 15>                          ****END OF INPUT****

CARTESIAN COORDINATES (ANGSTROEM)
---------------------------------
  C      2.486452   -2.677121   -2.563447
  C     -0.870963    0.248043   -2.662804
  C     -0.477492    0.608191   -4.101052
  H      0.206773    1.458299   -4.118748
  H     -1.368442    0.929419   -4.647855
  C      0.184673   -0.506640   -4.916760
  C      3.037640   -2.366715   -3.923509
  C      2.280360   -2.454408   -4.967692
  N      4.321736   -2.017932   -4.016641
  H      4.879940   -1.911668   -3.173823
  H      4.710148   -1.670882   -4.883561
  H      1.270423   -2.412650   -4.866143
  H      2.581829   -2.055282   -5.846878
  F     -0.158685   -1.701088   -4.657981
  O      1.055938   -0.174410   -5.740373
  C      2.497991   -1.469464   -1.610303
  C      1.582841   -0.321986   -2.042619
  H      2.193083   -1.833912   -0.625420
  H      3.523356   -1.103982   -1.490392
  C      0.100160   -0.673551   -1.915815
  H      1.822311   -0.040361   -3.072834
  H      1.813180    0.557019   -1.433266
  H     -0.063284   -1.679120   -2.301112
  H     -0.168820   -0.691680   -0.853831
  H     -1.001048    1.181040   -2.104071
  H     -1.844645   -0.246592   -2.663281
  H      1.472592   -3.051527   -2.694366
  H      3.083201   -3.490638   -2.141472

 Total Charge           Charge          ....    0
 Multiplicity           Mult            ....    1
 Number of Electrons    NEL             ....   94
 Basis Dimension        Dim             ....  468

ORBITAL ENERGIES
----------------

  NO   OCC          E(Eh)            E(eV)
   0   2.0000     -24.852015      -676.2577
   1   2.0000     -19.233183      -523.3615
   2   2.0000     -14.406755      -392.0277
   3   2.0000     -10.452944      -284.4391
   4   2.0000     -10.303838      -280.3817
   5   2.0000     -10.288860      -279.9741
   6   2.0000     -10.279608      -279.7224
   7   2.0000     -10.276779      -279.6454
   8   2.0000     -10.274094      -279.5723
   9   2.0000     -10.272454      -279.5277
  10   2.0000     -10.267695      -279.3982
  11   2.0000     -10.178367      -276.9674
  12   2.0000      -1.433553       -39.0090
  13   2.0000      -1.153961       -31.4009
  14   2.0000      -1.029077       -28.0026
  15   2.0000      -0.944930       -25.7129
  16   2.0000      -0.908899       -24.7324
  17   2.0000      -0.858657       -23.3653
  18   2.0000      -0.834865       -22.7178
  19   2.0000      -0.788873       -21.4663
  20   2.0000      -0.765595       -20.8329
  21   2.0000      -0.727184       -19.7877
  22   2.0000      -0.688492       -18.7348
  23   2.0000      -0.677947       -18.4479
  24   2.0000      -0.652920       -17.7669
  25   2.0000      -0.640462       -17.4279
  26   2.0000      -0.610512       -16.6129
  27   2.0000      -0.597016       -16.2456
  28   2.0000      -0.582550       -15.8520
  29   2.0000      -0.571834       -15.5604
  30   2.0000      -0.558236       -15.1904
  31   2.0000      -0.541144       -14.7253
  32   2.0000      -0.530018       -14.4225
  33   2.0000      -0.508802       -13.8452
  34   2.0000      -0.501102       -13.6357
  35   2.0000      -0.483881       -13.1671
  36   2.0000      -0.471256       -12.8235
  37   2.0000      -0.468776       -12.7560
  38   2.0000      -0.451741       -12.2925
  39   2.0000      -0.445692       -12.1279
  40   2.0000      -0.432789       -11.7768
  41   2.0000      -0.427954       -11.6452
  42   2.0000      -0.411047       -11.1852
  43   2.0000      -0.406150       -11.0519
  44   2.0000      -0.401355       -10.9214
  45   2.0000      -0.382033       -10.3956
  46   2.0000      -0.268048        -7.2940
  47   0.0000       0.059294         1.6135
  48   0.0000       0.104350         2.8395
  49   0.0000       0.114262         3.1092
  50   0.0000       0.130947         3.5633
  51   0.0000       0.138080         3.7573

MULLIKEN ATOMIC CHARGES
-----------------------
   0 C :   -0.266630
   1 C :   -0.194882
   2 C :   -0.239224
   3 H :    0.157435
   4 H :    0.143404
   5 C :    0.362224
   6 C :    0.200147
   7 C :   -0.382941
   8 N :   -0.513018
   9 H :    0.230785
  10 H :    0.242437
  11 H :    0.098558
  12 H :    0.093167
  13 F :   -0.120900
  14 O :   -0.335524
  15 C :   -0.165253
  16 C :   -0.234237
  17 H :    0.100407
  18 H :    0.101104
  19 C :   -0.233790
  20 H :    0.153805
  21 H :    0.101243
  22 H :    0.112750
  23 H :    0.112214
  24 H :    0.112455
  25 H :    0.115354
  26 H :    0.126250
  27 H :    0.122661
Sum of atomic charges:    0.0000000

LOEWDIN ATOMIC CHARGES
----------------------
   0 C :   -0.216247
   1 C :   -0.264891
   2 C :   -0.234831
   3 H :    0.157704
   4 H :    0.155298
   5 C :   -0.490032
   6 C :   -0.376856
   7 C :   -0.265155
   8 N :   -0.017933
   9 H :    0.165151
  10 H :    0.171160
  11 H :    0.097685
  12 H :    0.102340
  13 F :    0.320363
  14 O :    0.095727
  15 C :   -0.260265
  16 C :   -0.259189
  17 H :    0.136641
  18 H :    0.130440
  19 C :   -0.269050
  20 H :    0.147024
  21 H :    0.134808
  22 H :    0.135231
  23 H :    0.137895
  24 H :    0.140056
  25 H :    0.139344
  26 H :    0.144751
  27 H :    0.142831

  Mayer bond orders larger than 0.100000
B(  0-C ,  6-C ) :   0.9438 B(  0-C , 15-C ) :   0.9324 B(  0-C , 26-H ) :   1.0095
B(  0-C , 27-H ) :   0.9787 B(  1-C ,  2-C ) :   0.9559 B(  1-C , 19-C ) :   0.9684
B(  1-C , 24-H ) :   0.9715 B(  1-C , 25-H ) :   0.9804 B(  2-C ,  3-H ) :   0.9662
B(  2-C ,  4-H ) :   0.9501 B(  2-C ,  5-C ) :   0.9874 B(  5-C , 13-F ) :   1.0995
B(  5-C , 14-O ) :   2.0386 B(  6-C ,  7-C ) :   1.7666 B(  6-C ,  8-N ) :   1.1085
B(  7-C , 11-H ) :   1.0196 B(  7-C , 12-H ) :   1.0009 B(  8-N ,  9-H ) :   0.9278
B(  8-N , 10-H ) :   0.9191 B( 15-C , 16-C ) :   0.9607 B( 15-C , 17-H ) :   0.9758
B( 15-C , 18-H ) :   0.9787 B( 16-C , 19-C ) :   0.9401 B( 16-C , 20-H ) :   0.9710
B( 16-C , 21-H ) :   0.9645 B( 19-C , 22-H ) :   0.9946 B( 19-C , 23-H ) :   0.9669

Dispersion correction           -0.013473738
FINAL SINGLE POINT ENERGY      -582.426225066662

DIPOLE MOMENT
-------------
                                X             Y             Z
Electronic contribution:     -3.68451      -1.61930     -10.23587
Nuclear contribution   :      3.32973       2.37270      11.37738
                        -----------------------------------------
Total Dipole Moment    :     -0.35478       0.75340       1.14151
                        -----------------------------------------
Magnitude (a.u.)       :      1.41299
Magnitude (Debye)      :      3.59152

Rotational constants in cm-1:     0.040902     0.025807     0.019036
Rotational constants in MHz :  1226.202138   773.670450   570.681201

                             ****ORCA TERMINATED NORMALLY****
TOTAL RUN TIME: 0 days 0 hours 1 minutes 22 seconds 750 msec
