                         Program Version 5.0.0 -  RELEASE  -
|  1> !M062X D3Zero RIJCOSX def2-TZVP def2/J TightSCF
|  2> *xyz -1 1
|  3> C          2.49556        1.81615       -2.13636
|  4> C          1.87218        0.42790       -2.07750
|  5> H          2.61427       -0.36583       -2.19889
|  6> H          1.38995        0.27309       -1.11236
|  7> S          0.57902        0.14047       -3.29794
|  8> O          0.22886       -1.24687       -3.12787
|  9> O         -0.43927        1.11897       -3.01455
| 10> O          1.24788        0.40347       -4.59565
| 11> H          2.96535        1.95613       -3.08747
| 12> H          3.22581        1.91242       -1.36024
| 13> H          1.73350        2.55528       -2.00274
| 14> *
| 15>
| 16> %MaxCore 64000
| 17>
| 18> %pal nprocs 4
| 19> end
| 20>
| 21> %scf
| 22>   MaxIter 150
| 23> end
| 24>
| 25>
| 26>                          ****END OF INPUT****

CARTESIAN COORDINATES (ANGSTROEM)
---------------------------------
  C      2.495560    1.816150   -2.136360
  C      1.872180    0.427900   -2.077500
  H      2.614270   -0.365830   -2.198890
  H      1.389950    0.273090   -1.112360
  S      0.579020    0.140470   -3.297940
  O      0.228860   -1.246870   -3.127870
  O     -0.439270    1.118970   -3.014550
  O      1.247880    0.403470   -4.595650
  H      2.965350    1.956130   -3.087470
  H      3.225810    1.912420   -1.360240
  H      1.733500    2.555280   -2.002740

 Total Charge           Charge          ....   -1
 Multiplicity           Mult            ....    1
 Number of Electrons    NEL             ....   58
 Basis Dimension        Dim             ....  222

ORBITAL ENERGIES
----------------

  NO   OCC          E(Eh)            E(eV)
   0   2.0000     -89.883798     -2445.8625
   1   2.0000     -19.401909      -527.9528
   2   2.0000     -19.401886      -527.9521
   3   2.0000     -19.386857      -527.5432
   4   2.0000     -10.390033      -282.7272
   5   2.0000     -10.384544      -282.5778
   6   2.0000      -8.208428      -223.3627
   7   2.0000      -6.131148      -166.8370
   8   2.0000      -6.129974      -166.8051
   9   2.0000      -6.129790      -166.8001
  10   2.0000      -1.044548       -28.4236
  11   2.0000      -0.913695       -24.8629
  12   2.0000      -0.886249       -24.1161
  13   2.0000      -0.725351       -19.7378
  14   2.0000      -0.589429       -16.0392
  15   2.0000      -0.462494       -12.5851
  16   2.0000      -0.390504       -10.6261
  17   2.0000      -0.384494       -10.4626
  18   2.0000      -0.348720        -9.4892
  19   2.0000      -0.339141        -9.2285
  20   2.0000      -0.323537        -8.8039
  21   2.0000      -0.290918        -7.9163
  22   2.0000      -0.272558        -7.4167
  23   2.0000      -0.226435        -6.1616
  24   2.0000      -0.224352        -6.1049
  25   2.0000      -0.188536        -5.1303
  26   2.0000      -0.174572        -4.7504
  27   2.0000      -0.162389        -4.4188
  28   2.0000      -0.135349        -3.6830
  29   0.0000       0.207732         5.6527
  30   0.0000       0.249444         6.7877
  31   0.0000       0.266427         7.2499
  32   0.0000       0.270001         7.3471
  33   0.0000       0.299538         8.1508

MULLIKEN ATOMIC CHARGES
-----------------------
   0 C :   -0.404196
   1 C :   -0.302647
   2 H :    0.113776
   3 H :    0.105638
   4 S :    0.914219
   5 O :   -0.582114
   6 O :   -0.581575
   7 O :   -0.627242
   8 H :    0.137580
   9 H :    0.090227
  10 H :    0.136333
Sum of atomic charges:   -1.0000000

LOEWDIN ATOMIC CHARGES
----------------------
   0 C :   -0.346071
   1 C :   -0.434022
   2 H :    0.118920
   3 H :    0.117702
   4 S :    0.423028
   5 O :   -0.385556
   6 O :   -0.384698
   7 O :   -0.441387
   8 H :    0.115973
   9 H :    0.100170
  10 H :    0.115941

  Mayer bond orders larger than 0.100000
B(  0-C ,  1-C ) :   0.9322 B(  0-C ,  8-H ) :   0.9717 B(  0-C ,  9-H ) :   0.9694
B(  0-C , 10-H ) :   0.9735 B(  1-C ,  2-H ) :   0.9633 B(  1-C ,  3-H ) :   0.9630
B(  1-C ,  4-S ) :   0.8827 B(  4-S ,  5-O ) :   1.8003 B(  4-S ,  6-O ) :   1.7681
B(  4-S ,  7-O ) :   1.7094

Dispersion correction           -0.000144423
FINAL SINGLE POINT ENERGY      -703.157906296229

DIPOLE MOMENT
-------------
                                X             Y             Z
Electronic contribution:     -5.68795      -3.59991      -4.08200
Nuclear contribution   :      6.89220       4.11756       5.35566
                        -----------------------------------------
Total Dipole Moment    :      1.20425       0.51765       1.27366
                        -----------------------------------------
Magnitude (a.u.)       :      1.82767
Magnitude (Debye)      :      4.64557

Rotational constants in cm-1:     0.162183     0.084017     0.082390
Rotational constants in MHz :  4862.117324  2518.774315  2469.980309

                             ****ORCA TERMINATED NORMALLY****
TOTAL RUN TIME: 0 days 0 hours 0 minutes 21 seconds 24 msec
