                         Program Version 5.0.0 -  RELEASE  -
|  1> !M062X D3Zero RIJCOSX def2-TZVP def2/J TightSCF
|  2> *xyz 1 1
|  3> C          3.38093        2.08304       -3.35013
|  4> N          4.53592        1.18245       -3.42852
|  5> C          2.49556        1.81615       -2.13636
|  6> C          4.67196        0.12227       -4.22060
|  7> N          5.86602       -0.50785       -4.22428
|  8> N          3.69888       -0.31284       -4.98699
|  9> H          2.73141       -0.05009       -4.84900
| 10> H          3.89005       -1.05517       -5.64373
| 11> H          5.25193        1.30346       -2.72101
| 12> H          6.69516       -0.06232       -3.85160
| 13> H          5.97538       -1.39688       -4.69141
| 14> H          2.80646        1.98651       -4.26848
| 15> H          3.77871        3.09828       -3.30738
| 16> H          2.11090        0.81901       -2.18783
| 17> H          1.68276        2.51198       -2.12786
| 18> H          3.07216        1.93031       -1.24227
| 19> *
| 20>
| 21> %MaxCore 64000
| 22>
| 23> %pal nprocs 4
| 24> end
| 25>
| 26> %scf
| 27>   MaxIter 150
| 28> end
| 29>
| 30>
| 31>                          ****END OF INPUT****

CARTESIAN COORDINATES (ANGSTROEM)
---------------------------------
  C      3.380930    2.083040   -3.350130
  N      4.535920    1.182450   -3.428520
  C      2.495560    1.816150   -2.136360
  C      4.671960    0.122270   -4.220600
  N      5.866020   -0.507850   -4.224280
  N      3.698880   -0.312840   -4.986990
  H      2.731410   -0.050090   -4.849000
  H      3.890050   -1.055170   -5.643730
  H      5.251930    1.303460   -2.721010
  H      6.695160   -0.062320   -3.851600
  H      5.975380   -1.396880   -4.691410
  H      2.806460    1.986510   -4.268480
  H      3.778710    3.098280   -3.307380
  H      2.110900    0.819010   -2.187830
  H      1.682760    2.511980   -2.127860
  H      3.072160    1.930310   -1.242270

 Total Charge           Charge          ....    1
 Multiplicity           Mult            ....    1
 Number of Electrons    NEL             ....   48
 Basis Dimension        Dim             ....  246

ORBITAL ENERGIES
----------------

  NO   OCC          E(Eh)            E(eV)
   0   2.0000     -14.974397      -407.4741
   1   2.0000     -14.969824      -407.3496
   2   2.0000     -14.965661      -407.2363
   3   2.0000     -10.877870      -296.0019
   4   2.0000     -10.742237      -292.3111
   5   2.0000     -10.668577      -290.3067
   6   2.0000      -1.327460       -36.1220
   7   2.0000      -1.210028       -32.9265
   8   2.0000      -1.194094       -32.4930
   9   2.0000      -1.025644       -27.9092
  10   2.0000      -0.927767       -25.2458
  11   2.0000      -0.886415       -24.1206
  12   2.0000      -0.863679       -23.5019
  13   2.0000      -0.817790       -22.2532
  14   2.0000      -0.767436       -20.8830
  15   2.0000      -0.761898       -20.7323
  16   2.0000      -0.712405       -19.3855
  17   2.0000      -0.704083       -19.1591
  18   2.0000      -0.671997       -18.2860
  19   2.0000      -0.623494       -16.9661
  20   2.0000      -0.594111       -16.1666
  21   2.0000      -0.576862       -15.6972
  22   2.0000      -0.543367       -14.7858
  23   2.0000      -0.507263       -13.8033
  24   0.0000      -0.125660        -3.4194
  25   0.0000      -0.119286        -3.2459
  26   0.0000      -0.088994        -2.4217
  27   0.0000      -0.080187        -2.1820
  28   0.0000      -0.058782        -1.5995

MULLIKEN ATOMIC CHARGES
-----------------------
   0 C :   -0.255541
   1 N :   -0.332636
   2 C :   -0.338039
   3 C :    0.643786
   4 N :   -0.526418
   5 N :   -0.495031
   6 H :    0.311977
   7 H :    0.295217
   8 H :    0.277088
   9 H :    0.303006
  10 H :    0.296619
  11 H :    0.161953
  12 H :    0.190186
  13 H :    0.133611
  14 H :    0.176918
  15 H :    0.157304
Sum of atomic charges:    1.0000000

LOEWDIN ATOMIC CHARGES
----------------------
   0 C :   -0.279116
   1 N :    0.162064
   2 C :   -0.283682
   3 C :   -0.402829
   4 N :    0.040954
   5 N :    0.077743
   6 H :    0.201953
   7 H :    0.202637
   8 H :    0.212539
   9 H :    0.198199
  10 H :    0.195007
  11 H :    0.139134
  12 H :    0.150760
  13 H :    0.120962
  14 H :    0.136663
  15 H :    0.127012

  Mayer bond orders larger than 0.100000
B(  0-C ,  1-N ) :   0.8585 B(  0-C ,  2-C ) :   0.9548 B(  0-C , 11-H ) :   0.9788
B(  0-C , 12-H ) :   0.9603 B(  1-N ,  3-C ) :   1.3562 B(  1-N ,  8-H ) :   0.9031
B(  2-C , 13-H ) :   0.9504 B(  2-C , 14-H ) :   0.9707 B(  2-C , 15-H ) :   0.9683
B(  3-C ,  4-N ) :   1.2337 B(  3-C ,  5-N ) :   1.2959 B(  4-N ,  9-H ) :   0.8976
B(  4-N , 10-H ) :   0.9009 B(  5-N ,  6-H ) :   0.8898 B(  5-N ,  7-H ) :   0.8997

Dispersion correction           -0.000317811
FINAL SINGLE POINT ENERGY      -284.371594593283

DIPOLE MOMENT
-------------
                                X             Y             Z
Electronic contribution:      3.56389      -2.65743      -2.82413
Nuclear contribution   :     -2.93277       1.85779       2.25966
                        -----------------------------------------
Total Dipole Moment    :      0.63112      -0.79964      -0.56447
                        -----------------------------------------
Magnitude (a.u.)       :      1.16463
Magnitude (Debye)      :      2.96025

Rotational constants in cm-1:     0.245511     0.068839     0.059711
Rotational constants in MHz :  7360.233487  2063.743353  1790.088408

                             ****ORCA TERMINATED NORMALLY****
TOTAL RUN TIME: 0 days 0 hours 0 minutes 29 seconds 80 msec
