                         Program Version 5.0.0 -  RELEASE  -
|  1> !M062X D3Zero RIJCOSX def2-TZVP def2/J TightSCF
|  2> *xyz 0 1
|  3> C          2.49556        1.81615       -2.13636
|  4> C          1.87218        0.42790       -2.07750
|  5> H          2.61427       -0.36583       -2.19889
|  6> H          1.38995        0.27309       -1.11236
|  7> S          0.57902        0.14047       -3.29794
|  8> F          0.22886       -1.24687       -3.12787
|  9> O         -0.43927        1.11897       -3.01455
| 10> O          1.24788        0.40347       -4.59565
| 11> H          2.96535        1.95613       -3.08747
| 12> H          3.22581        1.91242       -1.36024
| 13> H          1.73350        2.55528       -2.00274
| 14> *
| 15>
| 16> %MaxCore 64000
| 17>
| 18> %pal nprocs 4
| 19> end
| 20>
| 21> %scf
| 22>   MaxIter 150
| 23> end
| 24>
| 25>
| 26>                          ****END OF INPUT****

CARTESIAN COORDINATES (ANGSTROEM)
---------------------------------
  C      2.495560    1.816150   -2.136360
  C      1.872180    0.427900   -2.077500
  H      2.614270   -0.365830   -2.198890
  H      1.389950    0.273090   -1.112360
  S      0.579020    0.140470   -3.297940
  F      0.228860   -1.246870   -3.127870
  O     -0.439270    1.118970   -3.014550
  O      1.247880    0.403470   -4.595650
  H      2.965350    1.956130   -3.087470
  H      3.225810    1.912420   -1.360240
  H      1.733500    2.555280   -2.002740

 Total Charge           Charge          ....    0
 Multiplicity           Mult            ....    1
 Number of Electrons    NEL             ....   58
 Basis Dimension        Dim             ....  222

ORBITAL ENERGIES
----------------

  NO   OCC          E(Eh)            E(eV)
   0   2.0000     -90.151691     -2453.1522
   1   2.0000     -25.370784      -690.3741
   2   2.0000     -19.641419      -534.4702
   3   2.0000     -19.626320      -534.0593
   4   2.0000     -10.596070      -288.3337
   5   2.0000     -10.551197      -287.1127
   6   2.0000      -8.476938      -230.6692
   7   2.0000      -6.401714      -174.1995
   8   2.0000      -6.396735      -174.0640
   9   2.0000      -6.396283      -174.0517
  10   2.0000      -1.533977       -41.7416
  11   2.0000      -1.229618       -33.4596
  12   2.0000      -1.124762       -30.6063
  13   2.0000      -0.920077       -25.0366
  14   2.0000      -0.838830       -22.8257
  15   2.0000      -0.766366       -20.8539
  16   2.0000      -0.692516       -18.8443
  17   2.0000      -0.685000       -18.6398
  18   2.0000      -0.642675       -17.4881
  19   2.0000      -0.567259       -15.4359
  20   2.0000      -0.562453       -15.3051
  21   2.0000      -0.521797       -14.1988
  22   2.0000      -0.499107       -13.5814
  23   2.0000      -0.475295       -12.9334
  24   2.0000      -0.460832       -12.5399
  25   2.0000      -0.451659       -12.2903
  26   2.0000      -0.408130       -11.1058
  27   2.0000      -0.390325       -10.6213
  28   2.0000      -0.381379       -10.3778
  29   0.0000       0.056202         1.5293
  30   0.0000       0.075628         2.0580
  31   0.0000       0.097043         2.6407
  32   0.0000       0.103965         2.8290
  33   0.0000       0.110838         3.0161

MULLIKEN ATOMIC CHARGES
-----------------------
   0 C :   -0.409402
   1 C :   -0.304046
   2 H :    0.167044
   3 H :    0.163474
   4 S :    0.927348
   5 F :   -0.105921
   6 O :   -0.437453
   7 O :   -0.481727
   8 H :    0.167955
   9 H :    0.147040
  10 H :    0.165689
Sum of atomic charges:    0.0000000

LOEWDIN ATOMIC CHARGES
----------------------
   0 C :   -0.303551
   1 C :   -0.400143
   2 H :    0.137496
   3 H :    0.137347
   4 S :    0.548847
   5 F :    0.093766
   6 O :   -0.271141
   7 O :   -0.325703
   8 H :    0.128791
   9 H :    0.125715
  10 H :    0.128576

  Mayer bond orders larger than 0.100000
B(  0-C ,  1-C ) :   0.9482 B(  0-C ,  8-H ) :   0.9645 B(  0-C ,  9-H ) :   0.9610
B(  0-C , 10-H ) :   0.9646 B(  1-C ,  2-H ) :   0.9383 B(  1-C ,  3-H ) :   0.9392
B(  1-C ,  4-S ) :   0.9271 B(  4-S ,  5-F ) :   1.1258 B(  4-S ,  6-O ) :   1.9155
B(  4-S ,  7-O ) :   1.8585

Dispersion correction           -0.000139490
FINAL SINGLE POINT ENERGY      -727.670117518362

DIPOLE MOMENT
-------------
                                X             Y             Z
Electronic contribution:     -6.80779      -6.42637      -4.06499
Nuclear contribution   :      7.60530       5.82028       5.38743
                        -----------------------------------------
Total Dipole Moment    :      0.79751      -0.60609       1.32244
                        -----------------------------------------
Magnitude (a.u.)       :      1.65898
Magnitude (Debye)      :      4.21679

Rotational constants in cm-1:     0.157861     0.081452     0.078859
Rotational constants in MHz :  4732.562506  2441.865430  2364.129821

                             ****ORCA TERMINATED NORMALLY****
TOTAL RUN TIME: 0 days 0 hours 0 minutes 23 seconds 124 msec
