                         Program Version 5.0.0 -  RELEASE  -
|  1> !M062X D3Zero RIJCOSX def2-TZVP def2/J TightSCF
|  2> *xyz 0 1
|  3> C          3.38093        2.08304       -3.35013
|  4> C          4.53592        1.18245       -3.42852
|  5> C          2.49556        1.81615       -2.13636
|  6> C          4.67196        0.12227       -4.22060
|  7> N          5.86602       -0.50785       -4.22428
|  8> N          3.69888       -0.31284       -4.98699
|  9> H          2.73141       -0.05009       -4.84900
| 10> H          3.89005       -1.05517       -5.64373
| 11> H          5.25193        1.30346       -2.72101
| 12> H          6.69516       -0.06232       -3.85160
| 13> H          5.97538       -1.39688       -4.69141
| 14> H          2.80646        1.98651       -4.26848
| 15> H          3.77871        3.09828       -3.30738
| 16> H          2.11090        0.81901       -2.18783
| 17> H          1.68276        2.51198       -2.12786
| 18> H          3.07216        1.93031       -1.24227
| 19> *
| 20>
| 21> %MaxCore 64000
| 22>
| 23> %pal nprocs 4
| 24> end
| 25>
| 26> %scf
| 27>   MaxIter 150
| 28> end
| 29>
| 30>
| 31>                          ****END OF INPUT****

CARTESIAN COORDINATES (ANGSTROEM)
---------------------------------
  C      3.380930    2.083040   -3.350130
  C      4.535920    1.182450   -3.428520
  C      2.495560    1.816150   -2.136360
  C      4.671960    0.122270   -4.220600
  N      5.866020   -0.507850   -4.224280
  N      3.698880   -0.312840   -4.986990
  H      2.731410   -0.050090   -4.849000
  H      3.890050   -1.055170   -5.643730
  H      5.251930    1.303460   -2.721010
  H      6.695160   -0.062320   -3.851600
  H      5.975380   -1.396880   -4.691410
  H      2.806460    1.986510   -4.268480
  H      3.778710    3.098280   -3.307380
  H      2.110900    0.819010   -2.187830
  H      1.682760    2.511980   -2.127860
  H      3.072160    1.930310   -1.242270

 Total Charge           Charge          ....    0
 Multiplicity           Mult            ....    1
 Number of Electrons    NEL             ....   48
 Basis Dimension        Dim             ....  246

ORBITAL ENERGIES
----------------

  NO   OCC          E(Eh)            E(eV)
   0   2.0000     -14.748769      -401.3344
   1   2.0000     -14.740714      -401.1152
   2   2.0000     -10.580728      -287.9162
   3   2.0000     -10.505443      -285.8676
   4   2.0000     -10.496251      -285.6175
   5   2.0000     -10.455065      -284.4968
   6   2.0000      -1.071406       -29.1544
   7   2.0000      -0.972331       -26.4585
   8   2.0000      -0.867731       -23.6122
   9   2.0000      -0.785197       -21.3663
  10   2.0000      -0.700218       -19.0539
  11   2.0000      -0.655582       -17.8393
  12   2.0000      -0.617543       -16.8042
  13   2.0000      -0.579108       -15.7583
  14   2.0000      -0.547577       -14.9003
  15   2.0000      -0.508970       -13.8498
  16   2.0000      -0.481162       -13.0931
  17   2.0000      -0.462907       -12.5964
  18   2.0000      -0.442621       -12.0443
  19   2.0000      -0.411097       -11.1865
  20   2.0000      -0.385612       -10.4930
  21   2.0000      -0.379441       -10.3251
  22   2.0000      -0.330044        -8.9810
  23   2.0000      -0.208130        -5.6635
  24   0.0000       0.049534         1.3479
  25   0.0000       0.077197         2.1006
  26   0.0000       0.095463         2.5977
  27   0.0000       0.109793         2.9876
  28   0.0000       0.121569         3.3081

MULLIKEN ATOMIC CHARGES
-----------------------
   0 C :   -0.337497
   1 C :   -0.346798
   2 C :   -0.338298
   3 C :    0.511952
   4 N :   -0.593914
   5 N :   -0.585771
   6 H :    0.265876
   7 H :    0.232211
   8 H :    0.117579
   9 H :    0.260490
  10 H :    0.227885
  11 H :    0.101166
  12 H :    0.127722
  13 H :    0.110755
  14 H :    0.121237
  15 H :    0.125406
Sum of atomic charges:   -0.0000000

LOEWDIN ATOMIC CHARGES
----------------------
   0 C :   -0.309548
   1 C :   -0.278355
   2 C :   -0.307696
   3 C :   -0.462687
   4 N :   -0.037563
   5 N :   -0.006238
   6 H :    0.178816
   7 H :    0.166247
   8 H :    0.120644
   9 H :    0.176692
  10 H :    0.157436
  11 H :    0.129095
  12 H :    0.138120
  13 H :    0.111182
  14 H :    0.109017
  15 H :    0.114840

  Mayer bond orders larger than 0.100000
B(  0-C ,  1-C ) :   1.0149 B(  0-C ,  2-C ) :   0.9273 B(  0-C , 11-H ) :   0.9926
B(  0-C , 12-H ) :   0.9909 B(  1-C ,  3-C ) :   1.6580 B(  1-C ,  8-H ) :   0.9896
B(  2-C , 13-H ) :   0.9703 B(  2-C , 14-H ) :   0.9823 B(  2-C , 15-H ) :   0.9811
B(  3-C ,  4-N ) :   1.0299 B(  3-C ,  5-N ) :   1.0559 B(  4-N ,  9-H ) :   0.9231
B(  4-N , 10-H ) :   0.9340 B(  5-N ,  6-H ) :   0.9207 B(  5-N ,  7-H ) :   0.9334

Dispersion correction           -0.000315935
FINAL SINGLE POINT ENERGY      -267.889752478025

DIPOLE MOMENT
-------------
                                X             Y             Z
Electronic contribution:      3.00326      -2.83167      -2.92518
Nuclear contribution   :     -2.84307       1.95814       2.32378
                        -----------------------------------------
Total Dipole Moment    :      0.16019      -0.87353      -0.60140
                        -----------------------------------------
Magnitude (a.u.)       :      1.07257
Magnitude (Debye)      :      2.72626

Rotational constants in cm-1:     0.248902     0.068887     0.059904
Rotational constants in MHz :  7461.898926  2065.183281  1795.882140

                             ****ORCA TERMINATED NORMALLY****
TOTAL RUN TIME: 0 days 0 hours 0 minutes 30 seconds 11 msec
