                         Program Version 5.0.0 -  RELEASE  -
|  1> !M062X D3Zero RIJCOSX def2-TZVP def2/J TightSCF
|  2> *xyz 0 1
|  3> C          2.49556        1.81615       -2.13636
|  4> C          1.87218        0.42790       -2.07750
|  5> H          2.61427       -0.36583       -2.19889
|  6> H          1.38995        0.27309       -1.11236
|  7> S          0.57902        0.14047       -3.29794
|  8> O          0.22886       -1.24687       -3.12787
|  9> F         -0.43927        1.11897       -3.01455
| 10> O          1.24788        0.40347       -4.59565
| 11> H          2.96535        1.95613       -3.08747
| 12> H          3.22581        1.91242       -1.36024
| 13> H          1.73350        2.55528       -2.00274
| 14> *
| 15>
| 16> %MaxCore 64000
| 17>
| 18> %pal nprocs 4
| 19> end
| 20>
| 21> %scf
| 22>   MaxIter 150
| 23> end
| 24>
| 25>
| 26>                          ****END OF INPUT****

CARTESIAN COORDINATES (ANGSTROEM)
---------------------------------
  C      2.495560    1.816150   -2.136360
  C      1.872180    0.427900   -2.077500
  H      2.614270   -0.365830   -2.198890
  H      1.389950    0.273090   -1.112360
  S      0.579020    0.140470   -3.297940
  O      0.228860   -1.246870   -3.127870
  F     -0.439270    1.118970   -3.014550
  O      1.247880    0.403470   -4.595650
  H      2.965350    1.956130   -3.087470
  H      3.225810    1.912420   -1.360240
  H      1.733500    2.555280   -2.002740

 Total Charge           Charge          ....    0
 Multiplicity           Mult            ....    1
 Number of Electrons    NEL             ....   58
 Basis Dimension        Dim             ....  222

ORBITAL ENERGIES
----------------

  NO   OCC          E(Eh)            E(eV)
   0   2.0000     -90.151936     -2453.1589
   1   2.0000     -25.371100      -690.3827
   2   2.0000     -19.641708      -534.4780
   3   2.0000     -19.627102      -534.0806
   4   2.0000     -10.596109      -288.3348
   5   2.0000     -10.554267      -287.1962
   6   2.0000      -8.477153      -230.6751
   7   2.0000      -6.402053      -174.2087
   8   2.0000      -6.396945      -174.0697
   9   2.0000      -6.396388      -174.0546
  10   2.0000      -1.534547       -41.7572
  11   2.0000      -1.229131       -33.4464
  12   2.0000      -1.125844       -30.6358
  13   2.0000      -0.923249       -25.1229
  14   2.0000      -0.835704       -22.7407
  15   2.0000      -0.769810       -20.9476
  16   2.0000      -0.696605       -18.9556
  17   2.0000      -0.690888       -18.8000
  18   2.0000      -0.635665       -17.2973
  19   2.0000      -0.567336       -15.4380
  20   2.0000      -0.557560       -15.1720
  21   2.0000      -0.531184       -14.4543
  22   2.0000      -0.504561       -13.7298
  23   2.0000      -0.477912       -13.0047
  24   2.0000      -0.465899       -12.6778
  25   2.0000      -0.448741       -12.2109
  26   2.0000      -0.407486       -11.0882
  27   2.0000      -0.389977       -10.6118
  28   2.0000      -0.383609       -10.4385
  29   0.0000       0.046867         1.2753
  30   0.0000       0.083689         2.2773
  31   0.0000       0.093151         2.5348
  32   0.0000       0.100564         2.7365
  33   0.0000       0.113683         3.0935

MULLIKEN ATOMIC CHARGES
-----------------------
   0 C :   -0.410238
   1 C :   -0.309367
   2 H :    0.188026
   3 H :    0.164738
   4 S :    0.929426
   5 O :   -0.436768
   6 F :   -0.107973
   7 O :   -0.482413
   8 H :    0.173036
   9 H :    0.148440
  10 H :    0.143092
Sum of atomic charges:   -0.0000000

LOEWDIN ATOMIC CHARGES
----------------------
   0 C :   -0.317305
   1 C :   -0.394190
   2 H :    0.151202
   3 H :    0.137397
   4 S :    0.549887
   5 O :   -0.271047
   6 F :    0.095213
   7 O :   -0.325023
   8 H :    0.128245
   9 H :    0.125391
  10 H :    0.120231

  Mayer bond orders larger than 0.100000
B(  0-C ,  1-C ) :   0.9342 B(  0-C ,  8-H ) :   0.9629 B(  0-C ,  9-H ) :   0.9630
B(  0-C , 10-H ) :   0.9678 B(  1-C ,  2-H ) :   0.9418 B(  1-C ,  3-H ) :   0.9456
B(  1-C ,  4-S ) :   0.9186 B(  4-S ,  5-O ) :   1.9348 B(  4-S ,  6-F ) :   1.1183
B(  4-S ,  7-O ) :   1.8571

Dispersion correction           -0.000150730
FINAL SINGLE POINT ENERGY      -727.670019847896

DIPOLE MOMENT
-------------
                                X             Y             Z
Electronic contribution:     -7.93835      -2.39181      -3.86530
Nuclear contribution   :      8.30151       3.35500       5.26935
                        -----------------------------------------
Total Dipole Moment    :      0.36316       0.96319       1.40405
                        -----------------------------------------
Magnitude (a.u.)       :      1.74097
Magnitude (Debye)      :      4.42520

Rotational constants in cm-1:     0.152913     0.083043     0.080351
Rotational constants in MHz :  4584.227971  2489.580280  2408.872860

                             ****ORCA TERMINATED NORMALLY****
TOTAL RUN TIME: 0 days 0 hours 0 minutes 23 seconds 404 msec
