                         Program Version 5.0.0 -  RELEASE  -
|  1> !M062X D3Zero RIJCOSX def2-TZVP def2/J TightSCF
|  2> *xyz 0 1
|  3> C          3.38093        2.08304       -3.35013
|  4> N          4.53592        1.18245       -3.42852
|  5> C          2.49556        1.81615       -2.13636
|  6> C          4.67196        0.12227       -4.22060
|  7> C          5.86602       -0.50785       -4.22428
|  8> N          3.69888       -0.31284       -4.98699
|  9> H          2.73141       -0.05009       -4.84900
| 10> H          3.89005       -1.05517       -5.64373
| 11> H          5.25193        1.30346       -2.72101
| 12> H          6.69516       -0.06232       -3.85160
| 13> H          5.97538       -1.39688       -4.69141
| 14> H          2.80646        1.98651       -4.26848
| 15> H          3.77871        3.09828       -3.30738
| 16> H          2.11090        0.81901       -2.18783
| 17> H          1.68276        2.51198       -2.12786
| 18> H          3.07216        1.93031       -1.24227
| 19> *
| 20>
| 21> %MaxCore 64000
| 22>
| 23> %pal nprocs 4
| 24> end
| 25>
| 26> %scf
| 27>   MaxIter 150
| 28> end
| 29>
| 30>
| 31>                          ****END OF INPUT****

CARTESIAN COORDINATES (ANGSTROEM)
---------------------------------
  C      3.380930    2.083040   -3.350130
  N      4.535920    1.182450   -3.428520
  C      2.495560    1.816150   -2.136360
  C      4.671960    0.122270   -4.220600
  C      5.866020   -0.507850   -4.224280
  N      3.698880   -0.312840   -4.986990
  H      2.731410   -0.050090   -4.849000
  H      3.890050   -1.055170   -5.643730
  H      5.251930    1.303460   -2.721010
  H      6.695160   -0.062320   -3.851600
  H      5.975380   -1.396880   -4.691410
  H      2.806460    1.986510   -4.268480
  H      3.778710    3.098280   -3.307380
  H      2.110900    0.819010   -2.187830
  H      1.682760    2.511980   -2.127860
  H      3.072160    1.930310   -1.242270

 Total Charge           Charge          ....    0
 Multiplicity           Mult            ....    1
 Number of Electrons    NEL             ....   48
 Basis Dimension        Dim             ....  246

ORBITAL ENERGIES
----------------

  NO   OCC          E(Eh)            E(eV)
   0   2.0000     -14.749128      -401.3442
   1   2.0000     -14.745934      -401.2573
   2   2.0000     -10.585256      -288.0395
   3   2.0000     -10.575532      -287.7749
   4   2.0000     -10.526155      -286.4312
   5   2.0000     -10.442527      -284.1556
   6   2.0000      -1.079458       -29.3736
   7   2.0000      -0.992304       -27.0020
   8   2.0000      -0.867877       -23.6161
   9   2.0000      -0.789123       -21.4731
  10   2.0000      -0.712989       -19.4014
  11   2.0000      -0.682656       -18.5760
  12   2.0000      -0.618492       -16.8300
  13   2.0000      -0.569508       -15.4971
  14   2.0000      -0.550304       -14.9745
  15   2.0000      -0.514662       -14.0047
  16   2.0000      -0.497211       -13.5298
  17   2.0000      -0.469098       -12.7648
  18   2.0000      -0.453559       -12.3420
  19   2.0000      -0.430170       -11.7055
  20   2.0000      -0.425770       -11.5858
  21   2.0000      -0.418148       -11.3784
  22   2.0000      -0.316991        -8.6258
  23   2.0000      -0.208421        -5.6714
  24   0.0000       0.049093         1.3359
  25   0.0000       0.080170         2.1815
  26   0.0000       0.090321         2.4578
  27   0.0000       0.111204         3.0260
  28   0.0000       0.121502         3.3062

MULLIKEN ATOMIC CHARGES
-----------------------
   0 C :   -0.238970
   1 N :   -0.390283
   2 C :   -0.329590
   3 C :    0.550218
   4 C :   -0.630852
   5 N :   -0.584275
   6 H :    0.242669
   7 H :    0.259002
   8 H :    0.243937
   9 H :    0.113723
  10 H :    0.101239
  11 H :    0.137889
  12 H :    0.142658
  13 H :    0.124486
  14 H :    0.129131
  15 H :    0.129017
Sum of atomic charges:   -0.0000000

LOEWDIN ATOMIC CHARGES
----------------------
   0 C :   -0.311026
   1 N :    0.112127
   2 C :   -0.308991
   3 C :   -0.467649
   4 C :   -0.359210
   5 N :   -0.001617
   6 H :    0.163647
   7 H :    0.182928
   8 H :    0.196205
   9 H :    0.093909
  10 H :    0.091871
  11 H :    0.129273
  12 H :    0.130415
  13 H :    0.115240
  14 H :    0.116870
  15 H :    0.116006

  Mayer bond orders larger than 0.100000
B(  0-C ,  1-N ) :   0.9205 B(  0-C ,  2-C ) :   0.9333 B(  0-C , 11-H ) :   0.9886
B(  0-C , 12-H ) :   0.9793 B(  1-N ,  3-C ) :   1.1383 B(  1-N ,  8-H ) :   0.9262
B(  2-C , 13-H ) :   0.9639 B(  2-C , 14-H ) :   0.9763 B(  2-C , 15-H ) :   0.9749
B(  3-C ,  4-C ) :   1.5353 B(  3-C ,  5-N ) :   1.0752 B(  4-C ,  9-H ) :   1.0104
B(  4-C , 10-H ) :   1.0134 B(  5-N ,  6-H ) :   0.9242 B(  5-N ,  7-H ) :   0.9259

Dispersion correction           -0.000312996
FINAL SINGLE POINT ENERGY      -267.880010347853

DIPOLE MOMENT
-------------
                                X             Y             Z
Electronic contribution:      1.48760      -1.10214      -2.04810
Nuclear contribution   :     -2.56090       1.59955       2.15496
                        -----------------------------------------
Total Dipole Moment    :     -1.07331       0.49741       0.10686
                        -----------------------------------------
Magnitude (a.u.)       :      1.18778
Magnitude (Debye)      :      3.01910

Rotational constants in cm-1:     0.249834     0.071381     0.061833
Rotational constants in MHz :  7489.842787  2139.945635  1853.706310

                             ****ORCA TERMINATED NORMALLY****
TOTAL RUN TIME: 0 days 0 hours 0 minutes 30 seconds 175 msec
