                         Program Version 5.0.0 -  RELEASE  -
|  1> !M062X D3Zero RIJCOSX def2-TZVP def2/J TightSCF
|  2> *xyz 0 1
|  3> C          2.49556        1.81615       -2.13636
|  4> C          1.87218        0.42790       -2.07750
|  5> H          2.61427       -0.36583       -2.19889
|  6> H          1.38995        0.27309       -1.11236
|  7> S          0.57902        0.14047       -3.29794
|  8> O          0.22886       -1.24687       -3.12787
|  9> O         -0.43927        1.11897       -3.01455
| 10> F          1.24788        0.40347       -4.59565
| 11> H          2.96535        1.95613       -3.08747
| 12> H          3.22581        1.91242       -1.36024
| 13> H          1.73350        2.55528       -2.00274
| 14> *
| 15>
| 16> %MaxCore 64000
| 17>
| 18> %pal nprocs 4
| 19> end
| 20>
| 21> %scf
| 22>   MaxIter 150
| 23> end
| 24>
| 25>
| 26>                          ****END OF INPUT****

CARTESIAN COORDINATES (ANGSTROEM)
---------------------------------
  C      2.495560    1.816150   -2.136360
  C      1.872180    0.427900   -2.077500
  H      2.614270   -0.365830   -2.198890
  H      1.389950    0.273090   -1.112360
  S      0.579020    0.140470   -3.297940
  O      0.228860   -1.246870   -3.127870
  O     -0.439270    1.118970   -3.014550
  F      1.247880    0.403470   -4.595650
  H      2.965350    1.956130   -3.087470
  H      3.225810    1.912420   -1.360240
  H      1.733500    2.555280   -2.002740

 Total Charge           Charge          ....    0
 Multiplicity           Mult            ....    1
 Number of Electrons    NEL             ....   58
 Basis Dimension        Dim             ....  222

ORBITAL ENERGIES
----------------

  NO   OCC          E(Eh)            E(eV)
   0   2.0000     -90.149794     -2453.1006
   1   2.0000     -25.348498      -689.7677
   2   2.0000     -19.641656      -534.4766
   3   2.0000     -19.641190      -534.4639
   4   2.0000     -10.595090      -288.3071
   5   2.0000     -10.554811      -287.2110
   6   2.0000      -8.474965      -230.6155
   7   2.0000      -6.399881      -174.1496
   8   2.0000      -6.394893      -174.0139
   9   2.0000      -6.394232      -173.9959
  10   2.0000      -1.497547       -40.7503
  11   2.0000      -1.240764       -33.7629
  12   2.0000      -1.147724       -31.2312
  13   2.0000      -0.922283       -25.0966
  14   2.0000      -0.819448       -22.2983
  15   2.0000      -0.762916       -20.7600
  16   2.0000      -0.675409       -18.3788
  17   2.0000      -0.665620       -18.1124
  18   2.0000      -0.635263       -17.2864
  19   2.0000      -0.570452       -15.5228
  20   2.0000      -0.555562       -15.1176
  21   2.0000      -0.536994       -14.6123
  22   2.0000      -0.508638       -13.8407
  23   2.0000      -0.481596       -13.1049
  24   2.0000      -0.470687       -12.8080
  25   2.0000      -0.449761       -12.2386
  26   2.0000      -0.418155       -11.3786
  27   2.0000      -0.399805       -10.8792
  28   2.0000      -0.396918       -10.8007
  29   0.0000       0.047870         1.3026
  30   0.0000       0.090154         2.4532
  31   0.0000       0.095463         2.5977
  32   0.0000       0.102035         2.7765
  33   0.0000       0.114072         3.1041

MULLIKEN ATOMIC CHARGES
-----------------------
   0 C :   -0.414686
   1 C :   -0.310303
   2 H :    0.173171
   3 H :    0.180984
   4 S :    0.939142
   5 O :   -0.445585
   6 O :   -0.447974
   7 F :   -0.140893
   8 H :    0.147698
   9 H :    0.149022
  10 H :    0.169425
Sum of atomic charges:   -0.0000000

LOEWDIN ATOMIC CHARGES
----------------------
   0 C :   -0.318072
   1 C :   -0.393686
   2 H :    0.139691
   3 H :    0.149951
   4 S :    0.555449
   5 O :   -0.274873
   6 O :   -0.274579
   7 F :    0.042310
   8 H :    0.120691
   9 H :    0.125713
  10 H :    0.127406

  Mayer bond orders larger than 0.100000
B(  0-C ,  1-C ) :   0.9347 B(  0-C ,  8-H ) :   0.9680 B(  0-C ,  9-H ) :   0.9635
B(  0-C , 10-H ) :   0.9632 B(  1-C ,  2-H ) :   0.9446 B(  1-C ,  3-H ) :   0.9433
B(  1-C ,  4-S ) :   0.9190 B(  4-S ,  5-O ) :   1.9336 B(  4-S ,  6-O ) :   1.9130
B(  4-S ,  7-F ) :   1.0743

Dispersion correction           -0.000150936
FINAL SINGLE POINT ENERGY      -727.688617272373

DIPOLE MOMENT
-------------
                                X             Y             Z
Electronic contribution:     -5.04941      -3.60429      -6.57534
Nuclear contribution   :      6.54345       4.10057       6.91691
                        -----------------------------------------
Total Dipole Moment    :      1.49404       0.49629       0.34157
                        -----------------------------------------
Magnitude (a.u.)       :      1.61093
Magnitude (Debye)      :      4.09467

Rotational constants in cm-1:     0.152835     0.082826     0.080611
Rotational constants in MHz :  4581.878371  2483.049050  2416.647141

                             ****ORCA TERMINATED NORMALLY****
TOTAL RUN TIME: 0 days 0 hours 0 minutes 23 seconds 571 msec
