                         Program Version 5.0.0 -  RELEASE  -
|  1> !M062X D3Zero RIJCOSX def2-TZVP def2/J TightSCF
|  2> *xyz 0 1
|  3> C          3.38093        2.08304       -3.35013
|  4> N          4.53592        1.18245       -3.42852
|  5> C          2.49556        1.81615       -2.13636
|  6> C          4.67196        0.12227       -4.22060
|  7> N          5.86602       -0.50785       -4.22428
|  8> C          3.69888       -0.31284       -4.98699
|  9> H          2.73141       -0.05009       -4.84900
| 10> H          3.89005       -1.05517       -5.64373
| 11> H          5.25193        1.30346       -2.72101
| 12> H          6.69516       -0.06232       -3.85160
| 13> H          5.97538       -1.39688       -4.69141
| 14> H          2.80646        1.98651       -4.26848
| 15> H          3.77871        3.09828       -3.30738
| 16> H          2.11090        0.81901       -2.18783
| 17> H          1.68276        2.51198       -2.12786
| 18> H          3.07216        1.93031       -1.24227
| 19> *
| 20>
| 21> %MaxCore 64000
| 22>
| 23> %pal nprocs 4
| 24> end
| 25>
| 26> %scf
| 27>   MaxIter 150
| 28> end
| 29>
| 30>
| 31>                          ****END OF INPUT****

CARTESIAN COORDINATES (ANGSTROEM)
---------------------------------
  C      3.380930    2.083040   -3.350130
  N      4.535920    1.182450   -3.428520
  C      2.495560    1.816150   -2.136360
  C      4.671960    0.122270   -4.220600
  N      5.866020   -0.507850   -4.224280
  C      3.698880   -0.312840   -4.986990
  H      2.731410   -0.050090   -4.849000
  H      3.890050   -1.055170   -5.643730
  H      5.251930    1.303460   -2.721010
  H      6.695160   -0.062320   -3.851600
  H      5.975380   -1.396880   -4.691410
  H      2.806460    1.986510   -4.268480
  H      3.778710    3.098280   -3.307380
  H      2.110900    0.819010   -2.187830
  H      1.682760    2.511980   -2.127860
  H      3.072160    1.930310   -1.242270

 Total Charge           Charge          ....    0
 Multiplicity           Mult            ....    1
 Number of Electrons    NEL             ....   48
 Basis Dimension        Dim             ....  246

ORBITAL ENERGIES
----------------

  NO   OCC          E(Eh)            E(eV)
   0   2.0000     -14.745745      -401.2521
   1   2.0000     -14.741583      -401.1389
   2   2.0000     -10.582127      -287.9543
   3   2.0000     -10.567328      -287.5516
   4   2.0000     -10.518546      -286.2242
   5   2.0000     -10.446266      -284.2573
   6   2.0000      -1.072313       -29.1791
   7   2.0000      -0.982525       -26.7359
   8   2.0000      -0.852358       -23.1938
   9   2.0000      -0.804912       -21.9028
  10   2.0000      -0.724298       -19.7092
  11   2.0000      -0.643500       -17.5105
  12   2.0000      -0.616967       -16.7885
  13   2.0000      -0.587665       -15.9912
  14   2.0000      -0.524653       -14.2765
  15   2.0000      -0.517612       -14.0849
  16   2.0000      -0.490614       -13.3503
  17   2.0000      -0.466392       -12.6912
  18   2.0000      -0.444426       -12.0934
  19   2.0000      -0.438493       -11.9320
  20   2.0000      -0.418150       -11.3784
  21   2.0000      -0.412081       -11.2133
  22   2.0000      -0.309331        -8.4173
  23   2.0000      -0.221434        -6.0255
  24   0.0000       0.055337         1.5058
  25   0.0000       0.078742         2.1427
  26   0.0000       0.097046         2.6408
  27   0.0000       0.113685         3.0935
  28   0.0000       0.121731         3.3125

MULLIKEN ATOMIC CHARGES
-----------------------
   0 C :   -0.195815
   1 N :   -0.417187
   2 C :   -0.355710
   3 C :    0.570055
   4 N :   -0.612870
   5 C :   -0.601036
   6 H :    0.118418
   7 H :    0.096175
   8 H :    0.214842
   9 H :    0.233161
  10 H :    0.258128
  11 H :    0.161654
  12 H :    0.135659
  13 H :    0.143796
  14 H :    0.129862
  15 H :    0.120869
Sum of atomic charges:    0.0000000

LOEWDIN ATOMIC CHARGES
----------------------
   0 C :   -0.294167
   1 N :    0.104881
   2 C :   -0.307298
   3 C :   -0.462973
   4 N :   -0.035339
   5 C :   -0.334047
   6 H :    0.098641
   7 H :    0.098764
   8 H :    0.178450
   9 H :    0.159599
  10 H :    0.174830
  11 H :    0.139366
  12 H :    0.128489
  13 H :    0.120499
  14 H :    0.117426
  15 H :    0.112881

  Mayer bond orders larger than 0.100000
B(  0-C ,  1-N ) :   0.8898 B(  0-C ,  2-C ) :   0.9413 B(  0-C , 11-H ) :   0.9778
B(  0-C , 12-H ) :   0.9806 B(  1-N ,  3-C ) :   1.1100 B(  1-N ,  8-H ) :   0.9351
B(  2-C , 13-H ) :   0.9671 B(  2-C , 14-H ) :   0.9778 B(  2-C , 15-H ) :   0.9751
B(  3-C ,  4-N ) :   1.0138 B(  3-C ,  5-C ) :   1.6038 B(  4-N ,  9-H ) :   0.9309
B(  4-N , 10-H ) :   0.9278 B(  5-C ,  6-H ) :   1.0029 B(  5-C ,  7-H ) :   1.0155

Dispersion correction           -0.000314224
FINAL SINGLE POINT ENERGY      -267.885261481235

DIPOLE MOMENT
-------------
                                X             Y             Z
Electronic contribution:      3.69336      -1.31707      -1.33702
Nuclear contribution   :     -3.02065       1.64092       1.99316
                        -----------------------------------------
Total Dipole Moment    :      0.67271       0.32385       0.65614
                        -----------------------------------------
Magnitude (a.u.)       :      0.99395
Magnitude (Debye)      :      2.52641

Rotational constants in cm-1:     0.259304     0.069422     0.060943
Rotational constants in MHz :  7773.747720  2081.225169  1827.013389

                             ****ORCA TERMINATED NORMALLY****
TOTAL RUN TIME: 0 days 0 hours 0 minutes 29 seconds 977 msec
