                         Program Version 5.0.0 -  RELEASE  -
|  1> !M062X D3Zero RIJCOSX def2-TZVP def2/J TightSCF xyzfile
|  2>
|  3> *xyzfile 0 1 D1.xyz
|  4>
|  5> %MaxCore 64000
|  6>
|  7> %pal nprocs 18
|  8> end
|  9>
| 10> %scf
| 11>   MaxIter 150
| 12> end
| 13>
| 14>
| 15>                          ****END OF INPUT****

CARTESIAN COORDINATES (ANGSTROEM)
---------------------------------
  C      3.380928    2.083045   -3.350127
  C      4.535924    1.182447   -3.428518
  C      2.495557    1.816150   -2.136364
  C      1.872181    0.427903   -2.077497
  H      2.614270   -0.365825   -2.198894
  H      1.389953    0.273087   -1.112360
  S      0.579024    0.140472   -3.297943
  C      4.671956    0.122273   -4.220598
  N      5.866023   -0.507849   -4.224284
  N      3.698881   -0.312844   -4.986988
  H      2.731405   -0.050091   -4.849000
  H      3.890046   -1.055172   -5.643730
  H      5.251933    1.303459   -2.721014
  H      6.695165   -0.062322   -3.851596
  H      5.975383   -1.396884   -4.691414
  F      0.228860   -1.246868   -3.127871
  O     -0.439269    1.118966   -3.014550
  O      1.247881    0.403474   -4.595647
  H      1.697003    2.561969   -2.141109
  H      3.080787    1.987436   -1.225838
  H      2.806463    1.986511   -4.268484
  H      3.778714    3.098282   -3.307383

 Total Charge           Charge          ....    0
 Multiplicity           Mult            ....    1
 Number of Electrons    NEL             ....   96
 Basis Dimension        Dim             ....  413

ORBITAL ENERGIES
----------------

  NO   OCC          E(Eh)            E(eV)
   0   2.0000     -90.161587     -2453.4215
   1   2.0000     -25.377736      -690.5633
   2   2.0000     -19.649040      -534.6776
   3   2.0000     -19.644239      -534.5469
   4   2.0000     -14.738733      -401.0613
   5   2.0000     -14.722873      -400.6298
   6   2.0000     -10.588148      -288.1182
   7   2.0000     -10.578542      -287.8568
   8   2.0000     -10.544526      -286.9311
   9   2.0000     -10.510406      -286.0027
  10   2.0000     -10.454843      -284.4908
  11   2.0000      -8.487095      -230.9456
  12   2.0000      -6.411795      -174.4738
  13   2.0000      -6.406883      -174.3402
  14   2.0000      -6.406406      -174.3272
  15   2.0000      -1.541129       -41.9362
  16   2.0000      -1.242520       -33.8107
  17   2.0000      -1.145371       -31.1671
  18   2.0000      -1.062710       -28.9178
  19   2.0000      -0.963692       -26.2234
  20   2.0000      -0.924597       -25.1596
  21   2.0000      -0.864619       -23.5275
  22   2.0000      -0.824728       -22.4420
  23   2.0000      -0.773121       -21.0377
  24   2.0000      -0.718680       -19.5563
  25   2.0000      -0.701052       -19.0766
  26   2.0000      -0.677386       -18.4326
  27   2.0000      -0.671406       -18.2699
  28   2.0000      -0.633809       -17.2468
  29   2.0000      -0.611200       -16.6316
  30   2.0000      -0.590766       -16.0756
  31   2.0000      -0.565595       -15.3906
  32   2.0000      -0.559190       -15.2163
  33   2.0000      -0.543535       -14.7903
  34   2.0000      -0.523445       -14.2437
  35   2.0000      -0.509642       -13.8681
  36   2.0000      -0.478893       -13.0313
  37   2.0000      -0.473085       -12.8733
  38   2.0000      -0.462097       -12.5743
  39   2.0000      -0.450594       -12.2613
  40   2.0000      -0.427037       -11.6203
  41   2.0000      -0.420495       -11.4423
  42   2.0000      -0.403810       -10.9882
  43   2.0000      -0.399671       -10.8756
  44   2.0000      -0.388821       -10.5804
  45   2.0000      -0.374056       -10.1786
  46   2.0000      -0.320162        -8.7120
  47   2.0000      -0.209061        -5.6888
  48   0.0000       0.053791         1.4637
  49   0.0000       0.065675         1.7871
  50   0.0000       0.072271         1.9666
  51   0.0000       0.095567         2.6005
  52   0.0000       0.096179         2.6172

MULLIKEN ATOMIC CHARGES
-----------------------
   0 C :   -0.417455
   1 C :   -0.369818
   2 C :   -0.220535
   3 C :   -0.424810
   4 H :    0.218966
   5 H :    0.185536
   6 S :    0.955479
   7 C :    0.500847
   8 N :   -0.599231
   9 N :   -0.605331
  10 H :    0.304638
  11 H :    0.222016
  12 H :    0.118862
  13 H :    0.257713
  14 H :    0.228508
  15 F :   -0.101827
  16 O :   -0.425700
  17 O :   -0.492925
  18 H :    0.171676
  19 H :    0.152756
  20 H :    0.199320
  21 H :    0.141314
Sum of atomic charges:   -0.0000000

LOEWDIN ATOMIC CHARGES
----------------------
   0 C :   -0.285240
   1 C :   -0.292870
   2 C :   -0.277040
   3 C :   -0.371355
   4 H :    0.147930
   5 H :    0.141614
   6 S :    0.572940
   7 C :   -0.469086
   8 N :   -0.037122
   9 N :   -0.006592
  10 H :    0.137863
  11 H :    0.161849
  12 H :    0.118908
  13 H :    0.174597
  14 H :    0.157638
  15 F :    0.097445
  16 O :   -0.259502
  17 O :   -0.296736
  18 H :    0.145562
  19 H :    0.148416
  20 H :    0.147010
  21 H :    0.143771

  Mayer bond orders larger than 0.100000
B(  0-C ,  1-C ) :   0.9595 B(  0-C ,  2-C ) :   0.8966 B(  0-C , 20-H ) :   0.9905
B(  0-C , 21-H ) :   0.9960 B(  1-C ,  7-C ) :   1.6132 B(  1-C , 12-H ) :   0.9906
B(  2-C ,  3-C ) :   0.9059 B(  2-C , 18-H ) :   0.9700 B(  2-C , 19-H ) :   0.9671
B(  3-C ,  4-H ) :   0.9275 B(  3-C ,  5-H ) :   0.9458 B(  3-C ,  6-S ) :   0.9491
B(  6-S , 15-F ) :   1.1284 B(  6-S , 16-O ) :   1.9403 B(  6-S , 17-O ) :   1.7135
B(  7-C ,  8-N ) :   1.0297 B(  7-C ,  9-N ) :   1.0960 B(  8-N , 13-H ) :   0.9253
B(  8-N , 14-H ) :   0.9338 B(  9-N , 10-H ) :   0.8331 B(  9-N , 11-H ) :   0.9388
B( 10-H , 17-O ) :   0.1039

Dispersion correction           -0.000920030
FINAL SINGLE POINT ENERGY      -955.066847173616

DIPOLE MOMENT
-------------
                                X             Y             Z
Electronic contribution:    -15.27068      -6.75937      -1.15192
Nuclear contribution   :     15.92508       5.34175       1.81950
                        -----------------------------------------
Total Dipole Moment    :      0.65440      -1.41761       0.66757
                        -----------------------------------------
Magnitude (a.u.)       :      1.69809
Magnitude (Debye)      :      4.31621

Rotational constants in cm-1:     0.058561     0.020662     0.017762
Rotational constants in MHz :  1755.621534   619.433801   532.501507

                             ****ORCA TERMINATED NORMALLY****
TOTAL RUN TIME: 0 days 0 hours 0 minutes 41 seconds 22 msec
