                         Program Version 5.0.0 -  RELEASE  -
|  1> !M062X D3Zero RIJCOSX def2-TZVP def2/J TightSCF xyzfile
|  2>
|  3> *xyzfile 0 1 D6.xyz
|  4>
|  5> %MaxCore 64000
|  6>
|  7> %pal nprocs 18
|  8> end
|  9>
| 10> %scf
| 11>   MaxIter 150
| 12> end
| 13>
| 14>
| 15>                          ****END OF INPUT****

CARTESIAN COORDINATES (ANGSTROEM)
---------------------------------
  C      3.380928    2.083045   -3.350127
  N      4.535924    1.182447   -3.428518
  C      2.495557    1.816150   -2.136364
  C      1.872181    0.427903   -2.077497
  H      2.614270   -0.365825   -2.198894
  H      1.389953    0.273087   -1.112360
  S      0.579024    0.140472   -3.297943
  C      4.671956    0.122273   -4.220598
  N      5.866023   -0.507849   -4.224284
  C      3.698881   -0.312844   -4.986988
  H      2.731405   -0.050091   -4.849000
  H      3.890046   -1.055172   -5.643730
  H      5.251933    1.303459   -2.721014
  H      6.695165   -0.062322   -3.851596
  H      5.975383   -1.396884   -4.691414
  O      0.228860   -1.246868   -3.127871
  F     -0.439269    1.118966   -3.014550
  O      1.247881    0.403474   -4.595647
  H      1.697003    2.561969   -2.141109
  H      3.080787    1.987436   -1.225838
  H      2.806463    1.986511   -4.268484
  H      3.778714    3.098282   -3.307383

 Total Charge           Charge          ....    0
 Multiplicity           Mult            ....    1
 Number of Electrons    NEL             ....   96
 Basis Dimension        Dim             ....  413

ORBITAL ENERGIES
----------------

  NO   OCC          E(Eh)            E(eV)
   0   2.0000     -90.152352     -2453.1702
   1   2.0000     -25.370566      -690.3682
   2   2.0000     -19.641327      -534.4677
   3   2.0000     -19.627808      -534.0998
   4   2.0000     -14.748466      -401.3262
   5   2.0000     -14.735639      -400.9771
   6   2.0000     -10.592719      -288.2425
   7   2.0000     -10.575503      -287.7741
   8   2.0000     -10.572924      -287.7039
   9   2.0000     -10.566693      -287.5343
  10   2.0000     -10.423778      -283.6454
  11   2.0000      -8.477715      -230.6904
  12   2.0000      -6.402599      -174.2236
  13   2.0000      -6.397398      -174.0820
  14   2.0000      -6.397058      -174.0728
  15   2.0000      -1.534332       -41.7513
  16   2.0000      -1.231342       -33.5065
  17   2.0000      -1.132404       -30.8143
  18   2.0000      -1.071370       -29.1535
  19   2.0000      -0.983775       -26.7699
  20   2.0000      -0.925242       -25.1771
  21   2.0000      -0.849872       -23.1262
  22   2.0000      -0.814622       -22.1670
  23   2.0000      -0.788623       -21.4595
  24   2.0000      -0.730792       -19.8859
  25   2.0000      -0.696507       -18.9529
  26   2.0000      -0.690092       -18.7784
  27   2.0000      -0.651533       -17.7291
  28   2.0000      -0.634385       -17.2625
  29   2.0000      -0.609677       -16.5901
  30   2.0000      -0.590052       -16.0561
  31   2.0000      -0.567051       -15.4303
  32   2.0000      -0.561664       -15.2837
  33   2.0000      -0.539601       -14.6833
  34   2.0000      -0.523254       -14.2385
  35   2.0000      -0.513372       -13.9696
  36   2.0000      -0.487951       -13.2778
  37   2.0000      -0.469749       -12.7825
  38   2.0000      -0.461151       -12.5486
  39   2.0000      -0.451854       -12.2956
  40   2.0000      -0.439802       -11.9676
  41   2.0000      -0.434696       -11.8287
  42   2.0000      -0.419992       -11.4286
  43   2.0000      -0.391604       -10.6561
  44   2.0000      -0.381581       -10.3833
  45   2.0000      -0.364475        -9.9179
  46   2.0000      -0.311115        -8.4659
  47   2.0000      -0.212973        -5.7953
  48   0.0000       0.043040         1.1712
  49   0.0000       0.064450         1.7538
  50   0.0000       0.071862         1.9555
  51   0.0000       0.089724         2.4415
  52   0.0000       0.092051         2.5048

MULLIKEN ATOMIC CHARGES
-----------------------
   0 C :   -0.268125
   1 N :   -0.427158
   2 C :   -0.270801
   3 C :   -0.392037
   4 H :    0.235182
   5 H :    0.185438
   6 S :    0.933512
   7 C :    0.560018
   8 N :   -0.621560
   9 C :   -0.576744
  10 H :    0.139336
  11 H :    0.093528
  12 H :    0.213752
  13 H :    0.228411
  14 H :    0.258580
  15 O :   -0.428077
  16 F :   -0.105475
  17 O :   -0.454633
  18 H :    0.158106
  19 H :    0.155683
  20 H :    0.232451
  21 H :    0.150611
Sum of atomic charges:   -0.0000000

LOEWDIN ATOMIC CHARGES
----------------------
   0 C :   -0.272989
   1 N :    0.100781
   2 C :   -0.297094
   3 C :   -0.364930
   4 H :    0.161946
   5 H :    0.141172
   6 S :    0.562379
   7 C :   -0.481397
   8 N :   -0.040750
   9 C :   -0.319628
  10 H :    0.083449
  11 H :    0.097936
  12 H :    0.176303
  13 H :    0.156271
  14 H :    0.174732
  15 O :   -0.263236
  16 F :    0.094904
  17 O :   -0.281839
  18 H :    0.142463
  19 H :    0.144738
  20 H :    0.150704
  21 H :    0.134087

  Mayer bond orders larger than 0.100000
B(  0-C ,  1-N ) :   0.8594 B(  0-C ,  2-C ) :   0.9052 B(  0-C , 20-H ) :   0.9699
B(  0-C , 21-H ) :   0.9858 B(  1-N ,  7-C ) :   1.0700 B(  1-N , 12-H ) :   0.9343
B(  2-C ,  3-C ) :   0.9013 B(  2-C , 18-H ) :   0.9800 B(  2-C , 19-H ) :   0.9663
B(  3-C ,  4-H ) :   0.9311 B(  3-C ,  5-H ) :   0.9522 B(  3-C ,  6-S ) :   0.9310
B(  6-S , 15-O ) :   1.9431 B(  6-S , 16-F ) :   1.1167 B(  6-S , 17-O ) :   1.7843
B(  7-C ,  8-N ) :   0.9825 B(  7-C ,  9-C ) :   1.5992 B(  8-N , 13-H ) :   0.9339
B(  8-N , 14-H ) :   0.9285 B(  9-C , 10-H ) :   1.0335 B(  9-C , 11-H ) :   1.0159

Dispersion correction           -0.000925972
FINAL SINGLE POINT ENERGY      -955.035469724661

DIPOLE MOMENT
-------------
                                X             Y             Z
Electronic contribution:    -15.79956      -1.41143       0.27451
Nuclear contribution   :     16.57580       2.60270       1.54331
                        -----------------------------------------
Total Dipole Moment    :      0.77625       1.19127       1.81782
                        -----------------------------------------
Magnitude (a.u.)       :      2.30784
Magnitude (Debye)      :      5.86607

Rotational constants in cm-1:     0.060402     0.020377     0.017632
Rotational constants in MHz :  1810.792194   610.900365   528.582827

                             ****ORCA TERMINATED NORMALLY****
TOTAL RUN TIME: 0 days 0 hours 0 minutes 40 seconds 714 msec
