                         Program Version 5.0.0 -  RELEASE  -
|  1> !M062X D3Zero RIJCOSX def2-TZVP def2/J TightSCF xyzfile
|  2>
|  3> *xyzfile 0 1 D7.xyz
|  4>
|  5> %MaxCore 64000
|  6>
|  7> %pal nprocs 18
|  8> end
|  9>
| 10> %scf
| 11>   MaxIter 150
| 12> end
| 13>
| 14>
| 15>                          ****END OF INPUT****

CARTESIAN COORDINATES (ANGSTROEM)
---------------------------------
  C      3.380928    2.083045   -3.350127
  C      4.535924    1.182447   -3.428518
  C      2.495557    1.816150   -2.136364
  C      1.872181    0.427903   -2.077497
  H      2.614270   -0.365825   -2.198894
  H      1.389953    0.273087   -1.112360
  S      0.579024    0.140472   -3.297943
  C      4.671956    0.122273   -4.220598
  N      5.866023   -0.507849   -4.224284
  N      3.698881   -0.312844   -4.986988
  H      2.731405   -0.050091   -4.849000
  H      3.890046   -1.055172   -5.643730
  H      5.251933    1.303459   -2.721014
  H      6.695165   -0.062322   -3.851596
  H      5.975383   -1.396884   -4.691414
  O      0.228860   -1.246868   -3.127871
  O     -0.439269    1.118966   -3.014550
  F      1.247881    0.403474   -4.595647
  H      1.697003    2.561969   -2.141109
  H      3.080787    1.987436   -1.225838
  H      2.806463    1.986511   -4.268484
  H      3.778714    3.098282   -3.307383

 Total Charge           Charge          ....    0
 Multiplicity           Mult            ....    1
 Number of Electrons    NEL             ....   96
 Basis Dimension        Dim             ....  413

ORBITAL ENERGIES
----------------

  NO   OCC          E(Eh)            E(eV)
   0   2.0000     -90.151350     -2453.1429
   1   2.0000     -25.365226      -690.2229
   2   2.0000     -19.643980      -534.5399
   3   2.0000     -19.643373      -534.5234
   4   2.0000     -14.752886      -401.4465
   5   2.0000     -14.751958      -401.4212
   6   2.0000     -10.595369      -288.3147
   7   2.0000     -10.584228      -288.0115
   8   2.0000     -10.546411      -286.9824
   9   2.0000     -10.527673      -286.4725
  10   2.0000     -10.470724      -284.9229
  11   2.0000      -8.477147      -230.6749
  12   2.0000      -6.402358      -174.2170
  13   2.0000      -6.396638      -174.0614
  14   2.0000      -6.396196      -174.0493
  15   2.0000      -1.519424       -41.3456
  16   2.0000      -1.244261       -33.8581
  17   2.0000      -1.149709       -31.2852
  18   2.0000      -1.082841       -29.4656
  19   2.0000      -0.983938       -26.7743
  20   2.0000      -0.928421       -25.2636
  21   2.0000      -0.864911       -23.5354
  22   2.0000      -0.829313       -22.5668
  23   2.0000      -0.779283       -21.2054
  24   2.0000      -0.734987       -20.0000
  25   2.0000      -0.694069       -18.8866
  26   2.0000      -0.680630       -18.5209
  27   2.0000      -0.660474       -17.9724
  28   2.0000      -0.636476       -17.3194
  29   2.0000      -0.625791       -17.0286
  30   2.0000      -0.590694       -16.0736
  31   2.0000      -0.568944       -15.4818
  32   2.0000      -0.553573       -15.0635
  33   2.0000      -0.545498       -14.8437
  34   2.0000      -0.535865       -14.5816
  35   2.0000      -0.527383       -14.3508
  36   2.0000      -0.483022       -13.1437
  37   2.0000      -0.480345       -13.0708
  38   2.0000      -0.476199       -12.9580
  39   2.0000      -0.460038       -12.5183
  40   2.0000      -0.429120       -11.6770
  41   2.0000      -0.420445       -11.4409
  42   2.0000      -0.412328       -11.2200
  43   2.0000      -0.401966       -10.9381
  44   2.0000      -0.399685       -10.8760
  45   2.0000      -0.386537       -10.5182
  46   2.0000      -0.339723        -9.2443
  47   2.0000      -0.224771        -6.1163
  48   0.0000       0.044376         1.2075
  49   0.0000       0.060010         1.6330
  50   0.0000       0.078617         2.1393
  51   0.0000       0.089475         2.4347
  52   0.0000       0.096487         2.6255

MULLIKEN ATOMIC CHARGES
-----------------------
   0 C :   -0.441282
   1 C :   -0.342202
   2 C :   -0.222695
   3 C :   -0.426451
   4 H :    0.225026
   5 H :    0.197936
   6 S :    0.939143
   7 C :    0.505859
   8 N :   -0.595460
   9 N :   -0.592381
  10 H :    0.270355
  11 H :    0.236373
  12 H :    0.126473
  13 H :    0.262198
  14 H :    0.233039
  15 O :   -0.440934
  16 O :   -0.438242
  17 F :   -0.148120
  18 H :    0.176682
  19 H :    0.151333
  20 H :    0.173676
  21 H :    0.149675
Sum of atomic charges:   -0.0000000

LOEWDIN ATOMIC CHARGES
----------------------
   0 C :   -0.288038
   1 C :   -0.282793
   2 C :   -0.288062
   3 C :   -0.365362
   4 H :    0.149207
   5 H :    0.152963
   6 S :    0.562153
   7 C :   -0.466129
   8 N :   -0.031636
   9 N :   -0.006474
  10 H :    0.145357
  11 H :    0.168604
  12 H :    0.122168
  13 H :    0.177432
  14 H :    0.160114
  15 O :   -0.270980
  16 O :   -0.266773
  17 F :    0.054342
  18 H :    0.144338
  19 H :    0.147025
  20 H :    0.135816
  21 H :    0.146728

  Mayer bond orders larger than 0.100000
B(  0-C ,  1-C ) :   0.9478 B(  0-C ,  2-C ) :   0.8914 B(  0-C , 20-H ) :   0.9991
B(  0-C , 21-H ) :   0.9954 B(  1-C ,  7-C ) :   1.6320 B(  1-C , 12-H ) :   0.9894
B(  2-C ,  3-C ) :   0.8893 B(  2-C , 18-H ) :   0.9736 B(  2-C , 19-H ) :   0.9656
B(  3-C ,  4-H ) :   0.9350 B(  3-C ,  5-H ) :   0.9471 B(  3-C ,  6-S ) :   0.9325
B(  6-S , 15-O ) :   1.9315 B(  6-S , 16-O ) :   1.9279 B(  6-S , 17-F ) :   0.9977
B(  7-C ,  8-N ) :   1.0354 B(  7-C ,  9-N ) :   1.0630 B(  8-N , 13-H ) :   0.9230
B(  8-N , 14-H ) :   0.9323 B(  9-N , 10-H ) :   0.8950 B(  9-N , 11-H ) :   0.9323

Dispersion correction           -0.000936018
FINAL SINGLE POINT ENERGY      -955.072828227984

DIPOLE MOMENT
-------------
                                X             Y             Z
Electronic contribution:    -13.16660      -3.87719      -3.68746
Nuclear contribution   :     14.80811       3.53278       3.42836
                        -----------------------------------------
Total Dipole Moment    :      1.64151      -0.34441      -0.25911
                        -----------------------------------------
Magnitude (a.u.)       :      1.69715
Magnitude (Debye)      :      4.31381

Rotational constants in cm-1:     0.059173     0.020923     0.018056
Rotational constants in MHz :  1773.956621   627.264018   541.303397

                             ****ORCA TERMINATED NORMALLY****
TOTAL RUN TIME: 0 days 0 hours 0 minutes 30 seconds 949 msec
