                         Program Version 5.0.0 -  RELEASE  -
|  1> !M062X D3Zero RIJCOSX def2-TZVP def2/J TightSCF xyzfile
|  2>
|  3> *xyzfile 0 1 D8.xyz
|  4>
|  5> %MaxCore 64000
|  6>
|  7> %pal nprocs 18
|  8> end
|  9>
| 10> %scf
| 11>   MaxIter 150
| 12> end
| 13>
| 14>
| 15>                          ****END OF INPUT****

CARTESIAN COORDINATES (ANGSTROEM)
---------------------------------
  C      3.380928    2.083045   -3.350127
  N      4.535924    1.182447   -3.428518
  C      2.495557    1.816150   -2.136364
  C      1.872181    0.427903   -2.077497
  H      2.614270   -0.365825   -2.198894
  H      1.389953    0.273087   -1.112360
  S      0.579024    0.140472   -3.297943
  C      4.671956    0.122273   -4.220598
  C      5.866023   -0.507849   -4.224284
  N      3.698881   -0.312844   -4.986988
  H      2.731405   -0.050091   -4.849000
  H      3.890046   -1.055172   -5.643730
  H      5.251933    1.303459   -2.721014
  H      6.695165   -0.062322   -3.851596
  H      5.975383   -1.396884   -4.691414
  O      0.228860   -1.246868   -3.127871
  O     -0.439269    1.118966   -3.014550
  F      1.247881    0.403474   -4.595647
  H      1.697003    2.561969   -2.141109
  H      3.080787    1.987436   -1.225838
  H      2.806463    1.986511   -4.268484
  H      3.778714    3.098282   -3.307383

 Total Charge           Charge          ....    0
 Multiplicity           Mult            ....    1
 Number of Electrons    NEL             ....   96
 Basis Dimension        Dim             ....  413

ORBITAL ENERGIES
----------------

  NO   OCC          E(Eh)            E(eV)
   0   2.0000     -90.164722     -2453.5068
   1   2.0000     -25.376896      -690.5404
   2   2.0000     -19.656398      -534.8778
   3   2.0000     -19.655414      -534.8510
   4   2.0000     -14.761951      -401.6931
   5   2.0000     -14.750784      -401.3893
   6   2.0000     -10.603129      -288.5258
   7   2.0000     -10.596169      -288.3364
   8   2.0000     -10.594980      -288.3041
   9   2.0000     -10.573780      -287.7272
  10   2.0000     -10.452382      -284.4238
  11   2.0000      -8.490374      -231.0348
  12   2.0000      -6.415577      -174.5767
  13   2.0000      -6.410002      -174.4250
  14   2.0000      -6.409382      -174.4081
  15   2.0000      -1.531278       -41.6682
  16   2.0000      -1.256406       -34.1885
  17   2.0000      -1.161707       -31.6116
  18   2.0000      -1.092621       -29.7317
  19   2.0000      -1.006310       -27.3831
  20   2.0000      -0.938862       -25.5477
  21   2.0000      -0.871757       -23.7217
  22   2.0000      -0.823728       -22.4148
  23   2.0000      -0.796524       -21.6745
  24   2.0000      -0.734524       -19.9874
  25   2.0000      -0.707846       -19.2615
  26   2.0000      -0.700077       -19.0501
  27   2.0000      -0.688748       -18.7418
  28   2.0000      -0.650935       -17.7128
  29   2.0000      -0.616341       -16.7715
  30   2.0000      -0.594025       -16.1642
  31   2.0000      -0.571019       -15.5382
  32   2.0000      -0.567321       -15.4376
  33   2.0000      -0.560637       -15.2557
  34   2.0000      -0.548950       -14.9377
  35   2.0000      -0.530645       -14.4396
  36   2.0000      -0.502207       -13.6657
  37   2.0000      -0.482002       -13.1159
  38   2.0000      -0.476581       -12.9684
  39   2.0000      -0.461818       -12.5667
  40   2.0000      -0.454862       -12.3774
  41   2.0000      -0.444987       -12.1087
  42   2.0000      -0.430280       -11.7085
  43   2.0000      -0.428304       -11.6548
  44   2.0000      -0.413426       -11.2499
  45   2.0000      -0.405880       -11.0446
  46   2.0000      -0.330228        -8.9860
  47   2.0000      -0.219357        -5.9690
  48   0.0000       0.036639         0.9970
  49   0.0000       0.058183         1.5832
  50   0.0000       0.071108         1.9350
  51   0.0000       0.081169         2.2087
  52   0.0000       0.090531         2.4635

MULLIKEN ATOMIC CHARGES
-----------------------
   0 C :   -0.362213
   1 N :   -0.372054
   2 C :   -0.226368
   3 C :   -0.415132
   4 H :    0.227615
   5 H :    0.203717
   6 S :    0.941277
   7 C :    0.516205
   8 C :   -0.617796
   9 N :   -0.585653
  10 H :    0.253653
  11 H :    0.260028
  12 H :    0.248553
  13 H :    0.115997
  14 H :    0.106634
  15 O :   -0.431107
  16 O :   -0.436635
  17 F :   -0.143908
  18 H :    0.181868
  19 H :    0.159818
  20 H :    0.209892
  21 H :    0.165609
Sum of atomic charges:    0.0000000

LOEWDIN ATOMIC CHARGES
----------------------
   0 C :   -0.289827
   1 N :    0.113366
   2 C :   -0.295699
   3 C :   -0.365357
   4 H :    0.151894
   5 H :    0.155889
   6 S :    0.561614
   7 C :   -0.480220
   8 C :   -0.351007
   9 N :   -0.005850
  10 H :    0.135054
  11 H :    0.184393
  12 H :    0.197612
  13 H :    0.094302
  14 H :    0.093694
  15 O :   -0.262447
  16 O :   -0.264934
  17 F :    0.055104
  18 H :    0.150717
  19 H :    0.147802
  20 H :    0.134860
  21 H :    0.139040

  Mayer bond orders larger than 0.100000
B(  0-C ,  1-N ) :   0.8771 B(  0-C ,  2-C ) :   0.8922 B(  0-C , 20-H ) :   0.9837
B(  0-C , 21-H ) :   0.9859 B(  1-N ,  7-C ) :   1.1137 B(  1-N , 12-H ) :   0.9251
B(  2-C ,  3-C ) :   0.8852 B(  2-C , 18-H ) :   0.9700 B(  2-C , 19-H ) :   0.9613
B(  3-C ,  4-H ) :   0.9308 B(  3-C ,  5-H ) :   0.9438 B(  3-C ,  6-S ) :   0.9274
B(  6-S , 15-O ) :   1.9409 B(  6-S , 16-O ) :   1.9247 B(  6-S , 17-F ) :   1.0024
B(  7-C ,  8-C ) :   1.5521 B(  7-C ,  9-N ) :   1.0828 B(  8-C , 13-H ) :   1.0091
B(  8-C , 14-H ) :   1.0108 B(  9-N , 10-H ) :   0.9005 B(  9-N , 11-H ) :   0.9272

Dispersion correction           -0.000933719
FINAL SINGLE POINT ENERGY      -955.057817160535

DIPOLE MOMENT
-------------
                                X             Y             Z
Electronic contribution:    -14.60711      -2.42205      -2.90283
Nuclear contribution   :     14.93782       3.36795       3.35075
                        -----------------------------------------
Total Dipole Moment    :      0.33071       0.94589       0.44792
                        -----------------------------------------
Magnitude (a.u.)       :      1.09760
Magnitude (Debye)      :      2.78987

Rotational constants in cm-1:     0.059219     0.021387     0.018380
Rotational constants in MHz :  1775.354399   641.172207   551.019443

                             ****ORCA TERMINATED NORMALLY****
TOTAL RUN TIME: 0 days 0 hours 0 minutes 40 seconds 454 msec
