                         Program Version 5.0.0 -  RELEASE  -
|  1> !M062X D3Zero RIJCOSX def2-TZVP def2/J TightSCF xyzfile
|  2>
|  3> *xyzfile 0 1 D9.xyz
|  4>
|  5> %MaxCore 64000
|  6>
|  7> %pal nprocs 18
|  8> end
|  9>
| 10> %scf
| 11>   MaxIter 150
| 12> end
| 13>
| 14>
| 15>                          ****END OF INPUT****

CARTESIAN COORDINATES (ANGSTROEM)
---------------------------------
  C      3.380928    2.083045   -3.350127
  N      4.535924    1.182447   -3.428518
  C      2.495557    1.816150   -2.136364
  C      1.872181    0.427903   -2.077497
  H      2.614270   -0.365825   -2.198894
  H      1.389953    0.273087   -1.112360
  S      0.579024    0.140472   -3.297943
  C      4.671956    0.122273   -4.220598
  N      5.866023   -0.507849   -4.224284
  C      3.698881   -0.312844   -4.986988
  H      2.731405   -0.050091   -4.849000
  H      3.890046   -1.055172   -5.643730
  H      5.251933    1.303459   -2.721014
  H      6.695165   -0.062322   -3.851596
  H      5.975383   -1.396884   -4.691414
  O      0.228860   -1.246868   -3.127871
  O     -0.439269    1.118966   -3.014550
  F      1.247881    0.403474   -4.595647
  H      1.697003    2.561969   -2.141109
  H      3.080787    1.987436   -1.225838
  H      2.806463    1.986511   -4.268484
  H      3.778714    3.098282   -3.307383

 Total Charge           Charge          ....    0
 Multiplicity           Mult            ....    1
 Number of Electrons    NEL             ....   96
 Basis Dimension        Dim             ....  413

ORBITAL ENERGIES
----------------

  NO   OCC          E(Eh)            E(eV)
   0   2.0000     -90.146887     -2453.0215
   1   2.0000     -25.345553      -689.6876
   2   2.0000     -19.639341      -534.4136
   3   2.0000     -19.637517      -534.3640
   4   2.0000     -14.763313      -401.7302
   5   2.0000     -14.751956      -401.4211
   6   2.0000     -10.594326      -288.2863
   7   2.0000     -10.589552      -288.1564
   8   2.0000     -10.589413      -288.1526
   9   2.0000     -10.566050      -287.5168
  10   2.0000     -10.450885      -284.3830
  11   2.0000      -8.472194      -230.5401
  12   2.0000      -6.397192      -174.0765
  13   2.0000      -6.392093      -173.9377
  14   2.0000      -6.391361      -173.9178
  15   2.0000      -1.501244       -40.8509
  16   2.0000      -1.238396       -33.6985
  17   2.0000      -1.144573       -31.1454
  18   2.0000      -1.087783       -29.6001
  19   2.0000      -0.998614       -27.1737
  20   2.0000      -0.925101       -25.1733
  21   2.0000      -0.846579       -23.0366
  22   2.0000      -0.828594       -22.5472
  23   2.0000      -0.789547       -21.4847
  24   2.0000      -0.740085       -20.1387
  25   2.0000      -0.679190       -18.4817
  26   2.0000      -0.677459       -18.4346
  27   2.0000      -0.652632       -17.7590
  28   2.0000      -0.636509       -17.3203
  29   2.0000      -0.625058       -17.0087
  30   2.0000      -0.593914       -16.1612
  31   2.0000      -0.572171       -15.5696
  32   2.0000      -0.556012       -15.1299
  33   2.0000      -0.542596       -14.7648
  34   2.0000      -0.534146       -14.5348
  35   2.0000      -0.520976       -14.1765
  36   2.0000      -0.490180       -13.3385
  37   2.0000      -0.478891       -13.0313
  38   2.0000      -0.471758       -12.8372
  39   2.0000      -0.449791       -12.2394
  40   2.0000      -0.447154       -12.1677
  41   2.0000      -0.440194       -11.9783
  42   2.0000      -0.425072       -11.5668
  43   2.0000      -0.413128       -11.2418
  44   2.0000      -0.396920       -10.8007
  45   2.0000      -0.390257       -10.6194
  46   2.0000      -0.324957        -8.8425
  47   2.0000      -0.234187        -6.3726
  48   0.0000       0.039258         1.0683
  49   0.0000       0.060073         1.6347
  50   0.0000       0.074773         2.0347
  51   0.0000       0.091256         2.4832
  52   0.0000       0.096279         2.6199

MULLIKEN ATOMIC CHARGES
-----------------------
   0 C :   -0.307426
   1 N :   -0.409126
   2 C :   -0.254955
   3 C :   -0.395802
   4 H :    0.223752
   5 H :    0.196941
   6 S :    0.946810
   7 C :    0.578061
   8 N :   -0.615790
   9 C :   -0.561546
  10 H :    0.070022
  11 H :    0.103894
  12 H :    0.220868
  13 H :    0.235061
  14 H :    0.261862
  15 O :   -0.440721
  16 O :   -0.449809
  17 F :   -0.114749
  18 H :    0.182179
  19 H :    0.152683
  20 H :    0.219282
  21 H :    0.158510
Sum of atomic charges:   -0.0000000

LOEWDIN ATOMIC CHARGES
----------------------
   0 C :   -0.272523
   1 N :    0.106495
   2 C :   -0.295824
   3 C :   -0.364548
   4 H :    0.151212
   5 H :    0.152357
   6 S :    0.566188
   7 C :   -0.472024
   8 N :   -0.032005
   9 C :   -0.335792
  10 H :    0.079505
  11 H :    0.100897
  12 H :    0.180387
  13 H :    0.160239
  14 H :    0.176789
  15 O :   -0.268407
  16 O :   -0.274763
  17 F :    0.065741
  18 H :    0.150934
  19 H :    0.144611
  20 H :    0.143015
  21 H :    0.137517

  Mayer bond orders larger than 0.100000
B(  0-C ,  1-N ) :   0.8487 B(  0-C ,  2-C ) :   0.9136 B(  0-C , 20-H ) :   0.9780
B(  0-C , 21-H ) :   0.9856 B(  1-N ,  7-C ) :   1.0964 B(  1-N , 12-H ) :   0.9315
B(  2-C ,  3-C ) :   0.8979 B(  2-C , 18-H ) :   0.9724 B(  2-C , 19-H ) :   0.9646
B(  3-C ,  4-H ) :   0.9365 B(  3-C ,  5-H ) :   0.9458 B(  3-C ,  6-S ) :   0.9253
B(  6-S , 15-O ) :   1.9339 B(  6-S , 16-O ) :   1.9122 B(  6-S , 17-F ) :   1.0484
B(  7-C ,  8-N ) :   1.0012 B(  7-C ,  9-C ) :   1.5669 B(  8-N , 13-H ) :   0.9318
B(  8-N , 14-H ) :   0.9268 B(  9-C , 10-H ) :   1.0613 B(  9-C , 11-H ) :   1.0114

Dispersion correction           -0.000933801
FINAL SINGLE POINT ENERGY      -955.055718633502

DIPOLE MOMENT
-------------
                                X             Y             Z
Electronic contribution:    -12.57772      -2.62747      -2.41521
Nuclear contribution   :     14.72648       3.38697       3.27638
                        -----------------------------------------
Total Dipole Moment    :      2.14876       0.75950       0.86117
                        -----------------------------------------
Magnitude (a.u.)       :      2.43631
Magnitude (Debye)      :      6.19262

Rotational constants in cm-1:     0.059651     0.020833     0.018010
Rotational constants in MHz :  1788.283887   624.555661   539.921162

                             ****ORCA TERMINATED NORMALLY****
TOTAL RUN TIME: 0 days 0 hours 0 minutes 41 seconds 429 msec
