                         Program Version 5.0.0 -  RELEASE  -
|  1> !wB97X-D3 RIJCOSX def2-TZVPD def2/J TightSCF
|  2> *xyz -1 1
|  3> C          3.84189       -6.95161       -3.63283
|  4> S          4.31812       -6.91593       -5.36869
|  5> O          5.40615       -5.89948       -5.51297
|  6> O          3.11191       -6.44508       -6.04379
|  7> O          4.76340       -8.23942       -5.69863
|  8> H          3.06224       -7.67071       -3.49159
|  9> H          3.49217       -5.98401       -3.33897
| 10> H          4.68822       -7.22131       -3.03626
| 11> *
| 12>
| 13> %MaxCore 64000
| 14>
| 15> %pal nprocs 8
| 16> end
| 17>
| 18> %scf
| 19>   MaxIter 150
| 20> end
| 21>
| 22>
| 23>                          ****END OF INPUT****

CARTESIAN COORDINATES (ANGSTROEM)
---------------------------------
  C      3.841890   -6.951610   -3.632830
  S      4.318120   -6.915930   -5.368690
  O      5.406150   -5.899480   -5.512970
  O      3.111910   -6.445080   -6.043790
  O      4.763400   -8.239420   -5.698630
  H      3.062240   -7.670710   -3.491590
  H      3.492170   -5.984010   -3.338970
  H      4.688220   -7.221310   -3.036260

 Total Charge           Charge          ....   -1
 Multiplicity           Mult            ....    1
 Number of Electrons    NEL             ....   50
 Basis Dimension        Dim             ....  230

ORBITAL ENERGIES
----------------

  NO   OCC          E(Eh)            E(eV)
   0   2.0000     -88.937006     -2420.0990
   1   2.0000     -19.013520      -517.3842
   2   2.0000     -19.003270      -517.1053
   3   2.0000     -18.996773      -516.9285
   4   2.0000     -10.126457      -275.5549
   5   2.0000      -7.999244      -217.6705
   6   2.0000      -5.953723      -162.0090
   7   2.0000      -5.952257      -161.9692
   8   2.0000      -5.951886      -161.9590
   9   2.0000      -1.036259       -28.1980
  10   2.0000      -0.906387       -24.6640
  11   2.0000      -0.877071       -23.8663
  12   2.0000      -0.697988       -18.9932
  13   2.0000      -0.494363       -13.4523
  14   2.0000      -0.398551       -10.8451
  15   2.0000      -0.390190       -10.6176
  16   2.0000      -0.388093       -10.5605
  17   2.0000      -0.344534        -9.3753
  18   2.0000      -0.341152        -9.2832
  19   2.0000      -0.247329        -6.7302
  20   2.0000      -0.245472        -6.6796
  21   2.0000      -0.210855        -5.7376
  22   2.0000      -0.201378        -5.4798
  23   2.0000      -0.192477        -5.2376
  24   2.0000      -0.154902        -4.2151
  25   0.0000       0.176852         4.8124
  26   0.0000       0.188858         5.1391
  27   0.0000       0.189109         5.1459
  28   0.0000       0.200233         5.4486
  29   0.0000       0.238987         6.5032

MULLIKEN ATOMIC CHARGES
-----------------------
   0 C :   -0.891662
   1 S :    1.185310
   2 O :   -0.721536
   3 O :   -0.702099
   4 O :   -0.677381
   5 H :    0.268752
   6 H :    0.265953
   7 H :    0.272663
Sum of atomic charges:   -1.0000000

LOEWDIN ATOMIC CHARGES
----------------------
   0 C :   -0.191623
   1 S :    0.331413
   2 O :   -0.441014
   3 O :   -0.419083
   4 O :   -0.394653
   5 H :    0.038323
   6 H :    0.039150
   7 H :    0.037487

  Mayer bond orders larger than 0.100000
B(  0-C ,  1-S ) :   0.8119 B(  0-C ,  2-O ) :   0.1225 B(  0-C ,  3-O ) :   0.1224
B(  0-C ,  4-O ) :   0.1219 B(  0-C ,  5-H ) :   0.9526 B(  0-C ,  6-H ) :   0.9564
B(  0-C ,  7-H ) :   0.9493 B(  1-S ,  2-O ) :   1.4995 B(  1-S ,  3-O ) :   1.5313
B(  1-S ,  4-O ) :   1.5596

Dispersion correction           -0.001521422
FINAL SINGLE POINT ENERGY      -663.904053164968

DIPOLE MOMENT
-------------
                                X             Y             Z
Electronic contribution:      1.08924      -0.06407      -4.13714
Nuclear contribution   :     -1.53523      -0.17928       5.57610
                        -----------------------------------------
Total Dipole Moment    :     -0.44599      -0.24336       1.43896
                        -----------------------------------------
Magnitude (a.u.)       :      1.52601
Magnitude (Debye)      :      3.87882

Rotational constants in cm-1:     0.172657     0.156250     0.152500
Rotational constants in MHz :  5176.120042  4684.252187  4571.835124

                             ****ORCA TERMINATED NORMALLY****
TOTAL RUN TIME: 0 days 0 hours 0 minutes 19 seconds 823 msec
