                         Program Version 5.0.0 -  RELEASE  -
|  1> !wB97X-D3 RIJCOSX def2-TZVPD def2/J TightSCF
|  2> *xyz 1 1
|  3> C          5.55821       -1.99291       -6.21505
|  4> C          4.18188       -2.58967       -6.29891
|  5> N          3.14587       -1.76843       -6.48675
|  6> N          4.01910       -3.86431       -6.22743
|  7> H          4.76849       -4.59115       -5.99077
|  8> H          3.12241       -4.33339       -6.31462
|  9> H          3.28164       -0.77779       -6.56655
| 10> H          2.21255       -2.13419       -6.56225
| 11> H          5.49055       -0.92791       -6.29315
| 12> H          6.16046       -2.37160       -7.01429
| 13> H          6.00378       -2.25423       -5.27799
| 14> *
| 15>
| 16> %MaxCore 64000
| 17>
| 18> %pal nprocs 8
| 19> end
| 20>
| 21> %scf
| 22>   MaxIter 150
| 23> end
| 24>
| 25>
| 26>                          ****END OF INPUT****

CARTESIAN COORDINATES (ANGSTROEM)
---------------------------------
  C      5.558210   -1.992910   -6.215050
  C      4.181880   -2.589670   -6.298910
  N      3.145870   -1.768430   -6.486750
  N      4.019100   -3.864310   -6.227430
  H      4.768490   -4.591150   -5.990770
  H      3.122410   -4.333390   -6.314620
  H      3.281640   -0.777790   -6.566550
  H      2.212550   -2.134190   -6.562250
  H      5.490550   -0.927910   -6.293150
  H      6.160460   -2.371600   -7.014290
  H      6.003780   -2.254230   -5.277990

 Total Charge           Charge          ....    1
 Multiplicity           Mult            ....    1
 Number of Electrons    NEL             ....   32
 Basis Dimension        Dim             ....  211

ORBITAL ENERGIES
----------------

  NO   OCC          E(Eh)            E(eV)
   0   2.0000     -14.678331      -399.4177
   1   2.0000     -14.667175      -399.1141
   2   2.0000     -10.611336      -288.7491
   3   2.0000     -10.470510      -284.9171
   4   2.0000      -1.327280       -36.1171
   5   2.0000      -1.226893       -33.3855
   6   2.0000      -1.069071       -29.0909
   7   2.0000      -0.955927       -26.0121
   8   2.0000      -0.883122       -24.0310
   9   2.0000      -0.867565       -23.6077
  10   2.0000      -0.799342       -21.7512
  11   2.0000      -0.763828       -20.7848
  12   2.0000      -0.709886       -19.3170
  13   2.0000      -0.698001       -18.9936
  14   2.0000      -0.674010       -18.3407
  15   2.0000      -0.590547       -16.0696
  16   0.0000      -0.130651        -3.5552
  17   0.0000      -0.098014        -2.6671
  18   0.0000      -0.057310        -1.5595
  19   0.0000      -0.052902        -1.4395
  20   0.0000      -0.032030        -0.8716

MULLIKEN ATOMIC CHARGES
-----------------------
   0 C :   -1.123004
   1 C :    0.978918
   2 N :   -0.407179
   3 N :   -0.422434
   4 H :    0.279334
   5 H :    0.216586
   6 H :    0.230923
   7 H :    0.194681
   8 H :    0.338042
   9 H :    0.355363
  10 H :    0.358770
Sum of atomic charges:    1.0000000

LOEWDIN ATOMIC CHARGES
----------------------
   0 C :    0.034253
   1 C :   -0.380980
   2 N :    0.215494
   3 N :    0.202345
   4 H :    0.199740
   5 H :    0.149725
   6 H :    0.139106
   7 H :    0.140798
   8 H :    0.091106
   9 H :    0.104838
  10 H :    0.103574

  Mayer bond orders larger than 0.100000
B(  0-C ,  1-C ) :   0.6869 B(  0-C ,  8-H ) :   0.9327 B(  0-C ,  9-H ) :   0.9006
B(  0-C , 10-H ) :   0.8992 B(  1-C ,  2-N ) :   1.1064 B(  1-C ,  3-N ) :   1.2272
B(  2-N ,  3-N ) :   0.1090 B(  2-N ,  6-H ) :   0.9719 B(  2-N ,  7-H ) :   1.0571
B(  3-N ,  4-H ) :   0.9381 B(  3-N ,  5-H ) :   1.0215

Dispersion correction           -0.001690608
FINAL SINGLE POINT ENERGY      -189.734408366615

DIPOLE MOMENT
-------------
                                X             Y             Z
Electronic contribution:     -1.90454      -0.88911      -0.11600
Nuclear contribution   :      1.48163       0.51565       0.12876
                        -----------------------------------------
Total Dipole Moment    :     -0.42291      -0.37345       0.01276
                        -----------------------------------------
Magnitude (a.u.)       :      0.56434
Magnitude (Debye)      :      1.43444

Rotational constants in cm-1:     0.329497     0.300036     0.161709
Rotational constants in MHz :  9878.065920  8994.849253  4847.907140

                             ****ORCA TERMINATED NORMALLY****
TOTAL RUN TIME: 0 days 0 hours 0 minutes 18 seconds 140 msec
