                         Program Version 5.0.0 -  RELEASE  -
|  1> !wB97X-D3 RIJCOSX def2-TZVPD def2/J TightSCF
|  2> *xyz 0 1
|  3> C          3.84189       -6.95161       -3.63283
|  4> S          4.31812       -6.91593       -5.36869
|  5> F          5.40615       -5.89948       -5.51297
|  6> O          3.11191       -6.44508       -6.04379
|  7> O          4.76340       -8.23942       -5.69863
|  8> H          3.06224       -7.67071       -3.49159
|  9> H          3.49217       -5.98401       -3.33897
| 10> H          4.68822       -7.22131       -3.03626
| 11> *
| 12>
| 13> %MaxCore 64000
| 14>
| 15> %pal nprocs 8
| 16> end
| 17>
| 18> %scf
| 19>   MaxIter 150
| 20> end
| 21>
| 22>
| 23>                          ****END OF INPUT****

CARTESIAN COORDINATES (ANGSTROEM)
---------------------------------
  C      3.841890   -6.951610   -3.632830
  S      4.318120   -6.915930   -5.368690
  F      5.406150   -5.899480   -5.512970
  O      3.111910   -6.445080   -6.043790
  O      4.763400   -8.239420   -5.698630
  H      3.062240   -7.670710   -3.491590
  H      3.492170   -5.984010   -3.338970
  H      4.688220   -7.221310   -3.036260

 Total Charge           Charge          ....    0
 Multiplicity           Mult            ....    1
 Number of Electrons    NEL             ....   50
 Basis Dimension        Dim             ....  230

ORBITAL ENERGIES
----------------

  NO   OCC          E(Eh)            E(eV)
   0   2.0000     -89.202522     -2427.3240
   1   2.0000     -24.888684      -677.2555
   2   2.0000     -19.252855      -523.8968
   3   2.0000     -19.242237      -523.6079
   4   2.0000     -10.334610      -281.2190
   5   2.0000      -8.265162      -224.9065
   6   2.0000      -6.222539      -169.3239
   7   2.0000      -6.216765      -169.1668
   8   2.0000      -6.215523      -169.1330
   9   2.0000      -1.463883       -39.8343
  10   2.0000      -1.233487       -33.5649
  11   2.0000      -1.139284       -31.0015
  12   2.0000      -0.915866       -24.9220
  13   2.0000      -0.810351       -22.0508
  14   2.0000      -0.691750       -18.8235
  15   2.0000      -0.667899       -18.1744
  16   2.0000      -0.657970       -17.9043
  17   2.0000      -0.581004       -15.8099
  18   2.0000      -0.578024       -15.7288
  19   2.0000      -0.567579       -15.4446
  20   2.0000      -0.543195       -14.7811
  21   2.0000      -0.492216       -13.3939
  22   2.0000      -0.443695       -12.0735
  23   2.0000      -0.432139       -11.7591
  24   2.0000      -0.418636       -11.3917
  25   0.0000       0.048964         1.3324
  26   0.0000       0.063762         1.7351
  27   0.0000       0.070504         1.9185
  28   0.0000       0.072030         1.9600
  29   0.0000       0.101108         2.7513

MULLIKEN ATOMIC CHARGES
-----------------------
   0 C :   -0.914212
   1 S :    1.238262
   2 F :   -0.165509
   3 O :   -0.580847
   4 O :   -0.560088
   5 H :    0.318375
   6 H :    0.329253
   7 H :    0.334766
Sum of atomic charges:   -0.0000000

LOEWDIN ATOMIC CHARGES
----------------------
   0 C :   -0.119358
   1 S :    0.591738
   2 F :   -0.094114
   3 O :   -0.299507
   4 O :   -0.275997
   5 H :    0.072886
   6 H :    0.063012
   7 H :    0.061341

  Mayer bond orders larger than 0.100000
B(  0-C ,  1-S ) :   0.8141 B(  0-C ,  3-O ) :   0.1039 B(  0-C ,  4-O ) :   0.1067
B(  0-C ,  5-H ) :   0.9197 B(  0-C ,  6-H ) :   0.9077 B(  0-C ,  7-H ) :   0.9015
B(  1-S ,  2-F ) :   0.9510 B(  1-S ,  3-O ) :   1.6793 B(  1-S ,  4-O ) :   1.7115

Dispersion correction           -0.001526478
FINAL SINGLE POINT ENERGY      -688.438482689203

DIPOLE MOMENT
-------------
                                X             Y             Z
Electronic contribution:      2.91204       1.61670      -4.31920
Nuclear contribution   :     -2.64549      -1.17311       5.81218
                        -----------------------------------------
Total Dipole Moment    :      0.26655       0.44359       1.49298
                        -----------------------------------------
Magnitude (a.u.)       :      1.58014
Magnitude (Debye)      :      4.01638

Rotational constants in cm-1:     0.165958     0.149400     0.146699
Rotational constants in MHz :  4975.281722  4478.884828  4397.931002

                             ****ORCA TERMINATED NORMALLY****
TOTAL RUN TIME: 0 days 0 hours 0 minutes 19 seconds 693 msec
