                         Program Version 5.0.0 -  RELEASE  -
|  1> !wB97X-D3 RIJCOSX def2-TZVPD def2/J TightSCF
|  2> *xyz 0 1
|  3> C          5.55821       -1.99291       -6.21505
|  4> C          4.18188       -2.58967       -6.29891
|  5> C          3.14587       -1.76843       -6.48675
|  6> N          4.01910       -3.86431       -6.22743
|  7> H          4.76849       -4.59115       -5.99077
|  8> H          3.12241       -4.33339       -6.31462
|  9> H          3.28164       -0.77779       -6.56655
| 10> H          2.21255       -2.13419       -6.56225
| 11> H          5.49055       -0.92791       -6.29315
| 12> H          6.16046       -2.37160       -7.01429
| 13> H          6.00378       -2.25423       -5.27799
| 14> *
| 15>
| 16> %MaxCore 64000
| 17>
| 18> %pal nprocs 8
| 19> end
| 20>
| 21> %scf
| 22>   MaxIter 150
| 23> end
| 24>
| 25>
| 26>                          ****END OF INPUT****

CARTESIAN COORDINATES (ANGSTROEM)
---------------------------------
  C      5.558210   -1.992910   -6.215050
  C      4.181880   -2.589670   -6.298910
  C      3.145870   -1.768430   -6.486750
  N      4.019100   -3.864310   -6.227430
  H      4.768490   -4.591150   -5.990770
  H      3.122410   -4.333390   -6.314620
  H      3.281640   -0.777790   -6.566550
  H      2.212550   -2.134190   -6.562250
  H      5.490550   -0.927910   -6.293150
  H      6.160460   -2.371600   -7.014290
  H      6.003780   -2.254230   -5.277990

 Total Charge           Charge          ....    0
 Multiplicity           Mult            ....    1
 Number of Electrons    NEL             ....   32
 Basis Dimension        Dim             ....  211

ORBITAL ENERGIES
----------------

  NO   OCC          E(Eh)            E(eV)
   0   2.0000     -14.430003      -392.6604
   1   2.0000     -10.301247      -280.3112
   2   2.0000     -10.262562      -279.2585
   3   2.0000     -10.200586      -277.5721
   4   2.0000      -1.051228       -28.6054
   5   2.0000      -0.870453       -23.6862
   6   2.0000      -0.798026       -21.7154
   7   2.0000      -0.692003       -18.8303
   8   2.0000      -0.614126       -16.7112
   9   2.0000      -0.575396       -15.6573
  10   2.0000      -0.533607       -14.5202
  11   2.0000      -0.495360       -13.4794
  12   2.0000      -0.486244       -13.2314
  13   2.0000      -0.443773       -12.0757
  14   2.0000      -0.436723       -11.8838
  15   2.0000      -0.273582        -7.4445
  16   0.0000       0.067304         1.8314
  17   0.0000       0.096180         2.6172
  18   0.0000       0.100005         2.7213
  19   0.0000       0.117778         3.2049
  20   0.0000       0.131340         3.5739

MULLIKEN ATOMIC CHARGES
-----------------------
   0 C :   -1.169130
   1 C :    1.195198
   2 C :   -1.519183
   3 N :   -0.489235
   4 H :    0.211079
   5 H :    0.171430
   6 H :    0.320594
   7 H :    0.338507
   8 H :    0.286890
   9 H :    0.321937
  10 H :    0.331912
Sum of atomic charges:   -0.0000000

LOEWDIN ATOMIC CHARGES
----------------------
   0 C :   -0.042985
   1 C :   -0.542463
   2 C :    0.009831
   3 N :    0.069810
   4 H :    0.149494
   5 H :    0.113556
   6 H :    0.009780
   7 H :    0.013532
   8 H :    0.071625
   9 H :    0.074632
  10 H :    0.073187

  Mayer bond orders larger than 0.100000
B(  0-C ,  1-C ) :   0.5124 B(  0-C ,  8-H ) :   0.9806 B(  0-C ,  9-H ) :   0.9336
B(  0-C , 10-H ) :   0.9271 B(  1-C ,  2-C ) :   0.9196 B(  1-C ,  3-N ) :   1.1087
B(  1-C ,  7-H ) :  -0.1110 B(  2-C ,  3-N ) :   0.1246 B(  2-C ,  6-H ) :   0.9418
B(  2-C ,  7-H ) :   0.9845 B(  3-N ,  4-H ) :   0.9955 B(  3-N ,  5-H ) :   1.0186

Dispersion correction           -0.001701739
FINAL SINGLE POINT ENERGY      -173.260800317151

DIPOLE MOMENT
-------------
                                X             Y             Z
Electronic contribution:     -0.87294      -1.47961       0.04252
Nuclear contribution   :      1.24351       0.69391       0.08872
                        -----------------------------------------
Total Dipole Moment    :      0.37058      -0.78570       0.13123
                        -----------------------------------------
Magnitude (a.u.)       :      0.87856
Magnitude (Debye)      :      2.23313

Rotational constants in cm-1:     0.350694     0.303314     0.167659
Rotational constants in MHz : 10513.535482  9093.138449  5026.287342

                             ****ORCA TERMINATED NORMALLY****
TOTAL RUN TIME: 0 days 0 hours 0 minutes 19 seconds 131 msec
