                         Program Version 5.0.0 -  RELEASE  -
|  1> !wB97X-D3 RIJCOSX def2-TZVPD def2/J TightSCF
|  2> *xyz 0 1
|  3> C          3.84189       -6.95161       -3.63283
|  4> S          4.31812       -6.91593       -5.36869
|  5> O          5.40615       -5.89948       -5.51297
|  6> F          3.11191       -6.44508       -6.04379
|  7> O          4.76340       -8.23942       -5.69863
|  8> H          3.06224       -7.67071       -3.49159
|  9> H          3.49217       -5.98401       -3.33897
| 10> H          4.68822       -7.22131       -3.03626
| 11> *
| 12>
| 13> %MaxCore 64000
| 14>
| 15> %pal nprocs 8
| 16> end
| 17>
| 18> %scf
| 19>   MaxIter 150
| 20> end
| 21>
| 22>
| 23>                          ****END OF INPUT****

CARTESIAN COORDINATES (ANGSTROEM)
---------------------------------
  C      3.841890   -6.951610   -3.632830
  S      4.318120   -6.915930   -5.368690
  O      5.406150   -5.899480   -5.512970
  F      3.111910   -6.445080   -6.043790
  O      4.763400   -8.239420   -5.698630
  H      3.062240   -7.670710   -3.491590
  H      3.492170   -5.984010   -3.338970
  H      4.688220   -7.221310   -3.036260

 Total Charge           Charge          ....    0
 Multiplicity           Mult            ....    1
 Number of Electrons    NEL             ....   50
 Basis Dimension        Dim             ....  230

ORBITAL ENERGIES
----------------

  NO   OCC          E(Eh)            E(eV)
   0   2.0000     -89.204539     -2427.3789
   1   2.0000     -24.902977      -677.6445
   2   2.0000     -19.252737      -523.8936
   3   2.0000     -19.235636      -523.4283
   4   2.0000     -10.335560      -281.2449
   5   2.0000      -8.267135      -224.9602
   6   2.0000      -6.224613      -169.3803
   7   2.0000      -6.218415      -169.2117
   8   2.0000      -6.217668      -169.1913
   9   2.0000      -1.490483       -40.5581
  10   2.0000      -1.227213       -33.3942
  11   2.0000      -1.121338       -30.5132
  12   2.0000      -0.920315       -25.0430
  13   2.0000      -0.822543       -22.3825
  14   2.0000      -0.703378       -19.1399
  15   2.0000      -0.686697       -18.6860
  16   2.0000      -0.662412       -18.0251
  17   2.0000      -0.581801       -15.8316
  18   2.0000      -0.578997       -15.7553
  19   2.0000      -0.565451       -15.3867
  20   2.0000      -0.538740       -14.6599
  21   2.0000      -0.489664       -13.3244
  22   2.0000      -0.441670       -12.0185
  23   2.0000      -0.424339       -11.5468
  24   2.0000      -0.406295       -11.0558
  25   0.0000       0.048448         1.3183
  26   0.0000       0.062958         1.7132
  27   0.0000       0.069944         1.9033
  28   0.0000       0.073327         1.9953
  29   0.0000       0.106282         2.8921

MULLIKEN ATOMIC CHARGES
-----------------------
   0 C :   -0.917881
   1 S :    1.216965
   2 O :   -0.592422
   3 F :   -0.141369
   4 O :   -0.552283
   5 H :    0.336876
   6 H :    0.332391
   7 H :    0.317723
Sum of atomic charges:    0.0000000

LOEWDIN ATOMIC CHARGES
----------------------
   0 C :   -0.118941
   1 S :    0.589003
   2 O :   -0.319054
   3 F :   -0.072519
   4 O :   -0.276234
   5 H :    0.062675
   6 H :    0.062743
   7 H :    0.072326

  Mayer bond orders larger than 0.100000
B(  0-C ,  1-S ) :   0.8141 B(  0-C ,  2-O ) :   0.1052 B(  0-C ,  4-O ) :   0.1059
B(  0-C ,  5-H ) :   0.9010 B(  0-C ,  6-H ) :   0.9039 B(  0-C ,  7-H ) :   0.9222
B(  1-S ,  2-O ) :   1.6456 B(  1-S ,  3-F ) :   0.9906 B(  1-S ,  4-O ) :   1.7165

Dispersion correction           -0.001533927
FINAL SINGLE POINT ENERGY      -688.428056239609

DIPOLE MOMENT
-------------
                                X             Y             Z
Electronic contribution:     -0.94642       0.69034      -5.21908
Nuclear contribution   :     -0.35339      -0.62802       6.34251
                        -----------------------------------------
Total Dipole Moment    :     -1.29982       0.06233       1.12343
                        -----------------------------------------
Magnitude (a.u.)       :      1.71916
Magnitude (Debye)      :      4.36975

Rotational constants in cm-1:     0.162638     0.154373     0.145390
Rotational constants in MHz :  4875.774584  4627.990015  4358.691210

                             ****ORCA TERMINATED NORMALLY****
TOTAL RUN TIME: 0 days 0 hours 0 minutes 19 seconds 885 msec
