                         Program Version 5.0.0 -  RELEASE  -
|  1> !wB97X-D3 RIJCOSX def2-TZVPD def2/J TightSCF
|  2> *xyz 0 1
|  3> C          5.55821       -1.99291       -6.21505
|  4> C          4.18188       -2.58967       -6.29891
|  5> N          3.14587       -1.76843       -6.48675
|  6> C          4.01910       -3.86431       -6.22743
|  7> H          4.76849       -4.59115       -5.99077
|  8> H          3.12241       -4.33339       -6.31462
|  9> H          3.28164       -0.77779       -6.56655
| 10> H          2.21255       -2.13419       -6.56225
| 11> H          5.49055       -0.92791       -6.29315
| 12> H          6.16046       -2.37160       -7.01429
| 13> H          6.00378       -2.25423       -5.27799
| 14> *
| 15>
| 16> %MaxCore 64000
| 17>
| 18> %pal nprocs 8
| 19> end
| 20>
| 21> %scf
| 22>   MaxIter 150
| 23> end
| 24>
| 25>
| 26>                          ****END OF INPUT****

CARTESIAN COORDINATES (ANGSTROEM)
---------------------------------
  C      5.558210   -1.992910   -6.215050
  C      4.181880   -2.589670   -6.298910
  N      3.145870   -1.768430   -6.486750
  C      4.019100   -3.864310   -6.227430
  H      4.768490   -4.591150   -5.990770
  H      3.122410   -4.333390   -6.314620
  H      3.281640   -0.777790   -6.566550
  H      2.212550   -2.134190   -6.562250
  H      5.490550   -0.927910   -6.293150
  H      6.160460   -2.371600   -7.014290
  H      6.003780   -2.254230   -5.277990

 Total Charge           Charge          ....    0
 Multiplicity           Mult            ....    1
 Number of Electrons    NEL             ....   32
 Basis Dimension        Dim             ....  211

ORBITAL ENERGIES
----------------

  NO   OCC          E(Eh)            E(eV)
   0   2.0000     -14.419005      -392.3611
   1   2.0000     -10.298175      -280.2276
   2   2.0000     -10.263250      -279.2772
   3   2.0000     -10.206441      -277.7314
   4   2.0000      -1.041420       -28.3385
   5   2.0000      -0.874043       -23.7839
   6   2.0000      -0.804201       -21.8834
   7   2.0000      -0.674586       -18.3564
   8   2.0000      -0.627431       -17.0733
   9   2.0000      -0.579718       -15.7749
  10   2.0000      -0.531133       -14.4529
  11   2.0000      -0.492642       -13.4055
  12   2.0000      -0.490065       -13.3353
  13   2.0000      -0.439799       -11.9675
  14   2.0000      -0.431430       -11.7398
  15   2.0000      -0.280739        -7.6393
  16   0.0000       0.069989         1.9045
  17   0.0000       0.097571         2.6551
  18   0.0000       0.100231         2.7274
  19   0.0000       0.117280         3.1914
  20   0.0000       0.133248         3.6259

MULLIKEN ATOMIC CHARGES
-----------------------
   0 C :   -1.076563
   1 C :    1.155534
   2 N :   -0.465733
   3 C :   -1.449752
   4 H :    0.281600
   5 H :    0.321720
   6 H :    0.186058
   7 H :    0.157957
   8 H :    0.327038
   9 H :    0.276008
  10 H :    0.286132
Sum of atomic charges:    0.0000000

LOEWDIN ATOMIC CHARGES
----------------------
   0 C :   -0.037995
   1 C :   -0.526666
   2 N :    0.086024
   3 C :   -0.019455
   4 H :    0.058276
   5 H :    0.019608
   6 H :    0.094023
   7 H :    0.105695
   8 H :    0.063467
   9 H :    0.078691
  10 H :    0.078332

  Mayer bond orders larger than 0.100000
B(  0-C ,  1-C ) :   0.5867 B(  0-C ,  8-H ) :   0.9687 B(  0-C ,  9-H ) :   0.9514
B(  0-C , 10-H ) :   0.9545 B(  1-C ,  2-N ) :   0.9654 B(  1-C ,  3-C ) :   1.0182
B(  1-C ,  5-H ) :  -0.1495 B(  2-N ,  3-C ) :   0.1226 B(  2-N ,  6-H ) :   1.0274
B(  2-N ,  7-H ) :   1.0544 B(  3-C ,  4-H ) :   0.9710 B(  3-C ,  5-H ) :   1.0489

Dispersion correction           -0.001688502
FINAL SINGLE POINT ENERGY      -173.269903776449

DIPOLE MOMENT
-------------
                                X             Y             Z
Electronic contribution:     -1.61698       0.42664      -0.20940
Nuclear contribution   :      1.43935       0.22387       0.14687
                        -----------------------------------------
Total Dipole Moment    :     -0.17763       0.65051      -0.06252
                        -----------------------------------------
Magnitude (a.u.)       :      0.67722
Magnitude (Debye)      :      1.72136

Rotational constants in cm-1:     0.350137     0.303099     0.167465
Rotational constants in MHz : 10496.847516  9086.685989  5020.487860

                             ****ORCA TERMINATED NORMALLY****
TOTAL RUN TIME: 0 days 0 hours 0 minutes 19 seconds 42 msec
