                         Program Version 5.0.0 -  RELEASE  -
|  1> !wB97X-D3 RIJCOSX def2-TZVPD def2/J TightSCF
|  2> *xyz 0 1
|  3> C          3.84189       -6.95161       -3.63283
|  4> S          4.31812       -6.91593       -5.36869
|  5> O          5.40615       -5.89948       -5.51297
|  6> O          3.11191       -6.44508       -6.04379
|  7> F          4.76340       -8.23942       -5.69863
|  8> H          3.06224       -7.67071       -3.49159
|  9> H          3.49217       -5.98401       -3.33897
| 10> H          4.68822       -7.22131       -3.03626
| 11> *
| 12>
| 13> %MaxCore 64000
| 14>
| 15> %pal nprocs 8
| 16> end
| 17>
| 18> %scf
| 19>   MaxIter 150
| 20> end
| 21>
| 22>
| 23>                          ****END OF INPUT****

CARTESIAN COORDINATES (ANGSTROEM)
---------------------------------
  C      3.841890   -6.951610   -3.632830
  S      4.318120   -6.915930   -5.368690
  O      5.406150   -5.899480   -5.512970
  O      3.111910   -6.445080   -6.043790
  F      4.763400   -8.239420   -5.698630
  H      3.062240   -7.670710   -3.491590
  H      3.492170   -5.984010   -3.338970
  H      4.688220   -7.221310   -3.036260

 Total Charge           Charge          ....    0
 Multiplicity           Mult            ....    1
 Number of Electrons    NEL             ....   50
 Basis Dimension        Dim             ....  230

ORBITAL ENERGIES
----------------

  NO   OCC          E(Eh)            E(eV)
   0   2.0000     -89.205946     -2427.4172
   1   2.0000     -24.917773      -678.0471
   2   2.0000     -19.242735      -523.6214
   3   2.0000     -19.236249      -523.4450
   4   2.0000     -10.335862      -281.2531
   5   2.0000      -8.268534      -224.9982
   6   2.0000      -6.225930      -169.4162
   7   2.0000      -6.219802      -169.2494
   8   2.0000      -6.219058      -169.2292
   9   2.0000      -1.513274       -41.1783
  10   2.0000      -1.215386       -33.0723
  11   2.0000      -1.113602       -30.3026
  12   2.0000      -0.920324       -25.0433
  13   2.0000      -0.834592       -22.7104
  14   2.0000      -0.715748       -19.4765
  15   2.0000      -0.702786       -19.1238
  16   2.0000      -0.664261       -18.0755
  17   2.0000      -0.581246       -15.8165
  18   2.0000      -0.575391       -15.6572
  19   2.0000      -0.567318       -15.4375
  20   2.0000      -0.533640       -14.5211
  21   2.0000      -0.482680       -13.1344
  22   2.0000      -0.430879       -11.7248
  23   2.0000      -0.423045       -11.5117
  24   2.0000      -0.399425       -10.8689
  25   0.0000       0.046755         1.2723
  26   0.0000       0.061969         1.6863
  27   0.0000       0.069422         1.8891
  28   0.0000       0.073543         2.0012
  29   0.0000       0.105640         2.8746

MULLIKEN ATOMIC CHARGES
-----------------------
   0 C :   -0.915804
   1 S :    1.207281
   2 O :   -0.588331
   3 O :   -0.569299
   4 F :   -0.117912
   5 H :    0.336052
   6 H :    0.311710
   7 H :    0.336302
Sum of atomic charges:    0.0000000

LOEWDIN ATOMIC CHARGES
----------------------
   0 C :   -0.120304
   1 S :    0.589038
   2 O :   -0.318229
   3 O :   -0.299061
   4 F :   -0.048887
   5 H :    0.062529
   6 H :    0.073378
   7 H :    0.061536

  Mayer bond orders larger than 0.100000
B(  0-C ,  1-S ) :   0.8181 B(  0-C ,  2-O ) :   0.1053 B(  0-C ,  3-O ) :   0.1049
B(  0-C ,  5-H ) :   0.9010 B(  0-C ,  6-H ) :   0.9267 B(  0-C ,  7-H ) :   0.9010
B(  1-S ,  2-O ) :   1.6520 B(  1-S ,  3-O ) :   1.6900 B(  1-S ,  4-F ) :   1.0201

Dispersion correction           -0.001530844
FINAL SINGLE POINT ENERGY      -688.415580761753

DIPOLE MOMENT
-------------
                                X             Y             Z
Electronic contribution:      1.81811      -2.29983      -4.63734
Nuclear contribution   :     -2.00334       1.16464       5.99767
                        -----------------------------------------
Total Dipole Moment    :     -0.18523      -1.13519       1.36032
                        -----------------------------------------
Magnitude (a.u.)       :      1.78141
Magnitude (Debye)      :      4.52800

Rotational constants in cm-1:     0.163678     0.154408     0.144413
Rotational constants in MHz :  4906.945035  4629.020676  4329.393152

                             ****ORCA TERMINATED NORMALLY****
TOTAL RUN TIME: 0 days 0 hours 0 minutes 19 seconds 706 msec
