                         Program Version 5.0.0 -  RELEASE  -
|  1> !wB97X-D3 RIJCOSX def2-TZVPD def2/J TightSCF xyzfile
|  2>
|  3> *xyzfile 0 1 D1.xyz
|  4>
|  5> %MaxCore 64000
|  6>
|  7> %pal nprocs 18
|  8> end
|  9>
| 10> %scf
| 11>   MaxIter 150
| 12> end
| 13>
| 14>
| 15>                          ****END OF INPUT****

CARTESIAN COORDINATES (ANGSTROEM)
---------------------------------
  C      5.558206   -1.992914   -6.215054
  C      4.930199   -7.375319   -2.649623
  C      3.841892   -6.951611   -3.632829
  H      3.458144   -5.954425   -3.407121
  H      2.988484   -7.643606   -3.567078
  S      4.318115   -6.915930   -5.368692
  C      4.181880   -2.589671   -6.298911
  C      3.145873   -1.768431   -6.486753
  N      4.019102   -3.864307   -6.227427
  H      4.768490   -4.591153   -5.990773
  H      3.122405   -4.333392   -6.314620
  H      3.281635   -0.777786   -6.566549
  H      2.212549   -2.134193   -6.562246
  F      5.406154   -5.899480   -5.512972
  O      3.111910   -6.445079   -6.043792
  C      6.419260   -2.542944   -5.077630
  C      5.872267   -5.002756   -2.427819
  C      6.173994   -6.485522   -2.606315
  H      6.734852   -6.613767   -3.534015
  H      6.821463   -6.831018   -1.793617
  H      4.469612   -7.406168   -1.655876
  H      5.230134   -8.398678   -2.885906
  C      5.896512   -2.169314   -3.694552
  H      7.428880   -2.143665   -5.208078
  H      6.505894   -3.627541   -5.175502
  C      6.807804   -2.623428   -2.551019
  H      4.894708   -2.589732   -3.557501
  H      5.778823   -1.081255   -3.635790
  C      7.111544   -4.122463   -2.520363
  H      7.751615   -2.071393   -2.614406
  H      6.345837   -2.326401   -1.604086
  H      5.362882   -4.828697   -1.471335
  H      5.174429   -4.702577   -3.211298
  H      7.778329   -4.329347   -1.677651
  H      7.673189   -4.402845   -3.417586
  O      4.763396   -8.239424   -5.698629
  H      6.036826   -2.198189   -7.176852
  H      5.467610   -0.907371   -6.127968

 Total Charge           Charge          ....    0
 Multiplicity           Mult            ....    1
 Number of Electrons    NEL             ....  136
 Basis Dimension        Dim             ....  808

ORBITAL ENERGIES
----------------

  NO   OCC          E(Eh)            E(eV)
   0   2.0000     -89.213585     -2427.6251
   1   2.0000     -24.915132      -677.9752
   2   2.0000     -19.266334      -524.2636
   3   2.0000     -19.258866      -524.0604
   4   2.0000     -14.404754      -391.9733
   5   2.0000     -10.349395      -281.6214
   6   2.0000     -10.311921      -280.6016
   7   2.0000     -10.295510      -280.1551
   8   2.0000     -10.287374      -279.9337
   9   2.0000     -10.286561      -279.9116
  10   2.0000     -10.279525      -279.7201
  11   2.0000     -10.274197      -279.5751
  12   2.0000     -10.273325      -279.5514
  13   2.0000     -10.268984      -279.4333
  14   2.0000     -10.267887      -279.4034
  15   2.0000     -10.190154      -277.2882
  16   2.0000      -8.277500      -225.2422
  17   2.0000      -6.235319      -169.6716
  18   2.0000      -6.228317      -169.4811
  19   2.0000      -6.227762      -169.4660
  20   2.0000      -1.496386       -40.7187
  21   2.0000      -1.249839       -34.0098
  22   2.0000      -1.156116       -31.4595
  23   2.0000      -1.037443       -28.2303
  24   2.0000      -0.971250       -26.4291
  25   2.0000      -0.938402       -25.5352
  26   2.0000      -0.909468       -24.7479
  27   2.0000      -0.876511       -23.8511
  28   2.0000      -0.855684       -23.2844
  29   2.0000      -0.825913       -22.4742
  30   2.0000      -0.812541       -22.1104
  31   2.0000      -0.772871       -21.0309
  32   2.0000      -0.735420       -20.0118
  33   2.0000      -0.725018       -19.7287
  34   2.0000      -0.720012       -19.5925
  35   2.0000      -0.694325       -18.8935
  36   2.0000      -0.679657       -18.4944
  37   2.0000      -0.668853       -18.2004
  38   2.0000      -0.662935       -18.0394
  39   2.0000      -0.614470       -16.7206
  40   2.0000      -0.606926       -16.5153
  41   2.0000      -0.593951       -16.1622
  42   2.0000      -0.587053       -15.9745
  43   2.0000      -0.578175       -15.7329
  44   2.0000      -0.567490       -15.4422
  45   2.0000      -0.564115       -15.3503
  46   2.0000      -0.553891       -15.0722
  47   2.0000      -0.534920       -14.5559
  48   2.0000      -0.531627       -14.4663
  49   2.0000      -0.521701       -14.1962
  50   2.0000      -0.509563       -13.8659
  51   2.0000      -0.506734       -13.7889
  52   2.0000      -0.491516       -13.3748
  53   2.0000      -0.476118       -12.9558
  54   2.0000      -0.471475       -12.8295
  55   2.0000      -0.466061       -12.6822
  56   2.0000      -0.463685       -12.6175
  57   2.0000      -0.452774       -12.3206
  58   2.0000      -0.450473       -12.2580
  59   2.0000      -0.440012       -11.9733
  60   2.0000      -0.435425       -11.8485
  61   2.0000      -0.431339       -11.7373
  62   2.0000      -0.430537       -11.7155
  63   2.0000      -0.422732       -11.5031
  64   2.0000      -0.411455       -11.1963
  65   2.0000      -0.404917       -11.0184
  66   2.0000      -0.401322       -10.9205
  67   2.0000      -0.261324        -7.1110
  68   0.0000       0.045939         1.2501
  69   0.0000       0.054680         1.4879
  70   0.0000       0.064564         1.7569
  71   0.0000       0.066868         1.8196
  72   0.0000       0.078189         2.1276

MULLIKEN ATOMIC CHARGES
-----------------------
   0 C :   -0.566225
   1 C :   -0.712601
   2 C :   -0.586912
   3 H :    0.381712
   4 H :    0.450195
   5 S :    1.107491
   6 C :    1.082144
   7 C :   -1.870288
   8 N :   -0.189549
   9 H :    0.099536
  10 H :    0.175245
  11 H :    0.377472
  12 H :    0.408562
  13 F :   -0.281286
  14 O :   -0.668732
  15 C :   -0.250327
  16 C :    0.141382
  17 C :   -0.549991
  18 H :    0.200509
  19 H :    0.367871
  20 H :    0.323906
  21 H :    0.262282
  22 C :   -0.262480
  23 H :    0.313428
  24 H :   -0.087353
  25 C :   -0.840845
  26 H :    0.216263
  27 H :    0.304474
  28 C :   -0.575781
  29 H :    0.320431
  30 H :    0.302855
  31 H :    0.347073
  32 H :   -0.362796
  33 H :    0.335124
  34 H :    0.295607
  35 O :   -0.573032
  36 H :    0.266439
  37 H :    0.298196
Sum of atomic charges:    0.0000000

LOEWDIN ATOMIC CHARGES
----------------------
   0 C :   -0.144826
   1 C :   -0.220189
   2 C :   -0.217095
   3 H :    0.105960
   4 H :    0.124993
   5 S :    0.640225
   6 C :   -0.490737
   7 C :    0.022803
   8 N :    0.104584
   9 H :    0.069142
  10 H :    0.097716
  11 H :    0.009656
  12 H :    0.015688
  13 F :   -0.115416
  14 O :   -0.279240
  15 C :   -0.207494
  16 C :   -0.222022
  17 C :   -0.213699
  18 H :    0.106520
  19 H :    0.122552
  20 H :    0.122095
  21 H :    0.114916
  22 C :   -0.210370
  23 H :    0.119561
  24 H :    0.086135
  25 C :   -0.210712
  26 H :    0.109458
  27 H :    0.119443
  28 C :   -0.214922
  29 H :    0.111347
  30 H :    0.111000
  31 H :    0.132220
  32 H :    0.079809
  33 H :    0.115744
  34 H :    0.109257
  35 O :   -0.242760
  36 H :    0.121998
  37 H :    0.116661

  Mayer bond orders larger than 0.100000
B(  0-C ,  6-C ) :   0.7543 B(  0-C , 15-C ) :   0.8160 B(  0-C , 22-C ) :   0.1679
B(  0-C , 24-H ) :   0.1048 B(  0-C , 36-H ) :   0.9151 B(  0-C , 37-H ) :   0.8824
B(  1-C ,  2-C ) :   1.0915 B(  1-C ,  5-S ) :   0.2140 B(  1-C , 16-C ) :   0.2651
B(  1-C , 17-C ) :   0.9172 B(  1-C , 20-H ) :   0.8969 B(  1-C , 21-H ) :   0.9515
B(  2-C ,  3-H ) :   0.8686 B(  2-C ,  4-H ) :   0.7517 B(  2-C ,  5-S ) :   0.7913
B(  2-C , 14-O ) :   0.1080 B(  2-C , 32-H ) :   0.1074 B(  2-C , 35-O ) :   0.1005
B(  5-S , 13-F ) :   1.1268 B(  5-S , 14-O ) :   1.5621 B(  5-S , 35-O ) :   1.4717
B(  6-C ,  7-C ) :   0.7411 B(  6-C ,  8-N ) :   1.0702 B(  6-C ,  9-H ) :  -0.1114
B(  6-C , 10-H ) :  -0.1025 B(  6-C , 22-C ) :   0.1537 B(  7-C , 11-H ) :   0.9479
B(  7-C , 12-H ) :   0.8607 B(  8-N ,  9-H ) :   1.0167 B(  8-N , 10-H ) :   0.9659
B(  8-N , 15-C ) :   0.1303 B( 15-C , 22-C ) :   0.5591 B( 15-C , 23-H ) :   0.8077
B( 15-C , 24-H ) :   1.2346 B( 15-C , 25-C ) :   0.3425 B( 15-C , 28-C ) :   0.1854
B( 16-C , 17-C ) :   0.3126 B( 16-C , 18-H ) :  -0.1417 B( 16-C , 25-C ) :   0.3688
B( 16-C , 28-C ) :   0.3710 B( 16-C , 31-H ) :   0.7717 B( 16-C , 32-H ) :   1.4795
B( 17-C , 18-H ) :   1.0108 B( 17-C , 19-H ) :   0.8360 B( 17-C , 28-C ) :   0.5783
B( 17-C , 31-H ) :  -0.1019 B( 22-C , 24-H ) :  -0.1086 B( 22-C , 25-C ) :   0.8664
B( 22-C , 26-H ) :   1.0277 B( 22-C , 27-H ) :   0.8413 B( 25-C , 28-C ) :   0.9012
B( 25-C , 29-H ) :   0.9215 B( 25-C , 30-H ) :   0.9328 B( 28-C , 31-H ) :  -0.1241
B( 28-C , 33-H ) :   0.8785 B( 28-C , 34-H ) :   0.9182 B( 31-H , 32-H ) :   0.1092

Dispersion correction           -0.020748681
FINAL SINGLE POINT ENERGY     -1135.709646081512

DIPOLE MOMENT
-------------
                                X             Y             Z
Electronic contribution:     -6.98713     -18.77973     -13.20571
Nuclear contribution   :      7.78491      18.17172      15.09294
                        -----------------------------------------
Total Dipole Moment    :      0.79778      -0.60801       1.88723
                        -----------------------------------------
Magnitude (a.u.)       :      2.13723
Magnitude (Debye)      :      5.43241

Rotational constants in cm-1:     0.018190     0.012573     0.008405
Rotational constants in MHz :   545.327178   376.916509   251.974803

                             ****ORCA TERMINATED NORMALLY****
TOTAL RUN TIME: 0 days 0 hours 5 minutes 0 seconds 617 msec
