                         Program Version 5.0.0 -  RELEASE  -
|  1> !wB97X-D3 RIJCOSX def2-TZVPD def2/J TightSCF xyzfile
|  2>
|  3> *xyzfile 0 1 D3.xyz
|  4>
|  5> %MaxCore 64000
|  6>
|  7> %pal nprocs 18
|  8> end
|  9>
| 10> %scf
| 11>   MaxIter 150
| 12> end
| 13>
| 14>
| 15>                          ****END OF INPUT****

CARTESIAN COORDINATES (ANGSTROEM)
---------------------------------
  C      5.558206   -1.992914   -6.215054
  C      4.930199   -7.375319   -2.649623
  C      3.841892   -6.951611   -3.632829
  H      3.458144   -5.954425   -3.407121
  H      2.988484   -7.643606   -3.567078
  S      4.318115   -6.915930   -5.368692
  C      4.181880   -2.589671   -6.298911
  C      3.145873   -1.768431   -6.486753
  N      4.019102   -3.864307   -6.227427
  H      4.768490   -4.591153   -5.990773
  H      3.122405   -4.333392   -6.314620
  H      3.281635   -0.777786   -6.566549
  H      2.212549   -2.134193   -6.562246
  O      5.406154   -5.899480   -5.512972
  F      3.111910   -6.445079   -6.043792
  C      6.419260   -2.542944   -5.077630
  C      5.872267   -5.002756   -2.427819
  C      6.173994   -6.485522   -2.606315
  H      6.734852   -6.613767   -3.534015
  H      6.821463   -6.831018   -1.793617
  H      4.469612   -7.406168   -1.655876
  H      5.230134   -8.398678   -2.885906
  C      5.896512   -2.169314   -3.694552
  H      7.428880   -2.143665   -5.208078
  H      6.505894   -3.627541   -5.175502
  C      6.807804   -2.623428   -2.551019
  H      4.894708   -2.589732   -3.557501
  H      5.778823   -1.081255   -3.635790
  C      7.111544   -4.122463   -2.520363
  H      7.751615   -2.071393   -2.614406
  H      6.345837   -2.326401   -1.604086
  H      5.362882   -4.828697   -1.471335
  H      5.174429   -4.702577   -3.211298
  H      7.778329   -4.329347   -1.677651
  H      7.673189   -4.402845   -3.417586
  O      4.763396   -8.239424   -5.698629
  H      6.036826   -2.198189   -7.176852
  H      5.467610   -0.907371   -6.127968

 Total Charge           Charge          ....    0
 Multiplicity           Mult            ....    1
 Number of Electrons    NEL             ....  136
 Basis Dimension        Dim             ....  808

ORBITAL ENERGIES
----------------

  NO   OCC          E(Eh)            E(eV)
   0   2.0000     -89.223471     -2427.8941
   1   2.0000     -24.924804      -678.2384
   2   2.0000     -19.271804      -524.4124
   3   2.0000     -19.263942      -524.1985
   4   2.0000     -14.393062      -391.6551
   5   2.0000     -10.354388      -281.7572
   6   2.0000     -10.313827      -280.6535
   7   2.0000     -10.283492      -279.8280
   8   2.0000     -10.281387      -279.7708
   9   2.0000     -10.274131      -279.5733
  10   2.0000     -10.268247      -279.4132
  11   2.0000     -10.264807      -279.3196
  12   2.0000     -10.259747      -279.1819
  13   2.0000     -10.259299      -279.1697
  14   2.0000     -10.259155      -279.1658
  15   2.0000     -10.184500      -277.1343
  16   2.0000      -8.287125      -225.5041
  17   2.0000      -6.244496      -169.9214
  18   2.0000      -6.238112      -169.7477
  19   2.0000      -6.237735      -169.7374
  20   2.0000      -1.513346       -41.1802
  21   2.0000      -1.251214       -34.0473
  22   2.0000      -1.155315       -31.4377
  23   2.0000      -1.029234       -28.0069
  24   2.0000      -0.968940       -26.3662
  25   2.0000      -0.930508       -25.3204
  26   2.0000      -0.904275       -24.6066
  27   2.0000      -0.874935       -23.8082
  28   2.0000      -0.851519       -23.1710
  29   2.0000      -0.822921       -22.3928
  30   2.0000      -0.802889       -21.8477
  31   2.0000      -0.766676       -20.8623
  32   2.0000      -0.731473       -19.9044
  33   2.0000      -0.717811       -19.5326
  34   2.0000      -0.712186       -19.3796
  35   2.0000      -0.697837       -18.9891
  36   2.0000      -0.685656       -18.6576
  37   2.0000      -0.666107       -18.1257
  38   2.0000      -0.659101       -17.9350
  39   2.0000      -0.624287       -16.9877
  40   2.0000      -0.609238       -16.5782
  41   2.0000      -0.599301       -16.3078
  42   2.0000      -0.583311       -15.8727
  43   2.0000      -0.567697       -15.4478
  44   2.0000      -0.560907       -15.2631
  45   2.0000      -0.557481       -15.1698
  46   2.0000      -0.547408       -14.8957
  47   2.0000      -0.530166       -14.4265
  48   2.0000      -0.522990       -14.2313
  49   2.0000      -0.516985       -14.0679
  50   2.0000      -0.510409       -13.8889
  51   2.0000      -0.500823       -13.6281
  52   2.0000      -0.487560       -13.2672
  53   2.0000      -0.481727       -13.1084
  54   2.0000      -0.469085       -12.7645
  55   2.0000      -0.459500       -12.5036
  56   2.0000      -0.455338       -12.3904
  57   2.0000      -0.452415       -12.3108
  58   2.0000      -0.444913       -12.1067
  59   2.0000      -0.431348       -11.7376
  60   2.0000      -0.427276       -11.6268
  61   2.0000      -0.423057       -11.5120
  62   2.0000      -0.419927       -11.4268
  63   2.0000      -0.409011       -11.1298
  64   2.0000      -0.401034       -10.9127
  65   2.0000      -0.394353       -10.7309
  66   2.0000      -0.391390       -10.6503
  67   2.0000      -0.255238        -6.9454
  68   0.0000       0.037411         1.0180
  69   0.0000       0.055869         1.5203
  70   0.0000       0.060106         1.6356
  71   0.0000       0.069817         1.8998
  72   0.0000       0.081043         2.2053

MULLIKEN ATOMIC CHARGES
-----------------------
   0 C :   -0.540786
   1 C :   -0.782702
   2 C :   -0.573269
   3 H :    0.420462
   4 H :    0.434393
   5 S :    1.049774
   6 C :    1.027622
   7 C :   -1.879681
   8 N :   -0.160095
   9 H :    0.142054
  10 H :    0.129358
  11 H :    0.377032
  12 H :    0.398537
  13 O :   -0.699472
  14 F :   -0.184057
  15 C :   -0.326630
  16 C :    0.136825
  17 C :   -0.534996
  18 H :    0.248796
  19 H :    0.375113
  20 H :    0.310966
  21 H :    0.268133
  22 C :   -0.260158
  23 H :    0.302684
  24 H :   -0.000459
  25 C :   -0.830443
  26 H :    0.209374
  27 H :    0.303570
  28 C :   -0.605780
  29 H :    0.317485
  30 H :    0.299706
  31 H :    0.340896
  32 H :   -0.347709
  33 H :    0.337844
  34 H :    0.308506
  35 O :   -0.572038
  36 H :    0.268931
  37 H :    0.290212
Sum of atomic charges:    0.0000000

LOEWDIN ATOMIC CHARGES
----------------------
   0 C :   -0.143008
   1 C :   -0.209920
   2 C :   -0.221595
   3 H :    0.105300
   4 H :    0.114975
   5 S :    0.665747
   6 C :   -0.493412
   7 C :    0.014659
   8 N :    0.094347
   9 H :    0.038913
  10 H :    0.097419
  11 H :    0.007315
  12 H :    0.010915
  13 O :   -0.303596
  14 F :   -0.059939
  15 C :   -0.204275
  16 C :   -0.222213
  17 C :   -0.212523
  18 H :    0.107637
  19 H :    0.121262
  20 H :    0.123817
  21 H :    0.116189
  22 C :   -0.211000
  23 H :    0.118653
  24 H :    0.089321
  25 C :   -0.211715
  26 H :    0.108691
  27 H :    0.117658
  28 C :   -0.213022
  29 H :    0.110417
  30 H :    0.109495
  31 H :    0.129254
  32 H :    0.080173
  33 H :    0.114331
  34 H :    0.111868
  35 O :   -0.239679
  36 H :    0.122150
  37 H :    0.115390

  Mayer bond orders larger than 0.100000
B(  0-C ,  6-C ) :   0.7517 B(  0-C , 15-C ) :   0.8111 B(  0-C , 22-C ) :   0.1719
B(  0-C , 24-H ) :   0.1075 B(  0-C , 36-H ) :   0.9013 B(  0-C , 37-H ) :   0.8931
B(  1-C ,  2-C ) :   1.1307 B(  1-C ,  5-S ) :   0.2333 B(  1-C , 16-C ) :   0.2833
B(  1-C , 17-C ) :   0.9085 B(  1-C , 20-H ) :   0.8935 B(  1-C , 21-H ) :   0.9230
B(  2-C ,  3-H ) :   0.7996 B(  2-C ,  4-H ) :   0.7655 B(  2-C ,  5-S ) :   0.7603
B(  2-C , 35-O ) :   0.1212 B(  5-S , 13-O ) :   1.7433 B(  5-S , 14-F ) :   0.9587
B(  5-S , 35-O ) :   1.5157 B(  6-C ,  7-C ) :   0.7205 B(  6-C ,  8-N ) :   1.2001
B(  6-C ,  9-H ) :  -0.1126 B(  6-C , 22-C ) :   0.1443 B(  7-C , 11-H ) :   0.9442
B(  7-C , 12-H ) :   0.8805 B(  8-N ,  9-H ) :   0.8993 B(  8-N , 10-H ) :   0.9383
B(  8-N , 15-C ) :   0.1586 B( 13-O , 17-C ) :   0.1109 B( 15-C , 22-C ) :   0.5276
B( 15-C , 23-H ) :   0.8078 B( 15-C , 24-H ) :   1.2180 B( 15-C , 25-C ) :   0.3379
B( 15-C , 28-C ) :   0.1979 B( 16-C , 17-C ) :   0.3583 B( 16-C , 25-C ) :   0.3619
B( 16-C , 28-C ) :   0.3541 B( 16-C , 31-H ) :   0.7766 B( 16-C , 32-H ) :   1.4704
B( 17-C , 18-H ) :   0.9502 B( 17-C , 19-H ) :   0.8459 B( 17-C , 28-C ) :   0.6057
B( 17-C , 31-H ) :  -0.1107 B( 22-C , 25-C ) :   0.8586 B( 22-C , 26-H ) :   1.0268
B( 22-C , 27-H ) :   0.8463 B( 25-C , 28-C ) :   0.8807 B( 25-C , 29-H ) :   0.9212
B( 25-C , 30-H ) :   0.9329 B( 28-C , 31-H ) :  -0.1184 B( 28-C , 33-H ) :   0.8768
B( 28-C , 34-H ) :   0.9116

Dispersion correction           -0.020916184
FINAL SINGLE POINT ENERGY     -1135.707901595156

DIPOLE MOMENT
-------------
                                X             Y             Z
Electronic contribution:    -10.96894     -20.04300     -14.22577
Nuclear contribution   :     10.48431      18.81367      15.71750
                        -----------------------------------------
Total Dipole Moment    :     -0.48463      -1.22933       1.49173
                        -----------------------------------------
Magnitude (a.u.)       :      1.99283
Magnitude (Debye)      :      5.06538

Rotational constants in cm-1:     0.017977     0.012528     0.008321
Rotational constants in MHz :   538.924099   375.570730   249.458530

                             ****ORCA TERMINATED NORMALLY****
TOTAL RUN TIME: 0 days 0 hours 5 minutes 2 seconds 51 msec
