                         Program Version 5.0.0 -  RELEASE  -
|  1> !wB97X-D3 RIJCOSX def2-TZVPD def2/J TightSCF xyzfile
|  2>
|  3> *xyzfile 0 1 D4.xyz
|  4>
|  5> %MaxCore 64000
|  6>
|  7> %pal nprocs 18
|  8> end
|  9>
| 10> %scf
| 11>   MaxIter 150
| 12> end
| 13>
| 14>
| 15>                          ****END OF INPUT****

CARTESIAN COORDINATES (ANGSTROEM)
---------------------------------
  C      5.558206   -1.992914   -6.215054
  C      4.930199   -7.375319   -2.649623
  C      3.841892   -6.951611   -3.632829
  H      3.458144   -5.954425   -3.407121
  H      2.988484   -7.643606   -3.567078
  S      4.318115   -6.915930   -5.368692
  C      4.181880   -2.589671   -6.298911
  N      3.145873   -1.768431   -6.486753
  C      4.019102   -3.864307   -6.227427
  H      4.768490   -4.591153   -5.990773
  H      3.122405   -4.333392   -6.314620
  H      3.281635   -0.777786   -6.566549
  H      2.212549   -2.134193   -6.562246
  O      5.406154   -5.899480   -5.512972
  F      3.111910   -6.445079   -6.043792
  C      6.419260   -2.542944   -5.077630
  C      5.872267   -5.002756   -2.427819
  C      6.173994   -6.485522   -2.606315
  H      6.734852   -6.613767   -3.534015
  H      6.821463   -6.831018   -1.793617
  H      4.469612   -7.406168   -1.655876
  H      5.230134   -8.398678   -2.885906
  C      5.896512   -2.169314   -3.694552
  H      7.428880   -2.143665   -5.208078
  H      6.505894   -3.627541   -5.175502
  C      6.807804   -2.623428   -2.551019
  H      4.894708   -2.589732   -3.557501
  H      5.778823   -1.081255   -3.635790
  C      7.111544   -4.122463   -2.520363
  H      7.751615   -2.071393   -2.614406
  H      6.345837   -2.326401   -1.604086
  H      5.362882   -4.828697   -1.471335
  H      5.174429   -4.702577   -3.211298
  H      7.778329   -4.329347   -1.677651
  H      7.673189   -4.402845   -3.417586
  O      4.763396   -8.239424   -5.698629
  H      6.036826   -2.198189   -7.176852
  H      5.467610   -0.907371   -6.127968

 Total Charge           Charge          ....    0
 Multiplicity           Mult            ....    1
 Number of Electrons    NEL             ....  136
 Basis Dimension        Dim             ....  808

ORBITAL ENERGIES
----------------

  NO   OCC          E(Eh)            E(eV)
   0   2.0000     -89.200441     -2427.2674
   1   2.0000     -24.899555      -677.5513
   2   2.0000     -19.250833      -523.8418
   3   2.0000     -19.233672      -523.3748
   4   2.0000     -14.407268      -392.0417
   5   2.0000     -10.338300      -281.3194
   6   2.0000     -10.301798      -280.3262
   7   2.0000     -10.280316      -279.7416
   8   2.0000     -10.273093      -279.5451
   9   2.0000     -10.265153      -279.3290
  10   2.0000     -10.262735      -279.2632
  11   2.0000     -10.262180      -279.2481
  12   2.0000     -10.261352      -279.2256
  13   2.0000     -10.256979      -279.1066
  14   2.0000     -10.256672      -279.0982
  15   2.0000     -10.174804      -276.8705
  16   2.0000      -8.263896      -224.8720
  17   2.0000      -6.221118      -169.2852
  18   2.0000      -6.214880      -169.1155
  19   2.0000      -6.214744      -169.1118
  20   2.0000      -1.488244       -40.4972
  21   2.0000      -1.228019       -33.4161
  22   2.0000      -1.128990       -30.7214
  23   2.0000      -1.029409       -28.0116
  24   2.0000      -0.954938       -25.9852
  25   2.0000      -0.925354       -25.1802
  26   2.0000      -0.897048       -24.4099
  27   2.0000      -0.871329       -23.7101
  28   2.0000      -0.836901       -22.7732
  29   2.0000      -0.818568       -22.2744
  30   2.0000      -0.792376       -21.5616
  31   2.0000      -0.763687       -20.7810
  32   2.0000      -0.727908       -19.8074
  33   2.0000      -0.708259       -19.2727
  34   2.0000      -0.691072       -18.8050
  35   2.0000      -0.674586       -18.3564
  36   2.0000      -0.671653       -18.2766
  37   2.0000      -0.658593       -17.9212
  38   2.0000      -0.643318       -17.5056
  39   2.0000      -0.615934       -16.7604
  40   2.0000      -0.598909       -16.2971
  41   2.0000      -0.594537       -16.1782
  42   2.0000      -0.580647       -15.8002
  43   2.0000      -0.568126       -15.4595
  44   2.0000      -0.557075       -15.1588
  45   2.0000      -0.548633       -14.9291
  46   2.0000      -0.543953       -14.8017
  47   2.0000      -0.525816       -14.3082
  48   2.0000      -0.512377       -13.9425
  49   2.0000      -0.507599       -13.8125
  50   2.0000      -0.504490       -13.7279
  51   2.0000      -0.489506       -13.3201
  52   2.0000      -0.484440       -13.1823
  53   2.0000      -0.466264       -12.6877
  54   2.0000      -0.460466       -12.5299
  55   2.0000      -0.451784       -12.2937
  56   2.0000      -0.445460       -12.1216
  57   2.0000      -0.437308       -11.8998
  58   2.0000      -0.433314       -11.7911
  59   2.0000      -0.429577       -11.6894
  60   2.0000      -0.416837       -11.3427
  61   2.0000      -0.414918       -11.2905
  62   2.0000      -0.412980       -11.2377
  63   2.0000      -0.398521       -10.8443
  64   2.0000      -0.394061       -10.7229
  65   2.0000      -0.390604       -10.6289
  66   2.0000      -0.362540        -9.8652
  67   2.0000      -0.266048        -7.2395
  68   0.0000       0.046270         1.2591
  69   0.0000       0.063984         1.7411
  70   0.0000       0.065336         1.7779
  71   0.0000       0.073004         1.9865
  72   0.0000       0.083352         2.2681

MULLIKEN ATOMIC CHARGES
-----------------------
   0 C :   -0.575738
   1 C :   -0.793018
   2 C :   -0.572113
   3 H :    0.408594
   4 H :    0.439857
   5 S :    1.006364
   6 C :    0.795852
   7 N :   -0.446939
   8 C :   -1.231410
   9 H :    0.179589
  10 H :    0.422562
  11 H :    0.182623
  12 H :    0.159745
  13 O :   -0.653618
  14 F :   -0.145806
  15 C :   -0.226232
  16 C :    0.165598
  17 C :   -0.536281
  18 H :    0.255901
  19 H :    0.373879
  20 H :    0.300437
  21 H :    0.267274
  22 C :   -0.311511
  23 H :    0.314796
  24 H :   -0.052501
  25 C :   -0.883743
  26 H :    0.209084
  27 H :    0.342867
  28 C :   -0.583074
  29 H :    0.311838
  30 H :    0.289920
  31 H :    0.329202
  32 H :   -0.378994
  33 H :    0.333923
  34 H :    0.317405
  35 O :   -0.586874
  36 H :    0.256344
  37 H :    0.314198
Sum of atomic charges:   -0.0000000

LOEWDIN ATOMIC CHARGES
----------------------
   0 C :   -0.141435
   1 C :   -0.211769
   2 C :   -0.223031
   3 H :    0.104183
   4 H :    0.112740
   5 S :    0.654930
   6 C :   -0.464983
   7 N :    0.096042
   8 C :   -0.007973
   9 H :   -0.018949
  10 H :    0.023126
  11 H :    0.092469
  12 H :    0.104064
  13 O :   -0.317098
  14 F :   -0.067167
  15 C :   -0.199616
  16 C :   -0.221469
  17 C :   -0.213173
  18 H :    0.107846
  19 H :    0.119732
  20 H :    0.121709
  21 H :    0.115201
  22 C :   -0.212519
  23 H :    0.118667
  24 H :    0.095138
  25 C :   -0.212301
  26 H :    0.107981
  27 H :    0.114083
  28 C :   -0.212826
  29 H :    0.109499
  30 H :    0.108779
  31 H :    0.128049
  32 H :    0.082178
  33 H :    0.113688
  34 H :    0.112462
  35 O :   -0.250339
  36 H :    0.123686
  37 H :    0.108398

  Mayer bond orders larger than 0.100000
B(  0-C ,  6-C ) :   0.3834 B(  0-C , 15-C ) :   0.8006 B(  0-C , 22-C ) :   0.2311
B(  0-C , 24-H ) :   0.1019 B(  0-C , 36-H ) :   0.8827 B(  0-C , 37-H ) :   0.9892
B(  1-C ,  2-C ) :   1.1314 B(  1-C ,  5-S ) :   0.2479 B(  1-C , 16-C ) :   0.2748
B(  1-C , 17-C ) :   0.8978 B(  1-C , 20-H ) :   0.8983 B(  1-C , 21-H ) :   0.9212
B(  2-C ,  3-H ) :   0.8166 B(  2-C ,  4-H ) :   0.7677 B(  2-C ,  5-S ) :   0.7437
B(  2-C , 35-O ) :   0.1360 B(  5-S ,  8-C ) :   0.1161 B(  5-S , 13-O ) :   1.7887
B(  5-S , 14-F ) :   0.9585 B(  5-S , 35-O ) :   1.4955 B(  6-C ,  7-N ) :   0.9503
B(  6-C ,  8-C ) :   1.2801 B(  6-C ,  9-H ) :   0.3126 B(  6-C , 10-H ) :  -0.2181
B(  6-C , 22-C ) :   0.1190 B(  6-C , 37-H ) :  -0.1935 B(  7-N , 11-H ) :   1.0372
B(  7-N , 12-H ) :   1.0541 B(  8-C ,  9-H ) :   0.9029 B(  8-C , 10-H ) :   0.9666
B(  9-H , 13-O ) :  -0.2436 B( 13-O , 17-C ) :   0.1034 B( 15-C , 22-C ) :   0.4342
B( 15-C , 23-H ) :   0.7911 B( 15-C , 24-H ) :   1.2489 B( 15-C , 25-C ) :   0.3428
B( 15-C , 28-C ) :   0.1985 B( 16-C , 17-C ) :   0.3560 B( 16-C , 22-C ) :   0.1068
B( 16-C , 25-C ) :   0.3534 B( 16-C , 28-C ) :   0.3427 B( 16-C , 31-H ) :   0.7966
B( 16-C , 32-H ) :   1.4541 B( 17-C , 18-H ) :   0.9372 B( 17-C , 19-H ) :   0.8512
B( 17-C , 28-C ) :   0.6203 B( 17-C , 31-H ) :  -0.1127 B( 22-C , 25-C ) :   0.8520
B( 22-C , 26-H ) :   1.0550 B( 22-C , 27-H ) :   0.8059 B( 25-C , 28-C ) :   0.8983
B( 25-C , 29-H ) :   0.9258 B( 25-C , 30-H ) :   0.9357 B( 28-C , 31-H ) :  -0.1169
B( 28-C , 33-H ) :   0.8816 B( 28-C , 34-H ) :   0.9029

Dispersion correction           -0.020877469
FINAL SINGLE POINT ENERGY     -1135.695671281940

DIPOLE MOMENT
-------------
                                X             Y             Z
Electronic contribution:    -11.70599     -18.16297     -14.64643
Nuclear contribution   :     10.61624      18.49702      15.75668
                        -----------------------------------------
Total Dipole Moment    :     -1.08974       0.33406       1.11025
                        -----------------------------------------
Magnitude (a.u.)       :      1.59116
Magnitude (Debye)      :      4.04440

Rotational constants in cm-1:     0.017796     0.012372     0.008231
Rotational constants in MHz :   533.524905   370.895973   246.762347

                             ****ORCA TERMINATED NORMALLY****
TOTAL RUN TIME: 0 days 0 hours 4 minutes 4 seconds 894 msec
