                         Program Version 5.0.0 -  RELEASE  -
|  1> !M062X D3Zero RIJCOSX def2-TZVPD def2/J TightSCF
|  2> *xyz -1 1
|  3> C         -5.57236       -5.80780       -0.81644
|  4> S         -6.90318       -4.61903       -0.52846
|  5> O         -8.11485       -5.25093       -0.95701
|  6> O         -6.53271       -3.42684       -1.31485
|  7> O         -6.86563       -4.29496        0.91412
|  8> C         -4.45780       -5.94187        0.22919
|  9> H         -5.17735       -5.54257       -1.79771
| 10> H         -6.07420       -6.76889       -0.92127
| 11> H         -3.75515       -6.68239       -0.09144
| 12> H         -4.88182       -6.23486        1.16689
| 13> H         -3.95908       -5.00189        0.34143
| 14> *
| 15> %MaxCore 64000
| 16>
| 17> %pal nprocs 4
| 18> end
| 19>
| 20> %scf
| 21>   MaxIter 150
| 22> end
| 23>
| 24>                          ****END OF INPUT****

CARTESIAN COORDINATES (ANGSTROEM)
---------------------------------
  C     -5.572360   -5.807800   -0.816440
  S     -6.903180   -4.619030   -0.528460
  O     -8.114850   -5.250930   -0.957010
  O     -6.532710   -3.426840   -1.314850
  O     -6.865630   -4.294960    0.914120
  C     -4.457800   -5.941870    0.229190
  H     -5.177350   -5.542570   -1.797710
  H     -6.074200   -6.768890   -0.921270
  H     -3.755150   -6.682390   -0.091440
  H     -4.881820   -6.234860    1.166890
  H     -3.959080   -5.001890    0.341430

 Total Charge           Charge          ....   -1
 Multiplicity           Mult            ....    1
 Number of Electrons    NEL             ....   58
 Basis Dimension        Dim             ....  285

ORBITAL ENERGIES
----------------

  NO   OCC          E(Eh)            E(eV)
   0   2.0000     -89.890800     -2446.0530
   1   2.0000     -19.411086      -528.2025
   2   2.0000     -19.397613      -527.8359
   3   2.0000     -19.396652      -527.8097
   4   2.0000     -10.398245      -282.9506
   5   2.0000     -10.393867      -282.8315
   6   2.0000      -8.215378      -223.5518
   7   2.0000      -6.138086      -167.0258
   8   2.0000      -6.136880      -166.9930
   9   2.0000      -6.136735      -166.9890
  10   2.0000      -1.044959       -28.4348
  11   2.0000      -0.911229       -24.7958
  12   2.0000      -0.887344       -24.1459
  13   2.0000      -0.730092       -19.8668
  14   2.0000      -0.599318       -16.3083
  15   2.0000      -0.467472       -12.7206
  16   2.0000      -0.391271       -10.6470
  17   2.0000      -0.390713       -10.6319
  18   2.0000      -0.351727        -9.5710
  19   2.0000      -0.339041        -9.2258
  20   2.0000      -0.333018        -9.0619
  21   2.0000      -0.291043        -7.9197
  22   2.0000      -0.285446        -7.7674
  23   2.0000      -0.226139        -6.1535
  24   2.0000      -0.225094        -6.1251
  25   2.0000      -0.188119        -5.1190
  26   2.0000      -0.173834        -4.7303
  27   2.0000      -0.171495        -4.6666
  28   2.0000      -0.136915        -3.7257
  29   0.0000       0.126266         3.4359
  30   0.0000       0.143463         3.9038
  31   0.0000       0.146562         3.9881
  32   0.0000       0.156980         4.2716
  33   0.0000       0.173843         4.7305

MULLIKEN ATOMIC CHARGES
-----------------------
   0 C :   -0.531982
   1 S :    1.327412
   2 O :   -0.742868
   3 O :   -0.771213
   4 O :   -0.772678
   5 C :   -1.063854
   6 H :    0.314495
   7 H :    0.332838
   8 H :    0.340518
   9 H :    0.276872
  10 H :    0.290460
Sum of atomic charges:   -1.0000000

LOEWDIN ATOMIC CHARGES
----------------------
   0 C :   -0.318832
   1 S :    0.380442
   2 O :   -0.393067
   3 O :   -0.430047
   4 O :   -0.423497
   5 C :   -0.144939
   6 H :    0.080306
   7 H :    0.076343
   8 H :    0.050245
   9 H :    0.058841
  10 H :    0.064205

  Mayer bond orders larger than 0.100000
B(  0-C ,  1-S ) :   0.8867 B(  0-C ,  2-O ) :   0.1080 B(  0-C ,  3-O ) :   0.1159
B(  0-C ,  5-C ) :   0.4558 B(  0-C ,  6-H ) :   0.9755 B(  0-C ,  7-H ) :   0.9478
B(  1-S ,  2-O ) :   1.4535 B(  1-S ,  3-O ) :   1.4256 B(  1-S ,  4-O ) :   1.4317
B(  5-C ,  8-H ) :   0.9260 B(  5-C ,  9-H ) :   1.0245 B(  5-C , 10-H ) :   0.9939

Dispersion correction           -0.000154335
FINAL SINGLE POINT ENERGY      -703.156499182091

DIPOLE MOMENT
-------------
                                X             Y             Z
Electronic contribution:     -6.64780       4.28196      -0.92138
Nuclear contribution   :      8.13140      -5.68016       0.80206
                        -----------------------------------------
Total Dipole Moment    :      1.48361      -1.39820      -0.11932
                        -----------------------------------------
Magnitude (a.u.)       :      2.04213
Magnitude (Debye)      :      5.19067

Rotational constants in cm-1:     0.162101     0.080498     0.079099
Rotational constants in MHz :  4859.669771  2413.267251  2371.338602

                             ****ORCA TERMINATED NORMALLY****
TOTAL RUN TIME: 0 days 0 hours 0 minutes 45 seconds 13 msec
