                         Program Version 5.0.0 -  RELEASE  -
|  1> !M062X D3Zero RIJCOSX def2-TZVPD def2/J TightSCF
|  2> *xyz 1 1
|  3> C         -4.38262       -1.67089        1.21620
|  4> N         -5.76354       -1.91517        0.70501
|  5> C         -3.28173       -2.19127        0.29436
|  6> H         -5.84081       -2.11520       -0.30065
|  7> H         -6.40882       -1.14866        0.93612
|  8> H         -6.17478       -2.79061        1.05143
|  9> H         -4.32862       -2.13922        2.19810
| 10> H         -4.26158       -0.59740        1.35725
| 11> H         -3.36057       -1.71407       -0.66008
| 12> H         -3.38775       -3.24919        0.17403
| 13> H         -2.32559       -1.97514        0.72329
| 14> *
| 15> %MaxCore 64000
| 16>
| 17> %pal nprocs 4
| 18> end
| 19>
| 20> %scf
| 21>   MaxIter 150
| 22> end
| 23>
| 24>                          ****END OF INPUT****

CARTESIAN COORDINATES (ANGSTROEM)
---------------------------------
  C     -4.382620   -1.670890    1.216200
  N     -5.763540   -1.915170    0.705010
  C     -3.281730   -2.191270    0.294360
  H     -5.840810   -2.115200   -0.300650
  H     -6.408820   -1.148660    0.936120
  H     -6.174780   -2.790610    1.051430
  H     -4.328620   -2.139220    2.198100
  H     -4.261580   -0.597400    1.357250
  H     -3.360570   -1.714070   -0.660080
  H     -3.387750   -3.249190    0.174030
  H     -2.325590   -1.975140    0.723290

 Total Charge           Charge          ....    1
 Multiplicity           Mult            ....    1
 Number of Electrons    NEL             ....   26
 Basis Dimension        Dim             ....  183

ORBITAL ENERGIES
----------------

  NO   OCC          E(Eh)            E(eV)
   0   2.0000     -15.081207      -410.3805
   1   2.0000     -10.791015      -293.6385
   2   2.0000     -10.708579      -291.3953
   3   2.0000      -1.324084       -36.0302
   4   2.0000      -1.063150       -28.9298
   5   2.0000      -0.935371       -25.4527
   6   2.0000      -0.871689       -23.7199
   7   2.0000      -0.849999       -23.1296
   8   2.0000      -0.772459       -21.0197
   9   2.0000      -0.709415       -19.3042
  10   2.0000      -0.647436       -17.6176
  11   2.0000      -0.629272       -17.1234
  12   2.0000      -0.612219       -16.6593
  13   0.0000      -0.177567        -4.8318
  14   0.0000      -0.124352        -3.3838
  15   0.0000      -0.120784        -3.2867
  16   0.0000      -0.112266        -3.0549
  17   0.0000      -0.084818        -2.3080

MULLIKEN ATOMIC CHARGES
-----------------------
   0 C :   -0.252482
   1 N :   -0.500226
   2 C :   -1.208337
   3 H :    0.395720
   4 H :    0.397358
   5 H :    0.417176
   6 H :    0.321629
   7 H :    0.326263
   8 H :    0.387969
   9 H :    0.382568
  10 H :    0.332361
Sum of atomic charges:    1.0000000

LOEWDIN ATOMIC CHARGES
----------------------
   0 C :   -0.191412
   1 N :    0.173960
   2 C :   -0.055774
   3 H :    0.180100
   4 H :    0.184059
   5 H :    0.181824
   6 H :    0.134997
   7 H :    0.133909
   8 H :    0.083352
   9 H :    0.082825
  10 H :    0.092160

  Mayer bond orders larger than 0.100000
B(  0-C ,  1-N ) :   0.8574 B(  0-C ,  2-C ) :   0.5402 B(  0-C ,  6-H ) :   0.9307
B(  0-C ,  7-H ) :   0.9053 B(  1-N ,  3-H ) :   0.8290 B(  1-N ,  4-H ) :   0.8427
B(  1-N ,  5-H ) :   0.8230 B(  2-C ,  8-H ) :   0.9080 B(  2-C ,  9-H ) :   0.9250
B(  2-C , 10-H ) :   0.9595

Dispersion correction           -0.000057574
FINAL SINGLE POINT ENERGY      -135.504561766345

DIPOLE MOMENT
-------------
                                X             Y             Z
Electronic contribution:     -1.77839       0.24037       0.30785
Nuclear contribution   :      0.19437      -0.25358      -0.32106
                        -----------------------------------------
Total Dipole Moment    :     -1.58402      -0.01322      -0.01321
                        -----------------------------------------
Magnitude (a.u.)       :      1.58413
Magnitude (Debye)      :      4.02654

Rotational constants in cm-1:     1.030014     0.272489     0.242697
Rotational constants in MHz : 30879.030706  8169.007780  7275.865152

                             ****ORCA TERMINATED NORMALLY****
TOTAL RUN TIME: 0 days 0 hours 0 minutes 20 seconds 898 msec
