                         Program Version 5.0.0 -  RELEASE  -
|  1> !M062X D3Zero RIJCOSX def2-TZVPD def2/J TightSCF xyzfile
|  2>
|  3> *xyzfile 0 1 B.xyz
|  4>
|  5> %MaxCore 64000
|  6>
|  7> %pal nprocs 4
|  8> end
|  9>
| 10> %scf
| 11>   MaxIter 150
| 12> end
| 13>
| 14>
| 15>                          ****END OF INPUT****

CARTESIAN COORDINATES (ANGSTROEM)
---------------------------------
  C     -4.382623   -1.670889    1.216201
  N     -5.763539   -1.915170    0.705012
  C     -3.281728   -2.191272    0.294361
  C     -5.572364   -5.807798   -0.816445
  S     -6.903179   -4.619033   -0.528458
  H     -5.840812   -2.115205   -0.300646
  H     -6.408823   -1.148656    0.936124
  H     -6.174781   -2.790606    1.051433
  O     -8.114853   -5.250932   -0.957007
  O     -6.532715   -3.426838   -1.314848
  H     -4.328618   -2.139223    2.198103
  H     -4.261583   -0.597399    1.357248
  O     -6.865632   -4.294957    0.914118
  C     -3.474641   -3.605898   -0.259608
  H     -2.354548   -2.127602    0.871433
  H     -3.166611   -1.499693   -0.545037
  C     -3.827078   -4.661097    0.786174
  H     -2.560559   -3.889391   -0.788050
  H     -4.255932   -3.570040   -1.019300
  C     -4.457800   -5.941875    0.229195
  H     -5.177347   -5.542575   -1.797714
  H     -6.074202   -6.768894   -0.921272
  H     -4.530506   -4.253640    1.511979
  H     -2.933400   -4.932302    1.356825
  H     -3.681064   -6.562236   -0.229885
  H     -4.843942   -6.512728    1.075805

 Total Charge           Charge          ....    0
 Multiplicity           Mult            ....    1
 Number of Electrons    NEL             ....   98
 Basis Dimension        Dim             ....  560

ORBITAL ENERGIES
----------------

  NO   OCC          E(Eh)            E(eV)
   0   2.0000     -90.060688     -2450.6759
   1   2.0000     -19.582920      -532.8783
   2   2.0000     -19.578373      -532.7546
   3   2.0000     -19.566424      -532.4295
   4   2.0000     -14.853036      -404.1717
   5   2.0000     -10.625272      -289.1283
   6   2.0000     -10.570698      -287.6433
   7   2.0000     -10.545195      -286.9493
   8   2.0000     -10.542052      -286.8638
   9   2.0000     -10.540464      -286.8206
  10   2.0000     -10.539119      -286.7840
  11   2.0000      -8.385966      -228.1937
  12   2.0000      -6.308408      -171.6605
  13   2.0000      -6.308043      -171.6506
  14   2.0000      -6.306782      -171.6163
  15   2.0000      -1.221051       -33.2265
  16   2.0000      -1.117394       -30.4058
  17   2.0000      -1.079699       -29.3801
  18   2.0000      -1.077270       -29.3140
  19   2.0000      -0.932814       -25.3832
  20   2.0000      -0.890298       -24.2262
  21   2.0000      -0.836749       -22.7691
  22   2.0000      -0.781879       -21.2760
  23   2.0000      -0.724337       -19.7102
  24   2.0000      -0.678315       -18.4579
  25   2.0000      -0.671070       -18.2607
  26   2.0000      -0.652351       -17.7514
  27   2.0000      -0.623232       -16.9590
  28   2.0000      -0.585435       -15.9305
  29   2.0000      -0.563714       -15.3394
  30   2.0000      -0.558045       -15.1852
  31   2.0000      -0.542957       -14.7746
  32   2.0000      -0.521812       -14.1992
  33   2.0000      -0.519152       -14.1268
  34   2.0000      -0.508598       -13.8397
  35   2.0000      -0.490930       -13.3589
  36   2.0000      -0.486816       -13.2469
  37   2.0000      -0.452364       -12.3094
  38   2.0000      -0.441612       -12.0169
  39   2.0000      -0.437380       -11.9017
  40   2.0000      -0.409307       -11.1378
  41   2.0000      -0.405557       -11.0358
  42   2.0000      -0.400968       -10.9109
  43   2.0000      -0.393081       -10.6963
  44   2.0000      -0.386759       -10.5242
  45   2.0000      -0.356217        -9.6932
  46   2.0000      -0.348280        -9.4772
  47   2.0000      -0.332831        -9.0568
  48   2.0000      -0.318698        -8.6722
  49   0.0000      -0.017859        -0.4860
  50   0.0000       0.009707         0.2641
  51   0.0000       0.013511         0.3676
  52   0.0000       0.020317         0.5529
  53   0.0000       0.035496         0.9659

MULLIKEN ATOMIC CHARGES
-----------------------
   0 C :   -0.646458
   1 N :   -0.468277
   2 C :   -0.859913
   3 C :   -0.856206
   4 S :    1.548390
   5 H :    0.432240
   6 H :    0.370658
   7 H :    0.486219
   8 O :   -0.788149
   9 O :   -0.918110
  10 H :    0.367730
  11 H :    0.358415
  12 O :   -0.928255
  13 C :   -0.483649
  14 H :    0.390755
  15 H :    0.358436
  16 C :   -0.378880
  17 H :    0.395404
  18 H :    0.322531
  19 C :   -0.968145
  20 H :    0.430873
  21 H :    0.401094
  22 H :    0.285328
  23 H :    0.365821
  24 H :    0.393413
  25 H :    0.388734
Sum of atomic charges:    0.0000000

LOEWDIN ATOMIC CHARGES
----------------------
   0 C :   -0.160640
   1 N :    0.150406
   2 C :   -0.183163
   3 C :   -0.233529
   4 S :    0.482852
   5 H :    0.106798
   6 H :    0.173909
   7 H :    0.068060
   8 O :   -0.320809
   9 O :   -0.399861
  10 H :    0.124949
  11 H :    0.121571
  12 O :   -0.380929
  13 C :   -0.202198
  14 H :    0.120010
  15 H :    0.118034
  16 C :   -0.212563
  17 H :    0.122990
  18 H :    0.087883
  19 C :   -0.216161
  20 H :    0.099146
  21 H :    0.097790
  22 H :    0.086630
  23 H :    0.119185
  24 H :    0.114428
  25 H :    0.115210

  Mayer bond orders larger than 0.100000
B(  0-C ,  1-N ) :   0.8406 B(  0-C ,  2-C ) :   0.6370 B(  0-C , 10-H ) :   0.9752
B(  0-C , 11-H ) :   0.8964 B(  0-C , 16-C ) :   0.1152 B(  1-N ,  5-H ) :   0.7721
B(  1-N ,  6-H ) :   0.8545 B(  1-N ,  7-H ) :   0.7585 B(  2-C , 13-C ) :   0.6248
B(  2-C , 14-H ) :   0.9299 B(  2-C , 15-H ) :   0.9748 B(  2-C , 16-C ) :   0.1069
B(  3-C ,  4-S ) :   0.8843 B(  3-C ,  8-O ) :   0.1687 B(  3-C ,  9-O ) :   0.1364
B(  3-C , 19-C ) :   0.5923 B(  3-C , 20-H ) :   0.8793 B(  3-C , 21-H ) :   0.9438
B(  4-S ,  8-O ) :   1.2550 B(  4-S ,  9-O ) :   1.1388 B(  4-S , 12-O ) :   1.2598
B( 13-C , 16-C ) :   0.1776 B( 13-C , 17-H ) :   0.9131 B( 13-C , 18-H ) :   1.0805
B( 13-C , 19-C ) :   0.1474 B( 13-C , 22-H ) :  -0.1675 B( 16-C , 18-H ) :  -0.1613
B( 16-C , 19-C ) :   0.7004 B( 16-C , 22-H ) :   1.0287 B( 16-C , 23-H ) :   0.9193
B( 19-C , 24-H ) :   0.9309 B( 19-C , 25-H ) :   0.9273

Dispersion correction           -0.001249432
FINAL SINGLE POINT ENERGY      -916.269547020252

DIPOLE MOMENT
-------------
                                X             Y             Z
Electronic contribution:    -13.47422      -2.92460      -3.66358
Nuclear contribution   :     16.18863       5.15617       4.97370
                        -----------------------------------------
Total Dipole Moment    :      2.71441       2.23157       1.31013
                        -----------------------------------------
Magnitude (a.u.)       :      3.75025
Magnitude (Debye)      :      9.53238

Rotational constants in cm-1:     0.048546     0.025588     0.020102
Rotational constants in MHz :  1455.374030   767.095631   602.645620

                             ****ORCA TERMINATED NORMALLY****
TOTAL RUN TIME: 0 days 0 hours 3 minutes 49 seconds 882 msec
