                         Program Version 5.0.0 -  RELEASE  -
|  1> !M062X D3Zero RIJCOSX def2-TZVPD def2/J TightSCF
|  2> *xyz 0 1
|  3> C         -5.57236       -5.80780       -0.81644
|  4> S         -6.90318       -4.61903       -0.52846
|  5> F         -8.11485       -5.25093       -0.95701
|  6> O         -6.53271       -3.42684       -1.31485
|  7> O         -6.86563       -4.29496        0.91412
|  8> C         -4.45780       -5.94187        0.22919
|  9> H         -5.17735       -5.54257       -1.79771
| 10> H         -6.07420       -6.76889       -0.92127
| 11> H         -3.75515       -6.68239       -0.09144
| 12> H         -4.88182       -6.23486        1.16689
| 13> H         -3.95908       -5.00189        0.34143
| 14> *
| 15> %MaxCore 64000
| 16>
| 17> %pal nprocs 4
| 18> end
| 19>
| 20> %scf
| 21>   MaxIter 150
| 22> end
| 23>
| 24>                          ****END OF INPUT****

CARTESIAN COORDINATES (ANGSTROEM)
---------------------------------
  C     -5.572360   -5.807800   -0.816440
  S     -6.903180   -4.619030   -0.528460
  F     -8.114850   -5.250930   -0.957010
  O     -6.532710   -3.426840   -1.314850
  O     -6.865630   -4.294960    0.914120
  C     -4.457800   -5.941870    0.229190
  H     -5.177350   -5.542570   -1.797710
  H     -6.074200   -6.768890   -0.921270
  H     -3.755150   -6.682390   -0.091440
  H     -4.881820   -6.234860    1.166890
  H     -3.959080   -5.001890    0.341430

 Total Charge           Charge          ....    0
 Multiplicity           Mult            ....    1
 Number of Electrons    NEL             ....   58
 Basis Dimension        Dim             ....  285

ORBITAL ENERGIES
----------------

  NO   OCC          E(Eh)            E(eV)
   0   2.0000     -90.155240     -2453.2488
   1   2.0000     -25.375232      -690.4952
   2   2.0000     -19.632413      -534.2251
   3   2.0000     -19.631988      -534.2136
   4   2.0000     -10.601630      -288.4850
   5   2.0000     -10.556809      -287.2654
   6   2.0000      -8.480312      -230.7610
   7   2.0000      -6.405098      -174.2916
   8   2.0000      -6.400178      -174.1577
   9   2.0000      -6.399555      -174.1407
  10   2.0000      -1.541781       -41.9540
  11   2.0000      -1.216857       -33.1124
  12   2.0000      -1.117149       -30.3992
  13   2.0000      -0.922197       -25.0943
  14   2.0000      -0.843090       -22.9417
  15   2.0000      -0.772973       -21.0337
  16   2.0000      -0.697837       -18.9891
  17   2.0000      -0.691468       -18.8158
  18   2.0000      -0.642056       -17.4712
  19   2.0000      -0.567479       -15.4419
  20   2.0000      -0.559152       -15.2153
  21   2.0000      -0.521125       -14.1805
  22   2.0000      -0.499831       -13.6011
  23   2.0000      -0.473675       -12.8893
  24   2.0000      -0.459350       -12.4995
  25   2.0000      -0.454146       -12.3579
  26   2.0000      -0.399671       -10.8756
  27   2.0000      -0.392667       -10.6850
  28   2.0000      -0.377066       -10.2605
  29   0.0000      -0.001316        -0.0358
  30   0.0000       0.016185         0.4404
  31   0.0000       0.024902         0.6776
  32   0.0000       0.030613         0.8330
  33   0.0000       0.053491         1.4556

MULLIKEN ATOMIC CHARGES
-----------------------
   0 C :   -0.543862
   1 S :    1.301047
   2 F :   -0.119234
   3 O :   -0.651974
   4 O :   -0.657347
   5 C :   -1.101424
   6 H :    0.368008
   7 H :    0.406658
   8 H :    0.352804
   9 H :    0.317633
  10 H :    0.327690
Sum of atomic charges:   -0.0000000

LOEWDIN ATOMIC CHARGES
----------------------
   0 C :   -0.275243
   1 S :    0.631732
   2 F :   -0.054533
   3 O :   -0.312548
   4 O :   -0.310683
   5 C :   -0.099694
   6 H :    0.100162
   7 H :    0.092644
   8 H :    0.075250
   9 H :    0.073326
  10 H :    0.079587

  Mayer bond orders larger than 0.100000
B(  0-C ,  1-S ) :   0.8855 B(  0-C ,  5-C ) :   0.5466 B(  0-C ,  6-H ) :   0.9313
B(  0-C ,  7-H ) :   0.8435 B(  1-S ,  2-F ) :   0.9506 B(  1-S ,  3-O ) :   1.6019
B(  1-S ,  4-O ) :   1.6073 B(  5-C ,  8-H ) :   0.9149 B(  5-C ,  9-H ) :   0.9783
B(  5-C , 10-H ) :   0.9612

Dispersion correction           -0.000151289
FINAL SINGLE POINT ENERGY      -727.663260019825

DIPOLE MOMENT
-------------
                                X             Y             Z
Electronic contribution:     -9.37429       3.53786      -1.86335
Nuclear contribution   :      9.80704      -5.24335       1.35017
                        -----------------------------------------
Total Dipole Moment    :      0.43275      -1.70549      -0.51317
                        -----------------------------------------
Magnitude (a.u.)       :      1.83284
Magnitude (Debye)      :      4.65871

Rotational constants in cm-1:     0.156316     0.078308     0.076228
Rotational constants in MHz :  4686.224999  2347.601204  2285.245115

                             ****ORCA TERMINATED NORMALLY****
TOTAL RUN TIME: 0 days 0 hours 0 minutes 48 seconds 775 msec
