                         Program Version 5.0.0 -  RELEASE  -
|  1> !M062X D3Zero RIJCOSX def2-TZVPD def2/J TightSCF
|  2> *xyz 0 1
|  3> C         -4.38262       -1.67089        1.21620
|  4> C         -5.76354       -1.91517        0.70501
|  5> C         -3.28173       -2.19127        0.29436
|  6> H         -5.84081       -2.11520       -0.30065
|  7> H         -6.40882       -1.14866        0.93612
|  8> H         -6.17478       -2.79061        1.05143
|  9> H         -4.32862       -2.13922        2.19810
| 10> H         -4.26158       -0.59740        1.35725
| 11> H         -3.36057       -1.71407       -0.66008
| 12> H         -3.38775       -3.24919        0.17403
| 13> H         -2.32559       -1.97514        0.72329
| 14> *
| 15> %MaxCore 64000
| 16>
| 17> %pal nprocs 4
| 18> end
| 19>
| 20> %scf
| 21>   MaxIter 150
| 22> end
| 23>
| 24>                          ****END OF INPUT****

CARTESIAN COORDINATES (ANGSTROEM)
---------------------------------
  C     -4.382620   -1.670890    1.216200
  C     -5.763540   -1.915170    0.705010
  C     -3.281730   -2.191270    0.294360
  H     -5.840810   -2.115200   -0.300650
  H     -6.408820   -1.148660    0.936120
  H     -6.174780   -2.790610    1.051430
  H     -4.328620   -2.139220    2.198100
  H     -4.261580   -0.597400    1.357250
  H     -3.360570   -1.714070   -0.660080
  H     -3.387750   -3.249190    0.174030
  H     -2.325590   -1.975140    0.723290

 Total Charge           Charge          ....    0
 Multiplicity           Mult            ....    1
 Number of Electrons    NEL             ....   26
 Basis Dimension        Dim             ....  183

ORBITAL ENERGIES
----------------

  NO   OCC          E(Eh)            E(eV)
   0   2.0000     -10.520605      -286.2802
   1   2.0000     -10.511072      -286.0208
   2   2.0000     -10.492018      -285.5023
   3   2.0000      -0.886950       -24.1351
   4   2.0000      -0.784368       -21.3437
   5   2.0000      -0.673741       -18.3334
   6   2.0000      -0.532852       -14.4996
   7   2.0000      -0.510044       -13.8790
   8   2.0000      -0.475382       -12.9358
   9   2.0000      -0.450224       -12.2512
  10   2.0000      -0.400516       -10.8986
  11   2.0000      -0.392708       -10.6861
  12   2.0000      -0.381891       -10.3918
  13   0.0000       0.023985         0.6527
  14   0.0000       0.043697         1.1891
  15   0.0000       0.046689         1.2705
  16   0.0000       0.074755         2.0342
  17   0.0000       0.096780         2.6335

MULLIKEN ATOMIC CHARGES
-----------------------
   0 C :   -0.179356
   1 C :   -1.253639
   2 C :   -1.200847
   3 H :    0.377704
   4 H :    0.318238
   5 H :    0.365545
   6 H :    0.295214
   7 H :    0.307398
   8 H :    0.333067
   9 H :    0.323734
  10 H :    0.312943
Sum of atomic charges:    0.0000000

LOEWDIN ATOMIC CHARGES
----------------------
   0 C :   -0.310946
   1 C :   -0.128336
   2 C :   -0.118408
   3 H :    0.052550
   4 H :    0.052533
   5 H :    0.052270
   6 H :    0.103140
   7 H :    0.101452
   8 H :    0.067234
   9 H :    0.067663
  10 H :    0.060848

  Mayer bond orders larger than 0.100000
B(  0-C ,  1-C ) :   0.5276 B(  0-C ,  2-C ) :   0.5067 B(  0-C ,  6-H ) :   0.9579
B(  0-C ,  7-H ) :   0.9479 B(  1-C ,  2-C ) :   0.1376 B(  1-C ,  3-H ) :   0.8775
B(  1-C ,  4-H ) :   0.9455 B(  1-C ,  5-H ) :   0.9580 B(  2-C ,  8-H ) :   0.9767
B(  2-C ,  9-H ) :   0.9718 B(  2-C , 10-H ) :   0.9834

Dispersion correction           -0.000056055
FINAL SINGLE POINT ENERGY      -119.095333345704

DIPOLE MOMENT
-------------
                                X             Y             Z
Electronic contribution:      0.19016       0.23920       0.33962
Nuclear contribution   :     -0.21528      -0.24783      -0.32864
                        -----------------------------------------
Total Dipole Moment    :     -0.02512      -0.00863       0.01097
                        -----------------------------------------
Magnitude (a.u.)       :      0.02874
Magnitude (Debye)      :      0.07304

Rotational constants in cm-1:     1.037566     0.286459     0.254172
Rotational constants in MHz : 31105.431429  8587.814531  7619.871198

                             ****ORCA TERMINATED NORMALLY****
TOTAL RUN TIME: 0 days 0 hours 0 minutes 22 seconds 710 msec
