                         Program Version 5.0.0 -  RELEASE  -
|  1> !M062X D3Zero RIJCOSX def2-TZVPD def2/J TightSCF
|  2> *xyz 0 1
|  3> C         -5.57236       -5.80780       -0.81644
|  4> S         -6.90318       -4.61903       -0.52846
|  5> O         -8.11485       -5.25093       -0.95701
|  6> F         -6.53271       -3.42684       -1.31485
|  7> O         -6.86563       -4.29496        0.91412
|  8> C         -4.45780       -5.94187        0.22919
|  9> H         -5.17735       -5.54257       -1.79771
| 10> H         -6.07420       -6.76889       -0.92127
| 11> H         -3.75515       -6.68239       -0.09144
| 12> H         -4.88182       -6.23486        1.16689
| 13> H         -3.95908       -5.00189        0.34143
| 14> *
| 15> %MaxCore 64000
| 16>
| 17> %pal nprocs 4
| 18> end
| 19>
| 20> %scf
| 21>   MaxIter 150
| 22> end
| 23>
| 24>                          ****END OF INPUT****

CARTESIAN COORDINATES (ANGSTROEM)
---------------------------------
  C     -5.572360   -5.807800   -0.816440
  S     -6.903180   -4.619030   -0.528460
  O     -8.114850   -5.250930   -0.957010
  F     -6.532710   -3.426840   -1.314850
  O     -6.865630   -4.294960    0.914120
  C     -4.457800   -5.941870    0.229190
  H     -5.177350   -5.542570   -1.797710
  H     -6.074200   -6.768890   -0.921270
  H     -3.755150   -6.682390   -0.091440
  H     -4.881820   -6.234860    1.166890
  H     -3.959080   -5.001890    0.341430

 Total Charge           Charge          ....    0
 Multiplicity           Mult            ....    1
 Number of Electrons    NEL             ....   58
 Basis Dimension        Dim             ....  285

ORBITAL ENERGIES
----------------

  NO   OCC          E(Eh)            E(eV)
   0   2.0000     -90.153095     -2453.1904
   1   2.0000     -25.352805      -689.8849
   2   2.0000     -19.646233      -534.6012
   3   2.0000     -19.631997      -534.2138
   4   2.0000     -10.600919      -288.4657
   5   2.0000     -10.556260      -287.2504
   6   2.0000      -8.478127      -230.7016
   7   2.0000      -6.402981      -174.2340
   8   2.0000      -6.398138      -174.1022
   9   2.0000      -6.397341      -174.0805
  10   2.0000      -1.504282       -40.9336
  11   2.0000      -1.235045       -33.6073
  12   2.0000      -1.132959       -30.8294
  13   2.0000      -0.921530       -25.0761
  14   2.0000      -0.826840       -22.4994
  15   2.0000      -0.764934       -20.8149
  16   2.0000      -0.674628       -18.3576
  17   2.0000      -0.669679       -18.2229
  18   2.0000      -0.639629       -17.4052
  19   2.0000      -0.567971       -15.4553
  20   2.0000      -0.559101       -15.2139
  21   2.0000      -0.535528       -14.5724
  22   2.0000      -0.503366       -13.6973
  23   2.0000      -0.474415       -12.9095
  24   2.0000      -0.469625       -12.7791
  25   2.0000      -0.453573       -12.3424
  26   2.0000      -0.410940       -11.1822
  27   2.0000      -0.397479       -10.8160
  28   2.0000      -0.389717       -10.6047
  29   0.0000      -0.000423        -0.0115
  30   0.0000       0.019371         0.5271
  31   0.0000       0.024453         0.6654
  32   0.0000       0.030175         0.8211
  33   0.0000       0.052978         1.4416

MULLIKEN ATOMIC CHARGES
-----------------------
   0 C :   -0.536139
   1 S :    1.323080
   2 O :   -0.640772
   3 F :   -0.159801
   4 O :   -0.661914
   5 C :   -1.081333
   6 H :    0.402405
   7 H :    0.365096
   8 H :    0.354467
   9 H :    0.315433
  10 H :    0.319478
Sum of atomic charges:   -0.0000000

LOEWDIN ATOMIC CHARGES
----------------------
   0 C :   -0.269965
   1 S :    0.632002
   2 O :   -0.278744
   3 F :   -0.090092
   4 O :   -0.309639
   5 C :   -0.105611
   6 H :    0.096736
   7 H :    0.101978
   8 H :    0.074106
   9 H :    0.074466
  10 H :    0.074764

  Mayer bond orders larger than 0.100000
B(  0-C ,  1-S ) :   0.8834 B(  0-C ,  5-C ) :   0.5175 B(  0-C ,  6-H ) :   0.8510
B(  0-C ,  7-H ) :   0.9244 B(  1-S ,  2-O ) :   1.6316 B(  1-S ,  3-F ) :   0.9070
B(  1-S ,  4-O ) :   1.6041 B(  5-C ,  8-H ) :   0.9219 B(  5-C ,  9-H ) :   0.9982
B(  5-C , 10-H ) :   0.9550

Dispersion correction           -0.000156706
FINAL SINGLE POINT ENERGY      -727.681807582181

DIPOLE MOMENT
-------------
                                X             Y             Z
Electronic contribution:     -6.68081       6.66121      -2.49392
Nuclear contribution   :      8.15840      -7.14411       1.72305
                        -----------------------------------------
Total Dipole Moment    :      1.47759      -0.48290      -0.77086
                        -----------------------------------------
Magnitude (a.u.)       :      1.73514
Magnitude (Debye)      :      4.41037

Rotational constants in cm-1:     0.153926     0.078297     0.077402
Rotational constants in MHz :  4614.585804  2347.272644  2320.438903

                             ****ORCA TERMINATED NORMALLY****
TOTAL RUN TIME: 0 days 0 hours 0 minutes 48 seconds 986 msec
