                         Program Version 5.0.0 -  RELEASE  -
|  1> !M062X D3Zero RIJCOSX def2-TZVPD def2/J TightSCF
|  2> *xyz 0 1
|  3> C         -5.57236       -5.80780       -0.81644
|  4> S         -6.90318       -4.61903       -0.52846
|  5> O         -8.11485       -5.25093       -0.95701
|  6> O         -6.53271       -3.42684       -1.31485
|  7> F         -6.86563       -4.29496        0.91412
|  8> C         -4.45780       -5.94187        0.22919
|  9> H         -5.17735       -5.54257       -1.79771
| 10> H         -6.07420       -6.76889       -0.92127
| 11> H         -3.75515       -6.68239       -0.09144
| 12> H         -4.88182       -6.23486        1.16689
| 13> H         -3.95908       -5.00189        0.34143
| 14> *
| 15> %MaxCore 64000
| 16>
| 17> %pal nprocs 4
| 18> end
| 19>
| 20> %scf
| 21>   MaxIter 150
| 22> end
| 23>
| 24>                          ****END OF INPUT****

CARTESIAN COORDINATES (ANGSTROEM)
---------------------------------
  C     -5.572360   -5.807800   -0.816440
  S     -6.903180   -4.619030   -0.528460
  O     -8.114850   -5.250930   -0.957010
  O     -6.532710   -3.426840   -1.314850
  F     -6.865630   -4.294960    0.914120
  C     -4.457800   -5.941870    0.229190
  H     -5.177350   -5.542570   -1.797710
  H     -6.074200   -6.768890   -0.921270
  H     -3.755150   -6.682390   -0.091440
  H     -4.881820   -6.234860    1.166890
  H     -3.959080   -5.001890    0.341430

 Total Charge           Charge          ....    0
 Multiplicity           Mult            ....    1
 Number of Electrons    NEL             ....   58
 Basis Dimension        Dim             ....  285

ORBITAL ENERGIES
----------------

  NO   OCC          E(Eh)            E(eV)
   0   2.0000     -90.152597     -2453.1769
   1   2.0000     -25.351782      -689.8571
   2   2.0000     -19.645936      -534.5931
   3   2.0000     -19.631106      -534.1896
   4   2.0000     -10.600303      -288.4489
   5   2.0000     -10.563403      -287.4448
   6   2.0000      -8.477665      -230.6890
   7   2.0000      -6.402613      -174.2240
   8   2.0000      -6.397486      -174.0845
   9   2.0000      -6.396971      -174.0704
  10   2.0000      -1.501503       -40.8580
  11   2.0000      -1.235656       -33.6239
  12   2.0000      -1.133655       -30.8483
  13   2.0000      -0.924492       -25.1567
  14   2.0000      -0.823951       -22.4208
  15   2.0000      -0.769085       -20.9279
  16   2.0000      -0.679401       -18.4874
  17   2.0000      -0.669045       -18.2056
  18   2.0000      -0.632699       -17.2166
  19   2.0000      -0.571522       -15.5519
  20   2.0000      -0.555359       -15.1121
  21   2.0000      -0.528635       -14.3849
  22   2.0000      -0.519307       -14.1311
  23   2.0000      -0.483013       -13.1434
  24   2.0000      -0.465323       -12.6621
  25   2.0000      -0.459915       -12.5149
  26   2.0000      -0.410466       -11.1694
  27   2.0000      -0.397150       -10.8070
  28   2.0000      -0.388966       -10.5843
  29   0.0000      -0.002100        -0.0572
  30   0.0000       0.021233         0.5778
  31   0.0000       0.024992         0.6801
  32   0.0000       0.028627         0.7790
  33   0.0000       0.054767         1.4903

MULLIKEN ATOMIC CHARGES
-----------------------
   0 C :   -0.479094
   1 S :    1.335605
   2 O :   -0.639356
   3 O :   -0.661863
   4 F :   -0.170812
   5 C :   -1.129029
   6 H :    0.354348
   7 H :    0.373884
   8 H :    0.337329
   9 H :    0.340515
  10 H :    0.338473
Sum of atomic charges:    0.0000000

LOEWDIN ATOMIC CHARGES
----------------------
   0 C :   -0.265895
   1 S :    0.630764
   2 O :   -0.278568
   3 O :   -0.313907
   4 F :   -0.089407
   5 C :   -0.108165
   6 H :    0.106309
   7 H :    0.097940
   8 H :    0.074780
   9 H :    0.070513
  10 H :    0.075637

  Mayer bond orders larger than 0.100000
B(  0-C ,  1-S ) :   0.8761 B(  0-C ,  5-C ) :   0.4762 B(  0-C ,  6-H ) :   0.9300
B(  0-C ,  7-H ) :   0.9086 B(  1-S ,  2-O ) :   1.6365 B(  1-S ,  3-O ) :   1.6022
B(  1-S ,  4-F ) :   0.9068 B(  5-C ,  8-H ) :   0.9452 B(  5-C ,  9-H ) :   0.9459
B(  5-C , 10-H ) :   0.9545

Dispersion correction           -0.000161009
FINAL SINGLE POINT ENERGY      -727.681895172510

DIPOLE MOMENT
-------------
                                X             Y             Z
Electronic contribution:     -7.23093       5.14626       1.31702
Nuclear contribution   :      8.50531      -6.23950      -0.59960
                        -----------------------------------------
Total Dipole Moment    :      1.27438      -1.09324       0.71741
                        -----------------------------------------
Magnitude (a.u.)       :      1.82589
Magnitude (Debye)      :      4.64105

Rotational constants in cm-1:     0.152799     0.080212     0.076962
Rotational constants in MHz :  4580.804531  2404.707790  2307.252710

                             ****ORCA TERMINATED NORMALLY****
TOTAL RUN TIME: 0 days 0 hours 0 minutes 48 seconds 976 msec
