                         Program Version 5.0.0 -  RELEASE  -
|  1> !M062X D3Zero RIJCOSX def2-TZVPD def2/J TightSCF xyzfile
|  2>
|  3> *xyzfile 0 1 D1.xyz
|  4>
|  5> %MaxCore 64000
|  6>
|  7> %pal nprocs 4
|  8> end
|  9>
| 10> %scf
| 11>   MaxIter 150
| 12> end
| 13>
| 14>
| 15>                          ****END OF INPUT****

CARTESIAN COORDINATES (ANGSTROEM)
---------------------------------
  C     -4.382623   -1.670889    1.216201
  C     -5.763539   -1.915170    0.705012
  C     -3.281728   -2.191272    0.294361
  C     -5.572364   -5.807798   -0.816445
  S     -6.903179   -4.619033   -0.528458
  H     -5.840812   -2.115205   -0.300646
  H     -6.408823   -1.148656    0.936124
  H     -6.174781   -2.790606    1.051433
  F     -8.114853   -5.250932   -0.957007
  O     -6.532715   -3.426838   -1.314848
  H     -4.328618   -2.139223    2.198103
  H     -4.261583   -0.597399    1.357248
  O     -6.865632   -4.294957    0.914118
  C     -3.474641   -3.605898   -0.259608
  H     -2.354548   -2.127602    0.871433
  H     -3.166611   -1.499693   -0.545037
  C     -3.827078   -4.661097    0.786174
  H     -2.560559   -3.889391   -0.788050
  H     -4.255932   -3.570040   -1.019300
  C     -4.457800   -5.941875    0.229195
  H     -5.177347   -5.542575   -1.797714
  H     -6.074202   -6.768894   -0.921272
  H     -4.530506   -4.253640    1.511979
  H     -2.933400   -4.932302    1.356825
  H     -3.681064   -6.562236   -0.229885
  H     -4.843942   -6.512728    1.075805

 Total Charge           Charge          ....    0
 Multiplicity           Mult            ....    1
 Number of Electrons    NEL             ....   98
 Basis Dimension        Dim             ....  560

ORBITAL ENERGIES
----------------

  NO   OCC          E(Eh)            E(eV)
   0   2.0000     -90.162434     -2453.4446
   1   2.0000     -25.379800      -690.6195
   2   2.0000     -19.640105      -534.4344
   3   2.0000     -19.638672      -534.3954
   4   2.0000     -10.602730      -288.5149
   5   2.0000     -10.564724      -287.4808
   6   2.0000     -10.531383      -286.5735
   7   2.0000     -10.520319      -286.2724
   8   2.0000     -10.511518      -286.0329
   9   2.0000     -10.496806      -285.6326
  10   2.0000     -10.438905      -284.0570
  11   2.0000      -8.487733      -230.9629
  12   2.0000      -6.412430      -174.4911
  13   2.0000      -6.407636      -174.3606
  14   2.0000      -6.407076      -174.3454
  15   2.0000      -1.546689       -42.0875
  16   2.0000      -1.230632       -33.4872
  17   2.0000      -1.131130       -30.7796
  18   2.0000      -0.936661       -25.4878
  19   2.0000      -0.895776       -24.3753
  20   2.0000      -0.854969       -23.2649
  21   2.0000      -0.825991       -22.4764
  22   2.0000      -0.785906       -21.3856
  23   2.0000      -0.736753       -20.0481
  24   2.0000      -0.704620       -19.1737
  25   2.0000      -0.703881       -19.1536
  26   2.0000      -0.679224       -18.4826
  27   2.0000      -0.640881       -17.4393
  28   2.0000      -0.621288       -16.9061
  29   2.0000      -0.573164       -15.5966
  30   2.0000      -0.567906       -15.4535
  31   2.0000      -0.546523       -14.8717
  32   2.0000      -0.544195       -14.8083
  33   2.0000      -0.511224       -13.9111
  34   2.0000      -0.502081       -13.6623
  35   2.0000      -0.488150       -13.2832
  36   2.0000      -0.477291       -12.9877
  37   2.0000      -0.452739       -12.3197
  38   2.0000      -0.445356       -12.1187
  39   2.0000      -0.442803       -12.0493
  40   2.0000      -0.415716       -11.3122
  41   2.0000      -0.410379       -11.1670
  42   2.0000      -0.402633       -10.9562
  43   2.0000      -0.396037       -10.7767
  44   2.0000      -0.388048       -10.5593
  45   2.0000      -0.373267       -10.1571
  46   2.0000      -0.353179        -9.6105
  47   2.0000      -0.348513        -9.4835
  48   2.0000      -0.329298        -8.9606
  49   0.0000      -0.006072        -0.1652
  50   0.0000       0.013662         0.3718
  51   0.0000       0.017978         0.4892
  52   0.0000       0.026995         0.7346
  53   0.0000       0.041839         1.1385

MULLIKEN ATOMIC CHARGES
-----------------------
   0 C :   -0.396155
   1 C :   -1.256877
   2 C :   -1.106366
   3 C :   -0.879031
   4 S :    1.286860
   5 H :    0.465513
   6 H :    0.446210
   7 H :    0.370011
   8 F :   -0.117011
   9 O :   -0.756373
  10 H :    0.330589
  11 H :    0.381501
  12 O :   -0.760465
  13 C :   -0.334018
  14 H :    0.347247
  15 H :    0.350765
  16 C :   -0.422051
  17 H :    0.383003
  18 H :    0.242442
  19 C :   -0.966754
  20 H :    0.453049
  21 H :    0.489640
  22 H :    0.309932
  23 H :    0.354501
  24 H :    0.397312
  25 H :    0.386523
Sum of atomic charges:   -0.0000000

LOEWDIN ATOMIC CHARGES
----------------------
   0 C :   -0.244982
   1 C :   -0.125710
   2 C :   -0.207839
   3 C :   -0.214363
   4 S :    0.689604
   5 H :    0.023874
   6 H :    0.067285
   7 H :   -0.005227
   8 F :   -0.042411
   9 O :   -0.317088
  10 H :    0.105150
  11 H :    0.105104
  12 O :   -0.307036
  13 C :   -0.204377
  14 H :    0.107324
  15 H :    0.114524
  16 C :   -0.202045
  17 H :    0.116187
  18 H :    0.086238
  19 C :   -0.206077
  20 H :    0.107226
  21 H :    0.098532
  22 H :    0.096107
  23 H :    0.122348
  24 H :    0.121378
  25 H :    0.116274

  Mayer bond orders larger than 0.100000
B(  0-C ,  1-C ) :   0.3400 B(  0-C ,  2-C ) :   0.6351 B(  0-C , 10-H ) :   0.9721
B(  0-C , 11-H ) :   0.9133 B(  0-C , 13-C ) :  -0.1252 B(  0-C , 16-C ) :   0.1183
B(  1-C ,  5-H ) :   0.8495 B(  1-C ,  6-H ) :   0.8613 B(  1-C ,  7-H ) :   0.9613
B(  2-C , 13-C ) :   0.7025 B(  2-C , 14-H ) :   0.9593 B(  2-C , 15-H ) :   0.9463
B(  2-C , 16-C ) :   0.1877 B(  3-C ,  4-S ) :   0.8558 B(  3-C ,  9-O ) :   0.1168
B(  3-C , 13-C ) :   0.1141 B(  3-C , 16-C ) :  -0.1091 B(  3-C , 19-C ) :   0.6450
B(  3-C , 20-H ) :   0.8728 B(  3-C , 21-H ) :   0.8119 B(  4-S ,  8-F ) :   0.8380
B(  4-S ,  9-O ) :   1.5566 B(  4-S , 12-O ) :   1.6352 B(  5-H ,  7-H ) :  -0.1076
B(  5-H ,  9-O ) :  -0.1251 B(  7-H , 12-O ) :  -0.2636 B(  9-O , 12-O ) :   0.1169
B( 13-C , 16-C ) :   0.2038 B( 13-C , 17-H ) :   0.9219 B( 13-C , 18-H ) :   1.0730
B( 13-C , 19-C ) :   0.1394 B( 13-C , 22-H ) :  -0.1154 B( 16-C , 18-H ) :  -0.1689
B( 16-C , 19-C ) :   0.6645 B( 16-C , 22-H ) :   1.0189 B( 16-C , 23-H ) :   0.9281
B( 19-C , 24-H ) :   0.9262 B( 19-C , 25-H ) :   0.9201

Dispersion correction           -0.001210589
FINAL SINGLE POINT ENERGY      -924.146920087549

DIPOLE MOMENT
-------------
                                X             Y             Z
Electronic contribution:    -18.93712      -8.68650      -6.72946
Nuclear contribution   :     19.08524       6.89775       6.14221
                        -----------------------------------------
Total Dipole Moment    :      0.14811      -1.78875      -0.58725
                        -----------------------------------------
Magnitude (a.u.)       :      1.88850
Magnitude (Debye)      :      4.80017

Rotational constants in cm-1:     0.049343     0.024787     0.019726
Rotational constants in MHz :  1479.262779   743.087234   591.370705

                             ****ORCA TERMINATED NORMALLY****
TOTAL RUN TIME: 0 days 0 hours 4 minutes 10 seconds 417 msec
