                         Program Version 5.0.0 -  RELEASE  -
|  1> !M062X D3Zero RIJCOSX def2-TZVPD def2/J TightSCF xyzfile
|  2>
|  3> *xyzfile 0 1 D2.xyz
|  4>
|  5> %MaxCore 64000
|  6>
|  7> %pal nprocs 4
|  8> end
|  9>
| 10> %scf
| 11>   MaxIter 150
| 12> end
| 13>
| 14>
| 15>                          ****END OF INPUT****

CARTESIAN COORDINATES (ANGSTROEM)
---------------------------------
  C     -4.382623   -1.670889    1.216201
  C     -5.763539   -1.915170    0.705012
  C     -3.281728   -2.191272    0.294361
  C     -5.572364   -5.807798   -0.816445
  S     -6.903179   -4.619033   -0.528458
  H     -5.840812   -2.115205   -0.300646
  H     -6.408823   -1.148656    0.936124
  H     -6.174781   -2.790606    1.051433
  O     -8.114853   -5.250932   -0.957007
  F     -6.532715   -3.426838   -1.314848
  H     -4.328618   -2.139223    2.198103
  H     -4.261583   -0.597399    1.357248
  O     -6.865632   -4.294957    0.914118
  C     -3.474641   -3.605898   -0.259608
  H     -2.354548   -2.127602    0.871433
  H     -3.166611   -1.499693   -0.545037
  C     -3.827078   -4.661097    0.786174
  H     -2.560559   -3.889391   -0.788050
  H     -4.255932   -3.570040   -1.019300
  C     -4.457800   -5.941875    0.229195
  H     -5.177347   -5.542575   -1.797714
  H     -6.074202   -6.768894   -0.921272
  H     -4.530506   -4.253640    1.511979
  H     -2.933400   -4.932302    1.356825
  H     -3.681064   -6.562236   -0.229885
  H     -4.843942   -6.512728    1.075805

 Total Charge           Charge          ....    0
 Multiplicity           Mult            ....    1
 Number of Electrons    NEL             ....   98
 Basis Dimension        Dim             ....  560

ORBITAL ENERGIES
----------------

  NO   OCC          E(Eh)            E(eV)
   0   2.0000     -90.157509     -2453.3105
   1   2.0000     -25.356219      -689.9778
   2   2.0000     -19.649698      -534.6955
   3   2.0000     -19.635477      -534.3085
   4   2.0000     -10.600870      -288.4643
   5   2.0000     -10.564398      -287.4719
   6   2.0000     -10.538665      -286.7716
   7   2.0000     -10.536954      -286.7251
   8   2.0000     -10.525748      -286.4202
   9   2.0000     -10.512380      -286.0564
  10   2.0000     -10.462163      -284.6899
  11   2.0000      -8.482819      -230.8292
  12   2.0000      -6.407663      -174.3614
  13   2.0000      -6.402782      -174.2285
  14   2.0000      -6.402011      -174.2076
  15   2.0000      -1.512054       -41.1451
  16   2.0000      -1.241045       -33.7706
  17   2.0000      -1.143188       -31.1077
  18   2.0000      -0.939410       -25.5626
  19   2.0000      -0.904464       -24.6117
  20   2.0000      -0.854430       -23.2502
  21   2.0000      -0.828292       -22.5390
  22   2.0000      -0.789255       -21.4767
  23   2.0000      -0.746897       -20.3241
  24   2.0000      -0.707209       -19.2441
  25   2.0000      -0.681459       -18.5435
  26   2.0000      -0.667681       -18.1685
  27   2.0000      -0.642675       -17.4881
  28   2.0000      -0.636926       -17.3316
  29   2.0000      -0.575106       -15.6494
  30   2.0000      -0.563328       -15.3289
  31   2.0000      -0.547709       -14.9039
  32   2.0000      -0.543094       -14.7783
  33   2.0000      -0.527571       -14.3559
  34   2.0000      -0.509027       -13.8513
  35   2.0000      -0.493093       -13.4177
  36   2.0000      -0.477867       -13.0034
  37   2.0000      -0.466245       -12.6872
  38   2.0000      -0.458183       -12.4678
  39   2.0000      -0.454565       -12.3693
  40   2.0000      -0.426003       -11.5921
  41   2.0000      -0.422502       -11.4969
  42   2.0000      -0.418724       -11.3941
  43   2.0000      -0.406041       -11.0489
  44   2.0000      -0.390616       -10.6292
  45   2.0000      -0.385320       -10.4851
  46   2.0000      -0.371354       -10.1050
  47   2.0000      -0.370135       -10.0719
  48   2.0000      -0.341634        -9.2963
  49   0.0000       0.000455         0.0124
  50   0.0000       0.012772         0.3475
  51   0.0000       0.021198         0.5768
  52   0.0000       0.023931         0.6512
  53   0.0000       0.040409         1.0996

MULLIKEN ATOMIC CHARGES
-----------------------
   0 C :   -0.379242
   1 C :   -1.367928
   2 C :   -1.101036
   3 C :   -0.821828
   4 S :    1.342687
   5 H :    0.470360
   6 H :    0.441212
   7 H :    0.453270
   8 O :   -0.720513
   9 F :   -0.221624
  10 H :    0.334278
  11 H :    0.379531
  12 O :   -0.754345
  13 C :   -0.356001
  14 H :    0.345324
  15 H :    0.356485
  16 C :   -0.382354
  17 H :    0.380502
  18 H :    0.213983
  19 C :   -0.972345
  20 H :    0.474779
  21 H :    0.405521
  22 H :    0.323825
  23 H :    0.351872
  24 H :    0.407928
  25 H :    0.395659
Sum of atomic charges:   -0.0000000

LOEWDIN ATOMIC CHARGES
----------------------
   0 C :   -0.241497
   1 C :   -0.122318
   2 C :   -0.207989
   3 C :   -0.210965
   4 S :    0.671944
   5 H :    0.035361
   6 H :    0.069405
   7 H :   -0.006376
   8 O :   -0.262802
   9 F :   -0.114604
  10 H :    0.108376
  11 H :    0.107016
  12 O :   -0.304462
  13 C :   -0.205693
  14 H :    0.110022
  15 H :    0.114437
  16 C :   -0.203818
  17 H :    0.118412
  18 H :    0.084786
  19 C :   -0.208359
  20 H :    0.103848
  21 H :    0.107599
  22 H :    0.096053
  23 H :    0.123365
  24 H :    0.119981
  25 H :    0.118279

  Mayer bond orders larger than 0.100000
B(  0-C ,  1-C ) :   0.3044 B(  0-C ,  2-C ) :   0.6341 B(  0-C , 10-H ) :   0.9736
B(  0-C , 11-H ) :   0.9168 B(  0-C , 13-C ) :  -0.1060 B(  0-C , 16-C ) :   0.1185
B(  1-C ,  2-C ) :   0.1065 B(  1-C ,  4-S ) :   0.1239 B(  1-C ,  5-H ) :   0.7884
B(  1-C ,  6-H ) :   0.8582 B(  1-C ,  7-H ) :   0.8894 B(  1-C ,  9-F ) :   0.1030
B(  1-C , 12-O ) :   0.1319 B(  2-C , 13-C ) :   0.6858 B(  2-C , 14-H ) :   0.9522
B(  2-C , 15-H ) :   0.9481 B(  2-C , 16-C ) :   0.1797 B(  3-C ,  4-S ) :   0.8926
B(  3-C ,  8-O ) :   0.1420 B(  3-C , 19-C ) :   0.5841 B(  3-C , 20-H ) :   0.8110
B(  3-C , 21-H ) :   0.9232 B(  4-S ,  8-O ) :   1.3348 B(  4-S ,  9-F ) :   0.8941
B(  4-S , 12-O ) :   1.5889 B(  5-H ,  7-H ) :  -0.1034 B(  7-H , 12-O ) :  -0.2949
B( 13-C , 16-C ) :   0.1740 B( 13-C , 17-H ) :   0.9117 B( 13-C , 18-H ) :   1.1077
B( 13-C , 19-C ) :   0.1585 B( 13-C , 22-H ) :  -0.1184 B( 16-C , 18-H ) :  -0.2020
B( 16-C , 19-C ) :   0.6674 B( 16-C , 22-H ) :   1.0122 B( 16-C , 23-H ) :   0.9257
B( 19-C , 24-H ) :   0.9260 B( 19-C , 25-H ) :   0.9219

Dispersion correction           -0.001224296
FINAL SINGLE POINT ENERGY      -924.165024297372

DIPOLE MOMENT
-------------
                                X             Y             Z
Electronic contribution:    -15.93674      -5.36374      -7.21629
Nuclear contribution   :     17.25367       4.78608       6.55647
                        -----------------------------------------
Total Dipole Moment    :      1.31693      -0.57766      -0.65982
                        -----------------------------------------
Magnitude (a.u.)       :      1.58220
Magnitude (Debye)      :      4.02162

Rotational constants in cm-1:     0.048508     0.025517     0.020225
Rotational constants in MHz :  1454.219007   764.979652   606.316599

                             ****ORCA TERMINATED NORMALLY****
TOTAL RUN TIME: 0 days 0 hours 4 minutes 24 seconds 247 msec
