                         Program Version 5.0.0 -  RELEASE  -
|  1> !M062X D3Zero RIJCOSX def2-TZVPD def2/J TightSCF xyzfile
|  2>
|  3> *xyzfile 0 1 D3.xyz
|  4>
|  5> %MaxCore 64000
|  6>
|  7> %pal nprocs 4
|  8> end
|  9>
| 10> %scf
| 11>   MaxIter 150
| 12> end
| 13>
| 14>
| 15>                          ****END OF INPUT****

CARTESIAN COORDINATES (ANGSTROEM)
---------------------------------
  C     -4.382623   -1.670889    1.216201
  C     -5.763539   -1.915170    0.705012
  C     -3.281728   -2.191272    0.294361
  C     -5.572364   -5.807798   -0.816445
  S     -6.903179   -4.619033   -0.528458
  H     -5.840812   -2.115205   -0.300646
  H     -6.408823   -1.148656    0.936124
  H     -6.174781   -2.790606    1.051433
  O     -8.114853   -5.250932   -0.957007
  O     -6.532715   -3.426838   -1.314848
  H     -4.328618   -2.139223    2.198103
  H     -4.261583   -0.597399    1.357248
  F     -6.865632   -4.294957    0.914118
  C     -3.474641   -3.605898   -0.259608
  H     -2.354548   -2.127602    0.871433
  H     -3.166611   -1.499693   -0.545037
  C     -3.827078   -4.661097    0.786174
  H     -2.560559   -3.889391   -0.788050
  H     -4.255932   -3.570040   -1.019300
  C     -4.457800   -5.941875    0.229195
  H     -5.177347   -5.542575   -1.797714
  H     -6.074202   -6.768894   -0.921272
  H     -4.530506   -4.253640    1.511979
  H     -2.933400   -4.932302    1.356825
  H     -3.681064   -6.562236   -0.229885
  H     -4.843942   -6.512728    1.075805

 Total Charge           Charge          ....    0
 Multiplicity           Mult            ....    1
 Number of Electrons    NEL             ....   98
 Basis Dimension        Dim             ....  560

ORBITAL ENERGIES
----------------

  NO   OCC          E(Eh)            E(eV)
   0   2.0000     -90.156575     -2453.2851
   1   2.0000     -25.356043      -689.9730
   2   2.0000     -19.649214      -534.6823
   3   2.0000     -19.633329      -534.2500
   4   2.0000     -10.600061      -288.4423
   5   2.0000     -10.569125      -287.6005
   6   2.0000     -10.545548      -286.9590
   7   2.0000     -10.530187      -286.5410
   8   2.0000     -10.522981      -286.3449
   9   2.0000     -10.512828      -286.0686
  10   2.0000     -10.464182      -284.7449
  11   2.0000      -8.481954      -230.8057
  12   2.0000      -6.406935      -174.3416
  13   2.0000      -6.401706      -174.1993
  14   2.0000      -6.401212      -174.1858
  15   2.0000      -1.511536       -41.1310
  16   2.0000      -1.240997       -33.7693
  17   2.0000      -1.141755       -31.0687
  18   2.0000      -0.942311       -25.6416
  19   2.0000      -0.903416       -24.5832
  20   2.0000      -0.854045       -23.2397
  21   2.0000      -0.827944       -22.5295
  22   2.0000      -0.790126       -21.5004
  23   2.0000      -0.746427       -20.3113
  24   2.0000      -0.710592       -19.3362
  25   2.0000      -0.685063       -18.6415
  26   2.0000      -0.675284       -18.3754
  27   2.0000      -0.637349       -17.3431
  28   2.0000      -0.629223       -17.1220
  29   2.0000      -0.570855       -15.5337
  30   2.0000      -0.565953       -15.4004
  31   2.0000      -0.553172       -15.0526
  32   2.0000      -0.537810       -14.6346
  33   2.0000      -0.523624       -14.2485
  34   2.0000      -0.516058       -14.0427
  35   2.0000      -0.496581       -13.5127
  36   2.0000      -0.478420       -13.0185
  37   2.0000      -0.460951       -12.5431
  38   2.0000      -0.459452       -12.5023
  39   2.0000      -0.456541       -12.4231
  40   2.0000      -0.428021       -11.6470
  41   2.0000      -0.423284       -11.5182
  42   2.0000      -0.412717       -11.2306
  43   2.0000      -0.399198       -10.8627
  44   2.0000      -0.397372       -10.8130
  45   2.0000      -0.387202       -10.5363
  46   2.0000      -0.367061        -9.9882
  47   2.0000      -0.365043        -9.9333
  48   2.0000      -0.352819        -9.6007
  49   0.0000      -0.002095        -0.0570
  50   0.0000       0.014272         0.3883
  51   0.0000       0.020935         0.5697
  52   0.0000       0.022148         0.6027
  53   0.0000       0.040310         1.0969

MULLIKEN ATOMIC CHARGES
-----------------------
   0 C :   -0.381693
   1 C :   -1.428642
   2 C :   -1.106914
   3 C :   -0.755176
   4 S :    1.367434
   5 H :    0.550650
   6 H :    0.463131
   7 H :    0.399404
   8 O :   -0.729048
   9 O :   -0.742380
  10 H :    0.333588
  11 H :    0.381780
  12 F :   -0.240793
  13 C :   -0.322419
  14 H :    0.352354
  15 H :    0.353456
  16 C :   -0.412555
  17 H :    0.380220
  18 H :    0.269643
  19 C :   -0.982880
  20 H :    0.440930
  21 H :    0.395226
  22 H :    0.278128
  23 H :    0.358384
  24 H :    0.392101
  25 H :    0.386070
Sum of atomic charges:    0.0000000

LOEWDIN ATOMIC CHARGES
----------------------
   0 C :   -0.243479
   1 C :   -0.120039
   2 C :   -0.205782
   3 C :   -0.204791
   4 S :    0.670308
   5 H :    0.024086
   6 H :    0.069635
   7 H :    0.012311
   8 O :   -0.262840
   9 O :   -0.317218
  10 H :    0.104813
  11 H :    0.107822
  12 F :   -0.111142
  13 C :   -0.204200
  14 H :    0.108763
  15 H :    0.116356
  16 C :   -0.205398
  17 H :    0.118526
  18 H :    0.087043
  19 C :   -0.214563
  20 H :    0.113399
  21 H :    0.103557
  22 H :    0.094332
  23 H :    0.123407
  24 H :    0.120637
  25 H :    0.114456

  Mayer bond orders larger than 0.100000
B(  0-C ,  1-C ) :   0.3305 B(  0-C ,  2-C ) :   0.6266 B(  0-C , 10-H ) :   0.9697
B(  0-C , 11-H ) :   0.9127 B(  0-C , 13-C ) :  -0.1165 B(  0-C , 16-C ) :   0.1096
B(  1-C ,  2-C ) :   0.1031 B(  1-C ,  4-S ) :   0.1627 B(  1-C ,  5-H ) :   0.7312
B(  1-C ,  6-H ) :   0.7974 B(  1-C ,  7-H ) :   0.8668 B(  1-C ,  9-O ) :   0.1490
B(  1-C , 12-F ) :   0.1432 B(  2-C , 13-C ) :   0.7082 B(  2-C , 14-H ) :   0.9602
B(  2-C , 15-H ) :   0.9419 B(  2-C , 16-C ) :   0.1910 B(  3-C ,  4-S ) :   0.8557
B(  3-C ,  8-O ) :   0.1520 B(  3-C ,  9-O ) :   0.1329 B(  3-C , 16-C ) :  -0.1258
B(  3-C , 19-C ) :   0.5831 B(  3-C , 20-H ) :   0.8668 B(  3-C , 21-H ) :   0.9638
B(  4-S ,  8-O ) :   1.3353 B(  4-S ,  9-O ) :   1.4837 B(  4-S , 12-F ) :   0.9631
B(  5-H ,  9-O ) :  -0.1706 B(  7-H , 12-F ) :  -0.1769 B( 13-C , 16-C ) :   0.1885
B( 13-C , 17-H ) :   0.9216 B( 13-C , 18-H ) :   1.0700 B( 13-C , 19-C ) :   0.1237
B( 13-C , 22-H ) :  -0.1243 B( 16-C , 18-H ) :  -0.1679 B( 16-C , 19-C ) :   0.5838
B( 16-C , 22-H ) :   1.0493 B( 16-C , 23-H ) :   0.9207 B( 19-C , 24-H ) :   0.9263
B( 19-C , 25-H ) :   0.9536

Dispersion correction           -0.001234628
FINAL SINGLE POINT ENERGY      -924.164386951806

DIPOLE MOMENT
-------------
                                X             Y             Z
Electronic contribution:    -16.49673      -6.85233      -3.42738
Nuclear contribution   :     17.63907       5.79106       3.97609
                        -----------------------------------------
Total Dipole Moment    :      1.14234      -1.06127       0.54872
                        -----------------------------------------
Magnitude (a.u.)       :      1.65297
Magnitude (Debye)      :      4.20152

Rotational constants in cm-1:     0.048663     0.025472     0.020259
Rotational constants in MHz :  1458.892793   763.621130   607.350055

                             ****ORCA TERMINATED NORMALLY****
TOTAL RUN TIME: 0 days 0 hours 4 minutes 26 seconds 151 msec
