                         Program Version 5.0.0 -  RELEASE  -
|  1> !M062X D3Zero RIJCOSX def2-TZVPD def2/J TightSCF
|  2> *xyz -1 1
|  3> C         -0.05517        1.61942       -3.78858
|  4> C          1.22302        2.46987       -3.75691
|  5> H          1.11470        3.25807       -4.53300
|  6> H          1.23773        3.01124       -2.79216
|  7> O          2.35381        1.71203       -3.93448
|  8> H         -0.10198        1.08015       -4.71156
|  9> H         -0.91014        2.25726       -3.70441
| 10> H         -0.04403        0.92826       -2.97183
| 11> *
| 12>
| 13> %MaxCore 64000
| 14>
| 15> %pal nprocs 4
| 16> end
| 17>
| 18> %scf
| 19>   MaxIter 150
| 20> end
| 21>
| 22>
| 23>                          ****END OF INPUT****

CARTESIAN COORDINATES (ANGSTROEM)
---------------------------------
  C     -0.055170    1.619420   -3.788580
  C      1.223020    2.469870   -3.756910
  H      1.114700    3.258070   -4.533000
  H      1.237730    3.011240   -2.792160
  O      2.353810    1.712030   -3.934480
  H     -0.101980    1.080150   -4.711560
  H     -0.910140    2.257260   -3.704410
  H     -0.044030    0.928260   -2.971830

 Total Charge           Charge          ....   -1
 Multiplicity           Mult            ....    1
 Number of Electrons    NEL             ....   26
 Basis Dimension        Dim             ....  159

ORBITAL ENERGIES
----------------

  NO   OCC          E(Eh)            E(eV)
   0   2.0000     -19.287547      -524.8408
   1   2.0000     -10.345171      -281.5064
   2   2.0000     -10.321351      -280.8582
   3   2.0000      -0.791029       -21.5250
   4   2.0000      -0.619303       -16.8521
   5   2.0000      -0.455268       -12.3885
   6   2.0000      -0.318141        -8.6570
   7   2.0000      -0.293750        -7.9934
   8   2.0000      -0.235045        -6.3959
   9   2.0000      -0.219456        -5.9717
  10   2.0000      -0.176098        -4.7919
  11   2.0000      -0.033975        -0.9245
  12   2.0000      -0.033068        -0.8998
  13   0.0000       0.168283         4.5792
  14   0.0000       0.187601         5.1049
  15   0.0000       0.218685         5.9507
  16   0.0000       0.219404         5.9703
  17   0.0000       0.240601         6.5471

MULLIKEN ATOMIC CHARGES
-----------------------
   0 C :   -0.996053
   1 C :   -0.269395
   2 H :    0.217470
   3 H :    0.218766
   4 O :   -0.978733
   5 H :    0.248594
   6 H :    0.308492
   7 H :    0.250859
Sum of atomic charges:   -1.0000000

LOEWDIN ATOMIC CHARGES
----------------------
   0 C :   -0.175524
   1 C :   -0.620616
   2 H :    0.061374
   3 H :    0.060057
   4 O :   -0.437568
   5 H :    0.041823
   6 H :    0.029446
   7 H :    0.041009

  Mayer bond orders larger than 0.100000
B(  0-C ,  1-C ) :   0.6997 B(  0-C ,  4-O ) :   0.3632 B(  0-C ,  5-H ) :   1.0101
B(  0-C ,  6-H ) :   0.9779 B(  0-C ,  7-H ) :   1.0063 B(  1-C ,  2-H ) :   1.0450
B(  1-C ,  3-H ) :   1.0495 B(  1-C ,  4-O ) :   0.7823

Dispersion correction           -0.000014732
FINAL SINGLE POINT ENERGY      -154.409199119775

DIPOLE MOMENT
-------------
                                X             Y             Z
Electronic contribution:      2.72825      -0.49460      -0.24505
Nuclear contribution   :     -4.28298       0.81046       0.39340
                        -----------------------------------------
Total Dipole Moment    :     -1.55473       0.31586       0.14835
                        -----------------------------------------
Magnitude (a.u.)       :      1.59341
Magnitude (Debye)      :      4.05014

Rotational constants in cm-1:     1.266793     0.328147     0.288309
Rotational constants in MHz : 37977.512300  9837.594308  8643.275638

                             ****ORCA TERMINATED NORMALLY****
TOTAL RUN TIME: 0 days 0 hours 0 minutes 18 seconds 793 msec
