                         Program Version 5.0.0 -  RELEASE  -
|  1> !M062X D3Zero RIJCOSX def2-TZVPD def2/J TightSCF
|  2> *xyz 1 1
|  3> C          1.63556       -1.67040       -5.29211
|  4> C          0.33848       -1.50091       -4.50540
|  5> N          2.48451       -0.50741       -5.14039
|  6> H          1.39834       -1.82924       -6.35259
|  7> H          2.15586       -2.56540       -4.93209
|  8> C          3.45115       -0.14953       -5.95259
|  9> N          3.92267        1.08956       -5.85071
| 10> N          3.96616       -1.00618       -6.86788
| 11> H          3.52139       -1.90647       -6.99527
| 12> H          4.44482       -0.62347       -7.67035
| 13> H          2.25200        0.24080       -4.49879
| 14> H          3.46428        1.64078       -5.13639
| 15> H          4.83447        1.31375       -6.22465
| 16> H         -0.17658       -0.62881       -4.85045
| 17> H          0.56384       -1.39374       -3.46490
| 18> H         -0.28102       -2.36136       -4.64938
| 19> *
| 20>
| 21> %MaxCore 64000
| 22>
| 23> %pal nprocs 4
| 24> end
| 25>
| 26> %scf
| 27>   MaxIter 150
| 28> end
| 29>
| 30>
| 31>                          ****END OF INPUT****

CARTESIAN COORDINATES (ANGSTROEM)
---------------------------------
  C      1.635560   -1.670400   -5.292110
  C      0.338480   -1.500910   -4.505400
  N      2.484510   -0.507410   -5.140390
  H      1.398340   -1.829240   -6.352590
  H      2.155860   -2.565400   -4.932090
  C      3.451150   -0.149530   -5.952590
  N      3.922670    1.089560   -5.850710
  N      3.966160   -1.006180   -6.867880
  H      3.521390   -1.906470   -6.995270
  H      4.444820   -0.623470   -7.670350
  H      2.252000    0.240800   -4.498790
  H      3.464280    1.640780   -5.136390
  H      4.834470    1.313750   -6.224650
  H     -0.176580   -0.628810   -4.850450
  H      0.563840   -1.393740   -3.464900
  H     -0.281020   -2.361360   -4.649380

 Total Charge           Charge          ....    1
 Multiplicity           Mult            ....    1
 Number of Electrons    NEL             ....   48
 Basis Dimension        Dim             ....  312

ORBITAL ENERGIES
----------------

  NO   OCC          E(Eh)            E(eV)
   0   2.0000     -14.976409      -407.5288
   1   2.0000     -14.971107      -407.3845
   2   2.0000     -14.969770      -407.3482
   3   2.0000     -10.875683      -295.9424
   4   2.0000     -10.746893      -292.4378
   5   2.0000     -10.673807      -290.4490
   6   2.0000      -1.334022       -36.3006
   7   2.0000      -1.213186       -33.0125
   8   2.0000      -1.198336       -32.6084
   9   2.0000      -1.032551       -28.0971
  10   2.0000      -0.918194       -24.9853
  11   2.0000      -0.899153       -24.4672
  12   2.0000      -0.854097       -23.2411
  13   2.0000      -0.822452       -22.3801
  14   2.0000      -0.758358       -20.6360
  15   2.0000      -0.756049       -20.5731
  16   2.0000      -0.738201       -20.0875
  17   2.0000      -0.710852       -19.3433
  18   2.0000      -0.675240       -18.3742
  19   2.0000      -0.612041       -16.6545
  20   2.0000      -0.594527       -16.1779
  21   2.0000      -0.586353       -15.9555
  22   2.0000      -0.544367       -14.8130
  23   2.0000      -0.515751       -14.0343
  24   0.0000      -0.142942        -3.8897
  25   0.0000      -0.134285        -3.6541
  26   0.0000      -0.115515        -3.1433
  27   0.0000      -0.102913        -2.8004
  28   0.0000      -0.082925        -2.2565

MULLIKEN ATOMIC CHARGES
-----------------------
   0 C :   -0.402879
   1 C :   -1.450391
   2 N :   -0.300010
   3 H :    0.400587
   4 H :    0.356782
   5 C :    1.060320
   6 N :   -0.573137
   7 N :   -0.608171
   8 H :    0.295990
   9 H :    0.280252
  10 H :    0.264908
  11 H :    0.242974
  12 H :    0.283392
  13 H :    0.405565
  14 H :    0.380281
  15 H :    0.363537
Sum of atomic charges:    1.0000000

LOEWDIN ATOMIC CHARGES
----------------------
   0 C :   -0.217556
   1 C :   -0.059685
   2 N :    0.076053
   3 H :    0.131059
   4 H :    0.134342
   5 C :   -0.432975
   6 N :    0.199535
   7 N :    0.210180
   8 H :    0.123032
   9 H :    0.138120
  10 H :    0.166603
  11 H :    0.138301
  12 H :    0.145245
  13 H :    0.081075
  14 H :    0.081127
  15 H :    0.085543

  Mayer bond orders larger than 0.100000
B(  0-C ,  1-C ) :   0.4526 B(  0-C ,  2-N ) :   0.7735 B(  0-C ,  3-H ) :   0.8280
B(  0-C ,  4-H ) :   0.8936 B(  0-C ,  5-C ) :  -0.1143 B(  0-C ,  7-N ) :   0.1077
B(  1-C , 13-H ) :   0.9170 B(  1-C , 14-H ) :   0.9442 B(  1-C , 15-H ) :   0.9416
B(  2-N ,  5-C ) :   1.2075 B(  2-N , 10-H ) :   0.9527 B(  5-C ,  6-N ) :   0.9823
B(  5-C ,  7-N ) :   0.9820 B(  6-N , 11-H ) :   0.9576 B(  6-N , 12-H ) :   0.9461
B(  7-N ,  8-H ) :   0.9055 B(  7-N ,  9-H ) :   0.9494

Dispersion correction           -0.000319194
FINAL SINGLE POINT ENERGY      -284.369724575417

DIPOLE MOMENT
-------------
                                X             Y             Z
Electronic contribution:      4.68712       2.46615      -1.69965
Nuclear contribution   :     -3.96322      -1.85512       1.24891
                        -----------------------------------------
Total Dipole Moment    :      0.72390       0.61104      -0.45074
                        -----------------------------------------
Magnitude (a.u.)       :      1.04908
Magnitude (Debye)      :      2.66654

Rotational constants in cm-1:     0.261404     0.067000     0.054949
Rotational constants in MHz :  7836.702504  2008.609425  1647.329138

                             ****ORCA TERMINATED NORMALLY****
TOTAL RUN TIME: 0 days 0 hours 1 minutes 1 seconds 487 msec
