                         Program Version 5.0.0 -  RELEASE  -
|  1> !M062X D3Zero RIJCOSX def2-TZVPD def2/J TightSCF xyzfile
|  2>
|  3> *xyzfile 0 1 B.xyz
|  4>
|  5> %MaxCore 64000
|  6>
|  7> %pal nprocs 4
|  8> end
|  9>
| 10> %scf
| 11>   MaxIter 150
| 12> end
| 13>
| 14>
| 15>                          ****END OF INPUT****

CARTESIAN COORDINATES (ANGSTROEM)
---------------------------------
  C      1.635557   -1.670396   -5.292109
  C      0.338484   -1.500907   -4.505398
  N      2.484511   -0.507410   -5.140392
  C     -0.684873   -0.528026   -5.099889
  C     -0.290406    0.951335   -5.153423
  H      0.607991    1.070692   -5.764412
  C     -0.055168    1.619420   -3.788577
  H     -1.080912    1.483775   -5.689436
  H      0.045006    0.862302   -3.003015
  H     -0.922936    2.230329   -3.517028
  C      1.223022    2.469865   -3.756911
  H      1.114701    3.258074   -4.532999
  H      1.237732    3.011242   -2.792157
  O      2.353815    1.712032   -3.934477
  H      1.398337   -1.829239   -6.352591
  H      2.155864   -2.565398   -4.932091
  C      3.451149   -0.149530   -5.952589
  N      3.922667    1.089559   -5.850711
  N      3.966162   -1.006183   -6.867880
  H      3.521391   -1.906467   -6.995270
  H      4.444824   -0.623472   -7.670348
  H      2.251995    0.240804   -4.498792
  H      3.464277    1.640782   -5.136392
  H      4.834470    1.313745   -6.224653
  H     -0.937999   -0.869056   -6.110838
  H     -1.604638   -0.622496   -4.513132
  H      0.594887   -1.211578   -3.482312
  H     -0.126530   -2.487656   -4.434176

 Total Charge           Charge          ....    0
 Multiplicity           Mult            ....    1
 Number of Electrons    NEL             ....   88
 Basis Dimension        Dim             ....  563

ORBITAL ENERGIES
----------------

  NO   OCC          E(Eh)            E(eV)
   0   2.0000     -19.491555      -530.3922
   1   2.0000     -14.806582      -402.9076
   2   2.0000     -14.765063      -401.7778
   3   2.0000     -14.762624      -401.7114
   4   2.0000     -10.687709      -290.8274
   5   2.0000     -10.588681      -288.1327
   6   2.0000     -10.538352      -286.7631
   7   2.0000     -10.524922      -286.3977
   8   2.0000     -10.512279      -286.0536
   9   2.0000     -10.506200      -285.8882
  10   2.0000     -10.487527      -285.3801
  11   2.0000      -1.146035       -31.1852
  12   2.0000      -1.034842       -28.1595
  13   2.0000      -1.013720       -27.5847
  14   2.0000      -0.998436       -27.1688
  15   2.0000      -0.898958       -24.4619
  16   2.0000      -0.842343       -22.9213
  17   2.0000      -0.782971       -21.3057
  18   2.0000      -0.739504       -20.1229
  19   2.0000      -0.711496       -19.3608
  20   2.0000      -0.677183       -18.4271
  21   2.0000      -0.659918       -17.9573
  22   2.0000      -0.639442       -17.4001
  23   2.0000      -0.608326       -16.5534
  24   2.0000      -0.579353       -15.7650
  25   2.0000      -0.569964       -15.5095
  26   2.0000      -0.561908       -15.2903
  27   2.0000      -0.547161       -14.8890
  28   2.0000      -0.511178       -13.9099
  29   2.0000      -0.495220       -13.4756
  30   2.0000      -0.482792       -13.1374
  31   2.0000      -0.478475       -13.0200
  32   2.0000      -0.450788       -12.2666
  33   2.0000      -0.430837       -11.7237
  34   2.0000      -0.422355       -11.4929
  35   2.0000      -0.400501       -10.8982
  36   2.0000      -0.383616       -10.4387
  37   2.0000      -0.375976       -10.2308
  38   2.0000      -0.365383        -9.9426
  39   2.0000      -0.356530        -9.7017
  40   2.0000      -0.352107        -9.5813
  41   2.0000      -0.323191        -8.7945
  42   2.0000      -0.245442        -6.6788
  43   2.0000      -0.240195        -6.5360
  44   0.0000      -0.009757        -0.2655
  45   0.0000       0.015155         0.4124
  46   0.0000       0.029700         0.8082
  47   0.0000       0.035364         0.9623
  48   0.0000       0.038454         1.0464

MULLIKEN ATOMIC CHARGES
-----------------------
   0 C :   -0.965894
   1 C :   -0.674579
   2 N :   -0.229958
   3 C :   -0.786831
   4 C :   -0.621195
   5 H :    0.284043
   6 C :   -0.588778
   7 H :    0.426991
   8 H :    0.240277
   9 H :    0.417281
  10 C :   -0.569560
  11 H :    0.314918
  12 H :    0.308757
  13 O :   -1.174037
  14 H :    0.453252
  15 H :    0.370408
  16 C :    0.975872
  17 N :   -0.593147
  18 N :   -0.671448
  19 H :    0.277191
  20 H :    0.255015
  21 H :    0.443108
  22 H :    0.459158
  23 H :    0.240102
  24 H :    0.358715
  25 H :    0.356506
  26 H :    0.289946
  27 H :    0.403890
Sum of atomic charges:    0.0000000

LOEWDIN ATOMIC CHARGES
----------------------
   0 C :   -0.183028
   1 C :   -0.192392
   2 N :    0.081214
   3 C :   -0.212971
   4 C :   -0.215871
   5 H :    0.102352
   6 C :   -0.202993
   7 H :    0.107786
   8 H :    0.102183
   9 H :    0.105126
  10 C :   -0.406445
  11 H :    0.106202
  12 H :    0.098367
  13 O :   -0.341440
  14 H :    0.122944
  15 H :    0.122283
  16 C :   -0.451222
  17 N :    0.180449
  18 N :    0.168290
  19 H :    0.103367
  20 H :    0.116644
  21 H :    0.061304
  22 H :    0.056152
  23 H :    0.123249
  24 H :    0.108387
  25 H :    0.113172
  26 H :    0.114837
  27 H :    0.112054

  Mayer bond orders larger than 0.100000
B(  0-C ,  1-C ) :   0.6358 B(  0-C ,  2-N ) :   0.8447 B(  0-C , 14-H ) :   0.8473
B(  0-C , 15-H ) :   0.9342 B(  0-C , 16-C ) :  -0.2534 B(  0-C , 18-N ) :   0.1373
B(  1-C ,  3-C ) :   0.6331 B(  1-C , 26-H ) :   0.9800 B(  1-C , 27-H ) :   0.9171
B(  2-N , 13-O ) :  -0.1379 B(  2-N , 16-C ) :   1.3298 B(  2-N , 21-H ) :   0.5929
B(  3-C ,  4-C ) :   0.5920 B(  3-C ,  6-C ) :   0.1295 B(  3-C , 24-H ) :   0.9769
B(  3-C , 25-H ) :   0.9540 B(  4-C ,  5-H ) :   1.0048 B(  4-C ,  6-C ) :   0.5143
B(  4-C ,  7-H ) :   0.8683 B(  4-C , 10-C ) :   0.1278 B(  6-C ,  8-H ) :   0.9973
B(  6-C ,  9-H ) :   0.9276 B(  6-C , 10-C ) :   0.7174 B(  6-C , 13-O ) :   0.1548
B( 10-C , 11-H ) :   1.0351 B( 10-C , 12-H ) :   0.9975 B( 10-C , 13-O ) :   0.6154
B( 16-C , 17-N ) :   1.1179 B( 16-C , 18-N ) :   0.8743 B( 17-N , 22-H ) :   0.6855
B( 17-N , 23-H ) :   0.9868 B( 18-N , 19-H ) :   0.9331 B( 18-N , 20-H ) :   0.9751

Dispersion correction           -0.001334595
FINAL SINGLE POINT ENERGY      -516.411761525132

DIPOLE MOMENT
-------------
                                X             Y             Z
Electronic contribution:      8.34134      -0.91735      -2.24014
Nuclear contribution   :     -7.46499      -1.05836       0.01518
                        -----------------------------------------
Total Dipole Moment    :      0.87635      -1.97572      -2.22496
                        -----------------------------------------
Magnitude (a.u.)       :      3.10192
Magnitude (Debye)      :      7.88445

Rotational constants in cm-1:     0.044680     0.028958     0.019773
Rotational constants in MHz :  1339.486245   868.136755   592.791310

                             ****ORCA TERMINATED NORMALLY****
TOTAL RUN TIME: 0 days 0 hours 4 minutes 16 seconds 240 msec
