                         Program Version 5.0.0 -  RELEASE  -
|  1> !M062X D3Zero RIJCOSX def2-TZVPD def2/J TightSCF
|  2> *xyz 0 1
|  3> C         -0.05517        1.61942       -3.78858
|  4> C          1.22302        2.46987       -3.75691
|  5> H          1.11470        3.25807       -4.53300
|  6> H          1.23773        3.01124       -2.79216
|  7> F          2.35381        1.71203       -3.93448
|  8> H         -0.10198        1.08015       -4.71156
|  9> H         -0.91014        2.25726       -3.70441
| 10> H         -0.04403        0.92826       -2.97183
| 11> *
| 12>
| 13> %MaxCore 64000
| 14>
| 15> %pal nprocs 4
| 16> end
| 17>
| 18> %scf
| 19>   MaxIter 150
| 20> end
| 21>
| 22>
| 23>                          ****END OF INPUT****

CARTESIAN COORDINATES (ANGSTROEM)
---------------------------------
  C     -0.055170    1.619420   -3.788580
  C      1.223020    2.469870   -3.756910
  H      1.114700    3.258070   -4.533000
  H      1.237730    3.011240   -2.792160
  F      2.353810    1.712030   -3.934480
  H     -0.101980    1.080150   -4.711560
  H     -0.910140    2.257260   -3.704410
  H     -0.044030    0.928260   -2.971830

 Total Charge           Charge          ....    0
 Multiplicity           Mult            ....    1
 Number of Electrons    NEL             ....   26
 Basis Dimension        Dim             ....  159

ORBITAL ENERGIES
----------------

  NO   OCC          E(Eh)            E(eV)
   0   2.0000     -25.232218      -686.6036
   1   2.0000     -10.614683      -288.8402
   2   2.0000     -10.528466      -286.4941
   3   2.0000      -1.341388       -36.5010
   4   2.0000      -0.863922       -23.5085
   5   2.0000      -0.723033       -19.6747
   6   2.0000      -0.589531       -16.0419
   7   2.0000      -0.582156       -15.8413
   8   2.0000      -0.545325       -14.8390
   9   2.0000      -0.482629       -13.1330
  10   2.0000      -0.468024       -12.7356
  11   2.0000      -0.406606       -11.0643
  12   2.0000      -0.401399       -10.9226
  13   0.0000       0.019589         0.5331
  14   0.0000       0.043086         1.1724
  15   0.0000       0.065364         1.7786
  16   0.0000       0.065944         1.7944
  17   0.0000       0.094416         2.5692

MULLIKEN ATOMIC CHARGES
-----------------------
   0 C :   -0.994909
   1 C :   -0.093485
   2 H :    0.248497
   3 H :    0.249922
   4 F :   -0.314445
   5 H :    0.297431
   6 H :    0.317662
   7 H :    0.289327
Sum of atomic charges:   -0.0000000

LOEWDIN ATOMIC CHARGES
----------------------
   0 C :   -0.086683
   1 C :   -0.280767
   2 H :    0.114453
   3 H :    0.112335
   4 F :   -0.059437
   5 H :    0.066610
   6 H :    0.067702
   7 H :    0.065786

  Mayer bond orders larger than 0.100000
B(  0-C ,  1-C ) :   0.6931 B(  0-C ,  4-F ) :   0.1184 B(  0-C ,  5-H ) :   0.9549
B(  0-C ,  6-H ) :   0.9508 B(  0-C ,  7-H ) :   0.9590 B(  1-C ,  2-H ) :   0.9818
B(  1-C ,  3-H ) :   0.9835 B(  1-C ,  4-F ) :   0.6834

Dispersion correction           -0.000018707
FINAL SINGLE POINT ENERGY      -179.052845863309

DIPOLE MOMENT
-------------
                                X             Y             Z
Electronic contribution:      5.01381      -0.72951      -0.43073
Nuclear contribution   :     -5.66833       1.07099       0.52006
                        -----------------------------------------
Total Dipole Moment    :     -0.65452       0.34148       0.08933
                        -----------------------------------------
Magnitude (a.u.)       :      0.74363
Magnitude (Debye)      :      1.89015

Rotational constants in cm-1:     1.245689     0.305293     0.269541
Rotational constants in MHz : 37344.801915  9152.442838  8080.640229

                             ****ORCA TERMINATED NORMALLY****
TOTAL RUN TIME: 0 days 0 hours 0 minutes 15 seconds 683 msec
