                         Program Version 5.0.0 -  RELEASE  -
|  1> !M062X D3Zero RIJCOSX def2-TZVPD def2/J TightSCF
|  2> *xyz 0 1
|  3> C          1.63556       -1.67040       -5.29211
|  4> C          0.33848       -1.50091       -4.50540
|  5> C          2.48451       -0.50741       -5.14039
|  6> H          1.39834       -1.82924       -6.35259
|  7> H          2.15586       -2.56540       -4.93209
|  8> C          3.45115       -0.14953       -5.95259
|  9> N          3.92267        1.08956       -5.85071
| 10> N          3.96616       -1.00618       -6.86788
| 11> H          3.52139       -1.90647       -6.99527
| 12> H          4.44482       -0.62347       -7.67035
| 13> H          2.25200        0.24080       -4.49879
| 14> H          3.46428        1.64078       -5.13639
| 15> H          4.83447        1.31375       -6.22465
| 16> H         -0.17658       -0.62881       -4.85045
| 17> H          0.56384       -1.39374       -3.46490
| 18> H         -0.28102       -2.36136       -4.64938
| 19> *
| 20>
| 21> %MaxCore 64000
| 22>
| 23> %pal nprocs 4
| 24> end
| 25>
| 26> %scf
| 27>   MaxIter 150
| 28> end
| 29>
| 30>
| 31>                          ****END OF INPUT****

CARTESIAN COORDINATES (ANGSTROEM)
---------------------------------
  C      1.635560   -1.670400   -5.292110
  C      0.338480   -1.500910   -4.505400
  C      2.484510   -0.507410   -5.140390
  H      1.398340   -1.829240   -6.352590
  H      2.155860   -2.565400   -4.932090
  C      3.451150   -0.149530   -5.952590
  N      3.922670    1.089560   -5.850710
  N      3.966160   -1.006180   -6.867880
  H      3.521390   -1.906470   -6.995270
  H      4.444820   -0.623470   -7.670350
  H      2.252000    0.240800   -4.498790
  H      3.464280    1.640780   -5.136390
  H      4.834470    1.313750   -6.224650
  H     -0.176580   -0.628810   -4.850450
  H      0.563840   -1.393740   -3.464900
  H     -0.281020   -2.361360   -4.649380

 Total Charge           Charge          ....    0
 Multiplicity           Mult            ....    1
 Number of Electrons    NEL             ....   48
 Basis Dimension        Dim             ....  312

ORBITAL ENERGIES
----------------

  NO   OCC          E(Eh)            E(eV)
   0   2.0000     -14.748799      -401.3352
   1   2.0000     -14.743533      -401.1919
   2   2.0000     -10.577786      -287.8362
   3   2.0000     -10.512060      -286.0477
   4   2.0000     -10.502013      -285.7743
   5   2.0000     -10.459581      -284.6197
   6   2.0000      -1.069611       -29.1056
   7   2.0000      -0.974880       -26.5278
   8   2.0000      -0.876313       -23.8457
   9   2.0000      -0.791784       -21.5455
  10   2.0000      -0.697333       -18.9754
  11   2.0000      -0.659433       -17.9441
  12   2.0000      -0.608456       -16.5569
  13   2.0000      -0.588012       -16.0006
  14   2.0000      -0.534287       -14.5387
  15   2.0000      -0.512189       -13.9374
  16   2.0000      -0.495774       -13.4907
  17   2.0000      -0.466736       -12.7005
  18   2.0000      -0.447350       -12.1730
  19   2.0000      -0.404007       -10.9936
  20   2.0000      -0.393635       -10.7114
  21   2.0000      -0.390894       -10.6368
  22   2.0000      -0.331336        -9.0161
  23   2.0000      -0.217184        -5.9099
  24   0.0000       0.013735         0.3737
  25   0.0000       0.033969         0.9243
  26   0.0000       0.036927         1.0048
  27   0.0000       0.057945         1.5768
  28   0.0000       0.065716         1.7882

MULLIKEN ATOMIC CHARGES
-----------------------
   0 C :   -0.384007
   1 C :   -1.459895
   2 C :   -0.552109
   3 H :    0.326270
   4 H :    0.295305
   5 C :    0.931360
   6 N :   -0.650281
   7 N :   -0.673919
   8 H :    0.253630
   9 H :    0.238058
  10 H :    0.170102
  11 H :    0.220491
  12 H :    0.234411
  13 H :    0.357348
  14 H :    0.341824
  15 H :    0.351412
Sum of atomic charges:    0.0000000

LOEWDIN ATOMIC CHARGES
----------------------
   0 C :   -0.298246
   1 C :   -0.115170
   2 C :   -0.150474
   3 H :    0.109815
   4 H :    0.110654
   5 C :   -0.546303
   6 N :    0.093101
   7 N :    0.120806
   8 H :    0.095899
   9 H :    0.098671
  10 H :    0.069076
  11 H :    0.109874
  12 H :    0.103403
  13 H :    0.069416
  14 H :    0.068563
  15 H :    0.060915

  Mayer bond orders larger than 0.100000
B(  0-C ,  1-C ) :   0.3380 B(  0-C ,  2-C ) :   0.3595 B(  0-C ,  3-H ) :   0.8579
B(  0-C ,  4-H ) :   1.0054 B(  0-C , 14-H ) :  -0.1248 B(  1-C ,  2-C ) :   0.2074
B(  1-C , 13-H ) :   0.9808 B(  1-C , 14-H ) :   1.0000 B(  1-C , 15-H ) :   0.9438
B(  2-C ,  4-H ) :  -0.1191 B(  2-C ,  5-C ) :   1.2236 B(  2-C , 10-H ) :   1.2314
B(  5-C ,  6-N ) :   0.9226 B(  5-C ,  7-N ) :   0.7640 B(  5-C , 10-H ) :  -0.3125
B(  6-N , 11-H ) :   0.9738 B(  6-N , 12-H ) :   1.0063 B(  7-N ,  8-H ) :   0.9352
B(  7-N ,  9-H ) :   0.9940

Dispersion correction           -0.000317474
FINAL SINGLE POINT ENERGY      -267.891472307801

DIPOLE MOMENT
-------------
                                X             Y             Z
Electronic contribution:      4.48920       2.14127      -1.88155
Nuclear contribution   :     -3.99655      -1.83277       1.34879
                        -----------------------------------------
Total Dipole Moment    :      0.49265       0.30850      -0.53277
                        -----------------------------------------
Magnitude (a.u.)       :      0.78849
Magnitude (Debye)      :      2.00419

Rotational constants in cm-1:     0.262971     0.067064     0.055026
Rotational constants in MHz :  7883.664566  2010.513309  1649.636654

                             ****ORCA TERMINATED NORMALLY****
TOTAL RUN TIME: 0 days 0 hours 1 minutes 3 seconds 883 msec
