                         Program Version 5.0.0 -  RELEASE  -
|  1> !M062X D3Zero RIJCOSX def2-TZVPD def2/J TightSCF
|  2> *xyz 0 1
|  3> C          1.63556       -1.67040       -5.29211
|  4> C          0.33848       -1.50091       -4.50540
|  5> N          2.48451       -0.50741       -5.14039
|  6> H          1.39834       -1.82924       -6.35259
|  7> H          2.15586       -2.56540       -4.93209
|  8> C          3.45115       -0.14953       -5.95259
|  9> C          3.92267        1.08956       -5.85071
| 10> N          3.96616       -1.00618       -6.86788
| 11> H          3.52139       -1.90647       -6.99527
| 12> H          4.44482       -0.62347       -7.67035
| 13> H          2.25200        0.24080       -4.49879
| 14> H          3.46428        1.64078       -5.13639
| 15> H          4.83447        1.31375       -6.22465
| 16> H         -0.17658       -0.62881       -4.85045
| 17> H          0.56384       -1.39374       -3.46490
| 18> H         -0.28102       -2.36136       -4.64938
| 19> *
| 20>
| 21> %MaxCore 64000
| 22>
| 23> %pal nprocs 4
| 24> end
| 25>
| 26> %scf
| 27>   MaxIter 150
| 28> end
| 29>
| 30>
| 31>                          ****END OF INPUT****

CARTESIAN COORDINATES (ANGSTROEM)
---------------------------------
  C      1.635560   -1.670400   -5.292110
  C      0.338480   -1.500910   -4.505400
  N      2.484510   -0.507410   -5.140390
  H      1.398340   -1.829240   -6.352590
  H      2.155860   -2.565400   -4.932090
  C      3.451150   -0.149530   -5.952590
  C      3.922670    1.089560   -5.850710
  N      3.966160   -1.006180   -6.867880
  H      3.521390   -1.906470   -6.995270
  H      4.444820   -0.623470   -7.670350
  H      2.252000    0.240800   -4.498790
  H      3.464280    1.640780   -5.136390
  H      4.834470    1.313750   -6.224650
  H     -0.176580   -0.628810   -4.850450
  H      0.563840   -1.393740   -3.464900
  H     -0.281020   -2.361360   -4.649380

 Total Charge           Charge          ....    0
 Multiplicity           Mult            ....    1
 Number of Electrons    NEL             ....   48
 Basis Dimension        Dim             ....  312

ORBITAL ENERGIES
----------------

  NO   OCC          E(Eh)            E(eV)
   0   2.0000     -14.748200      -401.3189
   1   2.0000     -14.747111      -401.2893
   2   2.0000     -10.582277      -287.9584
   3   2.0000     -10.578613      -287.8587
   4   2.0000     -10.533808      -286.6395
   5   2.0000     -10.445551      -284.2379
   6   2.0000      -1.082410       -29.4539
   7   2.0000      -0.988827       -26.9074
   8   2.0000      -0.876203       -23.8427
   9   2.0000      -0.796844       -21.6832
  10   2.0000      -0.715437       -19.4680
  11   2.0000      -0.677359       -18.4319
  12   2.0000      -0.609026       -16.5725
  13   2.0000      -0.570055       -15.5120
  14   2.0000      -0.554076       -15.0772
  15   2.0000      -0.531670       -14.4675
  16   2.0000      -0.488204       -13.2847
  17   2.0000      -0.466391       -12.6911
  18   2.0000      -0.446697       -12.1552
  19   2.0000      -0.438957       -11.9446
  20   2.0000      -0.437183       -11.8964
  21   2.0000      -0.415794       -11.3143
  22   2.0000      -0.323483        -8.8024
  23   2.0000      -0.214881        -5.8472
  24   0.0000       0.010246         0.2788
  25   0.0000       0.027741         0.7549
  26   0.0000       0.037150         1.0109
  27   0.0000       0.059873         1.6292
  28   0.0000       0.069307         1.8859

MULLIKEN ATOMIC CHARGES
-----------------------
   0 C :   -0.366654
   1 C :   -1.417721
   2 N :   -0.339162
   3 H :    0.367751
   4 H :    0.298350
   5 C :    0.934198
   6 C :   -1.122776
   7 N :   -0.662957
   8 H :    0.271237
   9 H :    0.260747
  10 H :    0.249538
  11 H :    0.198590
  12 H :    0.251814
  13 H :    0.371981
  14 H :    0.346134
  15 H :    0.358931
Sum of atomic charges:   -0.0000000

LOEWDIN ATOMIC CHARGES
----------------------
   0 C :   -0.255984
   1 C :   -0.089527
   2 N :    0.001103
   3 H :    0.115992
   4 H :    0.115400
   5 C :   -0.564590
   6 C :   -0.003662
   7 N :    0.114589
   8 H :    0.087899
   9 H :    0.109549
  10 H :    0.144542
  11 H :    0.006598
  12 H :    0.008701
  13 H :    0.071887
  14 H :    0.069755
  15 H :    0.067747

  Mayer bond orders larger than 0.100000
B(  0-C ,  1-C ) :   0.4134 B(  0-C ,  2-N ) :   0.7130 B(  0-C ,  3-H ) :   0.8810
B(  0-C ,  4-H ) :   0.9598 B(  0-C ,  5-C ) :  -0.1351 B(  0-C ,  7-N ) :   0.1011
B(  1-C , 13-H ) :   0.9678 B(  1-C , 14-H ) :   0.9759 B(  1-C , 15-H ) :   0.9377
B(  2-N ,  5-C ) :   1.0376 B(  2-N , 10-H ) :   0.9156 B(  5-C ,  6-C ) :   1.0907
B(  5-C ,  7-N ) :   0.8292 B(  5-C , 11-H ) :  -0.1350 B(  5-C , 12-H ) :  -0.1203
B(  6-C ,  7-N ) :   0.1038 B(  6-C , 11-H ) :   1.0897 B(  6-C , 12-H ) :   1.0851
B(  7-N ,  8-H ) :   0.9386 B(  7-N ,  9-H ) :   0.9591

Dispersion correction           -0.000314600
FINAL SINGLE POINT ENERGY      -267.880720875064

DIPOLE MOMENT
-------------
                                X             Y             Z
Electronic contribution:      2.95840       0.57022      -1.27881
Nuclear contribution   :     -3.69145      -1.49398       1.19810
                        -----------------------------------------
Total Dipole Moment    :     -0.73305      -0.92376      -0.08071
                        -----------------------------------------
Magnitude (a.u.)       :      1.18203
Magnitude (Debye)      :      3.00449

Rotational constants in cm-1:     0.270790     0.068966     0.056679
Rotational constants in MHz :  8118.084803  2067.559423  1699.196934

                             ****ORCA TERMINATED NORMALLY****
TOTAL RUN TIME: 0 days 0 hours 1 minutes 3 seconds 868 msec
