                         Program Version 5.0.0 -  RELEASE  -
|  1> !M062X D3Zero RIJCOSX def2-TZVPD def2/J TightSCF
|  2> *xyz 0 1
|  3> C          1.63556       -1.67040       -5.29211
|  4> C          0.33848       -1.50091       -4.50540
|  5> N          2.48451       -0.50741       -5.14039
|  6> H          1.39834       -1.82924       -6.35259
|  7> H          2.15586       -2.56540       -4.93209
|  8> C          3.45115       -0.14953       -5.95259
|  9> N          3.92267        1.08956       -5.85071
| 10> C          3.96616       -1.00618       -6.86788
| 11> H          3.52139       -1.90647       -6.99527
| 12> H          4.44482       -0.62347       -7.67035
| 13> H          2.25200        0.24080       -4.49879
| 14> H          3.46428        1.64078       -5.13639
| 15> H          4.83447        1.31375       -6.22465
| 16> H         -0.17658       -0.62881       -4.85045
| 17> H          0.56384       -1.39374       -3.46490
| 18> H         -0.28102       -2.36136       -4.64938
| 19> *
| 20>
| 21> %MaxCore 64000
| 22>
| 23> %pal nprocs 4
| 24> end
| 25>
| 26> %scf
| 27>   MaxIter 150
| 28> end
| 29>
| 30>
| 31>                          ****END OF INPUT****

CARTESIAN COORDINATES (ANGSTROEM)
---------------------------------
  C      1.635560   -1.670400   -5.292110
  C      0.338480   -1.500910   -4.505400
  N      2.484510   -0.507410   -5.140390
  H      1.398340   -1.829240   -6.352590
  H      2.155860   -2.565400   -4.932090
  C      3.451150   -0.149530   -5.952590
  N      3.922670    1.089560   -5.850710
  C      3.966160   -1.006180   -6.867880
  H      3.521390   -1.906470   -6.995270
  H      4.444820   -0.623470   -7.670350
  H      2.252000    0.240800   -4.498790
  H      3.464280    1.640780   -5.136390
  H      4.834470    1.313750   -6.224650
  H     -0.176580   -0.628810   -4.850450
  H      0.563840   -1.393740   -3.464900
  H     -0.281020   -2.361360   -4.649380

 Total Charge           Charge          ....    0
 Multiplicity           Mult            ....    1
 Number of Electrons    NEL             ....   48
 Basis Dimension        Dim             ....  312

ORBITAL ENERGIES
----------------

  NO   OCC          E(Eh)            E(eV)
   0   2.0000     -14.754891      -401.5010
   1   2.0000     -14.749141      -401.3445
   2   2.0000     -10.584206      -288.0109
   3   2.0000     -10.572448      -287.6909
   4   2.0000     -10.530132      -286.5395
   5   2.0000     -10.448123      -284.3079
   6   2.0000      -1.091263       -29.6948
   7   2.0000      -0.994171       -27.0528
   8   2.0000      -0.861743       -23.4492
   9   2.0000      -0.798035       -21.7156
  10   2.0000      -0.732443       -19.9308
  11   2.0000      -0.648641       -17.6504
  12   2.0000      -0.611199       -16.6316
  13   2.0000      -0.599462       -16.3122
  14   2.0000      -0.548685       -14.9305
  15   2.0000      -0.535601       -14.5744
  16   2.0000      -0.472594       -12.8599
  17   2.0000      -0.461280       -12.5521
  18   2.0000      -0.458041       -12.4639
  19   2.0000      -0.436603       -11.8806
  20   2.0000      -0.425810       -11.5869
  21   2.0000      -0.416711       -11.3393
  22   2.0000      -0.316600        -8.6151
  23   2.0000      -0.219387        -5.9698
  24   0.0000       0.011093         0.3019
  25   0.0000       0.026599         0.7238
  26   0.0000       0.038453         1.0464
  27   0.0000       0.058005         1.5784
  28   0.0000       0.069756         1.8982

MULLIKEN ATOMIC CHARGES
-----------------------
   0 C :   -0.409829
   1 C :   -1.376841
   2 N :   -0.339325
   3 H :    0.352611
   4 H :    0.341660
   5 C :    0.914678
   6 N :   -0.619713
   7 C :   -1.106745
   8 H :    0.271634
   9 H :    0.197283
  10 H :    0.245525
  11 H :    0.203304
  12 H :    0.256631
  13 H :    0.365837
  14 H :    0.344250
  15 H :    0.359039
Sum of atomic charges:    0.0000000

LOEWDIN ATOMIC CHARGES
----------------------
   0 C :   -0.247987
   1 C :   -0.091434
   2 N :    0.000975
   3 H :    0.121186
   4 H :    0.122009
   5 C :   -0.575239
   6 N :    0.105296
   7 C :    0.010156
   8 H :   -0.009206
   9 H :    0.003421
  10 H :    0.138557
  11 H :    0.100745
  12 H :    0.116546
  13 H :    0.069397
  14 H :    0.067347
  15 H :    0.068229

  Mayer bond orders larger than 0.100000
B(  0-C ,  1-C ) :   0.3566 B(  0-C ,  2-N ) :   0.7664 B(  0-C ,  3-H ) :   0.9158
B(  0-C ,  4-H ) :   0.9361 B(  0-C ,  7-C ) :   0.1790 B(  1-C , 13-H ) :   0.9733
B(  1-C , 14-H ) :   0.9768 B(  1-C , 15-H ) :   0.9358 B(  2-N ,  5-C ) :   0.9784
B(  2-N , 10-H ) :   0.9767 B(  5-C ,  6-N ) :   0.8430 B(  5-C ,  7-C ) :   1.2533
B(  5-C ,  9-H ) :  -0.1592 B(  6-N , 11-H ) :   1.0072 B(  6-N , 12-H ) :   0.9641
B(  7-C ,  8-H ) :   0.9667 B(  7-C ,  9-H ) :   1.1788

Dispersion correction           -0.000318246
FINAL SINGLE POINT ENERGY      -267.881805505523

DIPOLE MOMENT
-------------
                                X             Y             Z
Electronic contribution:      3.02172       2.58738      -0.22873
Nuclear contribution   :     -3.68222      -1.93858       0.98231
                        -----------------------------------------
Total Dipole Moment    :     -0.66050       0.64880       0.75358
                        -----------------------------------------
Magnitude (a.u.)       :      1.19378
Magnitude (Debye)      :      3.03434

Rotational constants in cm-1:     0.275407     0.068040     0.056255
Rotational constants in MHz :  8256.498401  2039.796466  1686.484500

                             ****ORCA TERMINATED NORMALLY****
TOTAL RUN TIME: 0 days 0 hours 1 minutes 2 seconds 157 msec
