                         Program Version 5.0.0 -  RELEASE  -
|  1> !M062X D3Zero RIJCOSX def2-TZVPD def2/J TightSCF xyzfile
|  2>
|  3> *xyzfile 0 1 D1.xyz
|  4>
|  5> %MaxCore 64000
|  6>
|  7> %pal nprocs 4
|  8> end
|  9>
| 10> %scf
| 11>   MaxIter 150
| 12> end
| 13>
| 14>
| 15>                          ****END OF INPUT****

CARTESIAN COORDINATES (ANGSTROEM)
---------------------------------
  C      1.635557   -1.670396   -5.292109
  C      0.338484   -1.500907   -4.505398
  C      2.484511   -0.507410   -5.140392
  C     -0.684873   -0.528026   -5.099889
  C     -0.290406    0.951335   -5.153423
  H      0.607991    1.070692   -5.764412
  C     -0.055168    1.619420   -3.788577
  H     -1.080912    1.483775   -5.689436
  H      0.045006    0.862302   -3.003015
  H     -0.922936    2.230329   -3.517028
  C      1.223022    2.469865   -3.756911
  H      1.114701    3.258074   -4.532999
  H      1.237732    3.011242   -2.792157
  F      2.353815    1.712032   -3.934477
  H      1.398337   -1.829239   -6.352591
  H      2.155864   -2.565398   -4.932091
  C      3.451149   -0.149530   -5.952589
  N      3.922667    1.089559   -5.850711
  N      3.966162   -1.006183   -6.867880
  H      3.521391   -1.906467   -6.995270
  H      4.444824   -0.623472   -7.670348
  H      2.251995    0.240804   -4.498792
  H      3.464277    1.640782   -5.136392
  H      4.834470    1.313745   -6.224653
  H     -0.937999   -0.869056   -6.110838
  H     -1.604638   -0.622496   -4.513132
  H      0.594887   -1.211578   -3.482312
  H     -0.126530   -2.487656   -4.434176

 Total Charge           Charge          ....    0
 Multiplicity           Mult            ....    1
 Number of Electrons    NEL             ....   88
 Basis Dimension        Dim             ....  563

ORBITAL ENERGIES
----------------

  NO   OCC          E(Eh)            E(eV)
   0   2.0000     -25.259340      -687.3416
   1   2.0000     -14.734489      -400.9458
   2   2.0000     -14.718648      -400.5148
   3   2.0000     -10.624832      -289.1164
   4   2.0000     -10.559422      -287.3365
   5   2.0000     -10.540981      -286.8347
   6   2.0000     -10.523880      -286.3693
   7   2.0000     -10.521080      -286.2932
   8   2.0000     -10.511586      -286.0348
   9   2.0000     -10.501468      -285.7595
  10   2.0000     -10.432199      -283.8746
  11   2.0000      -1.380006       -37.5519
  12   2.0000      -1.052015       -28.6268
  13   2.0000      -0.958383       -26.0789
  14   2.0000      -0.909827       -24.7576
  15   2.0000      -0.875556       -23.8251
  16   2.0000      -0.823513       -22.4089
  17   2.0000      -0.785715       -21.3804
  18   2.0000      -0.730505       -19.8780
  19   2.0000      -0.693858       -18.8808
  20   2.0000      -0.658988       -17.9320
  21   2.0000      -0.637473       -17.3465
  22   2.0000      -0.622456       -16.9379
  23   2.0000      -0.599266       -16.3068
  24   2.0000      -0.593479       -16.1494
  25   2.0000      -0.579009       -15.7556
  26   2.0000      -0.563911       -15.3448
  27   2.0000      -0.527629       -14.3575
  28   2.0000      -0.510990       -13.9048
  29   2.0000      -0.507350       -13.8057
  30   2.0000      -0.485951       -13.2234
  31   2.0000      -0.473063       -12.8727
  32   2.0000      -0.462472       -12.5845
  33   2.0000      -0.446779       -12.1575
  34   2.0000      -0.427159       -11.6236
  35   2.0000      -0.425020       -11.5654
  36   2.0000      -0.413348       -11.2478
  37   2.0000      -0.398931       -10.8555
  38   2.0000      -0.381214       -10.3733
  39   2.0000      -0.367690       -10.0054
  40   2.0000      -0.361692        -9.8422
  41   2.0000      -0.351966        -9.5775
  42   2.0000      -0.314500        -8.5580
  43   2.0000      -0.198888        -5.4120
  44   0.0000       0.014336         0.3901
  45   0.0000       0.022916         0.6236
  46   0.0000       0.029171         0.7938
  47   0.0000       0.035609         0.9690
  48   0.0000       0.045898         1.2489

MULLIKEN ATOMIC CHARGES
-----------------------
   0 C :   -0.951256
   1 C :   -0.688190
   2 C :   -0.105305
   3 C :   -0.910347
   4 C :   -0.455837
   5 H :    0.329679
   6 C :   -0.789182
   7 H :    0.407247
   8 H :    0.305976
   9 H :    0.424643
  10 C :   -0.409557
  11 H :    0.320726
  12 H :    0.327803
  13 F :   -0.465559
  14 H :    0.373319
  15 H :    0.357535
  16 C :    0.168543
  17 N :   -0.688537
  18 N :   -0.706204
  19 H :    0.257870
  20 H :    0.236720
  21 H :    0.651215
  22 H :    0.435093
  23 H :    0.200599
  24 H :    0.380808
  25 H :    0.351969
  26 H :    0.225477
  27 H :    0.414752
Sum of atomic charges:    0.0000000

LOEWDIN ATOMIC CHARGES
----------------------
   0 C :   -0.233080
   1 C :   -0.216973
   2 C :   -0.138575
   3 C :   -0.207633
   4 C :   -0.210485
   5 H :    0.106839
   6 C :   -0.174681
   7 H :    0.108948
   8 H :    0.110914
   9 H :    0.117403
  10 C :   -0.190187
  11 H :    0.133221
  12 H :    0.122530
  13 F :   -0.094432
  14 H :    0.115110
  15 H :    0.112781
  16 C :   -0.531003
  17 N :    0.106937
  18 N :    0.119812
  19 H :    0.093295
  20 H :    0.095435
  21 H :    0.036026
  22 H :    0.076028
  23 H :    0.103814
  24 H :    0.113133
  25 H :    0.110285
  26 H :    0.107875
  27 H :    0.106665

  Mayer bond orders larger than 0.100000
B(  0-C ,  1-C ) :   0.7090 B(  0-C ,  2-C ) :   0.1540 B(  0-C , 14-H ) :   0.7915
B(  0-C , 15-H ) :   1.1235 B(  0-C , 18-N ) :   0.1050 B(  1-C ,  2-C ) :   0.1068
B(  1-C ,  3-C ) :   0.6537 B(  1-C , 26-H ) :   1.0216 B(  1-C , 27-H ) :   0.9227
B(  2-C ,  6-C ) :   0.1069 B(  2-C , 13-F ) :   0.2727 B(  2-C , 14-H ) :  -0.1334
B(  2-C , 15-H ) :  -0.2308 B(  2-C , 16-C ) :   2.2390 B(  2-C , 21-H ) :   0.9562
B(  3-C ,  4-C ) :   0.6246 B(  3-C ,  6-C ) :   0.1774 B(  3-C , 24-H ) :   0.9683
B(  3-C , 25-H ) :   0.9695 B(  4-C ,  5-H ) :   0.9974 B(  4-C ,  6-C ) :   0.4170
B(  4-C ,  7-H ) :   0.9059 B(  6-C ,  8-H ) :   1.0049 B(  6-C ,  9-H ) :   0.8818
B(  6-C , 10-C ) :   0.7451 B(  6-C , 13-F ) :   0.1173 B( 10-C , 11-H ) :   0.9853
B( 10-C , 12-H ) :   0.9524 B( 10-C , 13-F ) :   0.6294 B( 13-F , 16-C ) :   0.1046
B( 13-F , 21-H ) :  -0.5246 B( 14-H , 15-H ) :   0.1333 B( 16-C , 17-N ) :   0.9240
B( 16-C , 18-N ) :   0.6562 B( 16-C , 21-H ) :  -0.2163 B( 17-N , 22-H ) :   0.7936
B( 17-N , 23-H ) :   1.0320 B( 18-N , 19-H ) :   0.9505 B( 18-N , 20-H ) :   0.9955

Dispersion correction           -0.001321316
FINAL SINGLE POINT ENERGY      -524.338374361885

DIPOLE MOMENT
-------------
                                X             Y             Z
Electronic contribution:      7.79807       3.82030       1.16267
Nuclear contribution   :     -8.11591      -2.99033      -1.35383
                        -----------------------------------------
Total Dipole Moment    :     -0.31784       0.82997      -0.19117
                        -----------------------------------------
Magnitude (a.u.)       :      0.90908
Magnitude (Debye)      :      2.31069

Rotational constants in cm-1:     0.043530     0.028984     0.019589
Rotational constants in MHz :  1305.007140   868.923804   587.262638

                             ****ORCA TERMINATED NORMALLY****
TOTAL RUN TIME: 0 days 0 hours 4 minutes 9 seconds 852 msec
