                         Program Version 5.0.0 -  RELEASE  -
|  1> !M062X D3Zero RIJCOSX def2-TZVPD def2/J TightSCF xyzfile
|  2>
|  3> *xyzfile 0 1 D2.xyz
|  4>
|  5> %MaxCore 64000
|  6>
|  7> %pal nprocs 4
|  8> end
|  9>
| 10> %scf
| 11>   MaxIter 150
| 12> end
| 13>
| 14>
| 15>                          ****END OF INPUT****

CARTESIAN COORDINATES (ANGSTROEM)
---------------------------------
  C      1.635557   -1.670396   -5.292109
  C      0.338484   -1.500907   -4.505398
  N      2.484511   -0.507410   -5.140392
  C     -0.684873   -0.528026   -5.099889
  C     -0.290406    0.951335   -5.153423
  H      0.607991    1.070692   -5.764412
  C     -0.055168    1.619420   -3.788577
  H     -1.080912    1.483775   -5.689436
  H      0.045006    0.862302   -3.003015
  H     -0.922936    2.230329   -3.517028
  C      1.223022    2.469865   -3.756911
  H      1.114701    3.258074   -4.532999
  H      1.237732    3.011242   -2.792157
  F      2.353815    1.712032   -3.934477
  H      1.398337   -1.829239   -6.352591
  H      2.155864   -2.565398   -4.932091
  C      3.451149   -0.149530   -5.952589
  C      3.922667    1.089559   -5.850711
  N      3.966162   -1.006183   -6.867880
  H      3.521391   -1.906467   -6.995270
  H      4.444824   -0.623472   -7.670348
  H      2.251995    0.240804   -4.498792
  H      3.464277    1.640782   -5.136392
  H      4.834470    1.313745   -6.224653
  H     -0.937999   -0.869056   -6.110838
  H     -1.604638   -0.622496   -4.513132
  H      0.594887   -1.211578   -3.482312
  H     -0.126530   -2.487656   -4.434176

 Total Charge           Charge          ....    0
 Multiplicity           Mult            ....    1
 Number of Electrons    NEL             ....   88
 Basis Dimension        Dim             ....  563

ORBITAL ENERGIES
----------------

  NO   OCC          E(Eh)            E(eV)
   0   2.0000     -25.260762      -687.3803
   1   2.0000     -14.732750      -400.8985
   2   2.0000     -14.721142      -400.5826
   3   2.0000     -10.626557      -289.1633
   4   2.0000     -10.565314      -287.4968
   5   2.0000     -10.564573      -287.4767
   6   2.0000     -10.549449      -287.0651
   7   2.0000     -10.538709      -286.7728
   8   2.0000     -10.538239      -286.7601
   9   2.0000     -10.536301      -286.7073
  10   2.0000     -10.420804      -283.5645
  11   2.0000      -1.380750       -37.5721
  12   2.0000      -1.065017       -28.9806
  13   2.0000      -0.974722       -26.5235
  14   2.0000      -0.919524       -25.0215
  15   2.0000      -0.875531       -23.8244
  16   2.0000      -0.833879       -22.6910
  17   2.0000      -0.779106       -21.2006
  18   2.0000      -0.742146       -20.1948
  19   2.0000      -0.709329       -19.3018
  20   2.0000      -0.667180       -18.1549
  21   2.0000      -0.649904       -17.6848
  22   2.0000      -0.626911       -17.0591
  23   2.0000      -0.604061       -16.4373
  24   2.0000      -0.590289       -16.0626
  25   2.0000      -0.584215       -15.8973
  26   2.0000      -0.558658       -15.2019
  27   2.0000      -0.546901       -14.8819
  28   2.0000      -0.520362       -14.1598
  29   2.0000      -0.512066       -13.9340
  30   2.0000      -0.493329       -13.4242
  31   2.0000      -0.483452       -13.1554
  32   2.0000      -0.467379       -12.7180
  33   2.0000      -0.450096       -12.2477
  34   2.0000      -0.433571       -11.7981
  35   2.0000      -0.428432       -11.6582
  36   2.0000      -0.418547       -11.3893
  37   2.0000      -0.412305       -11.2194
  38   2.0000      -0.397589       -10.8190
  39   2.0000      -0.386717       -10.5231
  40   2.0000      -0.382560       -10.4100
  41   2.0000      -0.379545       -10.3280
  42   2.0000      -0.304986        -8.2991
  43   2.0000      -0.197192        -5.3659
  44   0.0000       0.010722         0.2918
  45   0.0000       0.019618         0.5338
  46   0.0000       0.026937         0.7330
  47   0.0000       0.029481         0.8022
  48   0.0000       0.046559         1.2669

MULLIKEN ATOMIC CHARGES
-----------------------
   0 C :   -0.922686
   1 C :   -0.690872
   2 N :   -0.363769
   3 C :   -0.765077
   4 C :   -0.606195
   5 H :    0.351209
   6 C :   -0.721610
   7 H :    0.400949
   8 H :    0.299356
   9 H :    0.400029
  10 C :   -0.417408
  11 H :    0.321478
  12 H :    0.320846
  13 F :   -0.475004
  14 H :    0.434797
  15 H :    0.353329
  16 C :    0.916952
  17 C :   -1.056121
  18 N :   -0.703120
  19 H :    0.271378
  20 H :    0.261870
  21 H :    0.400613
  22 H :    0.348027
  23 H :    0.260848
  24 H :    0.375024
  25 H :    0.349014
  26 H :    0.257965
  27 H :    0.398178
Sum of atomic charges:   -0.0000000

LOEWDIN ATOMIC CHARGES
----------------------
   0 C :   -0.198955
   1 C :   -0.198067
   2 N :    0.019553
   3 C :   -0.208082
   4 C :   -0.208449
   5 H :    0.107751
   6 C :   -0.175624
   7 H :    0.111819
   8 H :    0.109177
   9 H :    0.118429
  10 C :   -0.188787
  11 H :    0.136092
  12 H :    0.123889
  13 F :   -0.092655
  14 H :    0.120816
  15 H :    0.117076
  16 C :   -0.548883
  17 C :    0.011125
  18 N :    0.114002
  19 H :    0.085554
  20 H :    0.106837
  21 H :    0.091160
  22 H :   -0.011802
  23 H :    0.011180
  24 H :    0.113828
  25 H :    0.112522
  26 H :    0.108917
  27 H :    0.111576

  Mayer bond orders larger than 0.100000
B(  0-C ,  1-C ) :   0.6577 B(  0-C ,  2-N ) :   0.8654 B(  0-C , 14-H ) :   0.8585
B(  0-C , 15-H ) :   0.9429 B(  0-C , 16-C ) :  -0.2628 B(  0-C , 18-N ) :   0.1276
B(  1-C ,  3-C ) :   0.6232 B(  1-C , 26-H ) :   0.9838 B(  1-C , 27-H ) :   0.9356
B(  2-N , 16-C ) :   0.9503 B(  2-N , 21-H ) :   0.6777 B(  3-C ,  4-C ) :   0.6367
B(  3-C ,  6-C ) :   0.1307 B(  3-C , 24-H ) :   0.9616 B(  3-C , 25-H ) :   0.9616
B(  4-C ,  5-H ) :   0.9557 B(  4-C ,  6-C ) :   0.4634 B(  4-C ,  7-H ) :   0.9037
B(  4-C ,  8-H ) :  -0.1117 B(  6-C ,  8-H ) :   1.0079 B(  6-C ,  9-H ) :   0.9089
B(  6-C , 10-C ) :   0.7674 B(  6-C , 13-F ) :   0.1382 B( 10-C , 11-H ) :   0.9893
B( 10-C , 12-H ) :   0.9572 B( 10-C , 13-F ) :   0.6219 B( 13-F , 22-H ) :  -0.1076
B( 16-C , 17-C ) :   1.2360 B( 16-C , 18-N ) :   0.7058 B( 16-C , 22-H ) :  -0.1116
B( 16-C , 23-H ) :  -0.1522 B( 17-C , 18-N ) :   0.1534 B( 17-C , 22-H ) :   0.9043
B( 17-C , 23-H ) :   1.1250 B( 18-N , 19-H ) :   0.9443 B( 18-N , 20-H ) :   0.9699

Dispersion correction           -0.001316595
FINAL SINGLE POINT ENERGY      -524.330164077998

DIPOLE MOMENT
-------------
                                X             Y             Z
Electronic contribution:      6.34674       2.45488       1.71936
Nuclear contribution   :     -7.85451      -2.70006      -1.48294
                        -----------------------------------------
Total Dipole Moment    :     -1.50777      -0.24518       0.23642
                        -----------------------------------------
Magnitude (a.u.)       :      1.54576
Magnitude (Debye)      :      3.92901

Rotational constants in cm-1:     0.044065     0.029250     0.019826
Rotational constants in MHz :  1321.026981   876.903192   594.367265

                             ****ORCA TERMINATED NORMALLY****
TOTAL RUN TIME: 0 days 0 hours 4 minutes 8 seconds 237 msec
