                         Program Version 5.0.0 -  RELEASE  -
|  1> !M062X D3Zero RIJCOSX def2-TZVPD def2/J TightSCF xyzfile
|  2>
|  3> *xyzfile 0 1 D3.xyz
|  4>
|  5> %MaxCore 64000
|  6>
|  7> %pal nprocs 4
|  8> end
|  9>
| 10> %scf
| 11>   MaxIter 150
| 12> end
| 13>
| 14>
| 15>                          ****END OF INPUT****

CARTESIAN COORDINATES (ANGSTROEM)
---------------------------------
  C      1.635557   -1.670396   -5.292109
  C      0.338484   -1.500907   -4.505398
  N      2.484511   -0.507410   -5.140392
  C     -0.684873   -0.528026   -5.099889
  C     -0.290406    0.951335   -5.153423
  H      0.607991    1.070692   -5.764412
  C     -0.055168    1.619420   -3.788577
  H     -1.080912    1.483775   -5.689436
  H      0.045006    0.862302   -3.003015
  H     -0.922936    2.230329   -3.517028
  C      1.223022    2.469865   -3.756911
  H      1.114701    3.258074   -4.532999
  H      1.237732    3.011242   -2.792157
  F      2.353815    1.712032   -3.934477
  H      1.398337   -1.829239   -6.352591
  H      2.155864   -2.565398   -4.932091
  C      3.451149   -0.149530   -5.952589
  N      3.922667    1.089559   -5.850711
  C      3.966162   -1.006183   -6.867880
  H      3.521391   -1.906467   -6.995270
  H      4.444824   -0.623472   -7.670348
  H      2.251995    0.240804   -4.498792
  H      3.464277    1.640782   -5.136392
  H      4.834470    1.313745   -6.224653
  H     -0.937999   -0.869056   -6.110838
  H     -1.604638   -0.622496   -4.513132
  H      0.594887   -1.211578   -3.482312
  H     -0.126530   -2.487656   -4.434176

 Total Charge           Charge          ....    0
 Multiplicity           Mult            ....    1
 Number of Electrons    NEL             ....   88
 Basis Dimension        Dim             ....  563

ORBITAL ENERGIES
----------------

  NO   OCC          E(Eh)            E(eV)
   0   2.0000     -25.288528      -688.1358
   1   2.0000     -14.725086      -400.6899
   2   2.0000     -14.721526      -400.5931
   3   2.0000     -10.643434      -289.6226
   4   2.0000     -10.565435      -287.5001
   5   2.0000     -10.559106      -287.3279
   6   2.0000     -10.558749      -287.3182
   7   2.0000     -10.542281      -286.8701
   8   2.0000     -10.539394      -286.7915
   9   2.0000     -10.536342      -286.7084
  10   2.0000     -10.431068      -283.8438
  11   2.0000      -1.407627       -38.3035
  12   2.0000      -1.070352       -29.1258
  13   2.0000      -0.975298       -26.5392
  14   2.0000      -0.924477       -25.1563
  15   2.0000      -0.879370       -23.9289
  16   2.0000      -0.825087       -22.4517
  17   2.0000      -0.788898       -21.4670
  18   2.0000      -0.751543       -20.4505
  19   2.0000      -0.722007       -19.6468
  20   2.0000      -0.662417       -18.0253
  21   2.0000      -0.655152       -17.8276
  22   2.0000      -0.642818       -17.4920
  23   2.0000      -0.621068       -16.9001
  24   2.0000      -0.610739       -16.6190
  25   2.0000      -0.575159       -15.6509
  26   2.0000      -0.565002       -15.3745
  27   2.0000      -0.547170       -14.8893
  28   2.0000      -0.535038       -14.5591
  29   2.0000      -0.506275       -13.7764
  30   2.0000      -0.498699       -13.5703
  31   2.0000      -0.491244       -13.3674
  32   2.0000      -0.470608       -12.8059
  33   2.0000      -0.443340       -12.0639
  34   2.0000      -0.441341       -12.0095
  35   2.0000      -0.428863       -11.6700
  36   2.0000      -0.425932       -11.5902
  37   2.0000      -0.420426       -11.4404
  38   2.0000      -0.408063       -11.1039
  39   2.0000      -0.392135       -10.6705
  40   2.0000      -0.383794       -10.4436
  41   2.0000      -0.382347       -10.4042
  42   2.0000      -0.293887        -7.9971
  43   2.0000      -0.201674        -5.4878
  44   0.0000       0.005364         0.1460
  45   0.0000       0.019772         0.5380
  46   0.0000       0.023889         0.6500
  47   0.0000       0.029407         0.8002
  48   0.0000       0.042811         1.1650

MULLIKEN ATOMIC CHARGES
-----------------------
   0 C :   -0.998928
   1 C :   -0.668919
   2 N :   -0.322296
   3 C :   -0.782115
   4 C :   -0.617714
   5 H :    0.380015
   6 C :   -0.740730
   7 H :    0.402388
   8 H :    0.307267
   9 H :    0.406261
  10 C :   -0.397512
  11 H :    0.333758
  12 H :    0.327021
  13 F :   -0.484777
  14 H :    0.416615
  15 H :    0.416094
  16 C :    0.735997
  17 N :   -0.668019
  18 C :   -1.092695
  19 H :    0.315311
  20 H :    0.208632
  21 H :    0.449490
  22 H :    0.459614
  23 H :    0.228172
  24 H :    0.380587
  25 H :    0.349449
  26 H :    0.258079
  27 H :    0.398956
Sum of atomic charges:   -0.0000000

LOEWDIN ATOMIC CHARGES
----------------------
   0 C :   -0.191592
   1 C :   -0.197758
   2 N :    0.019530
   3 C :   -0.206902
   4 C :   -0.209367
   5 H :    0.107934
   6 C :   -0.174387
   7 H :    0.112060
   8 H :    0.110469
   9 H :    0.120143
  10 C :   -0.185677
  11 H :    0.136452
  12 H :    0.125762
  13 F :   -0.082832
  14 H :    0.125231
  15 H :    0.123555
  16 C :   -0.565314
  17 N :    0.116010
  18 C :    0.007727
  19 H :   -0.012789
  20 H :   -0.000691
  21 H :    0.088142
  22 H :    0.069770
  23 H :    0.116813
  24 H :    0.115527
  25 H :    0.112531
  26 H :    0.107114
  27 H :    0.112538

  Mayer bond orders larger than 0.100000
B(  0-C ,  1-C ) :   0.5955 B(  0-C ,  2-N ) :   0.9355 B(  0-C , 14-H ) :   0.9180
B(  0-C , 15-H ) :   0.8835 B(  0-C , 16-C ) :  -0.1214 B(  0-C , 18-C ) :   0.2503
B(  1-C ,  3-C ) :   0.6243 B(  1-C , 26-H ) :   0.9864 B(  1-C , 27-H ) :   0.9322
B(  2-N , 16-C ) :   0.9887 B(  2-N , 21-H ) :   0.6438 B(  3-C ,  4-C ) :   0.6330
B(  3-C ,  6-C ) :   0.1316 B(  3-C , 24-H ) :   0.9534 B(  3-C , 25-H ) :   0.9618
B(  4-C ,  5-H ) :   0.9413 B(  4-C ,  6-C ) :   0.4320 B(  4-C ,  7-H ) :   0.9106
B(  4-C ,  8-H ) :  -0.1094 B(  6-C ,  8-H ) :   1.0100 B(  6-C ,  9-H ) :   0.9036
B(  6-C , 10-C ) :   0.7649 B(  6-C , 13-F ) :   0.1360 B( 10-C , 11-H ) :   0.9731
B( 10-C , 12-H ) :   0.9474 B( 10-C , 13-F ) :   0.5963 B( 16-C , 17-N ) :   0.8793
B( 16-C , 18-C ) :   1.3039 B( 16-C , 20-H ) :  -0.1825 B( 17-N , 22-H ) :   0.7688
B( 17-N , 23-H ) :   0.9951 B( 18-C , 19-H ) :   0.9275 B( 18-C , 20-H ) :   1.2068

Dispersion correction           -0.001322984
FINAL SINGLE POINT ENERGY      -524.341727518113

DIPOLE MOMENT
-------------
                                X             Y             Z
Electronic contribution:      6.25307       4.42065       2.79145
Nuclear contribution   :     -7.84660      -3.08098      -1.66782
                        -----------------------------------------
Total Dipole Moment    :     -1.59353       1.33967       1.12363
                        -----------------------------------------
Magnitude (a.u.)       :      2.36571
Magnitude (Debye)      :      6.01316

Rotational constants in cm-1:     0.043547     0.029898     0.020008
Rotational constants in MHz :  1305.520367   896.323854   599.829375

                             ****ORCA TERMINATED NORMALLY****
TOTAL RUN TIME: 0 days 0 hours 4 minutes 21 seconds 926 msec
