                         Program Version 5.0.0 -  RELEASE  -
|  1> !wB97X-D3 RIJCOSX def2-SVPD def2/J TightSCF
|  2> *xyz -1 1
|  3> C          4.90646       -3.10282       -5.95484
|  4> C          3.51177       -2.80621       -6.49228
|  5> H          2.73604       -3.37345       -5.97374
|  6> H          3.44490       -3.04083       -7.55528
|  7> S          3.00462       -1.09621       -6.38926
|  8> O          4.12886       -0.32965       -6.95372
|  9> O          1.78128       -1.00078       -7.13640
| 10> C          5.02498       -3.02568       -4.43762
| 11> H          5.20153       -4.10021       -6.29691
| 12> H          5.60592       -2.39782       -6.41337
| 13> O          2.85155       -0.78368       -4.95679
| 14> H          4.73604       -2.05011       -4.10644
| 15> H          6.03776       -3.21492       -4.14890
| 16> H          4.38436       -3.75784       -3.99214
| 17> *
| 18>
| 19> %MaxCore 64000
| 20>
| 21> %pal nprocs 8
| 22> end
| 23>
| 24> %scf
| 25>   MaxIter 150
| 26> end
| 27>
| 28>
| 29>                          ****END OF INPUT****

CARTESIAN COORDINATES (ANGSTROEM)
---------------------------------
  C      4.906460   -3.102820   -5.954840
  C      3.511770   -2.806210   -6.492280
  H      2.736040   -3.373450   -5.973740
  H      3.444900   -3.040830   -7.555280
  S      3.004620   -1.096210   -6.389260
  O      4.128860   -0.329650   -6.953720
  O      1.781280   -1.000780   -7.136400
  C      5.024980   -3.025680   -4.437620
  H      5.201530   -4.100210   -6.296910
  H      5.605920   -2.397820   -6.413370
  O      2.851550   -0.783680   -4.956790
  H      4.736040   -2.050110   -4.106440
  H      6.037760   -3.214920   -4.148900
  H      4.384360   -3.757840   -3.992140

 Total Charge           Charge          ....   -1
 Multiplicity           Mult            ....    1
 Number of Electrons    NEL             ....   66
 Basis Dimension        Dim             ....  212

ORBITAL ENERGIES
----------------

  NO   OCC          E(Eh)            E(eV)
   0   2.0000     -88.978571     -2421.2300
   1   2.0000     -19.031317      -517.8685
   2   2.0000     -19.019966      -517.5596
   3   2.0000     -19.019576      -517.5490
   4   2.0000     -10.160842      -276.4906
   5   2.0000     -10.156803      -276.3807
   6   2.0000     -10.143160      -276.0094
   7   2.0000      -8.052148      -219.1101
   8   2.0000      -6.011691      -163.5864
   9   2.0000      -6.011663      -163.5857
  10   2.0000      -6.011118      -163.5708
  11   2.0000      -1.049070       -28.5467
  12   2.0000      -0.905048       -24.6276
  13   2.0000      -0.884489       -24.0682
  14   2.0000      -0.773004       -21.0345
  15   2.0000      -0.680977       -18.5303
  16   2.0000      -0.580914       -15.8075
  17   2.0000      -0.490884       -13.3576
  18   2.0000      -0.437994       -11.9184
  19   2.0000      -0.426468       -11.6048
  20   2.0000      -0.397950       -10.8288
  21   2.0000      -0.383964       -10.4482
  22   2.0000      -0.367329        -9.9955
  23   2.0000      -0.356256        -9.6942
  24   2.0000      -0.321437        -8.7467
  25   2.0000      -0.311927        -8.4880
  26   2.0000      -0.300541        -8.1781
  27   2.0000      -0.251894        -6.8544
  28   2.0000      -0.251378        -6.8403
  29   2.0000      -0.213240        -5.8026
  30   2.0000      -0.202566        -5.5121
  31   2.0000      -0.198782        -5.4091
  32   2.0000      -0.161575        -4.3967
  33   0.0000       0.203467         5.5366
  34   0.0000       0.223695         6.0870
  35   0.0000       0.226004         6.1499
  36   0.0000       0.235032         6.3955
  37   0.0000       0.252816         6.8795

MULLIKEN ATOMIC CHARGES
-----------------------
   0 C :   -0.246073
   1 C :   -0.031223
   2 H :   -0.001184
   3 H :   -0.009257
   4 S :    1.366483
   5 O :   -0.833128
   6 O :   -0.811282
   7 C :    0.747416
   8 H :   -0.129946
   9 H :   -0.006009
  10 O :   -0.839755
  11 H :   -0.144781
  12 H :   -0.050527
  13 H :   -0.010731
Sum of atomic charges:   -1.0000000

LOEWDIN ATOMIC CHARGES
----------------------
   0 C :   -0.092528
   1 C :   -0.100585
   2 H :    0.011338
   3 H :    0.006431
   4 S :    0.867944
   5 O :   -0.588721
   6 O :   -0.572985
   7 C :    0.116221
   8 H :    0.008146
   9 H :    0.015332
  10 O :   -0.587094
  11 H :   -0.033997
  12 H :   -0.029393
  13 H :   -0.020108

  Mayer bond orders larger than 0.100000
B(  0-C ,  1-C ) :   1.1787 B(  0-C ,  2-H ) :   0.1060 B(  0-C ,  3-H ) :   0.1159
B(  0-C ,  7-C ) :   1.2163 B(  0-C ,  8-H ) :   0.9176 B(  0-C ,  9-H ) :   0.9232
B(  0-C , 11-H ) :   0.2393 B(  0-C , 12-H ) :   0.1944 B(  0-C , 13-H ) :   0.1940
B(  1-C ,  2-H ) :   0.9411 B(  1-C ,  3-H ) :   0.9522 B(  1-C ,  4-S ) :   0.9525
B(  1-C ,  8-H ) :   0.1131 B(  1-C ,  9-H ) :   0.1414 B(  4-S ,  5-O ) :   1.2735
B(  4-S ,  6-O ) :   1.3545 B(  4-S , 10-O ) :   1.2630 B(  7-C , 11-H ) :   0.8312
B(  7-C , 12-H ) :   0.7644 B(  7-C , 13-H ) :   0.7589 B( 11-H , 13-H ) :   0.1118

Dispersion correction           -0.004525158
FINAL SINGLE POINT ENERGY      -741.973557062223

DIPOLE MOMENT
-------------
                                X             Y             Z
Electronic contribution:     -6.16517       7.84510      -3.68000
Nuclear contribution   :      7.19636      -9.97366       3.94889
                        -----------------------------------------
Total Dipole Moment    :      1.03119      -2.12856       0.26889
                        -----------------------------------------
Magnitude (a.u.)       :      2.38042
Magnitude (Debye)      :      6.05055

Rotational constants in cm-1:     0.137066     0.054570     0.051980
Rotational constants in MHz :  4109.139955  1635.961703  1558.315282

                             ****ORCA TERMINATED NORMALLY****
TOTAL RUN TIME: 0 days 0 hours 0 minutes 24 seconds 170 msec
