                         Program Version 5.0.0 -  RELEASE  -
|  1> !wB97X-D3 RIJCOSX def2-SVPD def2/J TightSCF
|  2> *xyz 1 1
|  3> C          4.49059        1.15590       -2.46929
|  4> N          4.30539        1.22276       -3.90832
|  5> C          4.63192        2.24637       -4.67096
|  6> N          4.54169        2.14399       -5.98714
|  7> N          5.08409        3.39358       -4.11855
|  8> H          4.92067        3.57050       -3.13587
|  9> H          5.25465        4.19739       -4.70696
| 10> H          3.82453        0.44911       -4.35093
| 11> H          4.34337        1.24932       -6.41665
| 12> H          4.67671        2.95662       -6.57411
| 13> C          5.94213        0.93950       -2.03689
| 14> H          3.86431        0.32853       -2.13661
| 15> H          4.07623        2.04999       -1.98901
| 16> C          6.55996       -0.35629       -2.55909
| 17> H          5.96798        0.95257       -0.94244
| 18> H          6.54718        1.78833       -2.36885
| 19> H          6.53022       -0.35990       -3.62867
| 20> H          6.00654       -1.19175       -2.18407
| 21> H          7.57588       -0.42487       -2.23029
| 22> *
| 23>
| 24> %MaxCore 64000
| 25>
| 26> %pal nprocs 8
| 27> end
| 28>
| 29> %scf
| 30>   MaxIter 150
| 31> end
| 32>
| 33>
| 34>                          ****END OF INPUT****

CARTESIAN COORDINATES (ANGSTROEM)
---------------------------------
  C      4.490590    1.155900   -2.469290
  N      4.305390    1.222760   -3.908320
  C      4.631920    2.246370   -4.670960
  N      4.541690    2.143990   -5.987140
  N      5.084090    3.393580   -4.118550
  H      4.920670    3.570500   -3.135870
  H      5.254650    4.197390   -4.706960
  H      3.824530    0.449110   -4.350930
  H      4.343370    1.249320   -6.416650
  H      4.676710    2.956620   -6.574110
  C      5.942130    0.939500   -2.036890
  H      3.864310    0.328530   -2.136610
  H      4.076230    2.049990   -1.989010
  C      6.559960   -0.356290   -2.559090
  H      5.967980    0.952570   -0.942440
  H      6.547180    1.788330   -2.368850
  H      6.530220   -0.359900   -3.628670
  H      6.006540   -1.191750   -2.184070
  H      7.575880   -0.424870   -2.230290

 Total Charge           Charge          ....    1
 Multiplicity           Mult            ....    1
 Number of Electrons    NEL             ....   56
 Basis Dimension        Dim             ....  236

ORBITAL ENERGIES
----------------

  NO   OCC          E(Eh)            E(eV)
   0   2.0000     -14.660975      -398.9454
   1   2.0000     -14.660347      -398.9283
   2   2.0000     -14.657715      -398.8567
   3   2.0000     -10.627906      -289.2000
   4   2.0000     -10.492498      -285.5154
   5   2.0000     -10.430205      -283.8203
   6   2.0000     -10.399814      -282.9933
   7   2.0000      -1.326443       -36.0943
   8   2.0000      -1.213907       -33.0321
   9   2.0000      -1.197502       -32.5857
  10   2.0000      -1.048984       -28.5443
  11   2.0000      -0.972419       -26.4609
  12   2.0000      -0.928439       -25.2641
  13   2.0000      -0.893696       -24.3187
  14   2.0000      -0.870401       -23.6848
  15   2.0000      -0.827830       -22.5264
  16   2.0000      -0.792374       -21.5616
  17   2.0000      -0.787995       -21.4424
  18   2.0000      -0.762473       -20.7480
  19   2.0000      -0.728512       -19.8238
  20   2.0000      -0.698604       -19.0100
  21   2.0000      -0.676289       -18.4027
  22   2.0000      -0.644972       -17.5506
  23   2.0000      -0.598892       -16.2967
  24   2.0000      -0.580212       -15.7884
  25   2.0000      -0.579370       -15.7654
  26   2.0000      -0.563795       -15.3416
  27   2.0000      -0.537737       -14.6326
  28   0.0000      -0.086820        -2.3625
  29   0.0000      -0.074927        -2.0389
  30   0.0000      -0.042202        -1.1484
  31   0.0000      -0.034513        -0.9392
  32   0.0000      -0.010079        -0.2743

MULLIKEN ATOMIC CHARGES
-----------------------
   0 C :    0.693473
   1 N :   -0.617688
   2 C :    1.501144
   3 N :   -0.143585
   4 N :   -0.062673
   5 H :    0.009842
   6 H :   -0.132259
   7 H :   -0.120242
   8 H :   -0.020635
   9 H :   -0.018182
  10 C :   -0.396027
  11 H :   -0.232121
  12 H :   -0.009743
  13 C :    0.621584
  14 H :   -0.071289
  15 H :    0.028187
  16 H :   -0.076056
  17 H :    0.065086
  18 H :   -0.018814
Sum of atomic charges:    1.0000000

LOEWDIN ATOMIC CHARGES
----------------------
   0 C :    0.069072
   1 N :    0.039116
   2 C :   -0.020369
   3 N :    0.254388
   4 N :    0.276075
   5 H :    0.019032
   6 H :    0.037968
   7 H :    0.065118
   8 H :    0.044493
   9 H :    0.043713
  10 C :   -0.057184
  11 H :    0.044284
  12 H :    0.029361
  13 C :    0.133235
  14 H :    0.038188
  15 H :    0.014446
  16 H :   -0.022989
  17 H :   -0.006151
  18 H :   -0.001797

  Mayer bond orders larger than 0.100000
B(  0-C ,  1-N ) :   0.8374 B(  0-C ,  7-H ) :  -0.1476 B(  0-C , 10-C ) :   1.1218
B(  0-C , 11-H ) :   0.8134 B(  0-C , 12-H ) :   0.9075 B(  0-C , 15-H ) :   0.1025
B(  1-N ,  2-C ) :   0.9369 B(  1-N ,  3-N ) :   0.3113 B(  1-N ,  4-N ) :   0.2401
B(  1-N ,  7-H ) :   1.2964 B(  1-N , 11-H ) :   0.2079 B(  2-C ,  3-N ) :   0.7836
B(  2-C ,  4-N ) :   0.9064 B(  2-C ,  6-H ) :  -0.1446 B(  2-C ,  7-H ) :  -0.2239
B(  2-C ,  8-H ) :  -0.1724 B(  2-C ,  9-H ) :  -0.1221 B(  3-N ,  4-N ) :   0.1461
B(  3-N ,  8-H ) :   1.1872 B(  3-N ,  9-H ) :   1.2166 B(  4-N ,  5-H ) :   1.0606
B(  4-N ,  6-H ) :   1.2716 B(  5-H ,  6-H ) :  -0.1937 B(  8-H ,  9-H ) :  -0.1686
B( 10-C , 11-H ) :   0.1240 B( 10-C , 13-C ) :   1.3065 B( 10-C , 14-H ) :   1.0346
B( 10-C , 15-H ) :   0.9085 B( 10-C , 16-H ) :   0.1870 B( 10-C , 17-H ) :   0.1743
B( 10-C , 18-H ) :   0.1974 B( 13-C , 16-H ) :   0.8446 B( 13-C , 17-H ) :   0.8043
B( 13-C , 18-H ) :   0.8251

Dispersion correction           -0.005393084
FINAL SINGLE POINT ENERGY      -323.420259132524

DIPOLE MOMENT
-------------
                                X             Y             Z
Electronic contribution:     -3.26296       3.79476      -4.84174
Nuclear contribution   :      2.46011      -2.82418       3.51638
                        -----------------------------------------
Total Dipole Moment    :     -0.80285       0.97058      -1.32536
                        -----------------------------------------
Magnitude (a.u.)       :      1.82844
Magnitude (Debye)      :      4.64752

Rotational constants in cm-1:     0.152406     0.050160     0.046480
Rotational constants in MHz :  4569.006375  1503.763011  1393.441650

                             ****ORCA TERMINATED NORMALLY****
TOTAL RUN TIME: 0 days 0 hours 0 minutes 27 seconds 797 msec
