                         Program Version 5.0.0 -  RELEASE  -
|  1> !wB97X-D3 RIJCOSX def2-SVPD def2/J TightSCF
|  2> *xyz 0 1
|  3> C          4.90646       -3.10282       -5.95484
|  4> C          3.51177       -2.80621       -6.49228
|  5> H          2.73604       -3.37345       -5.97374
|  6> H          3.44490       -3.04083       -7.55528
|  7> S          3.00462       -1.09621       -6.38926
|  8> F          4.12886       -0.32965       -6.95372
|  9> O          1.78128       -1.00078       -7.13640
| 10> C          5.02498       -3.02568       -4.43762
| 11> H          5.20153       -4.10021       -6.29691
| 12> H          5.60592       -2.39782       -6.41337
| 13> O          2.85155       -0.78368       -4.95679
| 14> H          4.73604       -2.05011       -4.10644
| 15> H          6.03776       -3.21492       -4.14890
| 16> H          4.38436       -3.75784       -3.99214
| 17> *
| 18>
| 19> %MaxCore 64000
| 20>
| 21> %pal nprocs 8
| 22> end
| 23>
| 24> %scf
| 25>   MaxIter 150
| 26> end
| 27>
| 28>
| 29>                          ****END OF INPUT****

CARTESIAN COORDINATES (ANGSTROEM)
---------------------------------
  C      4.906460   -3.102820   -5.954840
  C      3.511770   -2.806210   -6.492280
  H      2.736040   -3.373450   -5.973740
  H      3.444900   -3.040830   -7.555280
  S      3.004620   -1.096210   -6.389260
  F      4.128860   -0.329650   -6.953720
  O      1.781280   -1.000780   -7.136400
  C      5.024980   -3.025680   -4.437620
  H      5.201530   -4.100210   -6.296910
  H      5.605920   -2.397820   -6.413370
  O      2.851550   -0.783680   -4.956790
  H      4.736040   -2.050110   -4.106440
  H      6.037760   -3.214920   -4.148900
  H      4.384360   -3.757840   -3.992140

 Total Charge           Charge          ....    0
 Multiplicity           Mult            ....    1
 Number of Electrons    NEL             ....   66
 Basis Dimension        Dim             ....  212

ORBITAL ENERGIES
----------------

  NO   OCC          E(Eh)            E(eV)
   0   2.0000     -89.234919     -2428.2056
   1   2.0000     -24.909045      -677.8096
   2   2.0000     -19.263044      -524.1741
   3   2.0000     -19.250828      -523.8417
   4   2.0000     -10.355557      -281.7890
   5   2.0000     -10.324669      -280.9485
   6   2.0000     -10.286948      -279.9221
   7   2.0000      -8.309224      -226.1055
   8   2.0000      -6.272940      -170.6954
   9   2.0000      -6.266572      -170.5221
  10   2.0000      -6.265168      -170.4839
  11   2.0000      -1.470758       -40.0214
  12   2.0000      -1.230685       -33.4886
  13   2.0000      -1.126564       -30.6554
  14   2.0000      -0.953801       -25.9542
  15   2.0000      -0.866880       -23.5890
  16   2.0000      -0.813191       -22.1281
  17   2.0000      -0.745283       -20.2802
  18   2.0000      -0.695163       -18.9164
  19   2.0000      -0.680016       -18.5042
  20   2.0000      -0.651526       -17.7289
  21   2.0000      -0.596612       -16.2346
  22   2.0000      -0.592813       -16.1313
  23   2.0000      -0.563944       -15.3457
  24   2.0000      -0.548453       -14.9242
  25   2.0000      -0.537912       -14.6373
  26   2.0000      -0.492230       -13.3943
  27   2.0000      -0.482163       -13.1203
  28   2.0000      -0.475624       -12.9424
  29   2.0000      -0.462195       -12.5770
  30   2.0000      -0.434590       -11.8258
  31   2.0000      -0.419239       -11.4081
  32   2.0000      -0.407531       -11.0895
  33   0.0000       0.064551         1.7565
  34   0.0000       0.090819         2.4713
  35   0.0000       0.095503         2.5988
  36   0.0000       0.097324         2.6483
  37   0.0000       0.115440         3.1413

MULLIKEN ATOMIC CHARGES
-----------------------
   0 C :   -0.233422
   1 C :   -0.080929
   2 H :    0.064011
   3 H :    0.051125
   4 S :    1.528053
   5 F :   -0.417871
   6 O :   -0.677747
   7 C :    0.742415
   8 H :   -0.092149
   9 H :   -0.015345
  10 O :   -0.712527
  11 H :   -0.156786
  12 H :   -0.014424
  13 H :    0.015596
Sum of atomic charges:    0.0000000

LOEWDIN ATOMIC CHARGES
----------------------
   0 C :   -0.078418
   1 C :   -0.054194
   2 H :    0.041858
   3 H :    0.024908
   4 S :    1.130258
   5 F :   -0.267263
   6 O :   -0.462142
   7 C :    0.135247
   8 H :    0.031694
   9 H :    0.023317
  10 O :   -0.478384
  11 H :   -0.032117
  12 H :   -0.009704
  13 H :   -0.005059

  Mayer bond orders larger than 0.100000
B(  0-C ,  1-C ) :   1.1660 B(  0-C ,  3-H ) :   0.1081 B(  0-C ,  7-C ) :   1.2457
B(  0-C ,  8-H ) :   0.9354 B(  0-C ,  9-H ) :   0.9133 B(  0-C , 11-H ) :   0.2283
B(  0-C , 12-H ) :   0.1822 B(  0-C , 13-H ) :   0.1898 B(  1-C ,  2-H ) :   0.9394
B(  1-C ,  3-H ) :   0.9548 B(  1-C ,  4-S ) :   1.0204 B(  1-C ,  9-H ) :   0.1235
B(  4-S ,  5-F ) :   0.6215 B(  4-S ,  6-O ) :   1.5685 B(  4-S , 10-O ) :   1.4868
B(  7-C , 11-H ) :   0.8381 B(  7-C , 12-H ) :   0.7772 B(  7-C , 13-H ) :   0.7646
B( 11-H , 13-H ) :   0.1109

Dispersion correction           -0.004478853
FINAL SINGLE POINT ENERGY      -766.467830361391

DIPOLE MOMENT
-------------
                                X             Y             Z
Electronic contribution:     -5.26469      10.15679      -5.31802
Nuclear contribution   :      6.51452     -11.35172       4.86721
                        -----------------------------------------
Total Dipole Moment    :      1.24982      -1.19493      -0.45081
                        -----------------------------------------
Magnitude (a.u.)       :      1.78694
Magnitude (Debye)      :      4.54204

Rotational constants in cm-1:     0.130386     0.053203     0.051661
Rotational constants in MHz :  3908.886819  1594.983443  1548.763987

                             ****ORCA TERMINATED NORMALLY****
TOTAL RUN TIME: 0 days 0 hours 0 minutes 22 seconds 746 msec
