                         Program Version 5.0.0 -  RELEASE  -
|  1> !wB97X-D3 RIJCOSX def2-SVPD def2/J TightSCF
|  2> *xyz 0 1
|  3> C          4.49059        1.15590       -2.46929
|  4> C          4.30539        1.22276       -3.90832
|  5> C          4.63192        2.24637       -4.67096
|  6> N          4.54169        2.14399       -5.98714
|  7> N          5.08409        3.39358       -4.11855
|  8> H          4.92067        3.57050       -3.13587
|  9> H          5.25465        4.19739       -4.70696
| 10> H          3.82453        0.44911       -4.35093
| 11> H          4.34337        1.24932       -6.41665
| 12> H          4.67671        2.95662       -6.57411
| 13> C          5.94213        0.93950       -2.03689
| 14> H          3.86431        0.32853       -2.13661
| 15> H          4.07623        2.04999       -1.98901
| 16> C          6.55996       -0.35629       -2.55909
| 17> H          5.96798        0.95257       -0.94244
| 18> H          6.54718        1.78833       -2.36885
| 19> H          6.53022       -0.35990       -3.62867
| 20> H          6.00654       -1.19175       -2.18407
| 21> H          7.57588       -0.42487       -2.23029
| 22> *
| 23>
| 24> %MaxCore 64000
| 25>
| 26> %pal nprocs 8
| 27> end
| 28>
| 29> %scf
| 30>   MaxIter 150
| 31> end
| 32>
| 33>
| 34>                          ****END OF INPUT****

CARTESIAN COORDINATES (ANGSTROEM)
---------------------------------
  C      4.490590    1.155900   -2.469290
  C      4.305390    1.222760   -3.908320
  C      4.631920    2.246370   -4.670960
  N      4.541690    2.143990   -5.987140
  N      5.084090    3.393580   -4.118550
  H      4.920670    3.570500   -3.135870
  H      5.254650    4.197390   -4.706960
  H      3.824530    0.449110   -4.350930
  H      4.343370    1.249320   -6.416650
  H      4.676710    2.956620   -6.574110
  C      5.942130    0.939500   -2.036890
  H      3.864310    0.328530   -2.136610
  H      4.076230    2.049990   -1.989010
  C      6.559960   -0.356290   -2.559090
  H      5.967980    0.952570   -0.942440
  H      6.547180    1.788330   -2.368850
  H      6.530220   -0.359900   -3.628670
  H      6.006540   -1.191750   -2.184070
  H      7.575880   -0.424870   -2.230290

 Total Charge           Charge          ....    0
 Multiplicity           Mult            ....    1
 Number of Electrons    NEL             ....   56
 Basis Dimension        Dim             ....  236

ORBITAL ENERGIES
----------------

  NO   OCC          E(Eh)            E(eV)
   0   2.0000     -14.439108      -392.9081
   1   2.0000     -14.437158      -392.8550
   2   2.0000     -10.334370      -281.2125
   3   2.0000     -10.263890      -279.2946
   4   2.0000     -10.261938      -279.2415
   5   2.0000     -10.253016      -278.9987
   6   2.0000     -10.208721      -277.7934
   7   2.0000      -1.070472       -29.1290
   8   2.0000      -0.977416       -26.5968
   9   2.0000      -0.894321       -24.3357
  10   2.0000      -0.829346       -22.5676
  11   2.0000      -0.764873       -20.8132
  12   2.0000      -0.700829       -19.0705
  13   2.0000      -0.673860       -18.3367
  14   2.0000      -0.645719       -17.5709
  15   2.0000      -0.606181       -16.4950
  16   2.0000      -0.575360       -15.6563
  17   2.0000      -0.543539       -14.7905
  18   2.0000      -0.533460       -14.5162
  19   2.0000      -0.512617       -13.9490
  20   2.0000      -0.489008       -13.3066
  21   2.0000      -0.465062       -12.6550
  22   2.0000      -0.454601       -12.3703
  23   2.0000      -0.422855       -11.5065
  24   2.0000      -0.404291       -11.0013
  25   2.0000      -0.401588       -10.9278
  26   2.0000      -0.360450        -9.8083
  27   2.0000      -0.247398        -6.7320
  28   0.0000       0.087698         2.3864
  29   0.0000       0.111460         3.0330
  30   0.0000       0.117063         3.1854
  31   0.0000       0.129367         3.5202
  32   0.0000       0.140353         3.8192

MULLIKEN ATOMIC CHARGES
-----------------------
   0 C :    0.205221
   1 C :   -0.249608
   2 C :    1.031961
   3 N :   -0.075804
   4 N :   -0.079830
   5 H :   -0.018473
   6 H :   -0.234170
   7 H :   -0.417788
   8 H :   -0.021194
   9 H :   -0.151523
  10 C :   -0.359871
  11 H :    0.000503
  12 H :   -0.093120
  13 C :    0.669620
  14 H :   -0.078900
  15 H :   -0.057855
  16 H :   -0.070605
  17 H :    0.032106
  18 H :   -0.030670
Sum of atomic charges:   -0.0000000

LOEWDIN ATOMIC CHARGES
----------------------
   0 C :   -0.069650
   1 C :   -0.043998
   2 C :   -0.211646
   3 N :    0.170046
   4 N :    0.199559
   5 H :   -0.010501
   6 H :   -0.009230
   7 H :   -0.046507
   8 H :    0.011795
   9 H :   -0.005269
  10 C :   -0.082191
  11 H :    0.018519
  12 H :    0.006237
  13 C :    0.114993
  14 H :    0.013554
  15 H :    0.008012
  16 H :   -0.024129
  17 H :   -0.017979
  18 H :   -0.021614

  Mayer bond orders larger than 0.100000
B(  0-C ,  1-C ) :   1.1709 B(  0-C ,  7-H ) :   0.2768 B(  0-C , 10-C ) :   1.1332
B(  0-C , 11-H ) :   0.7287 B(  0-C , 12-H ) :   0.9093 B(  0-C , 14-H ) :   0.1218
B(  0-C , 15-H ) :   0.1430 B(  1-C ,  2-C ) :   1.6618 B(  1-C ,  3-N ) :   0.3826
B(  1-C ,  4-N ) :   0.2242 B(  1-C ,  7-H ) :   0.8666 B(  1-C , 11-H ) :   0.3001
B(  1-C , 12-H ) :   0.1508 B(  2-C ,  3-N ) :   0.7984 B(  2-C ,  4-N ) :   0.8676
B(  2-C ,  6-H ) :  -0.1636 B(  3-N ,  4-N ) :   0.1095 B(  3-N ,  8-H ) :   1.1615
B(  3-N ,  9-H ) :   1.2403 B(  4-N ,  5-H ) :   1.0490 B(  4-N ,  6-H ) :   1.3252
B(  5-H ,  6-H ) :  -0.1819 B(  8-H ,  9-H ) :  -0.1609 B( 10-C , 11-H ) :   0.1148
B( 10-C , 13-C ) :   1.3095 B( 10-C , 14-H ) :   0.9609 B( 10-C , 15-H ) :   0.9363
B( 10-C , 16-H ) :   0.2258 B( 10-C , 17-H ) :   0.2086 B( 10-C , 18-H ) :   0.2194
B( 13-C , 16-H ) :   0.8310 B( 13-C , 17-H ) :   0.7872 B( 13-C , 18-H ) :   0.7681

Dispersion correction           -0.005368181
FINAL SINGLE POINT ENERGY      -306.948731228735

DIPOLE MOMENT
-------------
                                X             Y             Z
Electronic contribution:     -2.32403       3.66416      -4.16700
Nuclear contribution   :      2.29046      -2.89565       3.47129
                        -----------------------------------------
Total Dipole Moment    :     -0.03357       0.76851      -0.69572
                        -----------------------------------------
Magnitude (a.u.)       :      1.03718
Magnitude (Debye)      :      2.63631

Rotational constants in cm-1:     0.154384     0.050352     0.046525
Rotational constants in MHz :  4628.320816  1509.522910  1394.780903

                             ****ORCA TERMINATED NORMALLY****
TOTAL RUN TIME: 0 days 0 hours 0 minutes 27 seconds 930 msec
