                         Program Version 5.0.0 -  RELEASE  -
|  1> !wB97X-D3 RIJCOSX def2-SVPD def2/J TightSCF
|  2> *xyz 0 1
|  3> C          4.90646       -3.10282       -5.95484
|  4> C          3.51177       -2.80621       -6.49228
|  5> H          2.73604       -3.37345       -5.97374
|  6> H          3.44490       -3.04083       -7.55528
|  7> S          3.00462       -1.09621       -6.38926
|  8> O          4.12886       -0.32965       -6.95372
|  9> F          1.78128       -1.00078       -7.13640
| 10> C          5.02498       -3.02568       -4.43762
| 11> H          5.20153       -4.10021       -6.29691
| 12> H          5.60592       -2.39782       -6.41337
| 13> O          2.85155       -0.78368       -4.95679
| 14> H          4.73604       -2.05011       -4.10644
| 15> H          6.03776       -3.21492       -4.14890
| 16> H          4.38436       -3.75784       -3.99214
| 17> *
| 18>
| 19> %MaxCore 64000
| 20>
| 21> %pal nprocs 8
| 22> end
| 23>
| 24> %scf
| 25>   MaxIter 150
| 26> end
| 27>
| 28>
| 29>                          ****END OF INPUT****

CARTESIAN COORDINATES (ANGSTROEM)
---------------------------------
  C      4.906460   -3.102820   -5.954840
  C      3.511770   -2.806210   -6.492280
  H      2.736040   -3.373450   -5.973740
  H      3.444900   -3.040830   -7.555280
  S      3.004620   -1.096210   -6.389260
  O      4.128860   -0.329650   -6.953720
  F      1.781280   -1.000780   -7.136400
  C      5.024980   -3.025680   -4.437620
  H      5.201530   -4.100210   -6.296910
  H      5.605920   -2.397820   -6.413370
  O      2.851550   -0.783680   -4.956790
  H      4.736040   -2.050110   -4.106440
  H      6.037760   -3.214920   -4.148900
  H      4.384360   -3.757840   -3.992140

 Total Charge           Charge          ....    0
 Multiplicity           Mult            ....    1
 Number of Electrons    NEL             ....   66
 Basis Dimension        Dim             ....  212

ORBITAL ENERGIES
----------------

  NO   OCC          E(Eh)            E(eV)
   0   2.0000     -89.236883     -2428.2590
   1   2.0000     -24.927458      -678.3106
   2   2.0000     -19.251426      -523.8579
   3   2.0000     -19.251328      -523.8553
   4   2.0000     -10.356515      -281.8151
   5   2.0000     -10.319550      -280.8092
   6   2.0000     -10.281592      -279.7763
   7   2.0000      -8.311298      -226.1619
   8   2.0000      -6.275053      -170.7529
   9   2.0000      -6.268499      -170.5745
  10   2.0000      -6.267143      -170.5376
  11   2.0000      -1.502043       -40.8727
  12   2.0000      -1.217752       -33.1367
  13   2.0000      -1.112745       -30.2793
  14   2.0000      -0.949706       -25.8428
  15   2.0000      -0.873670       -23.7738
  16   2.0000      -0.821505       -22.3543
  17   2.0000      -0.746700       -20.3187
  18   2.0000      -0.702694       -19.1213
  19   2.0000      -0.691712       -18.8224
  20   2.0000      -0.664730       -18.0882
  21   2.0000      -0.597614       -16.2619
  22   2.0000      -0.592207       -16.1148
  23   2.0000      -0.557750       -15.1771
  24   2.0000      -0.543901       -14.8003
  25   2.0000      -0.529393       -14.4055
  26   2.0000      -0.485572       -13.2131
  27   2.0000      -0.471974       -12.8431
  28   2.0000      -0.470086       -12.7917
  29   2.0000      -0.456272       -12.4158
  30   2.0000      -0.425018       -11.5653
  31   2.0000      -0.415395       -11.3035
  32   2.0000      -0.399304       -10.8656
  33   0.0000       0.065071         1.7707
  34   0.0000       0.086421         2.3516
  35   0.0000       0.094631         2.5750
  36   0.0000       0.099802         2.7157
  37   0.0000       0.117689         3.2025

MULLIKEN ATOMIC CHARGES
-----------------------
   0 C :   -0.277722
   1 C :   -0.094752
   2 H :    0.068971
   3 H :    0.069751
   4 S :    1.565619
   5 O :   -0.695536
   6 F :   -0.432016
   7 C :    0.734058
   8 H :   -0.083784
   9 H :    0.015387
  10 O :   -0.711346
  11 H :   -0.154517
  12 H :   -0.014039
  13 H :    0.009927
Sum of atomic charges:    0.0000000

LOEWDIN ATOMIC CHARGES
----------------------
   0 C :   -0.063275
   1 C :   -0.065808
   2 H :    0.028351
   3 H :    0.022624
   4 S :    1.136119
   5 O :   -0.480313
   6 F :   -0.252668
   7 C :    0.137791
   8 H :    0.034096
   9 H :    0.028762
  10 O :   -0.481253
  11 H :   -0.027922
  12 H :   -0.008910
  13 H :   -0.007594

  Mayer bond orders larger than 0.100000
B(  0-C ,  1-C ) :   1.2252 B(  0-C ,  2-H ) :   0.1056 B(  0-C ,  3-H ) :   0.1261
B(  0-C ,  7-C ) :   1.2372 B(  0-C ,  8-H ) :   0.9311 B(  0-C ,  9-H ) :   0.9207
B(  0-C , 11-H ) :   0.2225 B(  0-C , 12-H ) :   0.1841 B(  0-C , 13-H ) :   0.1858
B(  1-C ,  2-H ) :   0.9313 B(  1-C ,  3-H ) :   0.9046 B(  1-C ,  4-S ) :   0.9832
B(  1-C ,  8-H ) :   0.1018 B(  1-C ,  9-H ) :   0.1326 B(  4-S ,  5-O ) :   1.4855
B(  4-S ,  6-F ) :   0.6683 B(  4-S , 10-O ) :   1.4607 B(  7-C , 11-H ) :   0.8418
B(  7-C , 12-H ) :   0.7747 B(  7-C , 13-H ) :   0.7612 B( 11-H , 13-H ) :   0.1119

Dispersion correction           -0.004510354
FINAL SINGLE POINT ENERGY      -766.452455704456

DIPOLE MOMENT
-------------
                                X             Y             Z
Electronic contribution:     -9.33296       9.02377      -5.64708
Nuclear contribution   :      9.03920     -10.62996       5.06367
                        -----------------------------------------
Total Dipole Moment    :     -0.29376      -1.60619      -0.58341
                        -----------------------------------------
Magnitude (a.u.)       :      1.73393
Magnitude (Debye)      :      4.40729

Rotational constants in cm-1:     0.135071     0.052485     0.050188
Rotational constants in MHz :  4049.321380  1573.451279  1504.609887

                             ****ORCA TERMINATED NORMALLY****
TOTAL RUN TIME: 0 days 0 hours 0 minutes 22 seconds 750 msec
