                         Program Version 5.0.0 -  RELEASE  -
|  1> !wB97X-D3 RIJCOSX def2-SVPD def2/J TightSCF
|  2> *xyz 0 1
|  3> C          4.49059        1.15590       -2.46929
|  4> N          4.30539        1.22276       -3.90832
|  5> C          4.63192        2.24637       -4.67096
|  6> C          4.54169        2.14399       -5.98714
|  7> N          5.08409        3.39358       -4.11855
|  8> H          4.92067        3.57050       -3.13587
|  9> H          5.25465        4.19739       -4.70696
| 10> H          3.82453        0.44911       -4.35093
| 11> H          4.34337        1.24932       -6.41665
| 12> H          4.67671        2.95662       -6.57411
| 13> C          5.94213        0.93950       -2.03689
| 14> H          3.86431        0.32853       -2.13661
| 15> H          4.07623        2.04999       -1.98901
| 16> C          6.55996       -0.35629       -2.55909
| 17> H          5.96798        0.95257       -0.94244
| 18> H          6.54718        1.78833       -2.36885
| 19> H          6.53022       -0.35990       -3.62867
| 20> H          6.00654       -1.19175       -2.18407
| 21> H          7.57588       -0.42487       -2.23029
| 22> *
| 23>
| 24> %MaxCore 64000
| 25>
| 26> %pal nprocs 8
| 27> end
| 28>
| 29> %scf
| 30>   MaxIter 150
| 31> end
| 32>
| 33>
| 34>                          ****END OF INPUT****

CARTESIAN COORDINATES (ANGSTROEM)
---------------------------------
  C      4.490590    1.155900   -2.469290
  N      4.305390    1.222760   -3.908320
  C      4.631920    2.246370   -4.670960
  C      4.541690    2.143990   -5.987140
  N      5.084090    3.393580   -4.118550
  H      4.920670    3.570500   -3.135870
  H      5.254650    4.197390   -4.706960
  H      3.824530    0.449110   -4.350930
  H      4.343370    1.249320   -6.416650
  H      4.676710    2.956620   -6.574110
  C      5.942130    0.939500   -2.036890
  H      3.864310    0.328530   -2.136610
  H      4.076230    2.049990   -1.989010
  C      6.559960   -0.356290   -2.559090
  H      5.967980    0.952570   -0.942440
  H      6.547180    1.788330   -2.368850
  H      6.530220   -0.359900   -3.628670
  H      6.006540   -1.191750   -2.184070
  H      7.575880   -0.424870   -2.230290

 Total Charge           Charge          ....    0
 Multiplicity           Mult            ....    1
 Number of Electrons    NEL             ....   56
 Basis Dimension        Dim             ....  236

ORBITAL ENERGIES
----------------

  NO   OCC          E(Eh)            E(eV)
   0   2.0000     -14.437166      -392.8553
   1   2.0000     -14.436368      -392.8335
   2   2.0000     -10.336153      -281.2610
   3   2.0000     -10.328796      -281.0608
   4   2.0000     -10.287931      -279.9488
   5   2.0000     -10.272743      -279.5355
   6   2.0000     -10.198217      -277.5076
   7   2.0000      -1.078757       -29.3545
   8   2.0000      -0.989539       -26.9267
   9   2.0000      -0.898091       -24.4383
  10   2.0000      -0.833585       -22.6830
  11   2.0000      -0.776370       -21.1261
  12   2.0000      -0.719173       -19.5697
  13   2.0000      -0.689335       -18.7578
  14   2.0000      -0.636477       -17.3194
  15   2.0000      -0.602143       -16.3851
  16   2.0000      -0.580306       -15.7909
  17   2.0000      -0.562621       -15.3097
  18   2.0000      -0.539885       -14.6910
  19   2.0000      -0.502718       -13.6796
  20   2.0000      -0.495191       -13.4748
  21   2.0000      -0.488609       -13.2957
  22   2.0000      -0.466153       -12.6847
  23   2.0000      -0.445659       -12.1270
  24   2.0000      -0.440522       -11.9872
  25   2.0000      -0.432191       -11.7605
  26   2.0000      -0.348314        -9.4781
  27   2.0000      -0.249840        -6.7985
  28   0.0000       0.084434         2.2976
  29   0.0000       0.106499         2.8980
  30   0.0000       0.113923         3.1000
  31   0.0000       0.118051         3.2123
  32   0.0000       0.145387         3.9562

MULLIKEN ATOMIC CHARGES
-----------------------
   0 C :    0.724811
   1 N :   -0.528655
   2 C :    0.788161
   3 C :    0.323020
   4 N :    0.085658
   5 H :   -0.097744
   6 H :   -0.171117
   7 H :   -0.172753
   8 H :   -0.271110
   9 H :   -0.379405
  10 C :   -0.395080
  11 H :   -0.302717
  12 H :   -0.060842
  13 C :    0.637429
  14 H :   -0.130192
  15 H :    0.019718
  16 H :   -0.068230
  17 H :    0.048426
  18 H :   -0.049378
Sum of atomic charges:   -0.0000000

LOEWDIN ATOMIC CHARGES
----------------------
   0 C :    0.040550
   1 N :   -0.021640
   2 C :   -0.230585
   3 C :    0.132926
   4 N :    0.196141
   5 H :   -0.023529
   6 H :    0.006908
   7 H :    0.040449
   8 H :   -0.096989
   9 H :   -0.099153
  10 C :   -0.072762
  11 H :    0.024195
  12 H :    0.010580
  13 C :    0.118539
  14 H :    0.018941
  15 H :    0.010380
  16 H :   -0.019563
  17 H :   -0.017932
  18 H :   -0.017455

  Mayer bond orders larger than 0.100000
B(  0-C ,  1-N ) :   0.8702 B(  0-C ,  7-H ) :  -0.1616 B(  0-C , 10-C ) :   1.1146
B(  0-C , 11-H ) :   0.7975 B(  0-C , 12-H ) :   0.9102 B(  0-C , 15-H ) :   0.1124
B(  1-N ,  2-C ) :   0.9729 B(  1-N ,  3-C ) :   0.2397 B(  1-N ,  4-N ) :   0.1931
B(  1-N ,  7-H ) :   1.2689 B(  1-N , 11-H ) :   0.2292 B(  2-C ,  3-C ) :   1.4617
B(  2-C ,  4-N ) :   0.9255 B(  2-C ,  7-H ) :  -0.1749 B(  2-C ,  9-H ) :   0.1281
B(  3-C ,  4-N ) :   0.1906 B(  3-C ,  8-H ) :   0.8826 B(  3-C ,  9-H ) :   0.7916
B(  4-N ,  5-H ) :   1.0506 B(  4-N ,  6-H ) :   1.2136 B(  5-H ,  6-H ) :  -0.1823
B( 10-C , 11-H ) :   0.1304 B( 10-C , 13-C ) :   1.2792 B( 10-C , 14-H ) :   1.0436
B( 10-C , 15-H ) :   0.9142 B( 10-C , 16-H ) :   0.2021 B( 10-C , 17-H ) :   0.1787
B( 10-C , 18-H ) :   0.2042 B( 11-H , 12-H ) :  -0.1036 B( 13-C , 16-H ) :   0.8468
B( 13-C , 17-H ) :   0.8024 B( 13-C , 18-H ) :   0.8119

Dispersion correction           -0.005437208
FINAL SINGLE POINT ENERGY      -306.940778408620

DIPOLE MOMENT
-------------
                                X             Y             Z
Electronic contribution:     -2.44536       2.73728      -1.97711
Nuclear contribution   :      2.34222      -2.69386       3.01591
                        -----------------------------------------
Total Dipole Moment    :     -0.10314       0.04342       1.03881
                        -----------------------------------------
Magnitude (a.u.)       :      1.04482
Magnitude (Debye)      :      2.65571

Rotational constants in cm-1:     0.155143     0.051710     0.048050
Rotational constants in MHz :  4651.080391  1550.217078  1440.507386

                             ****ORCA TERMINATED NORMALLY****
TOTAL RUN TIME: 0 days 0 hours 0 minutes 28 seconds 219 msec
