                         Program Version 5.0.0 -  RELEASE  -
|  1> !wB97X-D3 RIJCOSX def2-SVPD def2/J TightSCF
|  2> *xyz 0 1
|  3> C          4.90646       -3.10282       -5.95484
|  4> C          3.51177       -2.80621       -6.49228
|  5> H          2.73604       -3.37345       -5.97374
|  6> H          3.44490       -3.04083       -7.55528
|  7> S          3.00462       -1.09621       -6.38926
|  8> O          4.12886       -0.32965       -6.95372
|  9> O          1.78128       -1.00078       -7.13640
| 10> C          5.02498       -3.02568       -4.43762
| 11> H          5.20153       -4.10021       -6.29691
| 12> H          5.60592       -2.39782       -6.41337
| 13> F          2.85155       -0.78368       -4.95679
| 14> H          4.73604       -2.05011       -4.10644
| 15> H          6.03776       -3.21492       -4.14890
| 16> H          4.38436       -3.75784       -3.99214
| 17> *
| 18>
| 19> %MaxCore 64000
| 20>
| 21> %pal nprocs 8
| 22> end
| 23>
| 24> %scf
| 25>   MaxIter 150
| 26> end
| 27>
| 28>
| 29>                          ****END OF INPUT****

CARTESIAN COORDINATES (ANGSTROEM)
---------------------------------
  C      4.906460   -3.102820   -5.954840
  C      3.511770   -2.806210   -6.492280
  H      2.736040   -3.373450   -5.973740
  H      3.444900   -3.040830   -7.555280
  S      3.004620   -1.096210   -6.389260
  O      4.128860   -0.329650   -6.953720
  O      1.781280   -1.000780   -7.136400
  C      5.024980   -3.025680   -4.437620
  H      5.201530   -4.100210   -6.296910
  H      5.605920   -2.397820   -6.413370
  F      2.851550   -0.783680   -4.956790
  H      4.736040   -2.050110   -4.106440
  H      6.037760   -3.214920   -4.148900
  H      4.384360   -3.757840   -3.992140

 Total Charge           Charge          ....    0
 Multiplicity           Mult            ....    1
 Number of Electrons    NEL             ....   66
 Basis Dimension        Dim             ....  212

ORBITAL ENERGIES
----------------

  NO   OCC          E(Eh)            E(eV)
   0   2.0000     -89.234477     -2428.1936
   1   2.0000     -24.908084      -677.7834
   2   2.0000     -19.262975      -524.1722
   3   2.0000     -19.251040      -523.8474
   4   2.0000     -10.355406      -281.7849
   5   2.0000     -10.321306      -280.8570
   6   2.0000     -10.296949      -280.1942
   7   2.0000      -8.308792      -226.0937
   8   2.0000      -6.272480      -170.6829
   9   2.0000      -6.266101      -170.5093
  10   2.0000      -6.264801      -170.4739
  11   2.0000      -1.469629       -39.9906
  12   2.0000      -1.230331       -33.4790
  13   2.0000      -1.127468       -30.6800
  14   2.0000      -0.953013       -25.9328
  15   2.0000      -0.868700       -23.6385
  16   2.0000      -0.814830       -22.1726
  17   2.0000      -0.749639       -20.3987
  18   2.0000      -0.687518       -18.7083
  19   2.0000      -0.678277       -18.4569
  20   2.0000      -0.657135       -17.8816
  21   2.0000      -0.598983       -16.2991
  22   2.0000      -0.588904       -16.0249
  23   2.0000      -0.567832       -15.4515
  24   2.0000      -0.554969       -15.1015
  25   2.0000      -0.536651       -14.6030
  26   2.0000      -0.497229       -13.5303
  27   2.0000      -0.485147       -13.2015
  28   2.0000      -0.467909       -12.7325
  29   2.0000      -0.462055       -12.5732
  30   2.0000      -0.433650       -11.8002
  31   2.0000      -0.423805       -11.5323
  32   2.0000      -0.411062       -11.1856
  33   0.0000       0.067562         1.8385
  34   0.0000       0.089584         2.4377
  35   0.0000       0.095652         2.6028
  36   0.0000       0.096971         2.6387
  37   0.0000       0.118759         3.2316

MULLIKEN ATOMIC CHARGES
-----------------------
   0 C :   -0.225668
   1 C :   -0.094204
   2 H :    0.068233
   3 H :    0.063777
   4 S :    1.516856
   5 O :   -0.706316
   6 O :   -0.675321
   7 C :    0.724866
   8 H :   -0.079141
   9 H :    0.012127
  10 F :   -0.422111
  11 H :   -0.181549
  12 H :   -0.016364
  13 H :    0.014812
Sum of atomic charges:    0.0000000

LOEWDIN ATOMIC CHARGES
----------------------
   0 C :   -0.075443
   1 C :   -0.055251
   2 H :    0.028590
   3 H :    0.037040
   4 S :    1.126222
   5 O :   -0.478510
   6 O :   -0.462628
   7 C :    0.132955
   8 H :    0.033172
   9 H :    0.026963
  10 F :   -0.270341
  11 H :   -0.028081
  12 H :   -0.006895
  13 H :   -0.007794

  Mayer bond orders larger than 0.100000
B(  0-C ,  1-C ) :   1.2006 B(  0-C ,  2-H ) :   0.1053 B(  0-C ,  3-H ) :   0.1072
B(  0-C ,  7-C ) :   1.2336 B(  0-C ,  8-H ) :   0.9191 B(  0-C ,  9-H ) :   0.9290
B(  0-C , 11-H ) :   0.2152 B(  0-C , 12-H ) :   0.1842 B(  0-C , 13-H ) :   0.1844
B(  1-C ,  2-H ) :   0.9375 B(  1-C ,  3-H ) :   0.9332 B(  1-C ,  4-S ) :   1.0266
B(  1-C ,  8-H ) :   0.1080 B(  1-C ,  9-H ) :   0.1365 B(  4-S ,  5-O ) :   1.5042
B(  4-S ,  6-O ) :   1.5612 B(  4-S , 10-F ) :   0.6154 B(  7-C , 11-H ) :   0.8344
B(  7-C , 12-H ) :   0.7852 B(  7-C , 13-H ) :   0.7720 B( 11-H , 13-H ) :   0.1036

Dispersion correction           -0.004480590
FINAL SINGLE POINT ENERGY      -766.468500127124

DIPOLE MOMENT
-------------
                                X             Y             Z
Electronic contribution:     -7.44330       9.34464      -1.86311
Nuclear contribution   :      7.88819     -10.86344       2.71963
                        -----------------------------------------
Total Dipole Moment    :      0.44489      -1.51880       0.85652
                        -----------------------------------------
Magnitude (a.u.)       :      1.79953
Magnitude (Debye)      :      4.57404

Rotational constants in cm-1:     0.130261     0.054435     0.050898
Rotational constants in MHz :  3905.114465  1631.935083  1525.880669

                             ****ORCA TERMINATED NORMALLY****
TOTAL RUN TIME: 0 days 0 hours 0 minutes 22 seconds 988 msec
