                         Program Version 5.0.0 -  RELEASE  -
|  1> !wB97X-D3 RIJCOSX def2-SVPD def2/J TightSCF
|  2> *xyz 0 1
|  3> C          4.49059        1.15590       -2.46929
|  4> N          4.30539        1.22276       -3.90832
|  5> C          4.63192        2.24637       -4.67096
|  6> N          4.54169        2.14399       -5.98714
|  7> C          5.08409        3.39358       -4.11855
|  8> H          4.92067        3.57050       -3.13587
|  9> H          5.25465        4.19739       -4.70696
| 10> H          3.82453        0.44911       -4.35093
| 11> H          4.34337        1.24932       -6.41665
| 12> H          4.67671        2.95662       -6.57411
| 13> C          5.94213        0.93950       -2.03689
| 14> H          3.86431        0.32853       -2.13661
| 15> H          4.07623        2.04999       -1.98901
| 16> C          6.55996       -0.35629       -2.55909
| 17> H          5.96798        0.95257       -0.94244
| 18> H          6.54718        1.78833       -2.36885
| 19> H          6.53022       -0.35990       -3.62867
| 20> H          6.00654       -1.19175       -2.18407
| 21> H          7.57588       -0.42487       -2.23029
| 22> *
| 23>
| 24> %MaxCore 64000
| 25>
| 26> %pal nprocs 8
| 27> end
| 28>
| 29> %scf
| 30>   MaxIter 150
| 31> end
| 32>
| 33>
| 34>                          ****END OF INPUT****

CARTESIAN COORDINATES (ANGSTROEM)
---------------------------------
  C      4.490590    1.155900   -2.469290
  N      4.305390    1.222760   -3.908320
  C      4.631920    2.246370   -4.670960
  N      4.541690    2.143990   -5.987140
  C      5.084090    3.393580   -4.118550
  H      4.920670    3.570500   -3.135870
  H      5.254650    4.197390   -4.706960
  H      3.824530    0.449110   -4.350930
  H      4.343370    1.249320   -6.416650
  H      4.676710    2.956620   -6.574110
  C      5.942130    0.939500   -2.036890
  H      3.864310    0.328530   -2.136610
  H      4.076230    2.049990   -1.989010
  C      6.559960   -0.356290   -2.559090
  H      5.967980    0.952570   -0.942440
  H      6.547180    1.788330   -2.368850
  H      6.530220   -0.359900   -3.628670
  H      6.006540   -1.191750   -2.184070
  H      7.575880   -0.424870   -2.230290

 Total Charge           Charge          ....    0
 Multiplicity           Mult            ....    1
 Number of Electrons    NEL             ....   56
 Basis Dimension        Dim             ....  236

ORBITAL ENERGIES
----------------

  NO   OCC          E(Eh)            E(eV)
   0   2.0000     -14.441683      -392.9782
   1   2.0000     -14.439561      -392.9204
   2   2.0000     -10.339416      -281.3498
   3   2.0000     -10.320886      -280.8456
   4   2.0000     -10.278181      -279.6835
   5   2.0000     -10.268037      -279.4075
   6   2.0000     -10.199443      -277.5410
   7   2.0000      -1.083028       -29.4707
   8   2.0000      -0.997396       -27.1405
   9   2.0000      -0.885314       -24.0906
  10   2.0000      -0.819279       -22.2937
  11   2.0000      -0.795869       -21.6567
  12   2.0000      -0.712401       -19.3854
  13   2.0000      -0.660275       -17.9670
  14   2.0000      -0.654501       -17.8099
  15   2.0000      -0.624042       -16.9811
  16   2.0000      -0.576873       -15.6975
  17   2.0000      -0.552099       -15.0234
  18   2.0000      -0.529132       -14.3984
  19   2.0000      -0.500132       -13.6093
  20   2.0000      -0.492899       -13.4125
  21   2.0000      -0.482961       -13.1420
  22   2.0000      -0.464638       -12.6434
  23   2.0000      -0.442482       -12.0405
  24   2.0000      -0.433442       -11.7946
  25   2.0000      -0.423752       -11.5309
  26   2.0000      -0.344135        -9.3644
  27   2.0000      -0.251073        -6.8320
  28   0.0000       0.084531         2.3002
  29   0.0000       0.108489         2.9521
  30   0.0000       0.115108         3.1323
  31   0.0000       0.120424         3.2769
  32   0.0000       0.140444         3.8217

MULLIKEN ATOMIC CHARGES
-----------------------
   0 C :    0.698940
   1 N :   -0.604910
   2 C :    0.731835
   3 N :    0.009551
   4 C :    0.415739
   5 H :   -0.036661
   6 H :   -0.575805
   7 H :   -0.251073
   8 H :   -0.136015
   9 H :   -0.059933
  10 C :   -0.384564
  11 H :   -0.314615
  12 H :    0.061214
  13 C :    0.632055
  14 H :   -0.110880
  15 H :    0.017308
  16 H :   -0.075766
  17 H :    0.034549
  18 H :   -0.050967
Sum of atomic charges:   -0.0000000

LOEWDIN ATOMIC CHARGES
----------------------
   0 C :    0.047933
   1 N :   -0.026164
   2 C :   -0.229533
   3 N :    0.175763
   4 C :    0.153575
   5 H :   -0.113122
   6 H :   -0.104447
   7 H :    0.027016
   8 H :   -0.003240
   9 H :    0.012538
  10 C :   -0.064854
  11 H :    0.022928
  12 H :    0.018279
  13 C :    0.114760
  14 H :    0.020874
  15 H :    0.010857
  16 H :   -0.024675
  17 H :   -0.020254
  18 H :   -0.018233

  Mayer bond orders larger than 0.100000
B(  0-C ,  1-N ) :   0.8580 B(  0-C ,  5-H ) :   0.1063 B(  0-C ,  7-H ) :  -0.1648
B(  0-C , 10-C ) :   1.0976 B(  0-C , 11-H ) :   0.8628 B(  0-C , 12-H ) :   0.8738
B(  0-C , 15-H ) :   0.1244 B(  1-N ,  2-C ) :   0.8280 B(  1-N ,  3-N ) :   0.2209
B(  1-N ,  4-C ) :   0.3524 B(  1-N ,  7-H ) :   1.4352 B(  1-N , 11-H ) :   0.1718
B(  2-C ,  3-N ) :   0.8811 B(  2-C ,  4-C ) :   1.7316 B(  2-C ,  5-H ) :   0.2779
B(  2-C ,  6-H ) :   0.1727 B(  2-C ,  7-H ) :  -0.3031 B(  3-N ,  4-C ) :   0.2243
B(  3-N ,  8-H ) :   1.1837 B(  3-N ,  9-H ) :   1.1962 B(  4-C ,  5-H ) :   0.6453
B(  4-C ,  6-H ) :   0.8535 B(  8-H ,  9-H ) :  -0.1608 B( 10-C , 11-H ) :   0.1354
B( 10-C , 13-C ) :   1.2717 B( 10-C , 14-H ) :   1.0302 B( 10-C , 15-H ) :   0.9326
B( 10-C , 16-H ) :   0.1957 B( 10-C , 17-H ) :   0.1786 B( 10-C , 18-H ) :   0.2023
B( 11-H , 12-H ) :  -0.1325 B( 13-C , 16-H ) :   0.8538 B( 13-C , 17-H ) :   0.8042
B( 13-C , 18-H ) :   0.8149

Dispersion correction           -0.005377382
FINAL SINGLE POINT ENERGY      -306.940004594900

DIPOLE MOMENT
-------------
                                X             Y             Z
Electronic contribution:     -2.93377       1.54768      -3.87001
Nuclear contribution   :      2.46104      -2.42013       3.42523
                        -----------------------------------------
Total Dipole Moment    :     -0.47274      -0.87244      -0.44478
                        -----------------------------------------
Magnitude (a.u.)       :      1.08741
Magnitude (Debye)      :      2.76398

Rotational constants in cm-1:     0.157414     0.050835     0.047338
Rotational constants in MHz :  4719.163414  1524.007825  1419.164399

                             ****ORCA TERMINATED NORMALLY****
TOTAL RUN TIME: 0 days 0 hours 0 minutes 28 seconds 183 msec
