                         Program Version 5.0.0 -  RELEASE  -
|  1> !wB97X-D3 RIJCOSX def2-SVPD def2/J TightSCF xyzfile
|  2>
|  3> *xyzfile 0 1 D1.xyz
|  4>
|  5> %MaxCore 64000
|  6>
|  7> %pal nprocs 18
|  8> end
|  9>
| 10> %scf
| 11>   MaxIter 150
| 12> end
| 13>
| 14>
| 15>                          ****END OF INPUT****

CARTESIAN COORDINATES (ANGSTROEM)
---------------------------------
  C      4.490588    1.155899   -2.469290
  C      4.305394    1.222762   -3.908317
  C      4.906458   -3.102816   -5.954844
  C      3.511771   -2.806215   -6.492283
  H      2.736044   -3.373445   -5.973736
  H      3.444904   -3.040831   -7.555281
  S      3.004618   -1.096206   -6.389259
  C      4.631918    2.246365   -4.670958
  N      4.541686    2.143990   -5.987139
  N      5.084086    3.393584   -4.118545
  H      4.920675    3.570501   -3.135870
  H      5.254652    4.197390   -4.706956
  H      3.824530    0.449113   -4.350926
  H      4.343373    1.249318   -6.416646
  H      4.676712    2.956624   -6.574113
  F      4.128856   -0.329647   -6.953717
  O      1.781285   -1.000779   -7.136399
  C      5.942129    0.939500   -2.036893
  H      3.864305    0.328532   -2.136611
  H      4.076233    2.049994   -1.989010
  C      6.462677   -3.117775   -3.944671
  C      5.024977   -3.025679   -4.437625
  H      4.423321   -3.818693   -3.977648
  H      4.579350   -2.087131   -4.108727
  H      5.201533   -4.100207   -6.296905
  H      5.605922   -2.397822   -6.413368
  C      6.559957   -0.356290   -2.559086
  H      5.967976    0.952567   -0.942444
  H      6.547184    1.788331   -2.368849
  C      6.006283   -1.615917   -1.899301
  H      7.642360   -0.318000   -2.402059
  H      6.414855   -0.403433   -3.642587
  C      6.608718   -2.917014   -2.435655
  H      6.190324   -1.561115   -0.820948
  H      4.919250   -1.651245   -2.016586
  H      7.066975   -2.374258   -4.475514
  H      6.887808   -4.089747   -4.215332
  H      6.135197   -3.755573   -1.915159
  H      7.671142   -2.955503   -2.172291
  O      2.851546   -0.783683   -4.956789

 Total Charge           Charge          ....    0
 Multiplicity           Mult            ....    1
 Number of Electrons    NEL             ....  144
 Basis Dimension        Dim             ....  540

ORBITAL ENERGIES
----------------

  NO   OCC          E(Eh)            E(eV)
   0   2.0000     -89.245468     -2428.4927
   1   2.0000     -24.928787      -678.3468
   2   2.0000     -19.271617      -524.4073
   3   2.0000     -19.257726      -524.0294
   4   2.0000     -14.426822      -392.5738
   5   2.0000     -14.422045      -392.4438
   6   2.0000     -10.359735      -281.9027
   7   2.0000     -10.322454      -280.8883
   8   2.0000     -10.317715      -280.7593
   9   2.0000     -10.290729      -280.0250
  10   2.0000     -10.285958      -279.8952
  11   2.0000     -10.279196      -279.7111
  12   2.0000     -10.270074      -279.4629
  13   2.0000     -10.263055      -279.2719
  14   2.0000     -10.257798      -279.1289
  15   2.0000     -10.250728      -278.9365
  16   2.0000     -10.181785      -277.0605
  17   2.0000      -8.318831      -226.3669
  18   2.0000      -6.282776      -170.9630
  19   2.0000      -6.276198      -170.7840
  20   2.0000      -6.274620      -170.7411
  21   2.0000      -1.491732       -40.5921
  22   2.0000      -1.240431       -33.7539
  23   2.0000      -1.137129       -30.9429
  24   2.0000      -1.057563       -28.7778
  25   2.0000      -0.967027       -26.3141
  26   2.0000      -0.959768       -26.1166
  27   2.0000      -0.919876       -25.0311
  28   2.0000      -0.890645       -24.2357
  29   2.0000      -0.865518       -23.5519
  30   2.0000      -0.839425       -22.8419
  31   2.0000      -0.813460       -22.1354
  32   2.0000      -0.781541       -21.2668
  33   2.0000      -0.750302       -20.4167
  34   2.0000      -0.725109       -19.7312
  35   2.0000      -0.719000       -19.5650
  36   2.0000      -0.703897       -19.1540
  37   2.0000      -0.689717       -18.7682
  38   2.0000      -0.669952       -18.2303
  39   2.0000      -0.666276       -18.1303
  40   2.0000      -0.647475       -17.6187
  41   2.0000      -0.631965       -17.1966
  42   2.0000      -0.606518       -16.5042
  43   2.0000      -0.597234       -16.2516
  44   2.0000      -0.590456       -16.0671
  45   2.0000      -0.578841       -15.7511
  46   2.0000      -0.566251       -15.4085
  47   2.0000      -0.556051       -15.1309
  48   2.0000      -0.553622       -15.0648
  49   2.0000      -0.550697       -14.9852
  50   2.0000      -0.528486       -14.3808
  51   2.0000      -0.520393       -14.1606
  52   2.0000      -0.518373       -14.1057
  53   2.0000      -0.506826       -13.7914
  54   2.0000      -0.492181       -13.3929
  55   2.0000      -0.481695       -13.1076
  56   2.0000      -0.479927       -13.0595
  57   2.0000      -0.468065       -12.7367
  58   2.0000      -0.465744       -12.6735
  59   2.0000      -0.451017       -12.2728
  60   2.0000      -0.447464       -12.1761
  61   2.0000      -0.439339       -11.9550
  62   2.0000      -0.433187       -11.7876
  63   2.0000      -0.418527       -11.3887
  64   2.0000      -0.416526       -11.3342
  65   2.0000      -0.409541       -11.1442
  66   2.0000      -0.401683       -10.9303
  67   2.0000      -0.392659       -10.6848
  68   2.0000      -0.385684       -10.4950
  69   2.0000      -0.369969       -10.0674
  70   2.0000      -0.348875        -9.4934
  71   2.0000      -0.231820        -6.3082
  72   0.0000       0.060657         1.6506
  73   0.0000       0.085308         2.3213
  74   0.0000       0.089831         2.4444
  75   0.0000       0.093302         2.5389
  76   0.0000       0.103147         2.8068

MULLIKEN ATOMIC CHARGES
-----------------------
   0 C :    0.081945
   1 C :    0.272562
   2 C :    0.225308
   3 C :    0.206826
   4 H :    0.083347
   5 H :    0.020179
   6 S :    1.502508
   7 C :    0.988578
   8 N :    0.241855
   9 N :   -0.047350
  10 H :   -0.031136
  11 H :   -0.246525
  12 H :   -0.727297
  13 H :   -0.307164
  14 H :   -0.189390
  15 F :   -0.424262
  16 O :   -0.712603
  17 C :    0.405198
  18 H :    0.142099
  19 H :   -0.195397
  20 C :    0.002758
  21 C :    0.289981
  22 H :    0.045242
  23 H :   -0.537392
  24 H :   -0.084225
  25 H :    0.018531
  26 C :    0.044671
  27 H :   -0.062354
  28 H :   -0.121457
  29 C :   -0.102447
  30 H :   -0.115411
  31 H :   -0.058590
  32 C :    0.621383
  33 H :   -0.316890
  34 H :    0.107849
  35 H :    0.117597
  36 H :   -0.316926
  37 H :   -0.028181
  38 H :    0.016087
  39 O :   -0.809507
Sum of atomic charges:    0.0000000

LOEWDIN ATOMIC CHARGES
----------------------
   0 C :   -0.041095
   1 C :   -0.018818
   2 C :   -0.035216
   3 C :   -0.037788
   4 H :    0.045758
   5 H :    0.026591
   6 S :    1.167497
   7 C :   -0.189462
   8 N :    0.194975
   9 N :    0.196525
  10 H :   -0.012532
  11 H :   -0.012558
  12 H :   -0.146537
  13 H :   -0.078971
  14 H :   -0.001176
  15 F :   -0.259221
  16 O :   -0.444197
  17 C :   -0.030899
  18 H :    0.013035
  19 H :    0.008224
  20 C :   -0.037781
  21 C :   -0.026940
  22 H :    0.043327
  23 H :   -0.013381
  24 H :    0.037820
  25 H :    0.027644
  26 C :   -0.033074
  27 H :    0.016604
  28 H :    0.010533
  29 C :   -0.036547
  30 H :    0.024462
  31 H :    0.005872
  32 C :   -0.032613
  33 H :    0.024511
  34 H :    0.008593
  35 H :    0.017966
  36 H :    0.023225
  37 H :    0.021851
  38 H :    0.023049
  39 O :   -0.449255

  Mayer bond orders larger than 0.100000
B(  0-C ,  1-C ) :   1.1820 B(  0-C , 12-H ) :   0.7872 B(  0-C , 17-C ) :   1.1316
B(  0-C , 18-H ) :   0.7062 B(  0-C , 19-H ) :   0.9127 B(  0-C , 27-H ) :   0.1758
B(  0-C , 28-H ) :   0.1386 B(  1-C ,  7-C ) :   1.7276 B(  1-C ,  8-N ) :   0.3068
B(  1-C ,  9-N ) :   0.2796 B(  1-C , 12-H ) :  -0.3264 B(  1-C , 18-H ) :   0.3566
B(  1-C , 19-H ) :   0.1620 B(  2-C ,  3-C ) :   1.1956 B(  2-C ,  5-H ) :   0.2240
B(  2-C , 21-C ) :   1.1041 B(  2-C , 24-H ) :   0.8587 B(  2-C , 25-H ) :   0.8509
B(  3-C ,  4-H ) :   0.9093 B(  3-C ,  5-H ) :   0.7792 B(  3-C ,  6-S ) :   1.0389
B(  6-S , 15-F ) :   0.5729 B(  6-S , 16-O ) :   1.4614 B(  6-S , 39-O ) :   1.5181
B(  7-C ,  8-N ) :   0.7984 B(  7-C ,  9-N ) :   0.7831 B(  7-C , 11-H ) :  -0.1670
B(  7-C , 12-H ) :  -0.1584 B(  7-C , 13-H ) :  -0.2124 B(  7-C , 14-H ) :  -0.1519
B(  8-N , 13-H ) :   1.1903 B(  8-N , 14-H ) :   1.3175 B(  9-N , 10-H ) :   1.0567
B(  9-N , 11-H ) :   1.3236 B( 10-H , 11-H ) :  -0.1857 B( 12-H , 18-H ) :  -0.1972
B( 12-H , 39-O ) :   0.1679 B( 13-H , 14-H ) :  -0.2139 B( 13-H , 15-F ) :   0.1421
B( 16-O , 39-O ) :   0.1402 B( 17-C , 18-H ) :   0.1083 B( 17-C , 26-C ) :   1.2772
B( 17-C , 27-H ) :   0.8004 B( 17-C , 28-H ) :   0.7311 B( 17-C , 31-H ) :   0.1378
B( 20-C , 21-C ) :   1.2083 B( 20-C , 22-H ) :   0.1098 B( 20-C , 23-H ) :   0.1008
B( 20-C , 32-C ) :   1.1342 B( 20-C , 35-H ) :   0.8577 B( 20-C , 36-H ) :   0.9749
B( 20-C , 37-H ) :   0.1052 B( 20-C , 38-H ) :   0.2102 B( 21-C , 22-H ) :   0.7170
B( 21-C , 23-H ) :   0.8020 B( 21-C , 24-H ) :   0.1750 B( 21-C , 25-H ) :   0.1024
B( 21-C , 36-H ) :   0.1882 B( 22-H , 23-H ) :   0.2323 B( 23-H , 34-H ) :   0.1160
B( 26-C , 27-H ) :   0.1233 B( 26-C , 28-H ) :   0.2187 B( 26-C , 29-C ) :   1.1936
B( 26-C , 30-H ) :   0.8414 B( 26-C , 31-H ) :   0.9097 B( 26-C , 33-H ) :   0.1341
B( 27-H , 28-H ) :  -0.1065 B( 29-C , 30-H ) :   0.1313 B( 29-C , 31-H ) :   0.1025
B( 29-C , 32-C ) :   1.1272 B( 29-C , 33-H ) :   1.0363 B( 29-C , 34-H ) :   0.8540
B( 29-C , 37-H ) :   0.2702 B( 29-C , 38-H ) :   0.1342 B( 32-C , 37-H ) :   0.6984
B( 32-C , 38-H ) :   0.7107

Dispersion correction           -0.021879082
FINAL SINGLE POINT ENERGY     -1190.040333082822

DIPOLE MOMENT
-------------
                                X             Y             Z
Electronic contribution:    -16.28970       4.79401     -21.41070
Nuclear contribution   :     17.24138      -5.45913      20.34076
                        -----------------------------------------
Total Dipole Moment    :      0.95169      -0.66512      -1.06994
                        -----------------------------------------
Magnitude (a.u.)       :      1.57888
Magnitude (Debye)      :      4.01320

Rotational constants in cm-1:     0.014201     0.012275     0.007453
Rotational constants in MHz :   425.728191   368.008875   223.435232

                             ****ORCA TERMINATED NORMALLY****
TOTAL RUN TIME: 0 days 0 hours 2 minutes 30 seconds 193 msec
