                         Program Version 5.0.0 -  RELEASE  -
|  1> !wB97X-D3 RIJCOSX def2-SVPD def2/J TightSCF xyzfile
|  2>
|  3> *xyzfile 0 1 D2.xyz
|  4>
|  5> %MaxCore 64000
|  6>
|  7> %pal nprocs 18
|  8> end
|  9>
| 10> %scf
| 11>   MaxIter 150
| 12> end
| 13>
| 14>
| 15>                          ****END OF INPUT****

CARTESIAN COORDINATES (ANGSTROEM)
---------------------------------
  C      4.490588    1.155899   -2.469290
  N      4.305394    1.222762   -3.908317
  C      4.906458   -3.102816   -5.954844
  C      3.511771   -2.806215   -6.492283
  H      2.736044   -3.373445   -5.973736
  H      3.444904   -3.040831   -7.555281
  S      3.004618   -1.096206   -6.389259
  C      4.631918    2.246365   -4.670958
  C      4.541686    2.143990   -5.987139
  N      5.084086    3.393584   -4.118545
  H      4.920675    3.570501   -3.135870
  H      5.254652    4.197390   -4.706956
  H      3.824530    0.449113   -4.350926
  H      4.343373    1.249318   -6.416646
  H      4.676712    2.956624   -6.574113
  F      4.128856   -0.329647   -6.953717
  O      1.781285   -1.000779   -7.136399
  C      5.942129    0.939500   -2.036893
  H      3.864305    0.328532   -2.136611
  H      4.076233    2.049994   -1.989010
  C      6.462677   -3.117775   -3.944671
  C      5.024977   -3.025679   -4.437625
  H      4.423321   -3.818693   -3.977648
  H      4.579350   -2.087131   -4.108727
  H      5.201533   -4.100207   -6.296905
  H      5.605922   -2.397822   -6.413368
  C      6.559957   -0.356290   -2.559086
  H      5.967976    0.952567   -0.942444
  H      6.547184    1.788331   -2.368849
  C      6.006283   -1.615917   -1.899301
  H      7.642360   -0.318000   -2.402059
  H      6.414855   -0.403433   -3.642587
  C      6.608718   -2.917014   -2.435655
  H      6.190324   -1.561115   -0.820948
  H      4.919250   -1.651245   -2.016586
  H      7.066975   -2.374258   -4.475514
  H      6.887808   -4.089747   -4.215332
  H      6.135197   -3.755573   -1.915159
  H      7.671142   -2.955503   -2.172291
  O      2.851546   -0.783683   -4.956789

 Total Charge           Charge          ....    0
 Multiplicity           Mult            ....    1
 Number of Electrons    NEL             ....  144
 Basis Dimension        Dim             ....  540

ORBITAL ENERGIES
----------------

  NO   OCC          E(Eh)            E(eV)
   0   2.0000     -89.248477     -2428.5745
   1   2.0000     -24.914831      -677.9670
   2   2.0000     -19.271570      -524.4061
   3   2.0000     -19.268548      -524.3238
   4   2.0000     -14.425013      -392.5245
   5   2.0000     -14.407372      -392.0445
   6   2.0000     -10.361280      -281.9448
   7   2.0000     -10.325449      -280.9697
   8   2.0000     -10.322320      -280.8846
   9   2.0000     -10.313915      -280.6559
  10   2.0000     -10.297827      -280.2181
  11   2.0000     -10.293025      -280.0875
  12   2.0000     -10.288547      -279.9656
  13   2.0000     -10.283666      -279.8328
  14   2.0000     -10.279629      -279.7229
  15   2.0000     -10.279039      -279.7069
  16   2.0000     -10.181824      -277.0615
  17   2.0000      -8.321414      -226.4372
  18   2.0000      -6.285153      -171.0277
  19   2.0000      -6.279078      -170.8624
  20   2.0000      -6.277337      -170.8150
  21   2.0000      -1.479625       -40.2626
  22   2.0000      -1.242536       -33.8111
  23   2.0000      -1.143302       -31.1108
  24   2.0000      -1.061472       -28.8841
  25   2.0000      -0.974783       -26.5252
  26   2.0000      -0.963650       -26.2222
  27   2.0000      -0.927353       -25.2346
  28   2.0000      -0.897219       -24.4146
  29   2.0000      -0.862062       -23.4579
  30   2.0000      -0.839623       -22.8473
  31   2.0000      -0.812505       -22.1094
  32   2.0000      -0.788810       -21.4646
  33   2.0000      -0.757178       -20.6039
  34   2.0000      -0.733534       -19.9605
  35   2.0000      -0.710343       -19.3294
  36   2.0000      -0.701484       -19.0883
  37   2.0000      -0.693686       -18.8761
  38   2.0000      -0.687077       -18.6963
  39   2.0000      -0.664225       -18.0745
  40   2.0000      -0.659869       -17.9559
  41   2.0000      -0.622175       -16.9302
  42   2.0000      -0.607227       -16.5235
  43   2.0000      -0.596899       -16.2424
  44   2.0000      -0.588741       -16.0205
  45   2.0000      -0.583820       -15.8866
  46   2.0000      -0.571069       -15.5396
  47   2.0000      -0.568520       -15.4702
  48   2.0000      -0.562697       -15.3118
  49   2.0000      -0.544263       -14.8102
  50   2.0000      -0.538593       -14.6559
  51   2.0000      -0.533520       -14.5178
  52   2.0000      -0.522423       -14.2159
  53   2.0000      -0.501088       -13.6353
  54   2.0000      -0.493331       -13.4242
  55   2.0000      -0.492846       -13.4110
  56   2.0000      -0.480865       -13.0850
  57   2.0000      -0.472439       -12.8557
  58   2.0000      -0.466715       -12.7000
  59   2.0000      -0.460635       -12.5345
  60   2.0000      -0.454762       -12.3747
  61   2.0000      -0.448294       -12.1987
  62   2.0000      -0.439429       -11.9575
  63   2.0000      -0.437317       -11.9000
  64   2.0000      -0.429478       -11.6867
  65   2.0000      -0.423177       -11.5152
  66   2.0000      -0.419270       -11.4089
  67   2.0000      -0.408229       -11.1085
  68   2.0000      -0.406019       -11.0483
  69   2.0000      -0.401795       -10.9334
  70   2.0000      -0.332150        -9.0383
  71   2.0000      -0.236581        -6.4377
  72   0.0000       0.064347         1.7510
  73   0.0000       0.085326         2.3218
  74   0.0000       0.090874         2.4728
  75   0.0000       0.094133         2.5615
  76   0.0000       0.102383         2.7860

MULLIKEN ATOMIC CHARGES
-----------------------
   0 C :    0.998782
   1 N :    0.264405
   2 C :    0.208172
   3 C :    0.206283
   4 H :    0.071828
   5 H :    0.030952
   6 S :    1.491270
   7 C :    1.006742
   8 C :    0.664542
   9 N :    0.188296
  10 H :   -0.053687
  11 H :   -0.191046
  12 H :   -1.116473
  13 H :   -0.501059
  14 H :   -0.650340
  15 F :   -0.482565
  16 O :   -0.726305
  17 C :    0.293142
  18 H :   -0.274528
  19 H :   -0.178310
  20 C :   -0.004113
  21 C :    0.242050
  22 H :    0.049940
  23 H :   -0.492146
  24 H :   -0.081916
  25 H :    0.028044
  26 C :    0.110495
  27 H :   -0.140173
  28 H :   -0.031534
  29 C :   -0.161629
  30 H :   -0.148390
  31 H :   -0.117745
  32 C :    0.620640
  33 H :   -0.321946
  34 H :    0.149471
  35 H :    0.115265
  36 H :   -0.309437
  37 H :   -0.025806
  38 H :    0.020695
  39 O :   -0.751867
Sum of atomic charges:    0.0000000

LOEWDIN ATOMIC CHARGES
----------------------
   0 C :    0.063450
   1 N :    0.007940
   2 C :   -0.033897
   3 C :   -0.037649
   4 H :    0.044744
   5 H :    0.028704
   6 S :    1.171701
   7 C :   -0.202753
   8 C :    0.160730
   9 N :    0.196148
  10 H :   -0.024194
  11 H :    0.004620
  12 H :   -0.094001
  13 H :   -0.165466
  14 H :   -0.094615
  15 F :   -0.267062
  16 O :   -0.439005
  17 C :   -0.023052
  18 H :    0.019144
  19 H :    0.011554
  20 C :   -0.036500
  21 C :   -0.028851
  22 H :    0.043509
  23 H :   -0.017153
  24 H :    0.038539
  25 H :    0.029706
  26 C :   -0.032044
  27 H :    0.021431
  28 H :    0.011823
  29 C :   -0.038717
  30 H :    0.027444
  31 H :    0.008845
  32 C :   -0.030769
  33 H :    0.025280
  34 H :    0.006764
  35 H :    0.019124
  36 H :    0.024928
  37 H :    0.023190
  38 H :    0.024430
  39 O :   -0.448019

  Mayer bond orders larger than 0.100000
B(  0-C ,  1-N ) :   0.9422 B(  0-C , 12-H ) :  -0.5135 B(  0-C , 17-C ) :   1.0984
B(  0-C , 18-H ) :   0.6753 B(  0-C , 19-H ) :   0.8690 B(  0-C , 27-H ) :   0.1057
B(  1-N ,  7-C ) :   1.1655 B(  1-N ,  8-C ) :   0.1226 B(  1-N ,  9-N ) :   0.2929
B(  1-N , 12-H ) :   0.8754 B(  1-N , 18-H ) :   0.2436 B(  2-C ,  3-C ) :   1.1981
B(  2-C ,  5-H ) :   0.2193 B(  2-C , 21-C ) :   1.1119 B(  2-C , 24-H ) :   0.8595
B(  2-C , 25-H ) :   0.8594 B(  3-C ,  4-H ) :   0.9174 B(  3-C ,  5-H ) :   0.7818
B(  3-C ,  6-S ) :   1.0281 B(  5-H ,  6-S ) :   0.1011 B(  6-S , 15-F ) :   0.6230
B(  6-S , 16-O ) :   1.4484 B(  6-S , 39-O ) :   1.3973 B(  7-C ,  8-C ) :   1.4392
B(  7-C ,  9-N ) :   0.8143 B(  7-C , 12-H ) :  -0.7448 B(  7-C , 14-H ) :   0.1495
B(  8-C ,  9-N ) :   0.2887 B(  8-C , 13-H ) :   0.2739 B(  8-C , 14-H ) :   0.7633
B(  9-N , 10-H ) :   0.9734 B(  9-N , 11-H ) :   1.2052 B( 10-H , 11-H ) :  -0.1796
B( 12-H , 18-H ) :   0.1021 B( 12-H , 39-O ) :   0.1458 B( 13-H , 14-H ) :  -0.1724
B( 13-H , 15-F ) :   0.2071 B( 16-O , 39-O ) :   0.1331 B( 17-C , 18-H ) :   0.1158
B( 17-C , 19-H ) :   0.1029 B( 17-C , 26-C ) :   1.2134 B( 17-C , 27-H ) :   0.9379
B( 17-C , 28-H ) :   0.7374 B( 17-C , 31-H ) :   0.1081 B( 18-H , 19-H ) :  -0.1714
B( 20-C , 21-C ) :   1.2157 B( 20-C , 22-H ) :   0.1100 B( 20-C , 32-C ) :   1.1372
B( 20-C , 35-H ) :   0.8606 B( 20-C , 36-H ) :   0.9715 B( 20-C , 37-H ) :   0.1074
B( 20-C , 38-H ) :   0.2079 B( 21-C , 22-H ) :   0.7227 B( 21-C , 23-H ) :   0.8463
B( 21-C , 24-H ) :   0.1788 B( 21-C , 36-H ) :   0.1873 B( 22-H , 23-H ) :   0.2208
B( 23-H , 34-H ) :   0.1184 B( 26-C , 28-H ) :   0.2025 B( 26-C , 29-C ) :   1.2015
B( 26-C , 30-H ) :   0.8814 B( 26-C , 31-H ) :   0.9300 B( 26-C , 33-H ) :   0.1385
B( 29-C , 30-H ) :   0.1488 B( 29-C , 31-H ) :   0.1107 B( 29-C , 32-C ) :   1.1382
B( 29-C , 33-H ) :   1.0489 B( 29-C , 34-H ) :   0.8416 B( 29-C , 37-H ) :   0.2689
B( 29-C , 38-H ) :   0.1333 B( 32-C , 37-H ) :   0.6946 B( 32-C , 38-H ) :   0.7141

Dispersion correction           -0.021930251
FINAL SINGLE POINT ENERGY     -1190.044872392062

DIPOLE MOMENT
-------------
                                X             Y             Z
Electronic contribution:    -16.34364       3.90393     -19.59402
Nuclear contribution   :     17.27667      -5.32157      20.03034
                        -----------------------------------------
Total Dipole Moment    :      0.93303      -1.41764       0.43632
                        -----------------------------------------
Magnitude (a.u.)       :      1.75231
Magnitude (Debye)      :      4.45403

Rotational constants in cm-1:     0.014355     0.012269     0.007481
Rotational constants in MHz :   430.360270   367.823451   224.273399

                             ****ORCA TERMINATED NORMALLY****
TOTAL RUN TIME: 0 days 0 hours 2 minutes 21 seconds 829 msec
