                         Program Version 5.0.0 -  RELEASE  -
|  1> !wB97X-D3 RIJCOSX def2-SVPD def2/J TightSCF xyzfile
|  2>
|  3> *xyzfile 0 1 D3.xyz
|  4>
|  5> %MaxCore 64000
|  6>
|  7> %pal nprocs 18
|  8> end
|  9>
| 10> %scf
| 11>   MaxIter 150
| 12> end
| 13>
| 14>
| 15>                          ****END OF INPUT****

CARTESIAN COORDINATES (ANGSTROEM)
---------------------------------
  C      4.490588    1.155899   -2.469290
  N      4.305394    1.222762   -3.908317
  C      4.906458   -3.102816   -5.954844
  C      3.511771   -2.806215   -6.492283
  H      2.736044   -3.373445   -5.973736
  H      3.444904   -3.040831   -7.555281
  S      3.004618   -1.096206   -6.389259
  C      4.631918    2.246365   -4.670958
  N      4.541686    2.143990   -5.987139
  C      5.084086    3.393584   -4.118545
  H      4.920675    3.570501   -3.135870
  H      5.254652    4.197390   -4.706956
  H      3.824530    0.449113   -4.350926
  H      4.343373    1.249318   -6.416646
  H      4.676712    2.956624   -6.574113
  F      4.128856   -0.329647   -6.953717
  O      1.781285   -1.000779   -7.136399
  C      5.942129    0.939500   -2.036893
  H      3.864305    0.328532   -2.136611
  H      4.076233    2.049994   -1.989010
  C      6.462677   -3.117775   -3.944671
  C      5.024977   -3.025679   -4.437625
  H      4.423321   -3.818693   -3.977648
  H      4.579350   -2.087131   -4.108727
  H      5.201533   -4.100207   -6.296905
  H      5.605922   -2.397822   -6.413368
  C      6.559957   -0.356290   -2.559086
  H      5.967976    0.952567   -0.942444
  H      6.547184    1.788331   -2.368849
  C      6.006283   -1.615917   -1.899301
  H      7.642360   -0.318000   -2.402059
  H      6.414855   -0.403433   -3.642587
  C      6.608718   -2.917014   -2.435655
  H      6.190324   -1.561115   -0.820948
  H      4.919250   -1.651245   -2.016586
  H      7.066975   -2.374258   -4.475514
  H      6.887808   -4.089747   -4.215332
  H      6.135197   -3.755573   -1.915159
  H      7.671142   -2.955503   -2.172291
  O      2.851546   -0.783683   -4.956789

 Total Charge           Charge          ....    0
 Multiplicity           Mult            ....    1
 Number of Electrons    NEL             ....  144
 Basis Dimension        Dim             ....  540

ORBITAL ENERGIES
----------------

  NO   OCC          E(Eh)            E(eV)
   0   2.0000     -89.264093     -2428.9994
   1   2.0000     -24.943629      -678.7507
   2   2.0000     -19.287779      -524.8472
   3   2.0000     -19.283308      -524.7255
   4   2.0000     -14.423009      -392.4700
   5   2.0000     -14.409391      -392.0995
   6   2.0000     -10.373495      -282.2772
   7   2.0000     -10.334183      -281.2074
   8   2.0000     -10.322102      -280.8787
   9   2.0000     -10.305235      -280.4197
  10   2.0000     -10.303271      -280.3662
  11   2.0000     -10.296037      -280.1694
  12   2.0000     -10.288845      -279.9737
  13   2.0000     -10.281517      -279.7743
  14   2.0000     -10.275322      -279.6057
  15   2.0000     -10.268894      -279.4308
  16   2.0000     -10.183656      -277.1114
  17   2.0000      -8.337555      -226.8764
  18   2.0000      -6.301503      -171.4726
  19   2.0000      -6.295045      -171.2969
  20   2.0000      -6.293218      -171.2472
  21   2.0000      -1.507055       -41.0090
  22   2.0000      -1.259242       -34.2657
  23   2.0000      -1.158663       -31.5288
  24   2.0000      -1.064289       -28.9608
  25   2.0000      -0.981192       -26.6996
  26   2.0000      -0.973823       -26.4991
  27   2.0000      -0.929983       -25.3061
  28   2.0000      -0.895414       -24.3654
  29   2.0000      -0.869698       -23.6657
  30   2.0000      -0.840786       -22.8790
  31   2.0000      -0.809944       -22.0397
  32   2.0000      -0.798560       -21.7299
  33   2.0000      -0.767658       -20.8890
  34   2.0000      -0.741268       -20.1709
  35   2.0000      -0.727992       -19.8097
  36   2.0000      -0.719342       -19.5743
  37   2.0000      -0.701386       -19.0857
  38   2.0000      -0.689149       -18.7527
  39   2.0000      -0.667517       -18.1641
  40   2.0000      -0.645448       -17.5635
  41   2.0000      -0.632444       -17.2097
  42   2.0000      -0.624463       -16.9925
  43   2.0000      -0.608202       -16.5500
  44   2.0000      -0.601064       -16.3558
  45   2.0000      -0.588270       -16.0076
  46   2.0000      -0.579822       -15.7778
  47   2.0000      -0.571058       -15.5393
  48   2.0000      -0.559700       -15.2302
  49   2.0000      -0.548593       -14.9280
  50   2.0000      -0.538517       -14.6538
  51   2.0000      -0.534769       -14.5518
  52   2.0000      -0.522500       -14.2180
  53   2.0000      -0.509937       -13.8761
  54   2.0000      -0.494915       -13.4673
  55   2.0000      -0.488657       -13.2970
  56   2.0000      -0.485968       -13.2239
  57   2.0000      -0.477359       -12.9896
  58   2.0000      -0.467160       -12.7121
  59   2.0000      -0.465688       -12.6720
  60   2.0000      -0.457483       -12.4488
  61   2.0000      -0.449123       -12.2213
  62   2.0000      -0.447051       -12.1649
  63   2.0000      -0.440118       -11.9762
  64   2.0000      -0.432438       -11.7672
  65   2.0000      -0.428874       -11.6703
  66   2.0000      -0.423653       -11.5282
  67   2.0000      -0.407144       -11.0790
  68   2.0000      -0.405298       -11.0287
  69   2.0000      -0.396549       -10.7907
  70   2.0000      -0.326119        -8.8741
  71   2.0000      -0.235346        -6.4041
  72   0.0000       0.051025         1.3885
  73   0.0000       0.077683         2.1139
  74   0.0000       0.082582         2.2472
  75   0.0000       0.086683         2.3588
  76   0.0000       0.096566         2.6277

MULLIKEN ATOMIC CHARGES
-----------------------
   0 C :    0.948702
   1 N :    0.351953
   2 C :    0.209846
   3 C :    0.204729
   4 H :    0.084172
   5 H :    0.041090
   6 S :    1.453336
   7 C :    0.618103
   8 N :    0.579553
   9 C :    0.489919
  10 H :    0.100648
  11 H :   -0.668066
  12 H :   -1.286333
  13 H :   -0.460738
  14 H :   -0.169848
  15 F :   -0.456378
  16 O :   -0.707539
  17 C :    0.312773
  18 H :   -0.298051
  19 H :   -0.084097
  20 C :   -0.012489
  21 C :    0.249292
  22 H :    0.048544
  23 H :   -0.493267
  24 H :   -0.081166
  25 H :    0.028051
  26 C :    0.078865
  27 H :   -0.111824
  28 H :   -0.036345
  29 C :   -0.168360
  30 H :   -0.151062
  31 H :   -0.123822
  32 C :    0.626911
  33 H :   -0.316469
  34 H :    0.142629
  35 H :    0.121408
  36 H :   -0.312911
  37 H :   -0.026935
  38 H :    0.023171
  39 O :   -0.747993
Sum of atomic charges:    0.0000000

LOEWDIN ATOMIC CHARGES
----------------------
   0 C :    0.070434
   1 N :    0.005191
   2 C :   -0.033885
   3 C :   -0.034879
   4 H :    0.047135
   5 H :    0.029423
   6 S :    1.172153
   7 C :   -0.209837
   8 N :    0.204598
   9 C :    0.148655
  10 H :   -0.115462
  11 H :   -0.109230
  12 H :   -0.102352
  13 H :   -0.088945
  14 H :    0.016632
  15 F :   -0.259758
  16 O :   -0.434711
  17 C :   -0.015222
  18 H :    0.017525
  19 H :    0.019172
  20 C :   -0.036510
  21 C :   -0.028538
  22 H :    0.044225
  23 H :   -0.016953
  24 H :    0.039937
  25 H :    0.028687
  26 C :   -0.033956
  27 H :    0.023225
  28 H :    0.012302
  29 C :   -0.039245
  30 H :    0.027146
  31 H :    0.004904
  32 C :   -0.030839
  33 H :    0.025891
  34 H :    0.006071
  35 H :    0.018692
  36 H :    0.024879
  37 H :    0.022920
  38 H :    0.024835
  39 O :   -0.444309

  Mayer bond orders larger than 0.100000
B(  0-C ,  1-N ) :   0.9936 B(  0-C , 10-H ) :   0.1169 B(  0-C , 12-H ) :  -0.5467
B(  0-C , 17-C ) :   1.0852 B(  0-C , 18-H ) :   0.7433 B(  0-C , 19-H ) :   0.8620
B(  1-N ,  7-C ) :   1.0187 B(  1-N ,  9-C ) :   0.2759 B(  1-N , 11-H ) :   0.1232
B(  1-N , 12-H ) :   0.7221 B(  1-N , 13-H ) :   0.1519 B(  1-N , 14-H ) :  -0.1013
B(  1-N , 18-H ) :   0.2709 B(  2-C ,  3-C ) :   1.1988 B(  2-C ,  5-H ) :   0.2257
B(  2-C , 21-C ) :   1.1071 B(  2-C , 24-H ) :   0.8670 B(  2-C , 25-H ) :   0.8514
B(  3-C ,  4-H ) :   0.9107 B(  3-C ,  5-H ) :   0.7724 B(  3-C ,  6-S ) :   1.0503
B(  6-S , 15-F ) :   0.5845 B(  6-S , 16-O ) :   1.4865 B(  6-S , 39-O ) :   1.4223
B(  7-C ,  8-N ) :   0.9490 B(  7-C ,  9-C ) :   1.7509 B(  7-C , 10-H ) :   0.3688
B(  7-C , 11-H ) :   0.3471 B(  7-C , 12-H ) :  -0.7354 B(  7-C , 13-H ) :  -0.1667
B(  7-C , 18-H ) :   0.1169 B(  8-N ,  9-C ) :   0.1974 B(  8-N , 13-H ) :   0.9055
B(  8-N , 14-H ) :   1.2396 B(  9-C , 10-H ) :   0.5346 B(  9-C , 11-H ) :   0.6775
B( 10-H , 13-H ) :   0.1381 B( 10-H , 18-H ) :  -0.1043 B( 10-H , 19-H ) :   0.1182
B( 11-H , 12-H ) :  -0.1079 B( 12-H , 39-O ) :   0.1970 B( 13-H , 14-H ) :  -0.2250
B( 13-H , 15-F ) :   0.1847 B( 16-O , 39-O ) :   0.1371 B( 17-C , 18-H ) :   0.1181
B( 17-C , 26-C ) :   1.1881 B( 17-C , 27-H ) :   0.9107 B( 17-C , 28-H ) :   0.7824
B( 17-C , 31-H ) :   0.1120 B( 18-H , 19-H ) :  -0.1967 B( 20-C , 21-C ) :   1.2183
B( 20-C , 22-H ) :   0.1095 B( 20-C , 32-C ) :   1.1373 B( 20-C , 35-H ) :   0.8594
B( 20-C , 36-H ) :   0.9766 B( 20-C , 37-H ) :   0.1092 B( 20-C , 38-H ) :   0.2076
B( 21-C , 22-H ) :   0.7249 B( 21-C , 23-H ) :   0.8404 B( 21-C , 24-H ) :   0.1746
B( 21-C , 36-H ) :   0.1874 B( 22-H , 23-H ) :   0.2206 B( 23-H , 34-H ) :   0.1152
B( 26-C , 28-H ) :   0.2034 B( 26-C , 29-C ) :   1.2015 B( 26-C , 30-H ) :   0.8909
B( 26-C , 31-H ) :   0.9339 B( 26-C , 33-H ) :   0.1405 B( 27-H , 28-H ) :  -0.1128
B( 29-C , 30-H ) :   0.1497 B( 29-C , 31-H ) :   0.1195 B( 29-C , 32-C ) :   1.1373
B( 29-C , 33-H ) :   1.0481 B( 29-C , 34-H ) :   0.8483 B( 29-C , 37-H ) :   0.2725
B( 29-C , 38-H ) :   0.1336 B( 32-C , 37-H ) :   0.6922 B( 32-C , 38-H ) :   0.7150

Dispersion correction           -0.021830216
FINAL SINGLE POINT ENERGY     -1190.047230767891

DIPOLE MOMENT
-------------
                                X             Y             Z
Electronic contribution:    -16.85345       2.62820     -21.31818
Nuclear contribution   :     17.35766      -5.13497      20.30937
                        -----------------------------------------
Total Dipole Moment    :      0.50421      -2.50677      -1.00881
                        -----------------------------------------
Magnitude (a.u.)       :      2.74879
Magnitude (Debye)      :      6.98686

Rotational constants in cm-1:     0.014431     0.012329     0.007535
Rotational constants in MHz :   432.628327   369.619539   225.898827

                             ****ORCA TERMINATED NORMALLY****
TOTAL RUN TIME: 0 days 0 hours 2 minutes 32 seconds 378 msec
