                         Program Version 5.0.0 -  RELEASE  -
|  1> !CAM-B3LYP RIJCOSX def2-TZVPD def2/J TightSCF
|  2> *xyz -1 1
|  3> C          0.84888        2.66797       -4.30235
|  4> C          2.09343        1.86104       -4.65684
|  5> H          2.44481        2.04157       -5.67499
|  6> H          2.90175        2.13786       -3.98034
|  7> S          1.87964        0.07859       -4.46297
|  8> O          3.20757       -0.46611       -4.42026
|  9> O          1.07506       -0.05616       -3.26876
| 10> O          1.13166       -0.31996       -5.67903
| 11> H          0.05064        2.40112       -4.96303
| 12> H          1.06043        3.71210       -4.40203
| 13> H          0.56237        2.45684       -3.29327
| 14> *
| 15>
| 16> %MaxCore 64000
| 17>
| 18> %pal nprocs 4
| 19> end
| 20>
| 21> %scf
| 22>   MaxIter 150
| 23> end
| 24>
| 25>
| 26>                          ****END OF INPUT****

CARTESIAN COORDINATES (ANGSTROEM)
---------------------------------
  C      0.848880    2.667970   -4.302350
  C      2.093430    1.861040   -4.656840
  H      2.444810    2.041570   -5.674990
  H      2.901750    2.137860   -3.980340
  S      1.879640    0.078590   -4.462970
  O      3.207570   -0.466110   -4.420260
  O      1.075060   -0.056160   -3.268760
  O      1.131660   -0.319960   -5.679030
  H      0.050640    2.401120   -4.963030
  H      1.060430    3.712100   -4.402030
  H      0.562370    2.456840   -3.293270

 Total Charge           Charge          ....   -1
 Multiplicity           Mult            ....    1
 Number of Electrons    NEL             ....   58
 Basis Dimension        Dim             ....  285

ORBITAL ENERGIES
----------------

  NO   OCC          E(Eh)            E(eV)
   0   2.0000     -88.917547     -2419.5695
   1   2.0000     -18.983352      -516.5633
   2   2.0000     -18.979893      -516.4691
   3   2.0000     -18.967559      -516.1335
   4   2.0000     -10.102589      -274.9054
   5   2.0000     -10.094808      -274.6937
   6   2.0000      -7.961167      -216.6344
   7   2.0000      -5.925788      -161.2489
   8   2.0000      -5.924616      -161.2170
   9   2.0000      -5.924341      -161.2095
  10   2.0000      -1.011935       -27.5361
  11   2.0000      -0.880993       -23.9730
  12   2.0000      -0.855215       -23.2716
  13   2.0000      -0.713180       -19.4066
  14   2.0000      -0.582013       -15.8374
  15   2.0000      -0.455395       -12.3919
  16   2.0000      -0.389175       -10.5900
  17   2.0000      -0.386741       -10.5238
  18   2.0000      -0.345219        -9.3939
  19   2.0000      -0.332801        -9.0560
  20   2.0000      -0.323392        -8.8000
  21   2.0000      -0.295059        -8.0290
  22   2.0000      -0.279083        -7.5942
  23   2.0000      -0.223566        -6.0836
  24   2.0000      -0.223295        -6.0762
  25   2.0000      -0.186988        -5.0882
  26   2.0000      -0.176184        -4.7942
  27   2.0000      -0.165981        -4.5166
  28   2.0000      -0.133381        -3.6295
  29   0.0000       0.146493         3.9863
  30   0.0000       0.163764         4.4562
  31   0.0000       0.166465         4.5297
  32   0.0000       0.174839         4.7576
  33   0.0000       0.194833         5.3017

MULLIKEN ATOMIC CHARGES
-----------------------
   0 C :   -1.117208
   1 C :   -0.425363
   2 H :    0.283874
   3 H :    0.277483
   4 S :    1.194434
   5 O :   -0.685660
   6 O :   -0.707811
   7 O :   -0.745073
   8 H :    0.293672
   9 H :    0.327476
  10 H :    0.304178
Sum of atomic charges:   -1.0000000

LOEWDIN ATOMIC CHARGES
----------------------
   0 C :   -0.153418
   1 C :   -0.327302
   2 H :    0.084895
   3 H :    0.079171
   4 S :    0.346854
   5 O :   -0.387235
   6 O :   -0.388778
   7 O :   -0.422691
   8 H :    0.063350
   9 H :    0.049400
  10 H :    0.055754

  Mayer bond orders larger than 0.100000
B(  0-C ,  1-C ) :   0.6129 B(  0-C ,  8-H ) :   0.9834 B(  0-C ,  9-H ) :   0.9229
B(  0-C , 10-H ) :   0.9843 B(  1-C ,  2-H ) :   0.9568 B(  1-C ,  3-H ) :   0.9612
B(  1-C ,  4-S ) :   0.9013 B(  1-C ,  5-O ) :   0.1186 B(  1-C ,  7-O ) :   0.1117
B(  4-S ,  5-O ) :   1.5091 B(  4-S ,  6-O ) :   1.4906 B(  4-S ,  7-O ) :   1.4611

FINAL SINGLE POINT ENERGY      -703.207913982752

DIPOLE MOMENT
-------------
                                X             Y             Z
Electronic contribution:      1.61624      -7.64800       0.05888
Nuclear contribution   :     -1.55288       9.51857       0.00420
                        -----------------------------------------
Total Dipole Moment    :      0.06336       1.87057       0.06309
                        -----------------------------------------
Magnitude (a.u.)       :      1.87271
Magnitude (Debye)      :      4.76005

Rotational constants in cm-1:     0.163401     0.083833     0.082462
Rotational constants in MHz :  4898.624208  2513.264548  2472.149188

                             ****ORCA TERMINATED NORMALLY****
TOTAL RUN TIME: 0 days 0 hours 1 minutes 4 seconds 869 msec
