                         Program Version 5.0.0 -  RELEASE  -
|  1> !CAM-B3LYP RIJCOSX def2-TZVPD def2/J TightSCF
|  2> *xyz 1 1
|  3> C         -0.46129        2.23469       -4.98962
|  4> C          0.84888        2.66797       -4.30235
|  5> C         -0.42384        2.39877       -6.47432
|  6> N         -0.95947        3.49265       -7.00740
|  7> N          0.14558        1.48689       -7.20399
|  8> H          0.56537        0.69681       -6.72386
|  9> H          0.22068        1.58177       -8.20752
| 10> H         -1.40624        4.18151       -6.40326
| 11> H         -0.93421        3.68160       -7.99947
| 12> H         -1.28888        2.82674       -4.59500
| 13> H         -0.65170        1.18634       -4.75655
| 14> H          1.66208        2.08894       -4.68750
| 15> H          0.76716        2.51042       -3.24717
| 16> H          1.02677        3.70527       -4.49537
| 17> *
| 18>
| 19> %MaxCore 64000
| 20>
| 21> %pal nprocs 4
| 22> end
| 23>
| 24> %scf
| 25>   MaxIter 150
| 26> end
| 27>
| 28>
| 29>                          ****END OF INPUT****

CARTESIAN COORDINATES (ANGSTROEM)
---------------------------------
  C     -0.461290    2.234690   -4.989620
  C      0.848880    2.667970   -4.302350
  C     -0.423840    2.398770   -6.474320
  N     -0.959470    3.492650   -7.007400
  N      0.145580    1.486890   -7.203990
  H      0.565370    0.696810   -6.723860
  H      0.220680    1.581770   -8.207520
  H     -1.406240    4.181510   -6.403260
  H     -0.934210    3.681600   -7.999470
  H     -1.288880    2.826740   -4.595000
  H     -0.651700    1.186340   -4.756550
  H      1.662080    2.088940   -4.687500
  H      0.767160    2.510420   -3.247170
  H      1.026770    3.705270   -4.495370

 Total Charge           Charge          ....    1
 Multiplicity           Mult            ....    1
 Number of Electrons    NEL             ....   40
 Basis Dimension        Dim             ....  266

ORBITAL ENERGIES
----------------

  NO   OCC          E(Eh)            E(eV)
   0   2.0000     -14.637278      -398.3006
   1   2.0000     -14.633205      -398.1898
   2   2.0000     -10.570158      -287.6286
   3   2.0000     -10.442483      -284.1544
   4   2.0000     -10.397891      -282.9410
   5   2.0000      -1.289377       -35.0857
   6   2.0000      -1.191882       -32.4328
   7   2.0000      -1.052074       -28.6284
   8   2.0000      -0.939552       -25.5665
   9   2.0000      -0.892319       -24.2812
  10   2.0000      -0.850476       -23.1426
  11   2.0000      -0.824572       -22.4377
  12   2.0000      -0.770531       -20.9672
  13   2.0000      -0.721226       -19.6255
  14   2.0000      -0.693982       -18.8842
  15   2.0000      -0.684208       -18.6182
  16   2.0000      -0.611477       -16.6391
  17   2.0000      -0.601817       -16.3763
  18   2.0000      -0.595675       -16.2091
  19   2.0000      -0.557068       -15.1586
  20   0.0000      -0.162736        -4.4283
  21   0.0000      -0.136170        -3.7054
  22   0.0000      -0.095857        -2.6084
  23   0.0000      -0.091061        -2.4779
  24   0.0000      -0.070269        -1.9121

MULLIKEN ATOMIC CHARGES
-----------------------
   0 C :   -0.574587
   1 C :   -1.074066
   2 C :    0.701790
   3 N :   -0.313349
   4 N :   -0.282918
   5 H :    0.241608
   6 H :    0.210411
   7 H :    0.231370
   8 H :    0.196550
   9 H :    0.314719
  10 H :    0.320169
  11 H :    0.337763
  12 H :    0.346380
  13 H :    0.344159
Sum of atomic charges:    1.0000000

LOEWDIN ATOMIC CHARGES
----------------------
   0 C :   -0.150607
   1 C :   -0.053099
   2 C :   -0.362067
   3 N :    0.225336
   4 N :    0.236262
   5 H :    0.155124
   6 H :    0.151749
   7 H :    0.150197
   8 H :    0.142700
   9 H :    0.127463
  10 H :    0.132031
  11 H :    0.076767
  12 H :    0.086359
  13 H :    0.081784

  Mayer bond orders larger than 0.100000
B(  0-C ,  1-C ) :   0.6231 B(  0-C ,  2-C ) :   0.7125 B(  0-C ,  9-H ) :   0.9611
B(  0-C , 10-H ) :   0.9563 B(  1-C , 11-H ) :   0.9244 B(  1-C , 12-H ) :   0.9632
B(  1-C , 13-H ) :   0.9549 B(  2-C ,  3-N ) :   1.1286 B(  2-C ,  4-N ) :   1.2126
B(  3-N ,  7-H ) :   0.9487 B(  3-N ,  8-H ) :   1.0287 B(  4-N ,  5-H ) :   0.9374
B(  4-N ,  6-H ) :   1.0039

FINAL SINGLE POINT ENERGY      -228.999238092989

DIPOLE MOMENT
-------------
                                X             Y             Z
Electronic contribution:     -1.55540      -0.27163      -3.86296
Nuclear contribution   :      1.33202       0.27544       2.83701
                        -----------------------------------------
Total Dipole Moment    :     -0.22338       0.00381      -1.02595
                        -----------------------------------------
Magnitude (a.u.)       :      1.04999
Magnitude (Debye)      :      2.66887

Rotational constants in cm-1:     0.258570     0.126296     0.098869
Rotational constants in MHz :  7751.748523  3786.267300  2964.011691

                             ****ORCA TERMINATED NORMALLY****
TOTAL RUN TIME: 0 days 0 hours 1 minutes 5 seconds 447 msec
