                         Program Version 5.0.0 -  RELEASE  -
|  1> !CAM-B3LYP RIJCOSX def2-TZVPD def2/J TightSCF xyzfile
|  2>
|  3> *xyzfile 0 1 B.xyz
|  4>
|  5> %MaxCore 64000
|  6>
|  7> %pal nprocs 4
|  8> end
|  9>
| 10> %scf
| 11>   MaxIter 150
| 12> end
| 13>
| 14>
| 15>                          ****END OF INPUT****

CARTESIAN COORDINATES (ANGSTROEM)
---------------------------------
  C     -0.461293    2.234686   -4.989619
  C      0.848883    2.667967   -4.302351
  C      2.093434    1.861037   -4.656845
  H      2.444814    2.041567   -5.674990
  H      2.901748    2.137864   -3.980338
  S      1.879644    0.078594   -4.462965
  C     -0.423841    2.398772   -6.474317
  N     -0.959467    3.492647   -7.007401
  N      0.145585    1.486891   -7.203987
  H      0.565371    0.696807   -6.723858
  H      0.220682    1.581768   -8.207520
  H     -1.406243    4.181507   -6.403261
  H     -0.934215    3.681601   -7.999468
  O      3.207574   -0.466111   -4.420259
  O      1.075064   -0.056160   -3.268758
  O      1.131661   -0.319960   -5.679031
  H      0.668432    2.559427   -3.232850
  H      1.034074    3.729426   -4.497081
  H     -1.288884    2.826737   -4.594997
  H     -0.651696    1.186343   -4.756552

 Total Charge           Charge          ....    0
 Multiplicity           Mult            ....    1
 Number of Electrons    NEL             ....   88
 Basis Dimension        Dim             ....  478

ORBITAL ENERGIES
----------------

  NO   OCC          E(Eh)            E(eV)
   0   2.0000     -89.069924     -2423.7159
   1   2.0000     -19.138185      -520.7765
   2   2.0000     -19.124759      -520.4111
   3   2.0000     -19.122959      -520.3622
   4   2.0000     -14.499722      -394.5575
   5   2.0000     -14.467555      -393.6822
   6   2.0000     -10.423129      -283.6278
   7   2.0000     -10.295889      -280.1654
   8   2.0000     -10.275207      -279.6026
   9   2.0000     -10.251960      -278.9700
  10   2.0000      -8.113588      -220.7820
  11   2.0000      -6.078501      -165.4044
  12   2.0000      -6.077428      -165.3752
  13   2.0000      -6.076064      -165.3381
  14   2.0000      -1.164527       -31.6884
  15   2.0000      -1.143154       -31.1068
  16   2.0000      -1.048198       -28.5229
  17   2.0000      -1.023413       -27.8485
  18   2.0000      -1.021538       -27.7975
  19   2.0000      -0.919342       -25.0166
  20   2.0000      -0.838742       -22.8233
  21   2.0000      -0.771847       -21.0030
  22   2.0000      -0.727536       -19.7973
  23   2.0000      -0.705708       -19.2033
  24   2.0000      -0.680261       -18.5108
  25   2.0000      -0.635857       -17.3025
  26   2.0000      -0.595760       -16.2115
  27   2.0000      -0.587575       -15.9887
  28   2.0000      -0.556571       -15.1451
  29   2.0000      -0.543645       -14.7933
  30   2.0000      -0.517677       -14.0867
  31   2.0000      -0.507235       -13.8026
  32   2.0000      -0.485280       -13.2051
  33   2.0000      -0.477292       -12.9878
  34   2.0000      -0.459163       -12.4945
  35   2.0000      -0.442573       -12.0430
  36   2.0000      -0.426679       -11.6105
  37   2.0000      -0.411813       -11.2060
  38   2.0000      -0.376646       -10.2491
  39   2.0000      -0.371114       -10.0985
  40   2.0000      -0.338876        -9.2213
  41   2.0000      -0.328798        -8.9470
  42   2.0000      -0.319143        -8.6843
  43   2.0000      -0.288206        -7.8425
  44   0.0000      -0.023632        -0.6431
  45   0.0000      -0.020139        -0.5480
  46   0.0000       0.014089         0.3834
  47   0.0000       0.032692         0.8896
  48   0.0000       0.039109         1.0642

MULLIKEN ATOMIC CHARGES
-----------------------
   0 C :   -0.708300
   1 C :   -0.490570
   2 C :   -0.813412
   3 H :    0.338747
   4 H :    0.309343
   5 S :    1.303573
   6 C :    0.484844
   7 N :   -0.326471
   8 N :   -0.237950
   9 H :    0.364928
  10 H :    0.163171
  11 H :    0.220054
  12 H :    0.174840
  13 O :   -0.655374
  14 O :   -0.688282
  15 O :   -0.833711
  16 H :    0.357771
  17 H :    0.267000
  18 H :    0.336315
  19 H :    0.433483
Sum of atomic charges:   -0.0000000

LOEWDIN ATOMIC CHARGES
----------------------
   0 C :   -0.112872
   1 C :   -0.204940
   2 C :   -0.247808
   3 H :    0.095925
   4 H :    0.102896
   5 S :    0.426830
   6 C :   -0.355918
   7 N :    0.191009
   8 N :    0.233898
   9 H :    0.035528
  10 H :    0.144552
  11 H :    0.134742
  12 H :    0.127679
  13 O :   -0.328516
  14 O :   -0.336308
  15 O :   -0.384426
  16 H :    0.116953
  17 H :    0.114141
  18 H :    0.124170
  19 H :    0.122466

  Mayer bond orders larger than 0.100000
B(  0-C ,  1-C ) :   0.7325 B(  0-C ,  6-C ) :   0.6869 B(  0-C , 18-H ) :   0.9093
B(  0-C , 19-H ) :   0.9347 B(  1-C ,  2-C ) :   0.8071 B(  1-C ,  6-C ) :   0.1364
B(  1-C , 16-H ) :   0.8828 B(  1-C , 17-H ) :   0.9732 B(  2-C ,  3-H ) :   0.8956
B(  2-C ,  4-H ) :   0.9857 B(  2-C ,  5-S ) :   0.8927 B(  2-C , 13-O ) :   0.1475
B(  2-C , 15-O ) :   0.1456 B(  5-S , 13-O ) :   1.4949 B(  5-S , 14-O ) :   1.5161
B(  5-S , 15-O ) :   1.2720 B(  6-C ,  7-N ) :   1.0496 B(  6-C ,  8-N ) :   1.3192
B(  7-N , 11-H ) :   0.9669 B(  7-N , 12-H ) :   1.0293 B(  8-N ,  9-H ) :   0.7467
B(  8-N , 10-H ) :   1.0262

FINAL SINGLE POINT ENERGY      -891.849002584036

DIPOLE MOMENT
-------------
                                X             Y             Z
Electronic contribution:      3.08347      -7.61510       1.08455
Nuclear contribution   :     -5.91573      12.15027      -4.18945
                        -----------------------------------------
Total Dipole Moment    :     -2.83226       4.53518      -3.10490
                        -----------------------------------------
Magnitude (a.u.)       :      6.18304
Magnitude (Debye)      :     15.71603

Rotational constants in cm-1:     0.082044     0.024757     0.022371
Rotational constants in MHz :  2459.631375   742.181961   670.660570

                             ****ORCA TERMINATED NORMALLY****
TOTAL RUN TIME: 0 days 0 hours 3 minutes 28 seconds 886 msec
