                         Program Version 5.0.0 -  RELEASE  -
|  1> !CAM-B3LYP RIJCOSX def2-TZVPD def2/J TightSCF
|  2> *xyz 0 1
|  3> C          0.84888        2.66797       -4.30235
|  4> C          2.09343        1.86104       -4.65684
|  5> H          2.44481        2.04157       -5.67499
|  6> H          2.90175        2.13786       -3.98034
|  7> S          1.87964        0.07859       -4.46297
|  8> F          3.20757       -0.46611       -4.42026
|  9> O          1.07506       -0.05616       -3.26876
| 10> O          1.13166       -0.31996       -5.67903
| 11> H          0.05064        2.40112       -4.96303
| 12> H          1.06043        3.71210       -4.40203
| 13> H          0.56237        2.45684       -3.29327
| 14> *
| 15>
| 16> %MaxCore 64000
| 17>
| 18> %pal nprocs 4
| 19> end
| 20>
| 21> %scf
| 22>   MaxIter 150
| 23> end
| 24>
| 25>
| 26>                          ****END OF INPUT****

CARTESIAN COORDINATES (ANGSTROEM)
---------------------------------
  C      0.848880    2.667970   -4.302350
  C      2.093430    1.861040   -4.656840
  H      2.444810    2.041570   -5.674990
  H      2.901750    2.137860   -3.980340
  S      1.879640    0.078590   -4.462970
  F      3.207570   -0.466110   -4.420260
  O      1.075060   -0.056160   -3.268760
  O      1.131660   -0.319960   -5.679030
  H      0.050640    2.401120   -4.963030
  H      1.060430    3.712100   -4.402030
  H      0.562370    2.456840   -3.293270

 Total Charge           Charge          ....    0
 Multiplicity           Mult            ....    1
 Number of Electrons    NEL             ....   58
 Basis Dimension        Dim             ....  285

ORBITAL ENERGIES
----------------

  NO   OCC          E(Eh)            E(eV)
   0   2.0000     -89.180786     -2426.7326
   1   2.0000     -24.885979      -677.1819
   2   2.0000     -19.214582      -522.8554
   3   2.0000     -19.202277      -522.5205
   4   2.0000     -10.304798      -280.4078
   5   2.0000     -10.258582      -279.1502
   6   2.0000      -8.224871      -223.8101
   7   2.0000      -6.192629      -168.5100
   8   2.0000      -6.186249      -168.3364
   9   2.0000      -6.185936      -168.3279
  10   2.0000      -1.477418       -40.2026
  11   2.0000      -1.190499       -32.3951
  12   2.0000      -1.088775       -29.6271
  13   2.0000      -0.903847       -24.5949
  14   2.0000      -0.820048       -22.3146
  15   2.0000      -0.754536       -20.5320
  16   2.0000      -0.671086       -18.2612
  17   2.0000      -0.669266       -18.2117
  18   2.0000      -0.631550       -17.1853
  19   2.0000      -0.565541       -15.3891
  20   2.0000      -0.556757       -15.1501
  21   2.0000      -0.514847       -14.0097
  22   2.0000      -0.498708       -13.5705
  23   2.0000      -0.475072       -12.9274
  24   2.0000      -0.456900       -12.4329
  25   2.0000      -0.452789       -12.3210
  26   2.0000      -0.403875       -10.9900
  27   2.0000      -0.388634       -10.5753
  28   2.0000      -0.375754       -10.2248
  29   0.0000       0.015431         0.4199
  30   0.0000       0.035065         0.9542
  31   0.0000       0.044144         1.2012
  32   0.0000       0.046199         1.2571
  33   0.0000       0.071650         1.9497

MULLIKEN ATOMIC CHARGES
-----------------------
   0 C :   -1.162732
   1 C :   -0.441479
   2 H :    0.347121
   3 H :    0.343767
   4 S :    1.153594
   5 F :   -0.113330
   6 O :   -0.563493
   7 O :   -0.589302
   8 H :    0.336682
   9 H :    0.341238
  10 H :    0.347933
Sum of atomic charges:    0.0000000

LOEWDIN ATOMIC CHARGES
----------------------
   0 C :   -0.108691
   1 C :   -0.283973
   2 H :    0.103477
   3 H :    0.096094
   4 S :    0.595450
   5 F :   -0.045775
   6 O :   -0.277805
   7 O :   -0.305165
   8 H :    0.079299
   9 H :    0.075812
  10 H :    0.071277

  Mayer bond orders larger than 0.100000
B(  0-C ,  1-C ) :   0.6711 B(  0-C ,  8-H ) :   0.9466 B(  0-C ,  9-H ) :   0.9218
B(  0-C , 10-H ) :   0.9437 B(  1-C ,  2-H ) :   0.9054 B(  1-C ,  3-H ) :   0.8814
B(  1-C ,  4-S ) :   0.8862 B(  4-S ,  5-F ) :   1.0152 B(  4-S ,  6-O ) :   1.6927
B(  4-S ,  7-O ) :   1.6590

FINAL SINGLE POINT ENERGY      -727.722027178459

DIPOLE MOMENT
-------------
                                X             Y             Z
Electronic contribution:      4.18003      -9.29991       0.10532
Nuclear contribution   :     -3.08754      10.54185      -0.04092
                        -----------------------------------------
Total Dipole Moment    :      1.09249       1.24194       0.06441
                        -----------------------------------------
Magnitude (a.u.)       :      1.65532
Magnitude (Debye)      :      4.20750

Rotational constants in cm-1:     0.158925     0.081210     0.079022
Rotational constants in MHz :  4764.450166  2434.603461  2369.014434

                             ****ORCA TERMINATED NORMALLY****
TOTAL RUN TIME: 0 days 0 hours 1 minutes 11 seconds 981 msec
