                         Program Version 5.0.0 -  RELEASE  -
|  1> !CAM-B3LYP RIJCOSX def2-TZVPD def2/J TightSCF
|  2> *xyz 0 1
|  3> C         -0.46129        2.23469       -4.98962
|  4> C          0.84888        2.66797       -4.30235
|  5> C         -0.42384        2.39877       -6.47432
|  6> C         -0.95947        3.49265       -7.00740
|  7> N          0.14558        1.48689       -7.20399
|  8> H          0.56537        0.69681       -6.72386
|  9> H          0.22068        1.58177       -8.20752
| 10> H         -1.40624        4.18151       -6.40326
| 11> H         -0.93421        3.68160       -7.99947
| 12> H         -1.28888        2.82674       -4.59500
| 13> H         -0.65170        1.18634       -4.75655
| 14> H          1.66208        2.08894       -4.68750
| 15> H          0.76716        2.51042       -3.24717
| 16> H          1.02677        3.70527       -4.49537
| 17> *
| 18>
| 19> %MaxCore 64000
| 20>
| 21> %pal nprocs 4
| 22> end
| 23>
| 24> %scf
| 25>   MaxIter 150
| 26> end
| 27>
| 28>
| 29>                          ****END OF INPUT****

CARTESIAN COORDINATES (ANGSTROEM)
---------------------------------
  C     -0.461290    2.234690   -4.989620
  C      0.848880    2.667970   -4.302350
  C     -0.423840    2.398770   -6.474320
  C     -0.959470    3.492650   -7.007400
  N      0.145580    1.486890   -7.203990
  H      0.565370    0.696810   -6.723860
  H      0.220680    1.581770   -8.207520
  H     -1.406240    4.181510   -6.403260
  H     -0.934210    3.681600   -7.999470
  H     -1.288880    2.826740   -4.595000
  H     -0.651700    1.186340   -4.756550
  H      1.662080    2.088940   -4.687500
  H      0.767160    2.510420   -3.247170
  H      1.026770    3.705270   -4.495370

 Total Charge           Charge          ....    0
 Multiplicity           Mult            ....    1
 Number of Electrons    NEL             ....   40
 Basis Dimension        Dim             ....  266

ORBITAL ENERGIES
----------------

  NO   OCC          E(Eh)            E(eV)
   0   2.0000     -14.391985      -391.6258
   1   2.0000     -10.264617      -279.3144
   2   2.0000     -10.242737      -278.7190
   3   2.0000     -10.227719      -278.3104
   4   2.0000     -10.173385      -276.8319
   5   2.0000      -1.020086       -27.7580
   6   2.0000      -0.861552       -23.4440
   7   2.0000      -0.794802       -21.6277
   8   2.0000      -0.714813       -19.4510
   9   2.0000      -0.644555       -17.5392
  10   2.0000      -0.602186       -16.3863
  11   2.0000      -0.552465       -15.0333
  12   2.0000      -0.507907       -13.8209
  13   2.0000      -0.489938       -13.3319
  14   2.0000      -0.460693       -12.5361
  15   2.0000      -0.450034       -12.2461
  16   2.0000      -0.418842       -11.3973
  17   2.0000      -0.400841       -10.9074
  18   2.0000      -0.398248       -10.8369
  19   2.0000      -0.246102        -6.6968
  20   0.0000       0.029443         0.8012
  21   0.0000       0.055576         1.5123
  22   0.0000       0.062475         1.7000
  23   0.0000       0.064534         1.7561
  24   0.0000       0.088036         2.3956

MULLIKEN ATOMIC CHARGES
-----------------------
   0 C :   -0.605905
   1 C :   -1.028159
   2 C :    0.783253
   3 C :   -1.176840
   4 N :   -0.353161
   5 H :    0.173905
   6 H :    0.161845
   7 H :    0.254315
   8 H :    0.288611
   9 H :    0.258399
  10 H :    0.313404
  11 H :    0.304584
  12 H :    0.310628
  13 H :    0.315121
Sum of atomic charges:   -0.0000000

LOEWDIN ATOMIC CHARGES
----------------------
   0 C :   -0.203844
   1 C :   -0.091138
   2 C :   -0.509629
   3 C :    0.019781
   4 N :    0.106825
   5 H :    0.111730
   6 H :    0.116896
   7 H :    0.021217
   8 H :    0.014913
   9 H :    0.110108
  10 H :    0.108386
  11 H :    0.062216
  12 H :    0.062293
  13 H :    0.070246

  Mayer bond orders larger than 0.100000
B(  0-C ,  1-C ) :   0.6031 B(  0-C ,  2-C ) :   0.6511 B(  0-C ,  9-H ) :   0.9950
B(  0-C , 10-H ) :   0.9884 B(  1-C , 11-H ) :   0.9479 B(  1-C , 12-H ) :   0.9642
B(  1-C , 13-H ) :   0.9926 B(  2-C ,  3-C ) :   1.1601 B(  2-C ,  4-N ) :   0.9606
B(  2-C ,  8-H ) :  -0.1212 B(  3-C ,  7-H ) :   1.0099 B(  3-C ,  8-H ) :   1.0408
B(  4-N ,  5-H ) :   1.0147 B(  4-N ,  6-H ) :   1.0204

FINAL SINGLE POINT ENERGY      -212.526077995253

DIPOLE MOMENT
-------------
                                X             Y             Z
Electronic contribution:     -0.72403      -1.16466      -2.57108
Nuclear contribution   :      1.14741       0.51394       2.60761
                        -----------------------------------------
Total Dipole Moment    :      0.42338      -0.65072       0.03653
                        -----------------------------------------
Magnitude (a.u.)       :      0.77719
Magnitude (Debye)      :      1.97545

Rotational constants in cm-1:     0.269157     0.129188     0.102123
Rotational constants in MHz :  8069.118715  3872.945231  3061.580645

                             ****ORCA TERMINATED NORMALLY****
TOTAL RUN TIME: 0 days 0 hours 1 minutes 9 seconds 111 msec
