                         Program Version 5.0.0 -  RELEASE  -
|  1> !CAM-B3LYP RIJCOSX def2-TZVPD def2/J TightSCF
|  2> *xyz 0 1
|  3> C          0.84888        2.66797       -4.30235
|  4> C          2.09343        1.86104       -4.65684
|  5> H          2.44481        2.04157       -5.67499
|  6> H          2.90175        2.13786       -3.98034
|  7> S          1.87964        0.07859       -4.46297
|  8> O          3.20757       -0.46611       -4.42026
|  9> F          1.07506       -0.05616       -3.26876
| 10> O          1.13166       -0.31996       -5.67903
| 11> H          0.05064        2.40112       -4.96303
| 12> H          1.06043        3.71210       -4.40203
| 13> H          0.56237        2.45684       -3.29327
| 14> *
| 15>
| 16> %MaxCore 64000
| 17>
| 18> %pal nprocs 4
| 19> end
| 20>
| 21> %scf
| 22>   MaxIter 150
| 23> end
| 24>
| 25>
| 26>                          ****END OF INPUT****

CARTESIAN COORDINATES (ANGSTROEM)
---------------------------------
  C      0.848880    2.667970   -4.302350
  C      2.093430    1.861040   -4.656840
  H      2.444810    2.041570   -5.674990
  H      2.901750    2.137860   -3.980340
  S      1.879640    0.078590   -4.462970
  O      3.207570   -0.466110   -4.420260
  F      1.075060   -0.056160   -3.268760
  O      1.131660   -0.319960   -5.679030
  H      0.050640    2.401120   -4.963030
  H      1.060430    3.712100   -4.402030
  H      0.562370    2.456840   -3.293270

 Total Charge           Charge          ....    0
 Multiplicity           Mult            ....    1
 Number of Electrons    NEL             ....   58
 Basis Dimension        Dim             ....  285

ORBITAL ENERGIES
----------------

  NO   OCC          E(Eh)            E(eV)
   0   2.0000     -89.180134     -2426.7148
   1   2.0000     -24.880245      -677.0259
   2   2.0000     -19.218300      -522.9565
   3   2.0000     -19.202249      -522.5198
   4   2.0000     -10.304687      -280.4048
   5   2.0000     -10.265532      -279.3393
   6   2.0000      -8.224208      -223.7921
   7   2.0000      -6.192178      -168.4977
   8   2.0000      -6.185490      -168.3157
   9   2.0000      -6.185217      -168.3083
  10   2.0000      -1.468664       -39.9644
  11   2.0000      -1.194597       -32.5066
  12   2.0000      -1.091854       -29.7109
  13   2.0000      -0.909200       -24.7406
  14   2.0000      -0.813264       -22.1300
  15   2.0000      -0.757560       -20.6142
  16   2.0000      -0.677084       -18.4244
  17   2.0000      -0.664132       -18.0719
  18   2.0000      -0.622376       -16.9357
  19   2.0000      -0.567747       -15.4492
  20   2.0000      -0.549526       -14.9534
  21   2.0000      -0.523346       -14.2410
  22   2.0000      -0.509584       -13.8665
  23   2.0000      -0.481675       -13.1070
  24   2.0000      -0.465644       -12.6708
  25   2.0000      -0.453753       -12.3472
  26   2.0000      -0.404701       -11.0125
  27   2.0000      -0.389372       -10.5954
  28   2.0000      -0.378840       -10.3088
  29   0.0000       0.014191         0.3862
  30   0.0000       0.037923         1.0319
  31   0.0000       0.041801         1.1375
  32   0.0000       0.046419         1.2631
  33   0.0000       0.072268         1.9665

MULLIKEN ATOMIC CHARGES
-----------------------
   0 C :   -1.183510
   1 C :   -0.391763
   2 H :    0.333193
   3 H :    0.336880
   4 S :    1.146957
   5 O :   -0.541287
   6 F :   -0.144732
   7 O :   -0.591553
   8 H :    0.343009
   9 H :    0.336068
  10 H :    0.356738
Sum of atomic charges:    0.0000000

LOEWDIN ATOMIC CHARGES
----------------------
   0 C :   -0.118605
   1 C :   -0.274940
   2 H :    0.113099
   3 H :    0.099302
   4 S :    0.591806
   5 O :   -0.271006
   6 F :   -0.053290
   7 O :   -0.304648
   8 H :    0.076130
   9 H :    0.075000
  10 H :    0.067152

  Mayer bond orders larger than 0.100000
B(  0-C ,  1-C ) :   0.5889 B(  0-C ,  8-H ) :   0.9653 B(  0-C ,  9-H ) :   0.9426
B(  0-C , 10-H ) :   0.9152 B(  1-C ,  2-H ) :   0.9144 B(  1-C ,  3-H ) :   0.9234
B(  1-C ,  4-S ) :   0.8841 B(  4-S ,  5-O ) :   1.7100 B(  4-S ,  6-F ) :   1.0118
B(  4-S ,  7-O ) :   1.6622

FINAL SINGLE POINT ENERGY      -727.726598516266

DIPOLE MOMENT
-------------
                                X             Y             Z
Electronic contribution:      0.56133      -8.57602       2.04345
Nuclear contribution   :     -0.86540      10.11467      -1.24082
                        -----------------------------------------
Total Dipole Moment    :     -0.30407       1.53866       0.80264
                        -----------------------------------------
Magnitude (a.u.)       :      1.76186
Magnitude (Debye)      :      4.47829

Rotational constants in cm-1:     0.154065     0.083345     0.080357
Rotational constants in MHz :  4618.752213  2498.631937  2409.037217

                             ****ORCA TERMINATED NORMALLY****
TOTAL RUN TIME: 0 days 0 hours 1 minutes 11 seconds 464 msec
