                         Program Version 5.0.0 -  RELEASE  -
|  1> !CAM-B3LYP RIJCOSX def2-TZVPD def2/J TightSCF
|  2> *xyz 0 1
|  3> C         -0.46129        2.23469       -4.98962
|  4> C          0.84888        2.66797       -4.30235
|  5> C         -0.42384        2.39877       -6.47432
|  6> N         -0.95947        3.49265       -7.00740
|  7> C          0.14558        1.48689       -7.20399
|  8> H          0.56537        0.69681       -6.72386
|  9> H          0.22068        1.58177       -8.20752
| 10> H         -1.40624        4.18151       -6.40326
| 11> H         -0.93421        3.68160       -7.99947
| 12> H         -1.28888        2.82674       -4.59500
| 13> H         -0.65170        1.18634       -4.75655
| 14> H          1.66208        2.08894       -4.68750
| 15> H          0.76716        2.51042       -3.24717
| 16> H          1.02677        3.70527       -4.49537
| 17> *
| 18>
| 19> %MaxCore 64000
| 20>
| 21> %pal nprocs 4
| 22> end
| 23>
| 24> %scf
| 25>   MaxIter 150
| 26> end
| 27>
| 28>
| 29>                          ****END OF INPUT****

CARTESIAN COORDINATES (ANGSTROEM)
---------------------------------
  C     -0.461290    2.234690   -4.989620
  C      0.848880    2.667970   -4.302350
  C     -0.423840    2.398770   -6.474320
  N     -0.959470    3.492650   -7.007400
  C      0.145580    1.486890   -7.203990
  H      0.565370    0.696810   -6.723860
  H      0.220680    1.581770   -8.207520
  H     -1.406240    4.181510   -6.403260
  H     -0.934210    3.681600   -7.999470
  H     -1.288880    2.826740   -4.595000
  H     -0.651700    1.186340   -4.756550
  H      1.662080    2.088940   -4.687500
  H      0.767160    2.510420   -3.247170
  H      1.026770    3.705270   -4.495370

 Total Charge           Charge          ....    0
 Multiplicity           Mult            ....    1
 Number of Electrons    NEL             ....   40
 Basis Dimension        Dim             ....  266

ORBITAL ENERGIES
----------------

  NO   OCC          E(Eh)            E(eV)
   0   2.0000     -14.388715      -391.5368
   1   2.0000     -10.262195      -279.2485
   2   2.0000     -10.242387      -278.7095
   3   2.0000     -10.226272      -278.2710
   4   2.0000     -10.172081      -276.7964
   5   2.0000      -1.007525       -27.4161
   6   2.0000      -0.863098       -23.4861
   7   2.0000      -0.798701       -21.7338
   8   2.0000      -0.715789       -19.4776
   9   2.0000      -0.638756       -17.3814
  10   2.0000      -0.592006       -16.1093
  11   2.0000      -0.554840       -15.0980
  12   2.0000      -0.509542       -13.8653
  13   2.0000      -0.484939       -13.1958
  14   2.0000      -0.461511       -12.5584
  15   2.0000      -0.450496       -12.2586
  16   2.0000      -0.416208       -11.3256
  17   2.0000      -0.403510       -10.9801
  18   2.0000      -0.394660       -10.7392
  19   2.0000      -0.250690        -6.8216
  20   0.0000       0.030526         0.8307
  21   0.0000       0.055382         1.5070
  22   0.0000       0.061524         1.6742
  23   0.0000       0.065815         1.7909
  24   0.0000       0.089031         2.4227

MULLIKEN ATOMIC CHARGES
-----------------------
   0 C :   -0.591416
   1 C :   -1.037532
   2 C :    0.788269
   3 N :   -0.374753
   4 C :   -1.162867
   5 H :    0.277079
   6 H :    0.298979
   7 H :    0.168433
   8 H :    0.143183
   9 H :    0.296863
  10 H :    0.267683
  11 H :    0.317909
  12 H :    0.306155
  13 H :    0.302015
Sum of atomic charges:   -0.0000000

LOEWDIN ATOMIC CHARGES
----------------------
   0 C :   -0.202582
   1 C :   -0.090317
   2 C :   -0.500199
   3 N :    0.098719
   4 C :    0.013809
   5 H :    0.030348
   6 H :    0.024715
   7 H :    0.104880
   8 H :    0.107000
   9 H :    0.104834
  10 H :    0.112483
  11 H :    0.066879
  12 H :    0.061948
  13 H :    0.067481

  Mayer bond orders larger than 0.100000
B(  0-C ,  1-C ) :   0.6037 B(  0-C ,  2-C ) :   0.6047 B(  0-C ,  4-C ) :   0.1058
B(  0-C ,  9-H ) :   1.0218 B(  0-C , 10-H ) :   0.9891 B(  1-C , 11-H ) :   0.9690
B(  1-C , 12-H ) :   0.9618 B(  1-C , 13-H ) :   0.9667 B(  2-C ,  3-N ) :   0.8768
B(  2-C ,  4-C ) :   1.2288 B(  2-C ,  6-H ) :  -0.1106 B(  3-N ,  7-H ) :   1.0263
B(  3-N ,  8-H ) :   1.0509 B(  4-C ,  5-H ) :   0.9856 B(  4-C ,  6-H ) :   1.0215

FINAL SINGLE POINT ENERGY      -212.526505359189

DIPOLE MOMENT
-------------
                                X             Y             Z
Electronic contribution:     -1.69228       0.56569      -2.40097
Nuclear contribution   :      1.40335       0.04939       2.56207
                        -----------------------------------------
Total Dipole Moment    :     -0.28893       0.61508       0.16110
                        -----------------------------------------
Magnitude (a.u.)       :      0.69839
Magnitude (Debye)      :      1.77517

Rotational constants in cm-1:     0.271383     0.128194     0.101873
Rotational constants in MHz :  8135.853259  3843.152748  3054.074278

                             ****ORCA TERMINATED NORMALLY****
TOTAL RUN TIME: 0 days 0 hours 1 minutes 6 seconds 379 msec
