                         Program Version 5.0.0 -  RELEASE  -
|  1> !CAM-B3LYP RIJCOSX def2-TZVPD def2/J TightSCF
|  2> *xyz 0 1
|  3> C          0.84888        2.66797       -4.30235
|  4> C          2.09343        1.86104       -4.65684
|  5> H          2.44481        2.04157       -5.67499
|  6> H          2.90175        2.13786       -3.98034
|  7> S          1.87964        0.07859       -4.46297
|  8> O          3.20757       -0.46611       -4.42026
|  9> O          1.07506       -0.05616       -3.26876
| 10> F          1.13166       -0.31996       -5.67903
| 11> H          0.05064        2.40112       -4.96303
| 12> H          1.06043        3.71210       -4.40203
| 13> H          0.56237        2.45684       -3.29327
| 14> *
| 15>
| 16> %MaxCore 64000
| 17>
| 18> %pal nprocs 4
| 19> end
| 20>
| 21> %scf
| 22>   MaxIter 150
| 23> end
| 24>
| 25>
| 26>                          ****END OF INPUT****

CARTESIAN COORDINATES (ANGSTROEM)
---------------------------------
  C      0.848880    2.667970   -4.302350
  C      2.093430    1.861040   -4.656840
  H      2.444810    2.041570   -5.674990
  H      2.901750    2.137860   -3.980340
  S      1.879640    0.078590   -4.462970
  O      3.207570   -0.466110   -4.420260
  O      1.075060   -0.056160   -3.268760
  F      1.131660   -0.319960   -5.679030
  H      0.050640    2.401120   -4.963030
  H      1.060430    3.712100   -4.402030
  H      0.562370    2.456840   -3.293270

 Total Charge           Charge          ....    0
 Multiplicity           Mult            ....    1
 Number of Electrons    NEL             ....   58
 Basis Dimension        Dim             ....  285

ORBITAL ENERGIES
----------------

  NO   OCC          E(Eh)            E(eV)
   0   2.0000     -89.178267     -2426.6640
   1   2.0000     -24.861741      -676.5224
   2   2.0000     -19.217886      -522.9453
   3   2.0000     -19.214325      -522.8484
   4   2.0000     -10.303847      -280.3819
   5   2.0000     -10.259818      -279.1838
   6   2.0000      -8.222353      -223.7416
   7   2.0000      -6.190311      -168.4469
   8   2.0000      -6.183865      -168.2715
   9   2.0000      -6.183262      -168.2551
  10   2.0000      -1.438394       -39.1407
  11   2.0000      -1.203111       -32.7383
  12   2.0000      -1.110841       -30.2275
  13   2.0000      -0.905112       -24.6293
  14   2.0000      -0.802247       -21.8303
  15   2.0000      -0.748978       -20.3807
  16   2.0000      -0.656543       -17.8654
  17   2.0000      -0.642561       -17.4850
  18   2.0000      -0.624229       -16.9861
  19   2.0000      -0.567460       -15.4414
  20   2.0000      -0.551973       -15.0200
  21   2.0000      -0.529931       -14.4201
  22   2.0000      -0.502471       -13.6729
  23   2.0000      -0.475282       -12.9331
  24   2.0000      -0.470936       -12.8148
  25   2.0000      -0.450869       -12.2688
  26   2.0000      -0.411635       -11.2012
  27   2.0000      -0.399899       -10.8818
  28   2.0000      -0.392364       -10.6768
  29   0.0000       0.016336         0.4445
  30   0.0000       0.039222         1.0673
  31   0.0000       0.042523         1.1571
  32   0.0000       0.046014         1.2521
  33   0.0000       0.072203         1.9647

MULLIKEN ATOMIC CHARGES
-----------------------
   0 C :   -1.127672
   1 C :   -0.446284
   2 H :    0.358125
   3 H :    0.325040
   4 S :    1.156645
   5 O :   -0.548790
   6 O :   -0.564047
   7 F :   -0.171593
   8 H :    0.332562
   9 H :    0.341403
  10 H :    0.344612
Sum of atomic charges:    0.0000000

LOEWDIN ATOMIC CHARGES
----------------------
   0 C :   -0.118382
   1 C :   -0.275733
   2 H :    0.102498
   3 H :    0.107281
   4 S :    0.595067
   5 O :   -0.272001
   6 O :   -0.275801
   7 F :   -0.081136
   8 H :    0.073529
   9 H :    0.074145
  10 H :    0.070533

  Mayer bond orders larger than 0.100000
B(  0-C ,  1-C ) :   0.6262 B(  0-C ,  8-H ) :   0.9296 B(  0-C ,  9-H ) :   0.9349
B(  0-C , 10-H ) :   0.9693 B(  1-C ,  2-H ) :   0.8891 B(  1-C ,  3-H ) :   0.9230
B(  1-C ,  4-S ) :   0.8892 B(  4-S ,  5-O ) :   1.7043 B(  4-S ,  6-O ) :   1.6911
B(  4-S ,  7-F ) :   0.9691

FINAL SINGLE POINT ENERGY      -727.742041918769

DIPOLE MOMENT
-------------
                                X             Y             Z
Electronic contribution:      0.64107      -9.05409      -2.05866
Nuclear contribution   :     -0.92438      10.38956       1.27076
                        -----------------------------------------
Total Dipole Moment    :     -0.28331       1.33547      -0.78790
                        -----------------------------------------
Magnitude (a.u.)       :      1.57624
Magnitude (Debye)      :      4.00648

Rotational constants in cm-1:     0.154243     0.082247     0.080562
Rotational constants in MHz :  4624.087322  2465.703680  2415.175852

                             ****ORCA TERMINATED NORMALLY****
TOTAL RUN TIME: 0 days 0 hours 1 minutes 9 seconds 50 msec
