                         Program Version 5.0.0 -  RELEASE  -
|  1> !CAM-B3LYP RIJCOSX def2-TZVPD def2/J TightSCF xyzfile
|  2>
|  3> *xyzfile 0 1 D1.xyz
|  4>
|  5> %MaxCore 64000
|  6>
|  7> %pal nprocs 4
|  8> end
|  9>
| 10> %scf
| 11>   MaxIter 150
| 12> end
| 13>
| 14>
| 15>                          ****END OF INPUT****

CARTESIAN COORDINATES (ANGSTROEM)
---------------------------------
  C     -0.461293    2.234686   -4.989619
  C      0.848883    2.667967   -4.302351
  C      2.093434    1.861037   -4.656845
  H      2.444814    2.041567   -5.674990
  H      2.901748    2.137864   -3.980338
  S      1.879644    0.078594   -4.462965
  C     -0.423841    2.398772   -6.474317
  C     -0.959467    3.492647   -7.007401
  N      0.145585    1.486891   -7.203987
  H      0.565371    0.696807   -6.723858
  H      0.220682    1.581768   -8.207520
  H     -1.406243    4.181507   -6.403261
  H     -0.934215    3.681601   -7.999468
  F      3.207574   -0.466111   -4.420259
  O      1.075064   -0.056160   -3.268758
  O      1.131661   -0.319960   -5.679031
  H      0.668432    2.559427   -3.232850
  H      1.034074    3.729426   -4.497081
  H     -1.288884    2.826737   -4.594997
  H     -0.651696    1.186343   -4.756552

 Total Charge           Charge          ....    0
 Multiplicity           Mult            ....    1
 Number of Electrons    NEL             ....   88
 Basis Dimension        Dim             ....  478

ORBITAL ENERGIES
----------------

  NO   OCC          E(Eh)            E(eV)
   0   2.0000     -89.200302     -2427.2636
   1   2.0000     -24.901379      -677.6010
   2   2.0000     -19.231363      -523.3120
   3   2.0000     -19.227151      -523.1974
   4   2.0000     -14.362828      -390.8324
   5   2.0000     -10.311394      -280.5873
   6   2.0000     -10.272289      -279.5232
   7   2.0000     -10.257922      -279.1323
   8   2.0000     -10.244998      -278.7806
   9   2.0000     -10.166419      -276.6423
  10   2.0000      -8.244556      -224.3458
  11   2.0000      -6.212179      -169.0420
  12   2.0000      -6.206037      -168.8748
  13   2.0000      -6.205633      -168.8639
  14   2.0000      -1.492932       -40.6247
  15   2.0000      -1.212608       -32.9967
  16   2.0000      -1.116236       -30.3743
  17   2.0000      -1.004415       -27.3315
  18   2.0000      -0.919722       -25.0269
  19   2.0000      -0.852981       -23.2108
  20   2.0000      -0.819931       -22.3115
  21   2.0000      -0.775129       -21.0923
  22   2.0000      -0.725631       -19.7454
  23   2.0000      -0.689146       -18.7526
  24   2.0000      -0.677504       -18.4358
  25   2.0000      -0.655505       -17.8372
  26   2.0000      -0.632815       -17.2198
  27   2.0000      -0.599571       -16.3152
  28   2.0000      -0.576037       -15.6748
  29   2.0000      -0.563973       -15.3465
  30   2.0000      -0.546152       -14.8616
  31   2.0000      -0.527805       -14.3623
  32   2.0000      -0.517743       -14.0885
  33   2.0000      -0.485372       -13.2077
  34   2.0000      -0.467870       -12.7314
  35   2.0000      -0.461739       -12.5646
  36   2.0000      -0.449989       -12.2448
  37   2.0000      -0.431703       -11.7472
  38   2.0000      -0.420261       -11.4359
  39   2.0000      -0.413066       -11.2401
  40   2.0000      -0.400243       -10.8912
  41   2.0000      -0.394214       -10.7271
  42   2.0000      -0.385754       -10.4969
  43   2.0000      -0.236070        -6.4238
  44   0.0000       0.008923         0.2428
  45   0.0000       0.030956         0.8424
  46   0.0000       0.035089         0.9548
  47   0.0000       0.042450         1.1551
  48   0.0000       0.060840         1.6555

MULLIKEN ATOMIC CHARGES
-----------------------
   0 C :   -0.790976
   1 C :   -0.483904
   2 C :   -0.794756
   3 H :    0.409887
   4 H :    0.368679
   5 S :    1.210937
   6 C :    0.595363
   7 C :   -1.193463
   8 N :   -0.323732
   9 H :    0.314870
  10 H :    0.109283
  11 H :    0.267186
  12 H :    0.297504
  13 F :   -0.099382
  14 O :   -0.574784
  15 O :   -0.679032
  16 H :    0.307287
  17 H :    0.325546
  18 H :    0.305946
  19 H :    0.427541
Sum of atomic charges:    0.0000000

LOEWDIN ATOMIC CHARGES
----------------------
   0 C :   -0.145854
   1 C :   -0.195759
   2 C :   -0.218305
   3 H :    0.110468
   4 H :    0.103557
   5 S :    0.648180
   6 C :   -0.487712
   7 C :    0.016829
   8 N :    0.115884
   9 H :    0.020834
  10 H :    0.122093
  11 H :    0.017187
  12 H :    0.013779
  13 F :   -0.032821
  14 O :   -0.254436
  15 O :   -0.302975
  16 H :    0.111003
  17 H :    0.127886
  18 H :    0.122576
  19 H :    0.107585

  Mayer bond orders larger than 0.100000
B(  0-C ,  1-C ) :   0.7361 B(  0-C ,  6-C ) :   0.6960 B(  0-C ,  7-C ) :   0.1208
B(  0-C , 18-H ) :   0.9928 B(  0-C , 19-H ) :   0.8903 B(  1-C ,  2-C ) :   0.8598
B(  1-C , 16-H ) :   0.9056 B(  1-C , 17-H ) :   0.9183 B(  2-C ,  3-H ) :   0.8378
B(  2-C ,  4-H ) :   0.8849 B(  2-C ,  5-S ) :   0.8768 B(  2-C ,  8-N ) :   0.1336
B(  2-C , 15-O ) :   0.1005 B(  5-S , 13-F ) :   0.9818 B(  5-S , 14-O ) :   1.7148
B(  5-S , 15-O ) :   1.5617 B(  6-C ,  7-C ) :   1.2256 B(  6-C ,  8-N ) :   0.9615
B(  7-C ,  8-N ) :   0.1114 B(  7-C , 11-H ) :   1.0350 B(  7-C , 12-H ) :   1.0072
B(  8-N ,  9-H ) :   0.8553 B(  8-N , 10-H ) :   1.0534

FINAL SINGLE POINT ENERGY      -899.741810307031

DIPOLE MOMENT
-------------
                                X             Y             Z
Electronic contribution:     10.17613     -13.91206       5.47581
Nuclear contribution   :     -8.53047      14.15581      -5.17613
                        -----------------------------------------
Total Dipole Moment    :      1.64566       0.24375       0.29967
                        -----------------------------------------
Magnitude (a.u.)       :      1.69039
Magnitude (Debye)      :      4.29662

Rotational constants in cm-1:     0.081196     0.024861     0.022477
Rotational constants in MHz :  2434.181666   745.320670   673.846846

                             ****ORCA TERMINATED NORMALLY****
TOTAL RUN TIME: 0 days 0 hours 4 minutes 3 seconds 575 msec
