                         Program Version 5.0.0 -  RELEASE  -
|  1> !CAM-B3LYP RIJCOSX def2-TZVPD def2/J TightSCF xyzfile
|  2>
|  3> *xyzfile 0 1 D2.xyz
|  4>
|  5> %MaxCore 64000
|  6>
|  7> %pal nprocs 4
|  8> end
|  9>
| 10> %scf
| 11>   MaxIter 150
| 12> end
| 13>
| 14>
| 15>                          ****END OF INPUT****

CARTESIAN COORDINATES (ANGSTROEM)
---------------------------------
  C     -0.461293    2.234686   -4.989619
  C      0.848883    2.667967   -4.302351
  C      2.093434    1.861037   -4.656845
  H      2.444814    2.041567   -5.674990
  H      2.901748    2.137864   -3.980338
  S      1.879644    0.078594   -4.462965
  C     -0.423841    2.398772   -6.474317
  N     -0.959467    3.492647   -7.007401
  C      0.145585    1.486891   -7.203987
  H      0.565371    0.696807   -6.723858
  H      0.220682    1.581768   -8.207520
  H     -1.406243    4.181507   -6.403261
  H     -0.934215    3.681601   -7.999468
  F      3.207574   -0.466111   -4.420259
  O      1.075064   -0.056160   -3.268758
  O      1.131661   -0.319960   -5.679031
  H      0.668432    2.559427   -3.232850
  H      1.034074    3.729426   -4.497081
  H     -1.288884    2.826737   -4.594997
  H     -0.651696    1.186343   -4.756552

 Total Charge           Charge          ....    0
 Multiplicity           Mult            ....    1
 Number of Electrons    NEL             ....   88
 Basis Dimension        Dim             ....  478

ORBITAL ENERGIES
----------------

  NO   OCC          E(Eh)            E(eV)
   0   2.0000     -89.182569     -2426.7811
   1   2.0000     -24.886218      -677.1884
   2   2.0000     -19.216250      -522.9007
   3   2.0000     -19.204434      -522.5792
   4   2.0000     -14.382890      -391.3783
   5   2.0000     -10.300441      -280.2893
   6   2.0000     -10.269717      -279.4532
   7   2.0000     -10.253390      -279.0089
   8   2.0000     -10.244896      -278.7778
   9   2.0000     -10.149621      -276.1852
  10   2.0000      -8.226893      -223.8651
  11   2.0000      -6.194627      -168.5644
  12   2.0000      -6.188256      -168.3910
  13   2.0000      -6.187975      -168.3834
  14   2.0000      -1.477898       -40.2156
  15   2.0000      -1.195137       -32.5213
  16   2.0000      -1.096602       -29.8401
  17   2.0000      -1.002428       -27.2774
  18   2.0000      -0.912539       -24.8314
  19   2.0000      -0.850276       -23.1372
  20   2.0000      -0.806020       -21.9329
  21   2.0000      -0.781673       -21.2704
  22   2.0000      -0.717438       -19.5225
  23   2.0000      -0.674170       -18.3451
  24   2.0000      -0.666620       -18.1397
  25   2.0000      -0.637503       -17.3473
  26   2.0000      -0.636001       -17.3065
  27   2.0000      -0.585721       -15.9383
  28   2.0000      -0.568941       -15.4817
  29   2.0000      -0.558827       -15.2065
  30   2.0000      -0.544306       -14.8113
  31   2.0000      -0.528129       -14.3711
  32   2.0000      -0.510955       -13.9038
  33   2.0000      -0.475918       -12.9504
  34   2.0000      -0.468464       -12.7476
  35   2.0000      -0.456811       -12.4304
  36   2.0000      -0.442357       -12.0371
  37   2.0000      -0.427970       -11.6457
  38   2.0000      -0.405793       -11.0422
  39   2.0000      -0.403904       -10.9908
  40   2.0000      -0.387956       -10.5568
  41   2.0000      -0.384172       -10.4539
  42   2.0000      -0.360875        -9.8199
  43   2.0000      -0.242193        -6.5904
  44   0.0000       0.016374         0.4456
  45   0.0000       0.030395         0.8271
  46   0.0000       0.040888         1.1126
  47   0.0000       0.041908         1.1404
  48   0.0000       0.064199         1.7469

MULLIKEN ATOMIC CHARGES
-----------------------
   0 C :   -0.820233
   1 C :   -0.495542
   2 C :   -0.800844
   3 H :    0.457472
   4 H :    0.358083
   5 S :    1.157743
   6 C :    0.712499
   7 N :   -0.377674
   8 C :   -1.432628
   9 H :    0.625490
  10 H :    0.240866
  11 H :    0.168054
  12 H :    0.145389
  13 F :   -0.107188
  14 O :   -0.587588
  15 O :   -0.584726
  16 H :    0.312452
  17 H :    0.293720
  18 H :    0.360515
  19 H :    0.374141
Sum of atomic charges:   -0.0000000

LOEWDIN ATOMIC CHARGES
----------------------
   0 C :   -0.143312
   1 C :   -0.197992
   2 C :   -0.218817
   3 H :    0.109188
   4 H :    0.102033
   5 S :    0.640064
   6 C :   -0.472024
   7 N :    0.094826
   8 C :    0.026423
   9 H :   -0.037700
  10 H :    0.037371
  11 H :    0.101542
  12 H :    0.105828
  13 F :   -0.038162
  14 O :   -0.264354
  15 O :   -0.307645
  16 H :    0.110121
  17 H :    0.124675
  18 H :    0.117264
  19 H :    0.110671

  Mayer bond orders larger than 0.100000
B(  0-C ,  1-C ) :   0.7674 B(  0-C ,  6-C ) :   0.5784 B(  0-C ,  7-N ) :   0.1160
B(  0-C , 18-H ) :   0.9575 B(  0-C , 19-H ) :   0.9628 B(  1-C ,  2-C ) :   0.8783
B(  1-C , 16-H ) :   0.9027 B(  1-C , 17-H ) :   0.9323 B(  2-C ,  3-H ) :   0.8310
B(  2-C ,  4-H ) :   0.8928 B(  2-C ,  5-S ) :   0.8553 B(  2-C ,  8-C ) :   0.1217
B(  2-C , 15-O ) :   0.1129 B(  5-S , 13-F ) :   0.9744 B(  5-S , 14-O ) :   1.6992
B(  5-S , 15-O ) :   1.6438 B(  6-C ,  7-N ) :   0.8214 B(  6-C ,  8-C ) :   1.0496
B(  6-C , 10-H ) :  -0.1649 B(  7-N , 11-H ) :   1.0346 B(  7-N , 12-H ) :   1.0482
B(  8-C ,  9-H ) :   0.7041 B(  8-C , 10-H ) :   1.1862 B(  8-C , 15-O ) :   0.1077
B(  9-H , 15-O ) :  -0.2930

FINAL SINGLE POINT ENERGY      -899.722375956420

DIPOLE MOMENT
-------------
                                X             Y             Z
Electronic contribution:      9.28122     -12.45509       5.40775
Nuclear contribution   :     -8.42493      13.96425      -5.19491
                        -----------------------------------------
Total Dipole Moment    :      0.85629       1.50916       0.21284
                        -----------------------------------------
Magnitude (a.u.)       :      1.74817
Magnitude (Debye)      :      4.44349

Rotational constants in cm-1:     0.082815     0.024151     0.022015
Rotational constants in MHz :  2482.732265   724.035221   660.002136

                             ****ORCA TERMINATED NORMALLY****
TOTAL RUN TIME: 0 days 0 hours 4 minutes 4 seconds 912 msec
