                         Program Version 5.0.0 -  RELEASE  -
|  1> !CAM-B3LYP RIJCOSX def2-TZVPD def2/J TightSCF xyzfile
|  2>
|  3> *xyzfile 0 1 D3.xyz
|  4>
|  5> %MaxCore 64000
|  6>
|  7> %pal nprocs 4
|  8> end
|  9>
| 10> %scf
| 11>   MaxIter 150
| 12> end
| 13>
| 14>
| 15>                          ****END OF INPUT****

CARTESIAN COORDINATES (ANGSTROEM)
---------------------------------
  C     -0.461293    2.234686   -4.989619
  C      0.848883    2.667967   -4.302351
  C      2.093434    1.861037   -4.656845
  H      2.444814    2.041567   -5.674990
  H      2.901748    2.137864   -3.980338
  S      1.879644    0.078594   -4.462965
  C     -0.423841    2.398772   -6.474317
  C     -0.959467    3.492647   -7.007401
  N      0.145585    1.486891   -7.203987
  H      0.565371    0.696807   -6.723858
  H      0.220682    1.581768   -8.207520
  H     -1.406243    4.181507   -6.403261
  H     -0.934215    3.681601   -7.999468
  O      3.207574   -0.466111   -4.420259
  F      1.075064   -0.056160   -3.268758
  O      1.131661   -0.319960   -5.679031
  H      0.668432    2.559427   -3.232850
  H      1.034074    3.729426   -4.497081
  H     -1.288884    2.826737   -4.594997
  H     -0.651696    1.186343   -4.756552

 Total Charge           Charge          ....    0
 Multiplicity           Mult            ....    1
 Number of Electrons    NEL             ....   88
 Basis Dimension        Dim             ....  478

ORBITAL ENERGIES
----------------

  NO   OCC          E(Eh)            E(eV)
   0   2.0000     -89.199332     -2427.2372
   1   2.0000     -24.895385      -677.4379
   2   2.0000     -19.234335      -523.3929
   3   2.0000     -19.225853      -523.1621
   4   2.0000     -14.365561      -390.9068
   5   2.0000     -10.310893      -280.5737
   6   2.0000     -10.278126      -279.6820
   7   2.0000     -10.263628      -279.2875
   8   2.0000     -10.255938      -279.0783
   9   2.0000     -10.171322      -276.7757
  10   2.0000      -8.243546      -224.3183
  11   2.0000      -6.211438      -169.0218
  12   2.0000      -6.205102      -168.8494
  13   2.0000      -6.204330      -168.8284
  14   2.0000      -1.484031       -40.3825
  15   2.0000      -1.215062       -33.0635
  16   2.0000      -1.119295       -30.4576
  17   2.0000      -1.008264       -27.4363
  18   2.0000      -0.925914       -25.1954
  19   2.0000      -0.852060       -23.1857
  20   2.0000      -0.818998       -22.2861
  21   2.0000      -0.779989       -21.2246
  22   2.0000      -0.726830       -19.7780
  23   2.0000      -0.686987       -18.6939
  24   2.0000      -0.683612       -18.6020
  25   2.0000      -0.650623       -17.7043
  26   2.0000      -0.638230       -17.3671
  27   2.0000      -0.593902       -16.1609
  28   2.0000      -0.574965       -15.6456
  29   2.0000      -0.567340       -15.4381
  30   2.0000      -0.547708       -14.9039
  31   2.0000      -0.531603       -14.4657
  32   2.0000      -0.524223       -14.2648
  33   2.0000      -0.493069       -13.4171
  34   2.0000      -0.475566       -12.9408
  35   2.0000      -0.468430       -12.7466
  36   2.0000      -0.452713       -12.3189
  37   2.0000      -0.447491       -12.1769
  38   2.0000      -0.417194       -11.3524
  39   2.0000      -0.413521       -11.2525
  40   2.0000      -0.407757       -11.0956
  41   2.0000      -0.396879       -10.7996
  42   2.0000      -0.388924       -10.5832
  43   2.0000      -0.240173        -6.5354
  44   0.0000       0.010347         0.2816
  45   0.0000       0.031579         0.8593
  46   0.0000       0.035327         0.9613
  47   0.0000       0.041473         1.1285
  48   0.0000       0.060829         1.6552

MULLIKEN ATOMIC CHARGES
-----------------------
   0 C :   -0.660316
   1 C :   -0.483579
   2 C :   -0.721240
   3 H :    0.385879
   4 H :    0.332613
   5 S :    1.217952
   6 C :    0.556527
   7 C :   -1.199647
   8 N :   -0.323988
   9 H :    0.330818
  10 H :    0.107842
  11 H :    0.266109
  12 H :    0.300226
  13 O :   -0.553420
  14 F :   -0.153504
  15 O :   -0.675886
  16 H :    0.293187
  17 H :    0.324951
  18 H :    0.290062
  19 H :    0.365414
Sum of atomic charges:    0.0000000

LOEWDIN ATOMIC CHARGES
----------------------
   0 C :   -0.151737
   1 C :   -0.205496
   2 C :   -0.208638
   3 H :    0.119942
   4 H :    0.106661
   5 S :    0.643683
   6 C :   -0.487680
   7 C :    0.018879
   8 N :    0.117598
   9 H :    0.021976
  10 H :    0.123413
  11 H :    0.017700
  12 H :    0.015338
  13 O :   -0.252967
  14 F :   -0.035968
  15 O :   -0.301887
  16 H :    0.107215
  17 H :    0.126774
  18 H :    0.121804
  19 H :    0.103391

  Mayer bond orders larger than 0.100000
B(  0-C ,  1-C ) :   0.6771 B(  0-C ,  6-C ) :   0.7471 B(  0-C ,  7-C ) :   0.1141
B(  0-C , 18-H ) :   1.0297 B(  0-C , 19-H ) :   0.8787 B(  1-C ,  2-C ) :   0.7895
B(  1-C , 16-H ) :   0.9416 B(  1-C , 17-H ) :   0.9089 B(  2-C ,  3-H ) :   0.8603
B(  2-C ,  4-H ) :   0.9773 B(  2-C ,  5-S ) :   0.8728 B(  2-C ,  8-N ) :   0.1324
B(  5-S , 13-O ) :   1.6533 B(  5-S , 14-F ) :   1.0122 B(  5-S , 15-O ) :   1.5616
B(  6-C ,  7-C ) :   1.2308 B(  6-C ,  8-N ) :   0.9750 B(  7-C ,  8-N ) :   0.1147
B(  7-C , 11-H ) :   1.0388 B(  7-C , 12-H ) :   1.0016 B(  8-N ,  9-H ) :   0.8431
B(  8-N , 10-H ) :   1.0503

FINAL SINGLE POINT ENERGY      -899.746176298661

DIPOLE MOMENT
-------------
                                X             Y             Z
Electronic contribution:      6.46123     -13.13802       7.39877
Nuclear contribution   :     -6.19944      13.70770      -6.43483
                        -----------------------------------------
Total Dipole Moment    :      0.26179       0.56968       0.96394
                        -----------------------------------------
Magnitude (a.u.)       :      1.14989
Magnitude (Debye)      :      2.92278

Rotational constants in cm-1:     0.079903     0.025241     0.022805
Rotational constants in MHz :  2395.439281   756.708181   683.680583

                             ****ORCA TERMINATED NORMALLY****
TOTAL RUN TIME: 0 days 0 hours 4 minutes 1 seconds 437 msec
