                         Program Version 5.0.0 -  RELEASE  -
|  1> !CAM-B3LYP RIJCOSX def2-TZVPD def2/J TightSCF xyzfile
|  2>
|  3> *xyzfile 0 1 D4.xyz
|  4>
|  5> %MaxCore 64000
|  6>
|  7> %pal nprocs 4
|  8> end
|  9>
| 10> %scf
| 11>   MaxIter 150
| 12> end
| 13>
| 14>
| 15>                          ****END OF INPUT****

CARTESIAN COORDINATES (ANGSTROEM)
---------------------------------
  C     -0.461293    2.234686   -4.989619
  C      0.848883    2.667967   -4.302351
  C      2.093434    1.861037   -4.656845
  H      2.444814    2.041567   -5.674990
  H      2.901748    2.137864   -3.980338
  S      1.879644    0.078594   -4.462965
  C     -0.423841    2.398772   -6.474317
  N     -0.959467    3.492647   -7.007401
  C      0.145585    1.486891   -7.203987
  H      0.565371    0.696807   -6.723858
  H      0.220682    1.581768   -8.207520
  H     -1.406243    4.181507   -6.403261
  H     -0.934215    3.681601   -7.999468
  O      3.207574   -0.466111   -4.420259
  F      1.075064   -0.056160   -3.268758
  O      1.131661   -0.319960   -5.679031
  H      0.668432    2.559427   -3.232850
  H      1.034074    3.729426   -4.497081
  H     -1.288884    2.826737   -4.594997
  H     -0.651696    1.186343   -4.756552

 Total Charge           Charge          ....    0
 Multiplicity           Mult            ....    1
 Number of Electrons    NEL             ....   88
 Basis Dimension        Dim             ....  478

ORBITAL ENERGIES
----------------

  NO   OCC          E(Eh)            E(eV)
   0   2.0000     -89.181436     -2426.7503
   1   2.0000     -24.881304      -677.0547
   2   2.0000     -19.218420      -522.9598
   3   2.0000     -19.203132      -522.5438
   4   2.0000     -14.386813      -391.4851
   5   2.0000     -10.300041      -280.2784
   6   2.0000     -10.275621      -279.6139
   7   2.0000     -10.258356      -279.1441
   8   2.0000     -10.255748      -279.0731
   9   2.0000     -10.153512      -276.2911
  10   2.0000      -8.225743      -223.8339
  11   2.0000      -6.193784      -168.5414
  12   2.0000      -6.186980      -168.3563
  13   2.0000      -6.186683      -168.3482
  14   2.0000      -1.470116       -40.0039
  15   2.0000      -1.197352       -32.5816
  16   2.0000      -1.099090       -29.9077
  17   2.0000      -1.006962       -27.4008
  18   2.0000      -0.919386       -25.0178
  19   2.0000      -0.850213       -23.1355
  20   2.0000      -0.804880       -21.9019
  21   2.0000      -0.785936       -21.3864
  22   2.0000      -0.719284       -19.5727
  23   2.0000      -0.677448       -18.4343
  24   2.0000      -0.668583       -18.1931
  25   2.0000      -0.642143       -17.4736
  26   2.0000      -0.629282       -17.1236
  27   2.0000      -0.588946       -16.0260
  28   2.0000      -0.569510       -15.4972
  29   2.0000      -0.552966       -15.0470
  30   2.0000      -0.549505       -14.9528
  31   2.0000      -0.533815       -14.5258
  32   2.0000      -0.514559       -14.0019
  33   2.0000      -0.482836       -13.1386
  34   2.0000      -0.471213       -12.8224
  35   2.0000      -0.464557       -12.6412
  36   2.0000      -0.447653       -12.1813
  37   2.0000      -0.441908       -12.0249
  38   2.0000      -0.410298       -11.1648
  39   2.0000      -0.400894       -10.9089
  40   2.0000      -0.393759       -10.7147
  41   2.0000      -0.390098       -10.6151
  42   2.0000      -0.358296        -9.7497
  43   2.0000      -0.246222        -6.7001
  44   0.0000       0.014660         0.3989
  45   0.0000       0.032393         0.8815
  46   0.0000       0.037017         1.0073
  47   0.0000       0.042253         1.1498
  48   0.0000       0.061140         1.6637

MULLIKEN ATOMIC CHARGES
-----------------------
   0 C :   -0.698410
   1 C :   -0.481987
   2 C :   -0.725471
   3 H :    0.426720
   4 H :    0.327739
   5 S :    1.159342
   6 C :    0.677422
   7 N :   -0.378493
   8 C :   -1.432973
   9 H :    0.628997
  10 H :    0.248989
  11 H :    0.166035
  12 H :    0.146622
  13 O :   -0.570416
  14 F :   -0.156619
  15 O :   -0.581750
  16 H :    0.295234
  17 H :    0.293581
  18 H :    0.343137
  19 H :    0.312301
Sum of atomic charges:    0.0000000

LOEWDIN ATOMIC CHARGES
----------------------
   0 C :   -0.149134
   1 C :   -0.207418
   2 C :   -0.209174
   3 H :    0.118617
   4 H :    0.105082
   5 S :    0.635042
   6 C :   -0.472454
   7 N :    0.094957
   8 C :    0.030505
   9 H :   -0.036441
  10 H :    0.039326
  11 H :    0.101591
  12 H :    0.106822
  13 O :   -0.261037
  14 F :   -0.042641
  15 O :   -0.306737
  16 H :    0.106411
  17 H :    0.123673
  18 H :    0.116538
  19 H :    0.106473

  Mayer bond orders larger than 0.100000
B(  0-C ,  1-C ) :   0.7073 B(  0-C ,  6-C ) :   0.6337 B(  0-C ,  7-N ) :   0.1163
B(  0-C , 18-H ) :   0.9993 B(  0-C , 19-H ) :   0.9446 B(  1-C ,  2-C ) :   0.7961
B(  1-C , 16-H ) :   0.9340 B(  1-C , 17-H ) :   0.9262 B(  2-C ,  3-H ) :   0.8572
B(  2-C ,  4-H ) :   0.9782 B(  2-C ,  5-S ) :   0.8535 B(  2-C ,  8-C ) :   0.1254
B(  2-C , 15-O ) :   0.1017 B(  5-S , 13-O ) :   1.6426 B(  5-S , 14-F ) :   1.0027
B(  5-S , 15-O ) :   1.6422 B(  6-C ,  7-N ) :   0.8195 B(  6-C ,  8-C ) :   1.0469
B(  6-C , 10-H ) :  -0.1679 B(  6-C , 18-H ) :  -0.1028 B(  7-N , 11-H ) :   1.0359
B(  7-N , 12-H ) :   1.0467 B(  8-C ,  9-H ) :   0.7245 B(  8-C , 10-H ) :   1.1759
B(  8-C , 15-O ) :   0.1048 B(  9-H , 15-O ) :  -0.3085

FINAL SINGLE POINT ENERGY      -899.725705719699

DIPOLE MOMENT
-------------
                                X             Y             Z
Electronic contribution:      5.55853     -11.69294       7.33809
Nuclear contribution   :     -6.09390      13.51614      -6.45360
                        -----------------------------------------
Total Dipole Moment    :     -0.53537       1.82320       0.88449
                        -----------------------------------------
Magnitude (a.u.)       :      2.09595
Magnitude (Debye)      :      5.32747

Rotational constants in cm-1:     0.081469     0.024519     0.022336
Rotational constants in MHz :  2442.393231   735.066768   669.628729

                             ****ORCA TERMINATED NORMALLY****
TOTAL RUN TIME: 0 days 0 hours 4 minutes 2 seconds 85 msec
