                         Program Version 5.0.0 -  RELEASE  -
|  1> !CAM-B3LYP RIJCOSX def2-TZVPD def2/J TightSCF xyzfile
|  2>
|  3> *xyzfile 0 1 D5.xyz
|  4>
|  5> %MaxCore 64000
|  6>
|  7> %pal nprocs 4
|  8> end
|  9>
| 10> %scf
| 11>   MaxIter 150
| 12> end
| 13>
| 14>
| 15>                          ****END OF INPUT****

CARTESIAN COORDINATES (ANGSTROEM)
---------------------------------
  C     -0.461293    2.234686   -4.989619
  C      0.848883    2.667967   -4.302351
  C      2.093434    1.861037   -4.656845
  H      2.444814    2.041567   -5.674990
  H      2.901748    2.137864   -3.980338
  S      1.879644    0.078594   -4.462965
  C     -0.423841    2.398772   -6.474317
  C     -0.959467    3.492647   -7.007401
  N      0.145585    1.486891   -7.203987
  H      0.565371    0.696807   -6.723858
  H      0.220682    1.581768   -8.207520
  H     -1.406243    4.181507   -6.403261
  H     -0.934215    3.681601   -7.999468
  O      3.207574   -0.466111   -4.420259
  O      1.075064   -0.056160   -3.268758
  F      1.131661   -0.319960   -5.679031
  H      0.668432    2.559427   -3.232850
  H      1.034074    3.729426   -4.497081
  H     -1.288884    2.826737   -4.594997
  H     -0.651696    1.186343   -4.756552

 Total Charge           Charge          ....    0
 Multiplicity           Mult            ....    1
 Number of Electrons    NEL             ....   88
 Basis Dimension        Dim             ....  478

ORBITAL ENERGIES
----------------

  NO   OCC          E(Eh)            E(eV)
   0   2.0000     -89.190096     -2426.9859
   1   2.0000     -24.886259      -677.1895
   2   2.0000     -19.229277      -523.2552
   3   2.0000     -19.225262      -523.1460
   4   2.0000     -14.394005      -391.6808
   5   2.0000     -10.307859      -280.4911
   6   2.0000     -10.275456      -279.6094
   7   2.0000     -10.272989      -279.5422
   8   2.0000     -10.259140      -279.1654
   9   2.0000     -10.183895      -277.1179
  10   2.0000      -8.234698      -224.0775
  11   2.0000      -6.203000      -168.7922
  12   2.0000      -6.195873      -168.5983
  13   2.0000      -6.195357      -168.5842
  14   2.0000      -1.467654       -39.9369
  15   2.0000      -1.216013       -33.0894
  16   2.0000      -1.122058       -30.5327
  17   2.0000      -1.030968       -28.0541
  18   2.0000      -0.922027       -25.0896
  19   2.0000      -0.854876       -23.2624
  20   2.0000      -0.828834       -22.5537
  21   2.0000      -0.781197       -21.2575
  22   2.0000      -0.737136       -20.0585
  23   2.0000      -0.684103       -18.6154
  24   2.0000      -0.670438       -18.2435
  25   2.0000      -0.650546       -17.7022
  26   2.0000      -0.632218       -17.2035
  27   2.0000      -0.609193       -16.5770
  28   2.0000      -0.576966       -15.7000
  29   2.0000      -0.561496       -15.2791
  30   2.0000      -0.547793       -14.9062
  31   2.0000      -0.541723       -14.7410
  32   2.0000      -0.520306       -14.1582
  33   2.0000      -0.495411       -13.4808
  34   2.0000      -0.476284       -12.9603
  35   2.0000      -0.467024       -12.7084
  36   2.0000      -0.458691       -12.4816
  37   2.0000      -0.446642       -12.1537
  38   2.0000      -0.422670       -11.5014
  39   2.0000      -0.419445       -11.4137
  40   2.0000      -0.408996       -11.1293
  41   2.0000      -0.403761       -10.9869
  42   2.0000      -0.398556       -10.8453
  43   2.0000      -0.256074        -6.9681
  44   0.0000       0.016588         0.4514
  45   0.0000       0.031563         0.8589
  46   0.0000       0.035420         0.9638
  47   0.0000       0.039851         1.0844
  48   0.0000       0.062223         1.6932

MULLIKEN ATOMIC CHARGES
-----------------------
   0 C :   -0.810600
   1 C :   -0.411696
   2 C :   -0.775460
   3 H :    0.401710
   4 H :    0.335965
   5 S :    1.161218
   6 C :    0.682215
   7 C :   -1.198096
   8 N :   -0.362044
   9 H :    0.356794
  10 H :    0.106329
  11 H :    0.271117
  12 H :    0.297156
  13 O :   -0.560459
  14 O :   -0.568618
  15 F :   -0.255384
  16 H :    0.321428
  17 H :    0.338064
  18 H :    0.300376
  19 H :    0.369985
Sum of atomic charges:    0.0000000

LOEWDIN ATOMIC CHARGES
----------------------
   0 C :   -0.148125
   1 C :   -0.202408
   2 C :   -0.215234
   3 H :    0.108665
   4 H :    0.114035
   5 S :    0.617712
   6 C :   -0.486166
   7 C :    0.028028
   8 N :    0.118550
   9 H :    0.051557
  10 H :    0.126247
  11 H :    0.022866
  12 H :    0.017744
  13 O :   -0.258250
  14 O :   -0.258077
  15 F :   -0.104038
  16 H :    0.111931
  17 H :    0.126091
  18 H :    0.124326
  19 H :    0.104545

  Mayer bond orders larger than 0.100000
B(  0-C ,  1-C ) :   0.7153 B(  0-C ,  6-C ) :   0.6739 B(  0-C ,  7-C ) :   0.1152
B(  0-C , 18-H ) :   0.9932 B(  0-C , 19-H ) :   0.9303 B(  1-C ,  2-C ) :   0.7783
B(  1-C , 16-H ) :   0.9158 B(  1-C , 17-H ) :   0.9254 B(  2-C ,  3-H ) :   0.8529
B(  2-C ,  4-H ) :   0.9294 B(  2-C ,  5-S ) :   0.8720 B(  2-C ,  8-N ) :   0.1348
B(  5-S , 13-O ) :   1.6383 B(  5-S , 14-O ) :   1.6995 B(  5-S , 15-F ) :   0.9537
B(  6-C ,  7-C ) :   1.1769 B(  6-C ,  8-N ) :   0.9081 B(  7-C ,  8-N ) :   0.1098
B(  7-C , 11-H ) :   1.0283 B(  7-C , 12-H ) :   1.0125 B(  8-N ,  9-H ) :   0.8732
B(  8-N , 10-H ) :   1.0638

FINAL SINGLE POINT ENERGY      -899.749895028789

DIPOLE MOMENT
-------------
                                X             Y             Z
Electronic contribution:      6.40955     -13.39799       3.15889
Nuclear contribution   :     -6.26130      13.99605      -3.80018
                        -----------------------------------------
Total Dipole Moment    :      0.14825       0.59807      -0.64129
                        -----------------------------------------
Magnitude (a.u.)       :      0.88933
Magnitude (Debye)      :      2.26050

Rotational constants in cm-1:     0.079895     0.025630     0.022948
Rotational constants in MHz :  2395.188639   768.373696   687.955250

                             ****ORCA TERMINATED NORMALLY****
TOTAL RUN TIME: 0 days 0 hours 4 minutes 0 seconds 666 msec
