                         Program Version 5.0.0 -  RELEASE  -
|  1> !CAM-B3LYP RIJCOSX def2-TZVPD def2/J TightSCF xyzfile
|  2>
|  3> *xyzfile 0 1 D6.xyz
|  4>
|  5> %MaxCore 64000
|  6>
|  7> %pal nprocs 4
|  8> end
|  9>
| 10> %scf
| 11>   MaxIter 150
| 12> end
| 13>
| 14>
| 15>                          ****END OF INPUT****

CARTESIAN COORDINATES (ANGSTROEM)
---------------------------------
  C     -0.461293    2.234686   -4.989619
  C      0.848883    2.667967   -4.302351
  C      2.093434    1.861037   -4.656845
  H      2.444814    2.041567   -5.674990
  H      2.901748    2.137864   -3.980338
  S      1.879644    0.078594   -4.462965
  C     -0.423841    2.398772   -6.474317
  N     -0.959467    3.492647   -7.007401
  C      0.145585    1.486891   -7.203987
  H      0.565371    0.696807   -6.723858
  H      0.220682    1.581768   -8.207520
  H     -1.406243    4.181507   -6.403261
  H     -0.934215    3.681601   -7.999468
  O      3.207574   -0.466111   -4.420259
  O      1.075064   -0.056160   -3.268758
  F      1.131661   -0.319960   -5.679031
  H      0.668432    2.559427   -3.232850
  H      1.034074    3.729426   -4.497081
  H     -1.288884    2.826737   -4.594997
  H     -0.651696    1.186343   -4.756552

 Total Charge           Charge          ....    0
 Multiplicity           Mult            ....    1
 Number of Electrons    NEL             ....   88
 Basis Dimension        Dim             ....  478

ORBITAL ENERGIES
----------------

  NO   OCC          E(Eh)            E(eV)
   0   2.0000     -89.177109     -2426.6325
   1   2.0000     -24.860922      -676.5001
   2   2.0000     -19.216391      -522.9046
   3   2.0000     -19.213346      -522.8217
   4   2.0000     -14.399503      -391.8304
   5   2.0000     -10.297690      -280.2144
   6   2.0000     -10.274484      -279.5829
   7   2.0000     -10.271499      -279.5017
   8   2.0000     -10.259481      -279.1747
   9   2.0000     -10.176369      -276.9131
  10   2.0000      -8.221418      -223.7161
  11   2.0000      -6.189451      -168.4235
  12   2.0000      -6.182858      -168.2441
  13   2.0000      -6.182245      -168.2275
  14   2.0000      -1.443882       -39.2900
  15   2.0000      -1.202900       -32.7326
  16   2.0000      -1.110063       -30.2064
  17   2.0000      -1.019542       -27.7432
  18   2.0000      -0.917339       -24.9621
  19   2.0000      -0.854905       -23.2631
  20   2.0000      -0.806506       -21.9461
  21   2.0000      -0.792721       -21.5710
  22   2.0000      -0.718054       -19.5393
  23   2.0000      -0.678975       -18.4758
  24   2.0000      -0.647862       -17.6292
  25   2.0000      -0.633954       -17.2508
  26   2.0000      -0.624565       -16.9953
  27   2.0000      -0.605299       -16.4710
  28   2.0000      -0.573204       -15.5977
  29   2.0000      -0.560746       -15.2587
  30   2.0000      -0.542379       -14.7589
  31   2.0000      -0.529463       -14.4074
  32   2.0000      -0.520531       -14.1644
  33   2.0000      -0.482778       -13.1371
  34   2.0000      -0.473834       -12.8937
  35   2.0000      -0.463988       -12.6258
  36   2.0000      -0.449896       -12.2423
  37   2.0000      -0.442693       -12.0463
  38   2.0000      -0.415628       -11.3098
  39   2.0000      -0.408870       -11.1259
  40   2.0000      -0.404893       -11.0177
  41   2.0000      -0.394122       -10.7246
  42   2.0000      -0.390974       -10.6389
  43   2.0000      -0.262904        -7.1540
  44   0.0000       0.019523         0.5312
  45   0.0000       0.035227         0.9586
  46   0.0000       0.038748         1.0544
  47   0.0000       0.039764         1.0820
  48   0.0000       0.063485         1.7275

MULLIKEN ATOMIC CHARGES
-----------------------
   0 C :   -0.818238
   1 C :   -0.424113
   2 C :   -0.778959
   3 H :    0.441915
   4 H :    0.331085
   5 S :    1.136671
   6 C :    0.772436
   7 N :   -0.371413
   8 C :   -1.524902
   9 H :    0.672334
  10 H :    0.253153
  11 H :    0.174002
  12 H :    0.148748
  13 O :   -0.575131
  14 O :   -0.576246
  15 F :   -0.170143
  16 H :    0.328559
  17 H :    0.303049
  18 H :    0.352924
  19 H :    0.324266
Sum of atomic charges:    0.0000000

LOEWDIN ATOMIC CHARGES
----------------------
   0 C :   -0.144972
   1 C :   -0.203891
   2 C :   -0.215103
   3 H :    0.108006
   4 H :    0.112583
   5 S :    0.616301
   6 C :   -0.469034
   7 N :    0.104656
   8 C :    0.027515
   9 H :   -0.012276
  10 H :    0.039290
  11 H :    0.106372
  12 H :    0.109261
  13 O :   -0.263130
  14 O :   -0.264748
  15 F :   -0.112159
  16 H :    0.111319
  17 H :    0.122974
  18 H :    0.119215
  19 H :    0.107819

  Mayer bond orders larger than 0.100000
B(  0-C ,  1-C ) :   0.7570 B(  0-C ,  6-C ) :   0.5500 B(  0-C ,  7-N ) :   0.1152
B(  0-C , 18-H ) :   0.9659 B(  0-C , 19-H ) :   0.9894 B(  1-C ,  2-C ) :   0.7984
B(  1-C , 16-H ) :   0.9084 B(  1-C , 17-H ) :   0.9396 B(  2-C ,  3-H ) :   0.8480
B(  2-C ,  4-H ) :   0.9350 B(  2-C ,  5-S ) :   0.8670 B(  2-C ,  8-C ) :   0.1341
B(  2-C , 13-O ) :   0.1027 B(  5-S , 13-O ) :   1.6240 B(  5-S , 14-O ) :   1.6863
B(  5-S , 15-F ) :   1.0089 B(  6-C ,  7-N ) :   0.8310 B(  6-C ,  8-C ) :   1.0665
B(  6-C , 10-H ) :  -0.1340 B(  7-N , 11-H ) :   1.0268 B(  7-N , 12-H ) :   1.0448
B(  8-C ,  9-H ) :   0.6037 B(  8-C , 10-H ) :   1.1500 B(  8-C , 15-F ) :   0.1437
B(  9-H , 15-F ) :  -0.2654

FINAL SINGLE POINT ENERGY      -899.742560248101

DIPOLE MOMENT
-------------
                                X             Y             Z
Electronic contribution:      5.54253     -11.96554       3.16894
Nuclear contribution   :     -6.15577      13.80449      -3.81895
                        -----------------------------------------
Total Dipole Moment    :     -0.61324       1.83895      -0.65001
                        -----------------------------------------
Magnitude (a.u.)       :      2.04458
Magnitude (Debye)      :      5.19691

Rotational constants in cm-1:     0.081431     0.024887     0.022470
Rotational constants in MHz :  2441.231544   746.086417   673.646914

                             ****ORCA TERMINATED NORMALLY****
TOTAL RUN TIME: 0 days 0 hours 3 minutes 59 seconds 354 msec
