                         Program Version 5.0.0 -  RELEASE  -
|  1> !PBE D3BJ RIJCOSX def2-SVPD def2/J TightSCF
|  2> *xyz -1 1
|  3> C          1.72854        1.42432       -5.63944
|  4> S          2.25263       -0.18811       -6.27184
|  5> O          3.56261       -0.44446       -5.63155
|  6> O          2.34494       -0.03374       -7.69650
|  7> O          1.26606       -1.15918       -5.80536
|  8> H          0.77944        1.68154       -6.06127
|  9> H          2.45151        2.16548       -5.90944
| 10> H          1.64478        1.37937       -4.57367
| 11> *
| 12>
| 13> %MaxCore 64000
| 14>
| 15> %pal nprocs 8
| 16> end
| 17>
| 18> %scf
| 19>   MaxIter 150
| 20> end
| 21>
| 22>
| 23>                          ****END OF INPUT****

CARTESIAN COORDINATES (ANGSTROEM)
---------------------------------
  C      1.728540    1.424320   -5.639440
  S      2.252630   -0.188110   -6.271840
  O      3.562610   -0.444460   -5.631550
  O      2.344940   -0.033740   -7.696500
  O      1.266060   -1.159180   -5.805360
  H      0.779440    1.681540   -6.061270
  H      2.451510    2.165480   -5.909440
  H      1.644780    1.379370   -4.573670

 Total Charge           Charge          ....   -1
 Multiplicity           Mult            ....    1
 Number of Electrons    NEL             ....   50
 Basis Dimension        Dim             ....  140

ORBITAL ENERGIES
----------------

  NO   OCC          E(Eh)            E(eV)
   0   2.0000     -88.054645     -2396.0887
   1   2.0000     -18.546309      -504.6707
   2   2.0000     -18.540389      -504.5096
   3   2.0000     -18.532741      -504.3015
   4   2.0000      -9.747049      -265.2307
   5   2.0000      -7.658667      -208.4029
   6   2.0000      -5.685622      -154.7136
   7   2.0000      -5.685480      -154.7098
   8   2.0000      -5.685158      -154.7010
   9   2.0000      -0.838414       -22.8144
  10   2.0000      -0.703462       -19.1422
  11   2.0000      -0.681268       -18.5382
  12   2.0000      -0.507831       -13.8188
  13   2.0000      -0.327851        -8.9213
  14   2.0000      -0.247315        -6.7298
  15   2.0000      -0.239011        -6.5038
  16   2.0000      -0.237947        -6.4749
  17   2.0000      -0.197525        -5.3749
  18   2.0000      -0.195700        -5.3253
  19   2.0000      -0.102513        -2.7895
  20   2.0000      -0.101706        -2.7676
  21   2.0000      -0.071106        -1.9349
  22   2.0000      -0.066523        -1.8102
  23   2.0000      -0.054990        -1.4964
  24   2.0000      -0.017407        -0.4737
  25   0.0000       0.136048         3.7021
  26   0.0000       0.172457         4.6928
  27   0.0000       0.172781         4.7016
  28   0.0000       0.175574         4.7776
  29   0.0000       0.196278         5.3410

MULLIKEN ATOMIC CHARGES
-----------------------
   0 C :    0.504638
   1 S :    0.922618
   2 O :   -0.745958
   3 O :   -0.696567
   4 O :   -0.721866
   5 H :   -0.090668
   6 H :   -0.083009
   7 H :   -0.089190
Sum of atomic charges:   -1.0000000

LOEWDIN ATOMIC CHARGES
----------------------
   0 C :    0.053560
   1 S :    0.780354
   2 O :   -0.579869
   3 O :   -0.557280
   4 O :   -0.567610
   5 H :   -0.044340
   6 H :   -0.042467
   7 H :   -0.042348

  Mayer bond orders larger than 0.100000
B(  0-C ,  1-S ) :   0.9298 B(  0-C ,  5-H ) :   0.9212 B(  0-C ,  6-H ) :   0.9206
B(  0-C ,  7-H ) :   0.9244 B(  1-S ,  2-O ) :   1.3422 B(  1-S ,  3-O ) :   1.3786
B(  1-S ,  4-O ) :   1.3567 B(  1-S ,  5-H ) :   0.1139 B(  1-S ,  6-H ) :   0.1175
B(  1-S ,  7-H ) :   0.1232

Dispersion correction           -0.006287658
FINAL SINGLE POINT ENERGY      -663.053251308111

DIPOLE MOMENT
-------------
                                X             Y             Z
Electronic contribution:      1.21329      -3.89305      -1.63023
Nuclear contribution   :     -1.71379       5.17769       1.98321
                        -----------------------------------------
Total Dipole Moment    :     -0.50050       1.28464       0.35297
                        -----------------------------------------
Magnitude (a.u.)       :      1.42317
Magnitude (Debye)      :      3.61740

Rotational constants in cm-1:     0.172739     0.155771     0.153412
Rotational constants in MHz :  5178.588083  4669.889924  4599.189984

                             ****ORCA TERMINATED NORMALLY****
TOTAL RUN TIME: 0 days 0 hours 0 minutes 3 seconds 470 msec
