                         Program Version 5.0.0 -  RELEASE  -
|  1> !PBE D3BJ RIJCOSX def2-SVPD def2/J TightSCF
|  2> *xyz 1 1
|  3> C          2.91632       -1.24259       -1.54313
|  4> C          3.46659       -1.59097       -2.88908
|  5> N          4.65227       -1.14316       -3.25969
|  6> N          2.75226       -2.29204       -3.72803
|  7> H          1.77836       -2.48960       -3.51274
|  8> H          2.94861       -2.20854       -4.71681
|  9> H          5.14672       -0.51251       -2.63385
| 10> H          4.78303       -1.00720       -4.25350
| 11> H          1.95294       -1.69278       -1.42424
| 12> H          2.82618       -0.17973       -1.45886
| 13> H          3.57606       -1.60596       -0.78312
| 14> *
| 15>
| 16> %MaxCore 64000
| 17>
| 18> %pal nprocs 8
| 19> end
| 20>
| 21> %scf
| 22>   MaxIter 150
| 23> end
| 24>
| 25>
| 26>                          ****END OF INPUT****

CARTESIAN COORDINATES (ANGSTROEM)
---------------------------------
  C      2.916320   -1.242590   -1.543130
  C      3.466590   -1.590970   -2.889080
  N      4.652270   -1.143160   -3.259690
  N      2.752260   -2.292040   -3.728030
  H      1.778360   -2.489600   -3.512740
  H      2.948610   -2.208540   -4.716810
  H      5.146720   -0.512510   -2.633850
  H      4.783030   -1.007200   -4.253500
  H      1.952940   -1.692780   -1.424240
  H      2.826180   -0.179730   -1.458860
  H      3.576060   -1.605960   -0.783120

 Total Charge           Charge          ....    1
 Multiplicity           Mult            ....    1
 Number of Electrons    NEL             ....   32
 Basis Dimension        Dim             ....  136

ORBITAL ENERGIES
----------------

  NO   OCC          E(Eh)            E(eV)
   0   2.0000     -14.255713      -387.9177
   1   2.0000     -14.251021      -387.7900
   2   2.0000     -10.222047      -278.1560
   3   2.0000     -10.097562      -274.7686
   4   2.0000      -1.128523       -30.7087
   5   2.0000      -1.034865       -28.1601
   6   2.0000      -0.885023       -24.0827
   7   2.0000      -0.787470       -21.4282
   8   2.0000      -0.727069       -19.7845
   9   2.0000      -0.720068       -19.5940
  10   2.0000      -0.658711       -17.9244
  11   2.0000      -0.620554       -16.8861
  12   2.0000      -0.577989       -15.7279
  13   2.0000      -0.560024       -15.2390
  14   2.0000      -0.535314       -14.5666
  15   2.0000      -0.468609       -12.7515
  16   0.0000      -0.264038        -7.1848
  17   0.0000      -0.187817        -5.1108
  18   0.0000      -0.146363        -3.9827
  19   0.0000      -0.138516        -3.7692
  20   0.0000      -0.118470        -3.2237

MULLIKEN ATOMIC CHARGES
-----------------------
   0 C :    0.625656
   1 C :    0.189085
   2 N :    0.100766
   3 N :    0.089287
   4 H :    0.035203
   5 H :   -0.075328
   6 H :    0.038094
   7 H :   -0.065536
   8 H :    0.014334
   9 H :    0.012616
  10 H :    0.035823
Sum of atomic charges:    1.0000000

LOEWDIN ATOMIC CHARGES
----------------------
   0 C :    0.236961
   1 C :   -0.090386
   2 N :    0.291597
   3 N :    0.294831
   4 H :    0.056849
   5 H :    0.048972
   6 H :    0.058190
   7 H :    0.044496
   8 H :    0.007788
   9 H :    0.026048
  10 H :    0.024653

  Mayer bond orders larger than 0.100000
B(  0-C ,  1-C ) :   1.3641 B(  0-C ,  8-H ) :   0.7731 B(  0-C ,  9-H ) :   0.8133
B(  0-C , 10-H ) :   0.6815 B(  1-C ,  2-N ) :   1.1354 B(  1-C ,  3-N ) :   1.1106
B(  1-C ,  5-H ) :  -0.1450 B(  1-C ,  8-H ) :   0.2564 B(  1-C ,  9-H ) :   0.1376
B(  1-C , 10-H ) :   0.2404 B(  2-N ,  3-N ) :   0.2109 B(  2-N ,  6-H ) :   1.0199
B(  2-N ,  7-H ) :   1.1747 B(  3-N ,  4-H ) :   1.0331 B(  3-N ,  5-H ) :   1.2143
B(  4-H ,  5-H ) :  -0.1326 B(  6-H ,  7-H ) :  -0.1215 B(  8-H , 10-H ) :   0.1013

Dispersion correction           -0.006945648
FINAL SINGLE POINT ENERGY      -189.350384582527

DIPOLE MOMENT
-------------
                                X             Y             Z
Electronic contribution:      0.91800      -0.74863      -1.82012
Nuclear contribution   :     -1.03256       1.11747       1.26949
                        -----------------------------------------
Total Dipole Moment    :     -0.11456       0.36884      -0.55063
                        -----------------------------------------
Magnitude (a.u.)       :      0.67258
Magnitude (Debye)      :      1.70956

Rotational constants in cm-1:     0.336859     0.298586     0.163958
Rotational constants in MHz : 10098.776812  8951.369850  4915.333652

                             ****ORCA TERMINATED NORMALLY****
TOTAL RUN TIME: 0 days 0 hours 0 minutes 3 seconds 642 msec
