                         Program Version 5.0.0 -  RELEASE  -
|  1> !PBE D3BJ RIJCOSX def2-SVPD def2/J TightSCF xyzfile
|  2>
|  3> *xyzfile 0 1 B.xyz
|  4>
|  5> %MaxCore 64000
|  6>
|  7> %pal nprocs 4
|  8> end
|  9>
| 10> %scf
| 11>   MaxIter 150
| 12> end
| 13>
| 14>
| 15>                          ****END OF INPUT****

CARTESIAN COORDINATES (ANGSTROEM)
---------------------------------
  C      2.916324   -1.242589   -1.543125
  C      0.704661    1.443129   -4.503630
  C      1.728539    1.424320   -5.639443
  H      2.646718    1.953794   -5.381054
  H      1.299916    1.930613   -6.503614
  S      2.252625   -0.188115   -6.271840
  C      3.466585   -1.590971   -2.889082
  N      4.652275   -1.143164   -3.259692
  N      2.752264   -2.292043   -3.728029
  H      1.778364   -2.489604   -3.512738
  H      2.948612   -2.208544   -4.716813
  H      5.146723   -0.512508   -2.633852
  H      4.783030   -1.007203   -4.253498
  O      3.562607   -0.444464   -5.631552
  O      2.344944   -0.033742   -7.696501
  C      2.804084    0.290698   -1.359243
  C      1.052550    0.695659   -3.214915
  H     -0.232483    1.032925   -4.884449
  H      0.511700    2.495794   -4.267966
  C      2.388380    1.093669   -2.597108
  H      3.763425    0.674718   -0.999889
  H      2.094788    0.461222   -0.545756
  O      1.266058   -1.159177   -5.805365
  H      3.167316    1.013242   -3.359430
  H      2.357690    2.149375   -2.310997
  H      1.039284   -0.368429   -3.449329
  H      0.250787    0.865605   -2.488283
  H      1.940472   -1.716529   -1.441161
  H      3.558569   -1.663433   -0.766371

 Total Charge           Charge          ....    0
 Multiplicity           Mult            ....    1
 Number of Electrons    NEL             ....  112
 Basis Dimension        Dim             ....  404

ORBITAL ENERGIES
----------------

  NO   OCC          E(Eh)            E(eV)
   0   2.0000     -88.211466     -2400.3560
   1   2.0000     -18.707451      -509.0556
   2   2.0000     -18.700610      -508.8695
   3   2.0000     -18.691599      -508.6243
   4   2.0000     -14.073398      -382.9566
   5   2.0000     -14.072278      -382.9262
   6   2.0000     -10.045660      -273.3563
   7   2.0000      -9.959550      -271.0131
   8   2.0000      -9.940058      -270.4827
   9   2.0000      -9.912295      -269.7272
  10   2.0000      -9.900018      -269.3932
  11   2.0000      -9.896222      -269.2899
  12   2.0000      -9.893055      -269.2037
  13   2.0000      -7.814504      -212.6435
  14   2.0000      -5.842325      -158.9777
  15   2.0000      -5.841288      -158.9495
  16   2.0000      -5.840195      -158.9198
  17   2.0000      -0.997994       -27.1568
  18   2.0000      -0.951217       -25.8839
  19   2.0000      -0.859829       -23.3971
  20   2.0000      -0.855772       -23.2867
  21   2.0000      -0.851488       -23.1702
  22   2.0000      -0.768335       -20.9075
  23   2.0000      -0.724189       -19.7062
  24   2.0000      -0.681160       -18.5353
  25   2.0000      -0.633072       -17.2268
  26   2.0000      -0.611207       -16.6318
  27   2.0000      -0.577789       -15.7224
  28   2.0000      -0.550414       -14.9775
  29   2.0000      -0.535502       -14.5717
  30   2.0000      -0.523173       -14.2363
  31   2.0000      -0.487344       -13.2613
  32   2.0000      -0.476311       -12.9611
  33   2.0000      -0.461018       -12.5449
  34   2.0000      -0.448520       -12.2049
  35   2.0000      -0.425589       -11.5809
  36   2.0000      -0.417185       -11.3522
  37   2.0000      -0.401243       -10.9184
  38   2.0000      -0.390373       -10.6226
  39   2.0000      -0.386669       -10.5218
  40   2.0000      -0.381995       -10.3946
  41   2.0000      -0.370190       -10.0734
  42   2.0000      -0.358565        -9.7571
  43   2.0000      -0.344928        -9.3860
  44   2.0000      -0.336275        -9.1505
  45   2.0000      -0.332102        -9.0370
  46   2.0000      -0.306522        -8.3409
  47   2.0000      -0.301598        -8.2069
  48   2.0000      -0.288721        -7.8565
  49   2.0000      -0.286873        -7.8062
  50   2.0000      -0.262669        -7.1476
  51   2.0000      -0.257639        -7.0107
  52   2.0000      -0.224858        -6.1187
  53   2.0000      -0.220558        -6.0017
  54   2.0000      -0.213408        -5.8071
  55   2.0000      -0.182464        -4.9651
  56   0.0000      -0.093333        -2.5397
  57   0.0000      -0.039554        -1.0763
  58   0.0000      -0.014242        -0.3875
  59   0.0000       0.002764         0.0752
  60   0.0000       0.007480         0.2035

MULLIKEN ATOMIC CHARGES
-----------------------
   0 C :    0.429119
   1 C :    0.510360
   2 C :    0.156909
   3 H :    0.105907
   4 H :   -0.226473
   5 S :    1.189834
   6 C :    0.300713
   7 N :    0.271436
   8 N :    0.310258
   9 H :    0.049232
  10 H :   -0.202115
  11 H :    0.030910
  12 H :   -0.243997
  13 O :   -0.814579
  14 O :   -0.701234
  15 C :    0.408369
  16 C :    0.166517
  17 H :    0.025484
  18 H :   -0.077902
  19 C :   -0.082150
  20 H :   -0.014492
  21 H :   -0.125991
  22 O :   -0.830847
  23 H :    0.044529
  24 H :   -0.193502
  25 H :   -0.306586
  26 H :   -0.081405
  27 H :    0.133354
  28 H :   -0.231657
Sum of atomic charges:    0.0000000

LOEWDIN ATOMIC CHARGES
----------------------
   0 C :    0.048462
   1 C :   -0.034120
   2 C :   -0.060502
   3 H :    0.005652
   4 H :    0.010150
   5 S :    0.890259
   6 C :   -0.085490
   7 N :    0.299836
   8 N :    0.311486
   9 H :    0.037567
  10 H :   -0.028336
  11 H :    0.036777
  12 H :   -0.038451
  13 O :   -0.544444
  14 O :   -0.486392
  15 C :   -0.007679
  16 C :   -0.023163
  17 H :    0.030651
  18 H :    0.026432
  19 C :   -0.023599
  20 H :    0.018657
  21 H :    0.028069
  22 O :   -0.519891
  23 H :   -0.000813
  24 H :    0.033277
  25 H :   -0.018333
  26 H :    0.030272
  27 H :    0.027567
  28 H :    0.036100

  Mayer bond orders larger than 0.100000
B(  0-C ,  6-C ) :   1.1491 B(  0-C ,  8-N ) :   0.1239 B(  0-C , 15-C ) :   1.1747
B(  0-C , 20-H ) :   0.1010 B(  0-C , 21-H ) :   0.1249 B(  0-C , 27-H ) :   0.7068
B(  0-C , 28-H ) :   0.6763 B(  1-C ,  2-C ) :   1.2455 B(  1-C ,  4-H ) :   0.2200
B(  1-C , 16-C ) :   1.2750 B(  1-C , 17-H ) :   0.6238 B(  1-C , 18-H ) :   0.7027
B(  2-C ,  3-H ) :   0.8514 B(  2-C ,  4-H ) :   0.8568 B(  2-C ,  5-S ) :   0.8927
B(  2-C , 14-O ) :   0.1160 B(  2-C , 17-H ) :   0.1323 B(  2-C , 18-H ) :   0.1840
B(  5-S , 13-O ) :   1.1644 B(  5-S , 14-O ) :   1.4340 B(  5-S , 22-O ) :   1.2458
B(  6-C ,  7-N ) :   1.0483 B(  6-C ,  8-N ) :   1.1520 B(  6-C , 10-H ) :  -0.1046
B(  6-C , 27-H ) :   0.1944 B(  6-C , 28-H ) :   0.2650 B(  7-N ,  8-N ) :   0.2236
B(  7-N , 11-H ) :   0.9952 B(  7-N , 12-H ) :   1.0954 B(  8-N ,  9-H ) :   0.9570
B(  8-N , 10-H ) :   1.0806 B(  9-H , 10-H ) :  -0.1406 B( 10-H , 13-O ) :   0.1362
B( 11-H , 12-H ) :  -0.1578 B( 12-H , 13-O ) :   0.1519 B( 15-C , 19-C ) :   1.2618
B( 15-C , 20-H ) :   0.6620 B( 15-C , 21-H ) :   0.8064 B( 15-C , 23-H ) :   0.1546
B( 15-C , 24-H ) :   0.1044 B( 15-C , 27-H ) :   0.1256 B( 16-C , 17-H ) :   0.2864
B( 16-C , 18-H ) :   0.1109 B( 16-C , 19-C ) :   1.2943 B( 16-C , 23-H ) :   0.1561
B( 16-C , 24-H ) :   0.1868 B( 16-C , 25-H ) :   0.8895 B( 16-C , 26-H ) :   0.6714
B( 17-H , 18-H ) :  -0.1140 B( 19-C , 20-H ) :   0.2639 B( 19-C , 21-H ) :   0.1745
B( 19-C , 23-H ) :   0.8296 B( 19-C , 24-H ) :   0.8012 B( 19-C , 25-H ) :   0.1348
B( 19-C , 26-H ) :   0.2238 B( 20-H , 21-H ) :  -0.1403

Dispersion correction           -0.036776482
FINAL SINGLE POINT ENERGY     -1008.326684179296

DIPOLE MOMENT
-------------
                                X             Y             Z
Electronic contribution:      2.74996      -6.29290     -13.43437
Nuclear contribution   :     -1.90023       6.18953      17.82209
                        -----------------------------------------
Total Dipole Moment    :      0.84973      -0.10337       4.38772
                        -----------------------------------------
Magnitude (a.u.)       :      4.47043
Magnitude (Debye)      :     11.36294

Rotational constants in cm-1:     0.036337     0.018755     0.015005
Rotational constants in MHz :  1089.341704   562.266628   449.834770

                             ****ORCA TERMINATED NORMALLY****
TOTAL RUN TIME: 0 days 0 hours 0 minutes 37 seconds 317 msec
