                         Program Version 5.0.0 -  RELEASE  -
|  1> !PBE D3BJ RIJCOSX def2-SVPD def2/J TightSCF
|  2> *xyz 0 1
|  3> C          1.72854        1.42432       -5.63944
|  4> S          2.25263       -0.18811       -6.27184
|  5> F          3.56261       -0.44446       -5.63155
|  6> O          2.34494       -0.03374       -7.69650
|  7> O          1.26606       -1.15918       -5.80536
|  8> H          0.77944        1.68154       -6.06127
|  9> H          2.45151        2.16548       -5.90944
| 10> H          1.64478        1.37937       -4.57367
| 11> *
| 12>
| 13> %MaxCore 64000
| 14>
| 15> %pal nprocs 8
| 16> end
| 17>
| 18> %scf
| 19>   MaxIter 150
| 20> end
| 21>
| 22>
| 23>                          ****END OF INPUT****

CARTESIAN COORDINATES (ANGSTROEM)
---------------------------------
  C      1.728540    1.424320   -5.639440
  S      2.252630   -0.188110   -6.271840
  F      3.562610   -0.444460   -5.631550
  O      2.344940   -0.033740   -7.696500
  O      1.266060   -1.159180   -5.805360
  H      0.779440    1.681540   -6.061270
  H      2.451510    2.165480   -5.909440
  H      1.644780    1.379370   -4.573670

 Total Charge           Charge          ....    0
 Multiplicity           Mult            ....    1
 Number of Electrons    NEL             ....   50
 Basis Dimension        Dim             ....  140

ORBITAL ENERGIES
----------------

  NO   OCC          E(Eh)            E(eV)
   0   2.0000     -88.314999     -2403.1733
   1   2.0000     -24.374147      -663.2543
   2   2.0000     -18.783478      -511.1244
   3   2.0000     -18.777452      -510.9604
   4   2.0000      -9.955183      -270.8943
   5   2.0000      -7.919821      -215.5093
   6   2.0000      -5.950829      -161.9303
   7   2.0000      -5.944641      -161.7619
   8   2.0000      -5.943545      -161.7321
   9   2.0000      -1.244702       -33.8701
  10   2.0000      -1.029454       -28.0129
  11   2.0000      -0.936257       -25.4769
  12   2.0000      -0.727613       -19.7994
  13   2.0000      -0.640819       -17.4376
  14   2.0000      -0.534555       -14.5460
  15   2.0000      -0.505803       -13.7636
  16   2.0000      -0.496417       -13.5082
  17   2.0000      -0.430427       -11.7125
  18   2.0000      -0.429241       -11.6802
  19   2.0000      -0.418151       -11.3785
  20   2.0000      -0.397095       -10.8055
  21   2.0000      -0.347207        -9.4480
  22   2.0000      -0.301953        -8.2166
  23   2.0000      -0.295641        -8.0448
  24   2.0000      -0.275710        -7.5025
  25   0.0000      -0.032035        -0.8717
  26   0.0000      -0.000827        -0.0225
  27   0.0000       0.011812         0.3214
  28   0.0000       0.031873         0.8673
  29   0.0000       0.032352         0.8803

MULLIKEN ATOMIC CHARGES
-----------------------
   0 C :    0.493349
   1 S :    1.114111
   2 F :   -0.348892
   3 O :   -0.571716
   4 O :   -0.594418
   5 H :   -0.039128
   6 H :   -0.023033
   7 H :   -0.030274
Sum of atomic charges:    0.0000000

LOEWDIN ATOMIC CHARGES
----------------------
   0 C :    0.122876
   1 S :    1.053045
   2 F :   -0.258125
   3 O :   -0.438382
   4 O :   -0.447195
   5 H :   -0.002344
   6 H :   -0.014933
   7 H :   -0.014942

  Mayer bond orders larger than 0.100000
B(  0-C ,  1-S ) :   0.9899 B(  0-C ,  5-H ) :   0.9096 B(  0-C ,  6-H ) :   0.9100
B(  0-C ,  7-H ) :   0.9147 B(  1-S ,  2-F ) :   0.7030 B(  1-S ,  3-O ) :   1.5734
B(  1-S ,  4-O ) :   1.5510 B(  1-S ,  5-H ) :   0.1133 B(  3-O ,  4-O ) :   0.1045

Dispersion correction           -0.005905534
FINAL SINGLE POINT ENERGY      -687.540916898784

DIPOLE MOMENT
-------------
                                X             Y             Z
Electronic contribution:      3.33145      -4.24794      -0.57446
Nuclear contribution   :     -3.03874       5.51823       1.39394
                        -----------------------------------------
Total Dipole Moment    :      0.29271       1.27029       0.81947
                        -----------------------------------------
Magnitude (a.u.)       :      1.53976
Magnitude (Debye)      :      3.91376

Rotational constants in cm-1:     0.164301     0.151617     0.146802
Rotational constants in MHz :  4925.615104  4545.361281  4401.017554

                             ****ORCA TERMINATED NORMALLY****
TOTAL RUN TIME: 0 days 0 hours 0 minutes 3 seconds 392 msec
