                         Program Version 5.0.0 -  RELEASE  -
|  1> !PBE D3BJ RIJCOSX def2-SVPD def2/J TightSCF
|  2> *xyz 0 1
|  3> C          2.91632       -1.24259       -1.54313
|  4> C          3.46659       -1.59097       -2.88908
|  5> C          4.65227       -1.14316       -3.25969
|  6> N          2.75226       -2.29204       -3.72803
|  7> H          1.77836       -2.48960       -3.51274
|  8> H          2.94861       -2.20854       -4.71681
|  9> H          5.14672       -0.51251       -2.63385
| 10> H          4.78303       -1.00720       -4.25350
| 11> H          1.95294       -1.69278       -1.42424
| 12> H          2.82618       -0.17973       -1.45886
| 13> H          3.57606       -1.60596       -0.78312
| 14> *
| 15>
| 16> %MaxCore 64000
| 17>
| 18> %pal nprocs 8
| 19> end
| 20>
| 21> %scf
| 22>   MaxIter 150
| 23> end
| 24>
| 25>
| 26>                          ****END OF INPUT****

CARTESIAN COORDINATES (ANGSTROEM)
---------------------------------
  C      2.916320   -1.242590   -1.543130
  C      3.466590   -1.590970   -2.889080
  C      4.652270   -1.143160   -3.259690
  N      2.752260   -2.292040   -3.728030
  H      1.778360   -2.489600   -3.512740
  H      2.948610   -2.208540   -4.716810
  H      5.146720   -0.512510   -2.633850
  H      4.783030   -1.007200   -4.253500
  H      1.952940   -1.692780   -1.424240
  H      2.826180   -0.179730   -1.458860
  H      3.576060   -1.605960   -0.783120

 Total Charge           Charge          ....    0
 Multiplicity           Mult            ....    1
 Number of Electrons    NEL             ....   32
 Basis Dimension        Dim             ....  136

ORBITAL ENERGIES
----------------

  NO   OCC          E(Eh)            E(eV)
   0   2.0000     -14.006120      -381.1259
   1   2.0000      -9.915202      -269.8064
   2   2.0000      -9.888925      -269.0913
   3   2.0000      -9.825324      -267.3607
   4   2.0000      -0.851213       -23.1627
   5   2.0000      -0.682788       -18.5796
   6   2.0000      -0.619749       -16.8642
   7   2.0000      -0.519091       -14.1252
   8   2.0000      -0.474465       -12.9108
   9   2.0000      -0.420009       -11.4290
  10   2.0000      -0.387354       -10.5404
  11   2.0000      -0.354799        -9.6546
  12   2.0000      -0.342309        -9.3147
  13   2.0000      -0.319111        -8.6834
  14   2.0000      -0.289756        -7.8847
  15   2.0000      -0.160084        -4.3561
  16   0.0000      -0.005026        -0.1368
  17   0.0000       0.007393         0.2012
  18   0.0000       0.037205         1.0124
  19   0.0000       0.044101         1.2001
  20   0.0000       0.069648         1.8952

MULLIKEN ATOMIC CHARGES
-----------------------
   0 C :    0.781677
   1 C :   -0.496724
   2 C :    0.371403
   3 N :    0.166433
   4 H :   -0.101079
   5 H :   -0.099661
   6 H :   -0.100274
   7 H :   -0.384931
   8 H :   -0.107783
   9 H :   -0.035211
  10 H :    0.006151
Sum of atomic charges:   -0.0000000

LOEWDIN ATOMIC CHARGES
----------------------
   0 C :    0.169701
   1 C :   -0.301461
   2 C :    0.158154
   3 N :    0.177277
   4 H :   -0.002272
   5 H :    0.005370
   6 H :   -0.078289
   7 H :   -0.090197
   8 H :   -0.027796
   9 H :   -0.005001
  10 H :   -0.005487

  Mayer bond orders larger than 0.100000
B(  0-C ,  1-C ) :   1.2656 B(  0-C ,  8-H ) :   0.6981 B(  0-C ,  9-H ) :   0.8187
B(  0-C , 10-H ) :   0.6955 B(  1-C ,  2-C ) :   1.8730 B(  1-C ,  3-N ) :   1.0941
B(  1-C ,  6-H ) :   0.1797 B(  1-C ,  7-H ) :   0.2320 B(  1-C ,  8-H ) :   0.3074
B(  1-C ,  9-H ) :   0.1251 B(  1-C , 10-H ) :   0.2549 B(  2-C ,  3-N ) :   0.2918
B(  2-C ,  6-H ) :   0.7542 B(  2-C ,  7-H ) :   0.8338 B(  3-N ,  4-H ) :   1.0640
B(  3-N ,  5-H ) :   1.1220 B(  4-H ,  5-H ) :  -0.1190 B(  6-H ,  7-H ) :   0.1490

Dispersion correction           -0.007264509
FINAL SINGLE POINT ENERGY      -172.896560460735

DIPOLE MOMENT
-------------
                                X             Y             Z
Electronic contribution:     -0.14495      -1.19150      -1.32971
Nuclear contribution   :     -0.76183       1.20997       1.18381
                        -----------------------------------------
Total Dipole Moment    :     -0.90678       0.01847      -0.14591
                        -----------------------------------------
Magnitude (a.u.)       :      0.91863
Magnitude (Debye)      :      2.33498

Rotational constants in cm-1:     0.357745     0.302571     0.170012
Rotational constants in MHz : 10724.926457  9070.849165  5096.845195

                             ****ORCA TERMINATED NORMALLY****
TOTAL RUN TIME: 0 days 0 hours 0 minutes 3 seconds 553 msec
