                         Program Version 5.0.0 -  RELEASE  -
|  1> !PBE D3BJ RIJCOSX def2-SVPD def2/J TightSCF
|  2> *xyz 0 1
|  3> C          1.72854        1.42432       -5.63944
|  4> S          2.25263       -0.18811       -6.27184
|  5> O          3.56261       -0.44446       -5.63155
|  6> F          2.34494       -0.03374       -7.69650
|  7> O          1.26606       -1.15918       -5.80536
|  8> H          0.77944        1.68154       -6.06127
|  9> H          2.45151        2.16548       -5.90944
| 10> H          1.64478        1.37937       -4.57367
| 11> *
| 12>
| 13> %MaxCore 64000
| 14>
| 15> %pal nprocs 8
| 16> end
| 17>
| 18> %scf
| 19>   MaxIter 150
| 20> end
| 21>
| 22>
| 23>                          ****END OF INPUT****

CARTESIAN COORDINATES (ANGSTROEM)
---------------------------------
  C      1.728540    1.424320   -5.639440
  S      2.252630   -0.188110   -6.271840
  O      3.562610   -0.444460   -5.631550
  F      2.344940   -0.033740   -7.696500
  O      1.266060   -1.159180   -5.805360
  H      0.779440    1.681540   -6.061270
  H      2.451510    2.165480   -5.909440
  H      1.644780    1.379370   -4.573670

 Total Charge           Charge          ....    0
 Multiplicity           Mult            ....    1
 Number of Electrons    NEL             ....   50
 Basis Dimension        Dim             ....  140

ORBITAL ENERGIES
----------------

  NO   OCC          E(Eh)            E(eV)
   0   2.0000     -88.317635     -2403.2450
   1   2.0000     -24.395620      -663.8386
   2   2.0000     -18.777846      -510.9712
   3   2.0000     -18.769930      -510.7558
   4   2.0000      -9.956225      -270.9227
   5   2.0000      -7.922378      -215.5789
   6   2.0000      -5.953706      -162.0086
   7   2.0000      -5.946938      -161.8244
   8   2.0000      -5.945859      -161.7951
   9   2.0000      -1.281431       -34.8695
  10   2.0000      -1.016746       -27.6671
  11   2.0000      -0.917130       -24.9564
  12   2.0000      -0.730635       -19.8816
  13   2.0000      -0.658112       -17.9081
  14   2.0000      -0.549282       -14.9467
  15   2.0000      -0.531143       -14.4531
  16   2.0000      -0.501939       -13.6585
  17   2.0000      -0.431129       -11.7316
  18   2.0000      -0.427753       -11.6398
  19   2.0000      -0.419693       -11.4204
  20   2.0000      -0.391562       -10.6550
  21   2.0000      -0.339851        -9.2478
  22   2.0000      -0.295751        -8.0478
  23   2.0000      -0.285083        -7.7575
  24   2.0000      -0.260776        -7.0961
  25   0.0000      -0.033558        -0.9132
  26   0.0000       0.000788         0.0214
  27   0.0000       0.010438         0.2840
  28   0.0000       0.026687         0.7262
  29   0.0000       0.031344         0.8529

MULLIKEN ATOMIC CHARGES
-----------------------
   0 C :    0.494888
   1 S :    1.103519
   2 O :   -0.603033
   3 F :   -0.324073
   4 O :   -0.581105
   5 H :   -0.028967
   6 H :   -0.021896
   7 H :   -0.039334
Sum of atomic charges:    0.0000000

LOEWDIN ATOMIC CHARGES
----------------------
   0 C :    0.122280
   1 S :    1.054854
   2 O :   -0.458256
   3 F :   -0.240057
   4 O :   -0.446662
   5 H :   -0.016411
   6 H :   -0.014704
   7 H :   -0.001046

  Mayer bond orders larger than 0.100000
B(  0-C ,  1-S ) :   0.9905 B(  0-C ,  5-H ) :   0.9091 B(  0-C ,  6-H ) :   0.9093
B(  0-C ,  7-H ) :   0.9144 B(  1-S ,  2-O ) :   1.5402 B(  1-S ,  3-F ) :   0.7569
B(  1-S ,  4-O ) :   1.5546 B(  1-S ,  7-H ) :   0.1208

Dispersion correction           -0.005904652
FINAL SINGLE POINT ENERGY      -687.522480073016

DIPOLE MOMENT
-------------
                                X             Y             Z
Electronic contribution:      1.32580      -3.58174      -3.94788
Nuclear contribution   :     -1.82220       5.10789       3.45696
                        -----------------------------------------
Total Dipole Moment    :     -0.49640       1.52615      -0.49092
                        -----------------------------------------
Magnitude (a.u.)       :      1.67826
Magnitude (Debye)      :      4.26580

Rotational constants in cm-1:     0.163267     0.154654     0.145086
Rotational constants in MHz :  4894.631475  4636.404456  4349.567403

                             ****ORCA TERMINATED NORMALLY****
TOTAL RUN TIME: 0 days 0 hours 0 minutes 3 seconds 365 msec
