                         Program Version 5.0.0 -  RELEASE  -
|  1> !PBE D3BJ RIJCOSX def2-SVPD def2/J TightSCF
|  2> *xyz 0 1
|  3> C          2.91632       -1.24259       -1.54313
|  4> C          3.46659       -1.59097       -2.88908
|  5> N          4.65227       -1.14316       -3.25969
|  6> C          2.75226       -2.29204       -3.72803
|  7> H          1.77836       -2.48960       -3.51274
|  8> H          2.94861       -2.20854       -4.71681
|  9> H          5.14672       -0.51251       -2.63385
| 10> H          4.78303       -1.00720       -4.25350
| 11> H          1.95294       -1.69278       -1.42424
| 12> H          2.82618       -0.17973       -1.45886
| 13> H          3.57606       -1.60596       -0.78312
| 14> *
| 15>
| 16> %MaxCore 64000
| 17>
| 18> %pal nprocs 8
| 19> end
| 20>
| 21> %scf
| 22>   MaxIter 150
| 23> end
| 24>
| 25>
| 26>                          ****END OF INPUT****

CARTESIAN COORDINATES (ANGSTROEM)
---------------------------------
  C      2.916320   -1.242590   -1.543130
  C      3.466590   -1.590970   -2.889080
  N      4.652270   -1.143160   -3.259690
  C      2.752260   -2.292040   -3.728030
  H      1.778360   -2.489600   -3.512740
  H      2.948610   -2.208540   -4.716810
  H      5.146720   -0.512510   -2.633850
  H      4.783030   -1.007200   -4.253500
  H      1.952940   -1.692780   -1.424240
  H      2.826180   -0.179730   -1.458860
  H      3.576060   -1.605960   -0.783120

 Total Charge           Charge          ....    0
 Multiplicity           Mult            ....    1
 Number of Electrons    NEL             ....   32
 Basis Dimension        Dim             ....  136

ORBITAL ENERGIES
----------------

  NO   OCC          E(Eh)            E(eV)
   0   2.0000     -14.002854      -381.0370
   1   2.0000      -9.914533      -269.7882
   2   2.0000      -9.887639      -269.0563
   3   2.0000      -9.829465      -267.4733
   4   2.0000      -0.846180       -23.0257
   5   2.0000      -0.683279       -18.5930
   6   2.0000      -0.620961       -16.8972
   7   2.0000      -0.512659       -13.9501
   8   2.0000      -0.475494       -12.9389
   9   2.0000      -0.422770       -11.5042
  10   2.0000      -0.388019       -10.5585
  11   2.0000      -0.354420        -9.6443
  12   2.0000      -0.346074        -9.4172
  13   2.0000      -0.314356        -8.5541
  14   2.0000      -0.285726        -7.7750
  15   2.0000      -0.167137        -4.5480
  16   0.0000      -0.004329        -0.1178
  17   0.0000       0.011060         0.3010
  18   0.0000       0.038500         1.0476
  19   0.0000       0.046051         1.2531
  20   0.0000       0.070040         1.9059

MULLIKEN ATOMIC CHARGES
-----------------------
   0 C :    0.796915
   1 C :   -0.599410
   2 N :    0.188919
   3 C :    0.338949
   4 H :   -0.051749
   5 H :   -0.412377
   6 H :   -0.118673
   7 H :   -0.089292
   8 H :    0.018209
   9 H :   -0.041894
  10 H :   -0.029596
Sum of atomic charges:   -0.0000000

LOEWDIN ATOMIC CHARGES
----------------------
   0 C :    0.166168
   1 C :   -0.307545
   2 N :    0.177302
   3 C :    0.164786
   4 H :   -0.079156
   5 H :   -0.084114
   6 H :   -0.000659
   7 H :    0.001222
   8 H :   -0.013866
   9 H :   -0.009755
  10 H :   -0.014382

  Mayer bond orders larger than 0.100000
B(  0-C ,  1-C ) :   1.4009 B(  0-C ,  8-H ) :   0.7881 B(  0-C ,  9-H ) :   0.6777
B(  0-C , 10-H ) :   0.6406 B(  1-C ,  2-N ) :   1.1191 B(  1-C ,  3-C ) :   1.8505
B(  1-C ,  5-H ) :   0.2298 B(  1-C ,  8-H ) :   0.2502 B(  1-C ,  9-H ) :   0.2985
B(  1-C , 10-H ) :   0.2862 B(  2-N ,  3-C ) :   0.3076 B(  2-N ,  6-H ) :   1.0572
B(  2-N ,  7-H ) :   1.0874 B(  3-C ,  4-H ) :   0.8353 B(  3-C ,  5-H ) :   0.7463
B(  4-H ,  5-H ) :   0.1883 B(  6-H ,  7-H ) :  -0.1077 B(  8-H ,  9-H ) :   0.1126

Dispersion correction           -0.007264138
FINAL SINGLE POINT ENERGY      -172.899807022636

DIPOLE MOMENT
-------------
                                X             Y             Z
Electronic contribution:      1.53495      -0.18831      -0.94131
Nuclear contribution   :     -1.18794       0.95232       1.07877
                        -----------------------------------------
Total Dipole Moment    :      0.34701       0.76401       0.13746
                        -----------------------------------------
Magnitude (a.u.)       :      0.85030
Magnitude (Debye)      :      2.16130

Rotational constants in cm-1:     0.358436     0.301769     0.169913
Rotational constants in MHz : 10745.629007  9046.806054  5093.859032

                             ****ORCA TERMINATED NORMALLY****
TOTAL RUN TIME: 0 days 0 hours 0 minutes 3 seconds 661 msec
