                         Program Version 5.0.0 -  RELEASE  -
|  1> !PBE D3BJ RIJCOSX def2-SVPD def2/J TightSCF
|  2> *xyz 0 1
|  3> C          1.72854        1.42432       -5.63944
|  4> S          2.25263       -0.18811       -6.27184
|  5> O          3.56261       -0.44446       -5.63155
|  6> O          2.34494       -0.03374       -7.69650
|  7> F          1.26606       -1.15918       -5.80536
|  8> H          0.77944        1.68154       -6.06127
|  9> H          2.45151        2.16548       -5.90944
| 10> H          1.64478        1.37937       -4.57367
| 11> *
| 12>
| 13> %MaxCore 64000
| 14>
| 15> %pal nprocs 8
| 16> end
| 17>
| 18> %scf
| 19>   MaxIter 150
| 20> end
| 21>
| 22>
| 23>                          ****END OF INPUT****

CARTESIAN COORDINATES (ANGSTROEM)
---------------------------------
  C      1.728540    1.424320   -5.639440
  S      2.252630   -0.188110   -6.271840
  O      3.562610   -0.444460   -5.631550
  O      2.344940   -0.033740   -7.696500
  F      1.266060   -1.159180   -5.805360
  H      0.779440    1.681540   -6.061270
  H      2.451510    2.165480   -5.909440
  H      1.644780    1.379370   -4.573670

 Total Charge           Charge          ....    0
 Multiplicity           Mult            ....    1
 Number of Electrons    NEL             ....   50
 Basis Dimension        Dim             ....  140

ORBITAL ENERGIES
----------------

  NO   OCC          E(Eh)            E(eV)
   0   2.0000     -88.316074     -2403.2026
   1   2.0000     -24.384822      -663.5447
   2   2.0000     -18.783825      -511.1339
   3   2.0000     -18.769871      -510.7541
   4   2.0000      -9.955723      -270.9090
   5   2.0000      -7.920905      -215.5388
   6   2.0000      -5.952048      -161.9634
   7   2.0000      -5.945598      -161.7879
   8   2.0000      -5.944524      -161.7587
   9   2.0000      -1.261315       -34.3221
  10   2.0000      -1.026024       -27.9195
  11   2.0000      -0.925282       -25.1782
  12   2.0000      -0.728250       -19.8167
  13   2.0000      -0.649372       -17.6703
  14   2.0000      -0.540714       -14.7136
  15   2.0000      -0.517104       -14.0711
  16   2.0000      -0.499222       -13.5845
  17   2.0000      -0.430979       -11.7275
  18   2.0000      -0.428625       -11.6635
  19   2.0000      -0.420178       -11.4336
  20   2.0000      -0.394471       -10.7341
  21   2.0000      -0.344837        -9.3835
  22   2.0000      -0.301130        -8.1942
  23   2.0000      -0.286614        -7.7992
  24   2.0000      -0.267510        -7.2793
  25   0.0000      -0.035287        -0.9602
  26   0.0000      -0.001770        -0.0482
  27   0.0000       0.011218         0.3053
  28   0.0000       0.030340         0.8256
  29   0.0000       0.031721         0.8632

MULLIKEN ATOMIC CHARGES
-----------------------
   0 C :    0.494993
   1 S :    1.108940
   2 O :   -0.609443
   3 O :   -0.565087
   4 F :   -0.338448
   5 H :   -0.028412
   6 H :   -0.032597
   7 H :   -0.029947
Sum of atomic charges:    0.0000000

LOEWDIN ATOMIC CHARGES
----------------------
   0 C :    0.122725
   1 S :    1.054454
   2 O :   -0.458333
   3 O :   -0.437873
   4 F :   -0.248691
   5 H :   -0.016179
   6 H :   -0.001089
   7 H :   -0.015014

  Mayer bond orders larger than 0.100000
B(  0-C ,  1-S ) :   0.9911 B(  0-C ,  5-H ) :   0.9099 B(  0-C ,  6-H ) :   0.9098
B(  0-C ,  7-H ) :   0.9135 B(  1-S ,  2-O ) :   1.5379 B(  1-S ,  3-O ) :   1.5746
B(  1-S ,  4-F ) :   0.7251 B(  1-S ,  6-H ) :   0.1156

Dispersion correction           -0.005906617
FINAL SINGLE POINT ENERGY      -687.531360564886

DIPOLE MOMENT
-------------
                                X             Y             Z
Electronic contribution:     -0.44003      -5.41516      -0.86682
Nuclear contribution   :     -0.74433       6.23228       1.56758
                        -----------------------------------------
Total Dipole Moment    :     -1.18437       0.81712       0.70076
                        -----------------------------------------
Magnitude (a.u.)       :      1.60046
Magnitude (Debye)      :      4.06805

Rotational constants in cm-1:     0.164764     0.152261     0.145794
Rotational constants in MHz :  4939.488001  4564.674339  4370.797804

                             ****ORCA TERMINATED NORMALLY****
TOTAL RUN TIME: 0 days 0 hours 0 minutes 3 seconds 386 msec
