                         Program Version 5.0.0 -  RELEASE  -
|  1> !M062X D3Zero RIJCOSX def2-TZVPD def2/J TightSCF
|  2> *xyz -1 1
|  3> C         -0.91495        0.61511        2.50554
|  4> C         -0.05915        1.50352        3.41058
|  5> H          0.36536        2.34431        2.86116
|  6> H         -0.69226        1.92021        4.19898
|  7> C          1.08303        0.74964        4.08571
|  8> O          2.22817        1.26348        4.01983
|  9> O          0.81003       -0.34541        4.63627
| 10> H         -0.30401        0.20228        1.73015
| 11> H         -1.69811        1.19946        2.06954
| 12> H         -1.34124       -0.17772        3.08397
| 13> *
| 14>
| 15> %MaxCore 64000
| 16>
| 17> %pal nprocs 4
| 18> end
| 19>
| 20> %scf
| 21>   MaxIter 150
| 22> end
| 23>
| 24>
| 25>                          ****END OF INPUT****

CARTESIAN COORDINATES (ANGSTROEM)
---------------------------------
  C     -0.914950    0.615110    2.505540
  C     -0.059150    1.503520    3.410580
  H      0.365360    2.344310    2.861160
  H     -0.692260    1.920210    4.198980
  C      1.083030    0.749640    4.085710
  O      2.228170    1.263480    4.019830
  O      0.810030   -0.345410    4.636270
  H     -0.304010    0.202280    1.730150
  H     -1.698110    1.199460    2.069540
  H     -1.341240   -0.177720    3.083970

 Total Charge           Charge          ....   -1
 Multiplicity           Mult            ....    1
 Number of Electrons    NEL             ....   40
 Basis Dimension        Dim             ....  236

ORBITAL ENERGIES
----------------

  NO   OCC          E(Eh)            E(eV)
   0   2.0000     -19.360050      -526.8137
   1   2.0000     -19.359554      -526.8003
   2   2.0000     -10.420879      -283.5665
   3   2.0000     -10.368837      -282.1504
   4   2.0000     -10.358893      -281.8798
   5   2.0000      -0.942639       -25.6505
   6   2.0000      -0.844104       -22.9692
   7   2.0000      -0.702215       -19.1082
   8   2.0000      -0.562454       -15.3052
   9   2.0000      -0.398651       -10.8478
  10   2.0000      -0.362823        -9.8729
  11   2.0000      -0.337779        -9.1914
  12   2.0000      -0.301450        -8.2029
  13   2.0000      -0.284772        -7.7490
  14   2.0000      -0.279147        -7.5960
  15   2.0000      -0.245591        -6.6829
  16   2.0000      -0.228977        -6.2308
  17   2.0000      -0.113256        -3.0819
  18   2.0000      -0.111134        -3.0241
  19   2.0000      -0.104755        -2.8505
  20   0.0000       0.141426         3.8484
  21   0.0000       0.163925         4.4606
  22   0.0000       0.171787         4.6746
  23   0.0000       0.186614         5.0780
  24   0.0000       0.207585         5.6487

MULLIKEN ATOMIC CHARGES
-----------------------
   0 C :   -1.047814
   1 C :   -0.308215
   2 H :    0.260968
   3 H :    0.259320
   4 C :    0.591336
   5 O :   -0.801440
   6 O :   -0.797794
   7 H :    0.304799
   8 H :    0.299584
   9 H :    0.239256
Sum of atomic charges:   -1.0000000

LOEWDIN ATOMIC CHARGES
----------------------
   0 C :   -0.134745
   1 C :   -0.212960
   2 H :    0.090389
   3 H :    0.098366
   4 C :   -0.775518
   5 O :   -0.117872
   6 O :   -0.109897
   7 H :    0.062727
   8 H :    0.043637
   9 H :    0.055873

  Mayer bond orders larger than 0.100000
B(  0-C ,  1-C ) :   0.4569 B(  0-C ,  7-H ) :   0.9658 B(  0-C ,  8-H ) :   0.9484
B(  0-C ,  9-H ) :   1.0563 B(  1-C ,  2-H ) :   0.9978 B(  1-C ,  3-H ) :   0.9589
B(  1-C ,  4-C ) :   0.9419 B(  4-C ,  5-O ) :   1.3359 B(  4-C ,  6-O ) :   1.3584

Dispersion correction           -0.000087324
FINAL SINGLE POINT ENERGY      -267.831967614421

DIPOLE MOMENT
-------------
                                X             Y             Z
Electronic contribution:      4.71012      -0.99355       3.34830
Nuclear contribution   :     -6.38408       1.63097      -4.40540
                        -----------------------------------------
Total Dipole Moment    :     -1.67396       0.63742      -1.05710
                        -----------------------------------------
Magnitude (a.u.)       :      2.07988
Magnitude (Debye)      :      5.28664

Rotational constants in cm-1:     0.319732     0.134414     0.104753
Rotational constants in MHz :  9585.336550  4029.633034  3140.404334

                             ****ORCA TERMINATED NORMALLY****
TOTAL RUN TIME: 0 days 0 hours 0 minutes 34 seconds 477 msec
