                         Program Version 5.0.0 -  RELEASE  -
|  1> !M062X D3Zero RIJCOSX def2-TZVPD def2/J TightSCF
|  2> *xyz 1 1
|  3> C          4.60295       -2.44010        2.63478
|  4> C          3.86085       -1.59157        3.62289
|  5> N          2.75650       -2.04616        4.16633
|  6> N          4.25433       -0.36291        3.86046
|  7> H          3.56526        0.31099        4.16898
|  8> H          5.05429       -0.01606        3.33784
|  9> H          2.43970       -2.97389        3.89740
| 10> H          2.06687       -1.41253        4.54981
| 11> C          3.74469       -2.58056        1.36188
| 12> H          5.56156       -1.97135        2.40708
| 13> H          4.81050       -3.42255        3.06310
| 14> H          4.26314       -3.18477        0.64702
| 15> H          3.56325       -1.61180        0.94535
| 16> H          2.81197       -3.04259        1.60980
| 17> *
| 18>
| 19> %MaxCore 64000
| 20>
| 21> %pal nprocs 4
| 22> end
| 23>
| 24> %scf
| 25>   MaxIter 150
| 26> end
| 27>
| 28>
| 29>                          ****END OF INPUT****

CARTESIAN COORDINATES (ANGSTROEM)
---------------------------------
  C      4.602950   -2.440100    2.634780
  C      3.860850   -1.591570    3.622890
  N      2.756500   -2.046160    4.166330
  N      4.254330   -0.362910    3.860460
  H      3.565260    0.310990    4.168980
  H      5.054290   -0.016060    3.337840
  H      2.439700   -2.973890    3.897400
  H      2.066870   -1.412530    4.549810
  C      3.744690   -2.580560    1.361880
  H      5.561560   -1.971350    2.407080
  H      4.810500   -3.422550    3.063100
  H      4.263140   -3.184770    0.647020
  H      3.563250   -1.611800    0.945350
  H      2.811970   -3.042590    1.609800

 Total Charge           Charge          ....    1
 Multiplicity           Mult            ....    1
 Number of Electrons    NEL             ....   40
 Basis Dimension        Dim             ....  266

ORBITAL ENERGIES
----------------

  NO   OCC          E(Eh)            E(eV)
   0   2.0000     -14.994277      -408.0150
   1   2.0000     -14.993264      -407.9875
   2   2.0000     -10.863941      -295.6229
   3   2.0000     -10.738303      -292.2041
   4   2.0000     -10.696268      -291.0603
   5   2.0000      -1.321642       -35.9637
   6   2.0000      -1.216536       -33.1036
   7   2.0000      -1.070328       -29.1251
   8   2.0000      -0.950673       -25.8691
   9   2.0000      -0.900380       -24.5006
  10   2.0000      -0.847795       -23.0697
  11   2.0000      -0.831934       -22.6381
  12   2.0000      -0.767312       -20.8796
  13   2.0000      -0.738118       -20.0852
  14   2.0000      -0.696095       -18.9417
  15   2.0000      -0.670710       -18.2509
  16   2.0000      -0.613225       -16.6867
  17   2.0000      -0.607518       -16.5314
  18   2.0000      -0.595705       -16.2100
  19   2.0000      -0.559535       -15.2257
  20   0.0000      -0.178559        -4.8588
  21   0.0000      -0.147969        -4.0264
  22   0.0000      -0.110929        -3.0185
  23   0.0000      -0.106526        -2.8987
  24   0.0000      -0.088358        -2.4043

MULLIKEN ATOMIC CHARGES
-----------------------
   0 C :   -0.703363
   1 C :    1.059196
   2 N :   -0.575070
   3 N :   -0.559700
   4 H :    0.280118
   5 H :    0.297223
   6 H :    0.300360
   7 H :    0.269000
   8 C :   -1.016843
   9 H :    0.345150
  10 H :    0.330038
  11 H :    0.322535
  12 H :    0.327980
  13 H :    0.323376
Sum of atomic charges:    1.0000000

LOEWDIN ATOMIC CHARGES
----------------------
   0 C :   -0.141094
   1 C :   -0.370661
   2 N :    0.223027
   3 N :    0.225274
   4 H :    0.150093
   5 H :    0.151978
   6 H :    0.151371
   7 H :    0.152132
   8 C :   -0.051751
   9 H :    0.126359
  10 H :    0.136309
  11 H :    0.088207
  12 H :    0.086054
  13 H :    0.072701

  Mayer bond orders larger than 0.100000
B(  0-C ,  1-C ) :   0.7430 B(  0-C ,  8-C ) :   0.5468 B(  0-C ,  9-H ) :   0.9275
B(  0-C , 10-H ) :   0.9812 B(  1-C ,  2-N ) :   1.0450 B(  1-C ,  3-N ) :   1.0437
B(  2-N ,  3-N ) :   0.1069 B(  2-N ,  6-H ) :   0.9053 B(  2-N ,  7-H ) :   0.9676
B(  3-N ,  4-H ) :   0.9483 B(  3-N ,  5-H ) :   0.9109 B(  8-C , 11-H ) :   0.9803
B(  8-C , 12-H ) :   0.9781 B(  8-C , 13-H ) :   0.9208

Dispersion correction           -0.000189502
FINAL SINGLE POINT ENERGY      -229.001248062538

DIPOLE MOMENT
-------------
                                X             Y             Z
Electronic contribution:     -0.22992       1.77811       3.71366
Nuclear contribution   :     -0.22400      -1.16268      -3.30447
                        -----------------------------------------
Total Dipole Moment    :     -0.45392       0.61544       0.40919
                        -----------------------------------------
Magnitude (a.u.)       :      0.86732
Magnitude (Debye)      :      2.20455

Rotational constants in cm-1:     0.258103     0.130571     0.102508
Rotational constants in MHz :  7737.732062  3914.431392  3073.119154

                             ****ORCA TERMINATED NORMALLY****
TOTAL RUN TIME: 0 days 0 hours 0 minutes 45 seconds 954 msec
