                         Program Version 5.0.0 -  RELEASE  -
|  1> !M062X D3Zero RIJCOSX def2-TZVPD def2/J TightSCF xyzfile
|  2>
|  3> *xyzfile 0 1 B.xyz
|  4>
|  5> %MaxCore 64000
|  6>
|  7> %pal nprocs 4
|  8> end
|  9>
| 10> %scf
| 11>   MaxIter 150
| 12> end
| 13>
| 14>
| 15>                          ****END OF INPUT****

CARTESIAN COORDINATES (ANGSTROEM)
---------------------------------
  C      4.602954   -2.440100    2.634780
  C     -0.914947    0.615112    2.505538
  C     -0.059146    1.503524    3.410578
  H      0.365364    2.344315    2.861161
  H     -0.692261    1.920207    4.198985
  C      1.083027    0.749640    4.085705
  C      3.860851   -1.591565    3.622893
  N      2.756502   -2.046159    4.166333
  N      4.254325   -0.362905    3.860455
  H      3.565256    0.310994    4.168983
  H      5.054292   -0.016059    3.337838
  H      2.439696   -2.973894    3.897395
  H      2.066869   -1.412532    4.549813
  O      2.228167    1.263475    4.019826
  O      0.810034   -0.345411    4.636269
  C      3.744685   -2.580557    1.361882
  C      0.772139    0.636882    0.562129
  C     -0.130740   -0.193985    1.470763
  H     -0.840563   -0.760165    0.856377
  H      0.466691   -0.938942    2.006959
  H     -1.647961    1.245963    1.991076
  H     -1.478180   -0.081046    3.130424
  C      3.203721   -1.256004    0.826211
  H      2.898939   -3.239289    1.583074
  H      4.334962   -3.095523    0.600188
  C      2.107815   -1.442385   -0.216865
  H      2.786775   -0.672760    1.650711
  H      4.021008   -0.652993    0.414046
  C      1.390662   -0.145912   -0.602422
  H      1.372179   -2.152184    0.176151
  H      2.523302   -1.906787   -1.117115
  H      1.561361    1.100094    1.161831
  H      0.195516    1.468325    0.142758
  H      0.602893   -0.398214   -1.319716
  H      2.087247    0.508272   -1.137335
  H      5.561557   -1.971347    2.407084
  H      4.810498   -3.422552    3.063099

 Total Charge           Charge          ....    0
 Multiplicity           Mult            ....    1
 Number of Electrons    NEL             ....  118
 Basis Dimension        Dim             ....  759

ORBITAL ENERGIES
----------------

  NO   OCC          E(Eh)            E(eV)
   0   2.0000     -19.550551      -531.9975
   1   2.0000     -19.547964      -531.9272
   2   2.0000     -14.790768      -402.4773
   3   2.0000     -14.790426      -402.4680
   4   2.0000     -10.678334      -290.5722
   5   2.0000     -10.604432      -288.5613
   6   2.0000     -10.587473      -288.0998
   7   2.0000     -10.568355      -287.5796
   8   2.0000     -10.544147      -286.9208
   9   2.0000     -10.535008      -286.6721
  10   2.0000     -10.526873      -286.4508
  11   2.0000     -10.516299      -286.1630
  12   2.0000     -10.513178      -286.0781
  13   2.0000     -10.509196      -285.9698
  14   2.0000     -10.500586      -285.7355
  15   2.0000      -1.141801       -31.0700
  16   2.0000      -1.125252       -30.6197
  17   2.0000      -1.042911       -28.3790
  18   2.0000      -1.018809       -27.7232
  19   2.0000      -0.938551       -25.5393
  20   2.0000      -0.903332       -24.5809
  21   2.0000      -0.871988       -23.7280
  22   2.0000      -0.828914       -22.5559
  23   2.0000      -0.788579       -21.4583
  24   2.0000      -0.746981       -20.3264
  25   2.0000      -0.728667       -19.8280
  26   2.0000      -0.703011       -19.1299
  27   2.0000      -0.669132       -18.2080
  28   2.0000      -0.657815       -17.9000
  29   2.0000      -0.649396       -17.6710
  30   2.0000      -0.626753       -17.0548
  31   2.0000      -0.586615       -15.9626
  32   2.0000      -0.578226       -15.7343
  33   2.0000      -0.557977       -15.1833
  34   2.0000      -0.553090       -15.0503
  35   2.0000      -0.535948       -14.5839
  36   2.0000      -0.527983       -14.3672
  37   2.0000      -0.511928       -13.9303
  38   2.0000      -0.501866       -13.6565
  39   2.0000      -0.492110       -13.3910
  40   2.0000      -0.484631       -13.1875
  41   2.0000      -0.475604       -12.9418
  42   2.0000      -0.473347       -12.8804
  43   2.0000      -0.465127       -12.6567
  44   2.0000      -0.443286       -12.0624
  45   2.0000      -0.437910       -11.9161
  46   2.0000      -0.429903       -11.6983
  47   2.0000      -0.426211       -11.5978
  48   2.0000      -0.414430       -11.2772
  49   2.0000      -0.395729       -10.7683
  50   2.0000      -0.392374       -10.6770
  51   2.0000      -0.384358       -10.4589
  52   2.0000      -0.369709       -10.0603
  53   2.0000      -0.364389        -9.9155
  54   2.0000      -0.360253        -9.8030
  55   2.0000      -0.353296        -9.6137
  56   2.0000      -0.304378        -8.2826
  57   2.0000      -0.298980        -8.1357
  58   2.0000      -0.294061        -8.0018
  59   0.0000      -0.009416        -0.2562
  60   0.0000       0.004757         0.1295
  61   0.0000       0.010326         0.2810
  62   0.0000       0.018697         0.5088
  63   0.0000       0.025750         0.7007

MULLIKEN ATOMIC CHARGES
-----------------------
   0 C :   -1.232378
   1 C :   -0.911838
   2 C :   -0.774173
   3 H :    0.275992
   4 H :    0.416834
   5 C :    1.001654
   6 C :    0.722286
   7 N :   -0.540953
   8 N :   -0.557190
   9 H :    0.483654
  10 H :    0.283149
  11 H :    0.279006
  12 H :    0.487032
  13 O :   -0.954678
  14 O :   -1.003352
  15 C :   -0.727268
  16 C :   -0.377672
  17 C :   -0.370614
  18 H :    0.504629
  19 H :    0.072604
  20 H :    0.405673
  21 H :    0.295995
  22 C :    0.384573
  23 H :    0.289230
  24 H :    0.404198
  25 C :   -0.686563
  26 H :   -0.216377
  27 H :    0.280307
  28 C :   -1.145361
  29 H :    0.313522
  30 H :    0.410394
  31 H :    0.202609
  32 H :    0.462856
  33 H :    0.394578
  34 H :    0.367177
  35 H :    0.381626
  36 H :    0.378837
Sum of atomic charges:    0.0000000

LOEWDIN ATOMIC CHARGES
----------------------
   0 C :   -0.114365
   1 C :   -0.207222
   2 C :   -0.126640
   3 H :    0.109153
   4 H :    0.120151
   5 C :   -0.657117
   6 C :   -0.397123
   7 N :    0.230683
   8 N :    0.216055
   9 H :    0.059070
  10 H :    0.138523
  11 H :    0.140332
  12 H :    0.058287
  13 O :   -0.059205
  14 O :   -0.056817
  15 C :   -0.190379
  16 C :   -0.216728
  17 C :   -0.217281
  18 H :    0.119237
  19 H :    0.101186
  20 H :    0.111046
  21 H :    0.110794
  22 C :   -0.214770
  23 H :    0.112341
  24 H :    0.120646
  25 C :   -0.220546
  26 H :    0.090957
  27 H :    0.131620
  28 C :   -0.212805
  29 H :    0.110413
  30 H :    0.115835
  31 H :    0.106616
  32 H :    0.119442
  33 H :    0.111329
  34 H :    0.111449
  35 H :    0.120541
  36 H :    0.125293

  Mayer bond orders larger than 0.100000
B(  0-C ,  6-C ) :   0.5857 B(  0-C , 15-C ) :   0.5118 B(  0-C , 35-H ) :   0.9568
B(  0-C , 36-H ) :   1.0201 B(  1-C ,  2-C ) :   0.6927 B(  1-C , 16-C ) :   0.1591
B(  1-C , 17-C ) :   0.6321 B(  1-C , 20-H ) :   0.9209 B(  1-C , 21-H ) :   0.9974
B(  2-C ,  3-H ) :   1.0689 B(  2-C ,  4-H ) :   0.8414 B(  2-C ,  5-C ) :   0.9329
B(  2-C , 16-C ) :   0.1383 B(  5-C , 13-O ) :   0.9944 B(  5-C , 14-O ) :   0.9555
B(  6-C ,  7-N ) :   1.1831 B(  6-C ,  8-N ) :   1.1825 B(  6-C , 13-O ) :   0.1258
B(  6-C , 26-H ) :   0.1012 B(  6-C , 35-H ) :  -0.1024 B(  7-N , 11-H ) :   0.9268
B(  7-N , 12-H ) :   0.6232 B(  7-N , 14-O ) :  -0.1151 B(  8-N ,  9-H ) :   0.7061
B(  8-N , 10-H ) :   0.9000 B(  8-N , 13-O ) :  -0.1071 B(  8-N , 26-H ) :  -0.1066
B( 13-O , 14-O ) :   0.1066 B( 15-C , 22-C ) :   0.2314 B( 15-C , 23-H ) :   1.0232
B( 15-C , 24-H ) :   0.9274 B( 15-C , 25-C ) :   0.3484 B( 15-C , 26-H ) :   0.1049
B( 15-C , 27-H ) :  -0.1092 B( 16-C , 17-C ) :   0.2184 B( 16-C , 19-H ) :  -0.1748
B( 16-C , 22-C ) :   0.1239 B( 16-C , 25-C ) :  -0.1331 B( 16-C , 28-C ) :   0.5182
B( 16-C , 31-H ) :   1.1448 B( 16-C , 32-H ) :   0.7724 B( 17-C , 18-H ) :   0.7371
B( 17-C , 19-H ) :   1.2263 B( 17-C , 25-C ) :   0.1291 B( 17-C , 28-C ) :   0.2014
B( 17-C , 31-H ) :  -0.1510 B( 22-C , 23-H ) :  -0.1281 B( 22-C , 25-C ) :   0.2739
B( 22-C , 26-H ) :   0.9240 B( 22-C , 27-H ) :   1.0031 B( 22-C , 28-C ) :   0.1366
B( 22-C , 29-H ) :  -0.1371 B( 25-C , 28-C ) :   0.5583 B( 25-C , 29-H ) :   1.0514
B( 25-C , 30-H ) :   0.8696 B( 28-C , 33-H ) :   0.9683 B( 28-C , 34-H ) :   0.9724

Dispersion correction           -0.002562175
FINAL SINGLE POINT ENERGY      -692.379283547517

DIPOLE MOMENT
-------------
                                X             Y             Z
Electronic contribution:      3.43332       1.60634      12.97106
Nuclear contribution   :     -1.50655      -3.48027     -14.35034
                        -----------------------------------------
Total Dipole Moment    :      1.92676      -1.87393      -1.37928
                        -----------------------------------------
Magnitude (a.u.)       :      3.02100
Magnitude (Debye)      :      7.67878

Rotational constants in cm-1:     0.021781     0.017296     0.011403
Rotational constants in MHz :   652.971749   518.510612   341.853154

                             ****ORCA TERMINATED NORMALLY****
TOTAL RUN TIME: 0 days 0 hours 8 minutes 51 seconds 905 msec
