                         Program Version 5.0.0 -  RELEASE  -
|  1> !M062X D3Zero RIJCOSX def2-TZVPD def2/J TightSCF
|  2> *xyz 0 1
|  3> C         -0.91495        0.61511        2.50554
|  4> C         -0.05915        1.50352        3.41058
|  5> H          0.36536        2.34431        2.86116
|  6> H         -0.69226        1.92021        4.19898
|  7> C          1.08303        0.74964        4.08571
|  8> F          2.22817        1.26348        4.01983
|  9> O          0.81003       -0.34541        4.63627
| 10> H         -0.30401        0.20228        1.73015
| 11> H         -1.69811        1.19946        2.06954
| 12> H         -1.34124       -0.17772        3.08397
| 13> *
| 14>
| 15> %MaxCore 64000
| 16>
| 17> %pal nprocs 4
| 18> end
| 19>
| 20> %scf
| 21>   MaxIter 150
| 22> end
| 23>
| 24>
| 25>                          ****END OF INPUT****

CARTESIAN COORDINATES (ANGSTROEM)
---------------------------------
  C     -0.914950    0.615110    2.505540
  C     -0.059150    1.503520    3.410580
  H      0.365360    2.344310    2.861160
  H     -0.692260    1.920210    4.198980
  C      1.083030    0.749640    4.085710
  F      2.228170    1.263480    4.019830
  O      0.810030   -0.345410    4.636270
  H     -0.304010    0.202280    1.730150
  H     -1.698110    1.199460    2.069540
  H     -1.341240   -0.177720    3.083970

 Total Charge           Charge          ....    0
 Multiplicity           Mult            ....    1
 Number of Electrons    NEL             ....   40
 Basis Dimension        Dim             ....  236

ORBITAL ENERGIES
----------------

  NO   OCC          E(Eh)            E(eV)
   0   2.0000     -25.315402      -688.8671
   1   2.0000     -19.635201      -534.3010
   2   2.0000     -10.721021      -291.7338
   3   2.0000     -10.568222      -287.5759
   4   2.0000     -10.538246      -286.7602
   5   2.0000      -1.464433       -39.8492
   6   2.0000      -1.157017       -31.4840
   7   2.0000      -0.900947       -24.5160
   8   2.0000      -0.789235       -21.4762
   9   2.0000      -0.730798       -19.8860
  10   2.0000      -0.644137       -17.5279
  11   2.0000      -0.631125       -17.1738
  12   2.0000      -0.595433       -16.2025
  13   2.0000      -0.538891       -14.6640
  14   2.0000      -0.511238       -13.9115
  15   2.0000      -0.465608       -12.6698
  16   2.0000      -0.447756       -12.1841
  17   2.0000      -0.440778       -11.9942
  18   2.0000      -0.414953       -11.2915
  19   2.0000      -0.372421       -10.1341
  20   0.0000       0.004654         0.1267
  21   0.0000       0.017697         0.4816
  22   0.0000       0.035282         0.9601
  23   0.0000       0.041845         1.1387
  24   0.0000       0.053015         1.4426

MULLIKEN ATOMIC CHARGES
-----------------------
   0 C :   -1.090424
   1 C :   -0.347897
   2 H :    0.310871
   3 H :    0.297894
   4 C :    0.717435
   5 F :   -0.248686
   6 O :   -0.580687
   7 H :    0.333405
   8 H :    0.316564
   9 H :    0.291524
Sum of atomic charges:    0.0000000

LOEWDIN ATOMIC CHARGES
----------------------
   0 C :   -0.088905
   1 C :   -0.157564
   2 H :    0.110600
   3 H :    0.124435
   4 C :   -0.476605
   5 F :    0.194247
   6 O :    0.074484
   7 H :    0.076224
   8 H :    0.069900
   9 H :    0.073183

  Mayer bond orders larger than 0.100000
B(  0-C ,  1-C ) :   0.5390 B(  0-C ,  7-H ) :   0.9334 B(  0-C ,  8-H ) :   0.9486
B(  0-C ,  9-H ) :   1.0156 B(  1-C ,  2-H ) :   0.9311 B(  1-C ,  3-H ) :   0.9498
B(  1-C ,  4-C ) :   0.9163 B(  4-C ,  5-F ) :   0.9186 B(  4-C ,  6-O ) :   1.6440

Dispersion correction           -0.000089237
FINAL SINGLE POINT ENERGY      -292.394843337855

DIPOLE MOMENT
-------------
                                X             Y             Z
Electronic contribution:      7.70619      -0.15805       4.07541
Nuclear contribution   :     -8.12386       1.06915      -4.71960
                        -----------------------------------------
Total Dipole Moment    :     -0.41767       0.91109      -0.64419
                        -----------------------------------------
Magnitude (a.u.)       :      1.19143
Magnitude (Debye)      :      3.02838

Rotational constants in cm-1:     0.309513     0.127560     0.099675
Rotational constants in MHz :  9278.979128  3824.146597  2988.174827

                             ****ORCA TERMINATED NORMALLY****
TOTAL RUN TIME: 0 days 0 hours 0 minutes 35 seconds 487 msec
