                         Program Version 5.0.0 -  RELEASE  -
|  1> !M062X D3Zero RIJCOSX def2-TZVPD def2/J TightSCF
|  2> *xyz 0 1
|  3> C          4.60295       -2.44010        2.63478
|  4> C          3.86085       -1.59157        3.62289
|  5> C          2.75650       -2.04616        4.16633
|  6> N          4.25433       -0.36291        3.86046
|  7> H          3.56526        0.31099        4.16898
|  8> H          5.05429       -0.01606        3.33784
|  9> H          2.43970       -2.97389        3.89740
| 10> H          2.06687       -1.41253        4.54981
| 11> C          3.74469       -2.58056        1.36188
| 12> H          5.56156       -1.97135        2.40708
| 13> H          4.81050       -3.42255        3.06310
| 14> H          4.26314       -3.18477        0.64702
| 15> H          3.56325       -1.61180        0.94535
| 16> H          2.81197       -3.04259        1.60980
| 17> *
| 18>
| 19> %MaxCore 64000
| 20>
| 21> %pal nprocs 4
| 22> end
| 23>
| 24> %scf
| 25>   MaxIter 150
| 26> end
| 27>
| 28>
| 29>                          ****END OF INPUT****

CARTESIAN COORDINATES (ANGSTROEM)
---------------------------------
  C      4.602950   -2.440100    2.634780
  C      3.860850   -1.591570    3.622890
  C      2.756500   -2.046160    4.166330
  N      4.254330   -0.362910    3.860460
  H      3.565260    0.310990    4.168980
  H      5.054290   -0.016060    3.337840
  H      2.439700   -2.973890    3.897400
  H      2.066870   -1.412530    4.549810
  C      3.744690   -2.580560    1.361880
  H      5.561560   -1.971350    2.407080
  H      4.810500   -3.422550    3.063100
  H      4.263140   -3.184770    0.647020
  H      3.563250   -1.611800    0.945350
  H      2.811970   -3.042590    1.609800

 Total Charge           Charge          ....    0
 Multiplicity           Mult            ....    1
 Number of Electrons    NEL             ....   40
 Basis Dimension        Dim             ....  266

ORBITAL ENERGIES
----------------

  NO   OCC          E(Eh)            E(eV)
   0   2.0000     -14.748632      -401.3307
   1   2.0000     -10.555024      -287.2168
   2   2.0000     -10.537092      -286.7288
   3   2.0000     -10.519256      -286.2435
   4   2.0000     -10.464617      -284.7567
   5   2.0000      -1.043409       -28.3926
   6   2.0000      -0.880624       -23.9630
   7   2.0000      -0.807344       -21.9690
   8   2.0000      -0.727753       -19.8032
   9   2.0000      -0.641602       -17.4589
  10   2.0000      -0.598838       -16.2952
  11   2.0000      -0.554790       -15.0966
  12   2.0000      -0.517779       -14.0895
  13   2.0000      -0.479979       -13.0609
  14   2.0000      -0.454828       -12.3765
  15   2.0000      -0.443752       -12.0751
  16   2.0000      -0.415429       -11.3044
  17   2.0000      -0.404811       -11.0155
  18   2.0000      -0.392907       -10.6916
  19   2.0000      -0.244747        -6.6599
  20   0.0000       0.015696         0.4271
  21   0.0000       0.038439         1.0460
  22   0.0000       0.041325         1.1245
  23   0.0000       0.051072         1.3897
  24   0.0000       0.071664         1.9501

MULLIKEN ATOMIC CHARGES
-----------------------
   0 C :   -0.696451
   1 C :    0.880253
   2 C :   -1.008100
   3 N :   -0.629495
   4 H :    0.231229
   5 H :    0.265626
   6 H :    0.280383
   7 H :    0.192931
   8 C :   -1.050748
   9 H :    0.332581
  10 H :    0.302533
  11 H :    0.296643
  12 H :    0.294289
  13 H :    0.308325
Sum of atomic charges:    0.0000000

LOEWDIN ATOMIC CHARGES
----------------------
   0 C :   -0.194289
   1 C :   -0.511937
   2 C :    0.011537
   3 N :    0.092697
   4 H :    0.114797
   5 H :    0.107994
   6 H :    0.026903
   7 H :    0.025316
   8 C :   -0.091635
   9 H :    0.103801
  10 H :    0.115758
  11 H :    0.062359
  12 H :    0.073154
  13 H :    0.063547

  Mayer bond orders larger than 0.100000
B(  0-C ,  1-C ) :   0.5827 B(  0-C ,  2-C ) :   0.1008 B(  0-C ,  8-C ) :   0.5317
B(  0-C ,  9-H ) :   1.0058 B(  0-C , 10-H ) :   0.9842 B(  1-C ,  2-C ) :   1.4049
B(  1-C ,  3-N ) :   0.7552 B(  1-C ,  7-H ) :  -0.1407 B(  1-C ,  9-H ) :  -0.1278
B(  2-C ,  3-N ) :   0.1069 B(  2-C ,  6-H ) :   0.9710 B(  2-C ,  7-H ) :   1.1399
B(  3-N ,  4-H ) :   0.9778 B(  3-N ,  5-H ) :   0.9517 B(  8-C , 11-H ) :   0.9669
B(  8-C , 12-H ) :   0.9865 B(  8-C , 13-H ) :   0.9964

Dispersion correction           -0.000186517
FINAL SINGLE POINT ENERGY      -212.532159895416

DIPOLE MOMENT
-------------
                                X             Y             Z
Electronic contribution:      0.79158       1.74943       2.54336
Nuclear contribution   :     -0.47010      -1.22282      -3.06417
                        -----------------------------------------
Total Dipole Moment    :      0.32148       0.52661      -0.52081
                        -----------------------------------------
Magnitude (a.u.)       :      0.80741
Magnitude (Debye)      :      2.05227

Rotational constants in cm-1:     0.271862     0.131962     0.105499
Rotational constants in MHz :  8150.219120  3956.123671  3162.785522

                             ****ORCA TERMINATED NORMALLY****
TOTAL RUN TIME: 0 days 0 hours 0 minutes 46 seconds 467 msec
