                         Program Version 5.0.0 -  RELEASE  -
|  1> !M062X D3Zero RIJCOSX def2-TZVPD def2/J TightSCF
|  2> *xyz 0 1
|  3> C         -0.91495        0.61511        2.50554
|  4> C         -0.05915        1.50352        3.41058
|  5> H          0.36536        2.34431        2.86116
|  6> H         -0.69226        1.92021        4.19898
|  7> C          1.08303        0.74964        4.08571
|  8> O          2.22817        1.26348        4.01983
|  9> F          0.81003       -0.34541        4.63627
| 10> H         -0.30401        0.20228        1.73015
| 11> H         -1.69811        1.19946        2.06954
| 12> H         -1.34124       -0.17772        3.08397
| 13> *
| 14>
| 15> %MaxCore 64000
| 16>
| 17> %pal nprocs 4
| 18> end
| 19>
| 20> %scf
| 21>   MaxIter 150
| 22> end
| 23>
| 24>
| 25>                          ****END OF INPUT****

CARTESIAN COORDINATES (ANGSTROEM)
---------------------------------
  C     -0.914950    0.615110    2.505540
  C     -0.059150    1.503520    3.410580
  H      0.365360    2.344310    2.861160
  H     -0.692260    1.920210    4.198980
  C      1.083030    0.749640    4.085710
  O      2.228170    1.263480    4.019830
  F      0.810030   -0.345410    4.636270
  H     -0.304010    0.202280    1.730150
  H     -1.698110    1.199460    2.069540
  H     -1.341240   -0.177720    3.083970

 Total Charge           Charge          ....    0
 Multiplicity           Mult            ....    1
 Number of Electrons    NEL             ....   40
 Basis Dimension        Dim             ....  236

ORBITAL ENERGIES
----------------

  NO   OCC          E(Eh)            E(eV)
   0   2.0000     -25.316634      -688.9006
   1   2.0000     -19.634173      -534.2730
   2   2.0000     -10.720314      -291.7146
   3   2.0000     -10.567742      -287.5629
   4   2.0000     -10.543581      -286.9054
   5   2.0000      -1.465962       -39.8909
   6   2.0000      -1.155171       -31.4338
   7   2.0000      -0.905253       -24.6332
   8   2.0000      -0.784955       -21.3597
   9   2.0000      -0.737768       -20.0757
  10   2.0000      -0.646718       -17.5981
  11   2.0000      -0.638673       -17.3792
  12   2.0000      -0.585359       -15.9284
  13   2.0000      -0.540358       -14.7039
  14   2.0000      -0.510624       -13.8948
  15   2.0000      -0.472442       -12.8558
  16   2.0000      -0.455322       -12.3899
  17   2.0000      -0.443886       -12.0788
  18   2.0000      -0.416886       -11.3440
  19   2.0000      -0.366663        -9.9774
  20   0.0000       0.005034         0.1370
  21   0.0000       0.019608         0.5336
  22   0.0000       0.034563         0.9405
  23   0.0000       0.040230         1.0947
  24   0.0000       0.052962         1.4412

MULLIKEN ATOMIC CHARGES
-----------------------
   0 C :   -1.094007
   1 C :   -0.346955
   2 H :    0.273835
   3 H :    0.314724
   4 C :    0.722511
   5 O :   -0.587193
   6 F :   -0.241824
   7 H :    0.344057
   8 H :    0.307804
   9 H :    0.307048
Sum of atomic charges:    0.0000000

LOEWDIN ATOMIC CHARGES
----------------------
   0 C :   -0.092983
   1 C :   -0.153131
   2 H :    0.119358
   3 H :    0.122425
   4 C :   -0.481408
   5 O :    0.070371
   6 F :    0.198452
   7 H :    0.076613
   8 H :    0.070381
   9 H :    0.069923

  Mayer bond orders larger than 0.100000
B(  0-C ,  1-C ) :   0.4909 B(  0-C ,  7-H ) :   0.9457 B(  0-C ,  8-H ) :   0.9699
B(  0-C ,  9-H ) :   0.9762 B(  1-C ,  2-H ) :   0.9764 B(  1-C ,  3-H ) :   0.9298
B(  1-C ,  4-C ) :   0.9400 B(  4-C ,  5-O ) :   1.6295 B(  4-C ,  6-F ) :   0.9185

Dispersion correction           -0.000093554
FINAL SINGLE POINT ENERGY      -292.393854329230

DIPOLE MOMENT
-------------
                                X             Y             Z
Electronic contribution:      5.32215      -2.82757       5.08696
Nuclear contribution   :     -6.57765       2.82334      -5.39171
                        -----------------------------------------
Total Dipole Moment    :     -1.25549      -0.00423      -0.30475
                        -----------------------------------------
Magnitude (a.u.)       :      1.29196
Magnitude (Debye)      :      3.28390

Rotational constants in cm-1:     0.294245     0.132994     0.101060
Rotational constants in MHz :  8821.228602  3987.049251  3029.696815

                             ****ORCA TERMINATED NORMALLY****
TOTAL RUN TIME: 0 days 0 hours 0 minutes 37 seconds 548 msec
