                         Program Version 5.0.0 -  RELEASE  -
|  1> !M062X D3Zero RIJCOSX def2-TZVPD def2/J TightSCF
|  2> *xyz 0 1
|  3> C          4.60295       -2.44010        2.63478
|  4> C          3.86085       -1.59157        3.62289
|  5> N          2.75650       -2.04616        4.16633
|  6> C          4.25433       -0.36291        3.86046
|  7> H          3.56526        0.31099        4.16898
|  8> H          5.05429       -0.01606        3.33784
|  9> H          2.43970       -2.97389        3.89740
| 10> H          2.06687       -1.41253        4.54981
| 11> C          3.74469       -2.58056        1.36188
| 12> H          5.56156       -1.97135        2.40708
| 13> H          4.81050       -3.42255        3.06310
| 14> H          4.26314       -3.18477        0.64702
| 15> H          3.56325       -1.61180        0.94535
| 16> H          2.81197       -3.04259        1.60980
| 17> *
| 18>
| 19> %MaxCore 64000
| 20>
| 21> %pal nprocs 4
| 22> end
| 23>
| 24> %scf
| 25>   MaxIter 150
| 26> end
| 27>
| 28>
| 29>                          ****END OF INPUT****

CARTESIAN COORDINATES (ANGSTROEM)
---------------------------------
  C      4.602950   -2.440100    2.634780
  C      3.860850   -1.591570    3.622890
  N      2.756500   -2.046160    4.166330
  C      4.254330   -0.362910    3.860460
  H      3.565260    0.310990    4.168980
  H      5.054290   -0.016060    3.337840
  H      2.439700   -2.973890    3.897400
  H      2.066870   -1.412530    4.549810
  C      3.744690   -2.580560    1.361880
  H      5.561560   -1.971350    2.407080
  H      4.810500   -3.422550    3.063100
  H      4.263140   -3.184770    0.647020
  H      3.563250   -1.611800    0.945350
  H      2.811970   -3.042590    1.609800

 Total Charge           Charge          ....    0
 Multiplicity           Mult            ....    1
 Number of Electrons    NEL             ....   40
 Basis Dimension        Dim             ....  266

ORBITAL ENERGIES
----------------

  NO   OCC          E(Eh)            E(eV)
   0   2.0000     -14.748423      -401.3250
   1   2.0000     -10.556146      -287.2473
   2   2.0000     -10.536654      -286.7169
   3   2.0000     -10.522812      -286.3403
   4   2.0000     -10.466058      -284.7959
   5   2.0000      -1.043115       -28.3846
   6   2.0000      -0.878556       -23.9067
   7   2.0000      -0.815614       -22.1940
   8   2.0000      -0.723040       -19.6749
   9   2.0000      -0.648361       -17.6428
  10   2.0000      -0.600488       -16.3401
  11   2.0000      -0.549668       -14.9572
  12   2.0000      -0.507493       -13.8096
  13   2.0000      -0.498209       -13.5569
  14   2.0000      -0.454570       -12.3695
  15   2.0000      -0.445945       -12.1348
  16   2.0000      -0.419182       -11.4065
  17   2.0000      -0.402611       -10.9556
  18   2.0000      -0.388593       -10.5742
  19   2.0000      -0.247372        -6.7313
  20   0.0000       0.014532         0.3954
  21   0.0000       0.038497         1.0476
  22   0.0000       0.044973         1.2238
  23   0.0000       0.048077         1.3082
  24   0.0000       0.071259         1.9390

MULLIKEN ATOMIC CHARGES
-----------------------
   0 C :   -0.761458
   1 C :    0.831590
   2 N :   -0.649133
   3 C :   -0.846974
   4 H :    0.212873
   5 H :    0.204202
   6 H :    0.262762
   7 H :    0.220738
   8 C :   -1.008142
   9 H :    0.312214
  10 H :    0.338541
  11 H :    0.306906
  12 H :    0.287201
  13 H :    0.288679
Sum of atomic charges:   -0.0000000

LOEWDIN ATOMIC CHARGES
----------------------
   0 C :   -0.196384
   1 C :   -0.515994
   2 N :    0.093354
   3 C :    0.018104
   4 H :    0.024040
   5 H :    0.022848
   6 H :    0.109920
   7 H :    0.117134
   8 C :   -0.091588
   9 H :    0.110656
  10 H :    0.111005
  11 H :    0.063827
  12 H :    0.075112
  13 H :    0.057966

  Mayer bond orders larger than 0.100000
B(  0-C ,  1-C ) :   0.6923 B(  0-C ,  3-C ) :   0.1249 B(  0-C ,  8-C ) :   0.5707
B(  0-C ,  9-H ) :   0.9558 B(  0-C , 10-H ) :   0.9550 B(  1-C ,  2-N ) :   0.7479
B(  1-C ,  3-C ) :   1.3982 B(  1-C ,  4-H ) :  -0.1280 B(  2-N ,  3-C ) :   0.1038
B(  2-N ,  6-H ) :   0.9384 B(  2-N ,  7-H ) :   0.9912 B(  3-C ,  4-H ) :   1.0917
B(  3-C ,  5-H ) :   1.0623 B(  8-C , 11-H ) :   0.9763 B(  8-C , 12-H ) :   1.0344
B(  8-C , 13-H ) :   0.9581

Dispersion correction           -0.000186100
FINAL SINGLE POINT ENERGY      -212.532724346275

DIPOLE MOMENT
-------------
                                X             Y             Z
Electronic contribution:     -0.46918       0.32613       2.81480
Nuclear contribution   :     -0.12319      -0.83296      -3.13501
                        -----------------------------------------
Total Dipole Moment    :     -0.59237      -0.50683      -0.32021
                        -----------------------------------------
Magnitude (a.u.)       :      0.84280
Magnitude (Debye)      :      2.14222

Rotational constants in cm-1:     0.266453     0.134423     0.106086
Rotational constants in MHz :  7988.053142  4029.892766  3180.375228

                             ****ORCA TERMINATED NORMALLY****
TOTAL RUN TIME: 0 days 0 hours 0 minutes 49 seconds 479 msec
