                         Program Version 5.0.0 -  RELEASE  -
|  1> !M062X D3Zero RIJCOSX def2-TZVPD def2/J TightSCF xyzfile
|  2>
|  3> *xyzfile 0 1 D1.xyz
|  4>
|  5> %MaxCore 64000
|  6>
|  7> %pal nprocs 4
|  8> end
|  9>
| 10> %scf
| 11>   MaxIter 150
| 12> end
| 13>
| 14>
| 15>                          ****END OF INPUT****

CARTESIAN COORDINATES (ANGSTROEM)
---------------------------------
  C      4.602954   -2.440100    2.634780
  C     -0.914947    0.615112    2.505538
  C     -0.059146    1.503524    3.410578
  H      0.365364    2.344315    2.861161
  H     -0.692261    1.920207    4.198985
  C      1.083027    0.749640    4.085705
  C      3.860851   -1.591565    3.622893
  C      2.756502   -2.046159    4.166333
  N      4.254325   -0.362905    3.860455
  H      3.565256    0.310994    4.168983
  H      5.054292   -0.016059    3.337838
  H      2.439696   -2.973894    3.897395
  H      2.066869   -1.412532    4.549813
  F      2.228167    1.263475    4.019826
  O      0.810034   -0.345411    4.636269
  C      3.744685   -2.580557    1.361882
  C      0.772139    0.636882    0.562129
  C     -0.130740   -0.193985    1.470763
  H     -0.840563   -0.760165    0.856377
  H      0.466691   -0.938942    2.006959
  H     -1.647961    1.245963    1.991076
  H     -1.478180   -0.081046    3.130424
  C      3.203721   -1.256004    0.826211
  H      2.898939   -3.239289    1.583074
  H      4.334962   -3.095523    0.600188
  C      2.107815   -1.442385   -0.216865
  H      2.786775   -0.672760    1.650711
  H      4.021008   -0.652993    0.414046
  C      1.390662   -0.145912   -0.602422
  H      1.372179   -2.152184    0.176151
  H      2.523302   -1.906787   -1.117115
  H      1.561361    1.100094    1.161831
  H      0.195516    1.468325    0.142758
  H      0.602893   -0.398214   -1.319716
  H      2.087247    0.508272   -1.137335
  H      5.561557   -1.971347    2.407084
  H      4.810498   -3.422552    3.063099

 Total Charge           Charge          ....    0
 Multiplicity           Mult            ....    1
 Number of Electrons    NEL             ....  118
 Basis Dimension        Dim             ....  759

ORBITAL ENERGIES
----------------

  NO   OCC          E(Eh)            E(eV)
   0   2.0000     -25.340716      -689.5559
   1   2.0000     -19.647712      -534.6414
   2   2.0000     -14.725486      -400.7008
   3   2.0000     -10.736249      -292.1482
   4   2.0000     -10.573374      -287.7161
   5   2.0000     -10.551473      -287.1202
   6   2.0000     -10.535763      -286.6927
   7   2.0000     -10.535370      -286.6820
   8   2.0000     -10.534464      -286.6573
   9   2.0000     -10.530410      -286.5470
  10   2.0000     -10.524110      -286.3756
  11   2.0000     -10.522884      -286.3422
  12   2.0000     -10.522523      -286.3324
  13   2.0000     -10.520211      -286.2695
  14   2.0000     -10.433178      -283.9012
  15   2.0000      -1.493475       -40.6395
  16   2.0000      -1.176648       -32.0182
  17   2.0000      -1.026127       -27.9223
  18   2.0000      -0.932569       -25.3765
  19   2.0000      -0.906319       -24.6622
  20   2.0000      -0.880289       -23.9539
  21   2.0000      -0.841634       -22.9020
  22   2.0000      -0.817550       -22.2467
  23   2.0000      -0.786703       -21.4073
  24   2.0000      -0.770635       -20.9700
  25   2.0000      -0.736444       -20.0397
  26   2.0000      -0.702209       -19.1081
  27   2.0000      -0.675198       -18.3731
  28   2.0000      -0.670247       -18.2384
  29   2.0000      -0.661362       -17.9966
  30   2.0000      -0.637417       -17.3450
  31   2.0000      -0.620832       -16.8937
  32   2.0000      -0.606982       -16.5168
  33   2.0000      -0.573769       -15.6130
  34   2.0000      -0.555260       -15.1094
  35   2.0000      -0.552720       -15.0403
  36   2.0000      -0.541853       -14.7446
  37   2.0000      -0.522768       -14.2252
  38   2.0000      -0.518098       -14.0982
  39   2.0000      -0.496086       -13.4992
  40   2.0000      -0.492416       -13.3993
  41   2.0000      -0.479907       -13.0589
  42   2.0000      -0.470604       -12.8058
  43   2.0000      -0.458370       -12.4729
  44   2.0000      -0.452097       -12.3022
  45   2.0000      -0.437614       -11.9081
  46   2.0000      -0.434173       -11.8145
  47   2.0000      -0.428924       -11.6716
  48   2.0000      -0.416564       -11.3353
  49   2.0000      -0.406812       -11.0699
  50   2.0000      -0.405167       -11.0251
  51   2.0000      -0.396615       -10.7924
  52   2.0000      -0.385911       -10.5012
  53   2.0000      -0.380971       -10.3667
  54   2.0000      -0.371169       -10.1000
  55   2.0000      -0.369845       -10.0640
  56   2.0000      -0.361772        -9.8443
  57   2.0000      -0.343824        -9.3559
  58   2.0000      -0.224652        -6.1131
  59   0.0000      -0.007060        -0.1921
  60   0.0000       0.007031         0.1913
  61   0.0000       0.019944         0.5427
  62   0.0000       0.022651         0.6164
  63   0.0000       0.025847         0.7033

MULLIKEN ATOMIC CHARGES
-----------------------
   0 C :   -1.494716
   1 C :   -0.923773
   2 C :   -0.779678
   3 H :    0.329979
   4 H :    0.427476
   5 C :    0.830856
   6 C :    0.526978
   7 C :   -0.689163
   8 N :   -0.613190
   9 H :    0.485605
  10 H :    0.280099
  11 H :    0.292757
  12 H :    0.259041
  13 F :   -0.355960
  14 O :   -0.693037
  15 C :   -0.711494
  16 C :   -0.375582
  17 C :   -0.367121
  18 H :    0.501955
  19 H :    0.103729
  20 H :    0.419923
  21 H :    0.323199
  22 C :    0.282122
  23 H :    0.299019
  24 H :    0.404555
  25 C :   -0.676480
  26 H :   -0.129763
  27 H :    0.304390
  28 C :   -1.180473
  29 H :    0.283682
  30 H :    0.425932
  31 H :    0.216293
  32 H :    0.448202
  33 H :    0.390178
  34 H :    0.376307
  35 H :    0.413306
  36 H :    0.364847
Sum of atomic charges:   -0.0000000

LOEWDIN ATOMIC CHARGES
----------------------
   0 C :   -0.144769
   1 C :   -0.193871
   2 C :   -0.098939
   3 H :    0.115863
   4 H :    0.130739
   5 C :   -0.433563
   6 C :   -0.502261
   7 C :    0.033037
   8 N :    0.110756
   9 H :    0.073494
  10 H :    0.112903
  11 H :    0.040109
  12 H :   -0.020878
  13 F :    0.179407
  14 O :    0.074688
  15 C :   -0.198066
  16 C :   -0.220395
  17 C :   -0.210493
  18 H :    0.125423
  19 H :    0.108169
  20 H :    0.118905
  21 H :    0.117596
  22 C :   -0.219965
  23 H :    0.111656
  24 H :    0.112538
  25 C :   -0.221215
  26 H :    0.084861
  27 H :    0.127301
  28 C :   -0.212548
  29 H :    0.110941
  30 H :    0.116152
  31 H :    0.103116
  32 H :    0.118202
  33 H :    0.111305
  34 H :    0.112058
  35 H :    0.109324
  36 H :    0.118422

  Mayer bond orders larger than 0.100000
B(  0-C ,  6-C ) :   0.4949 B(  0-C ,  7-C ) :   0.1443 B(  0-C , 15-C ) :   0.5809
B(  0-C , 22-C ) :   0.1473 B(  0-C , 35-H ) :   0.9832 B(  0-C , 36-H ) :   0.9945
B(  1-C ,  2-C ) :   0.6639 B(  1-C , 16-C ) :   0.1466 B(  1-C , 17-C ) :   0.6044
B(  1-C , 20-H ) :   0.9124 B(  1-C , 21-H ) :   0.9787 B(  2-C ,  3-H ) :   1.0218
B(  2-C ,  4-H ) :   0.8374 B(  2-C ,  5-C ) :   0.8561 B(  2-C , 16-C ) :   0.1445
B(  5-C , 13-F ) :   0.6612 B(  5-C , 14-O ) :   1.5348 B(  6-C ,  7-C ) :   1.7483
B(  6-C ,  8-N ) :   0.8437 B(  6-C , 12-H ) :  -0.1130 B(  6-C , 35-H ) :  -0.1537
B(  7-C , 11-H ) :   1.1227 B(  7-C , 12-H ) :   0.9377 B(  8-N ,  9-H ) :   0.6751
B(  8-N , 10-H ) :   0.9100 B(  8-N , 26-H ) :  -0.1249 B( 12-H , 14-O ) :  -0.1988
B( 15-C , 22-C ) :   0.3269 B( 15-C , 23-H ) :   1.0199 B( 15-C , 24-H ) :   0.9160
B( 15-C , 25-C ) :   0.3759 B( 15-C , 26-H ) :   0.1123 B( 15-C , 27-H ) :  -0.1008
B( 16-C , 17-C ) :   0.1855 B( 16-C , 19-H ) :  -0.1802 B( 16-C , 22-C ) :   0.1532
B( 16-C , 25-C ) :  -0.1497 B( 16-C , 28-C ) :   0.6055 B( 16-C , 31-H ) :   1.1257
B( 16-C , 32-H ) :   0.7884 B( 17-C , 18-H ) :   0.7256 B( 17-C , 19-H ) :   1.2421
B( 17-C , 25-C ) :   0.1265 B( 17-C , 28-C ) :   0.2000 B( 17-C , 31-H ) :  -0.1673
B( 22-C , 23-H ) :  -0.1175 B( 22-C , 25-C ) :   0.2157 B( 22-C , 26-H ) :   1.0587
B( 22-C , 27-H ) :   0.9704 B( 22-C , 28-C ) :   0.1228 B( 22-C , 29-H ) :  -0.1544
B( 25-C , 28-C ) :   0.5370 B( 25-C , 29-H ) :   1.0880 B( 25-C , 30-H ) :   0.8573
B( 28-C , 33-H ) :   0.9714 B( 28-C , 34-H ) :   0.9636

Dispersion correction           -0.002524376
FINAL SINGLE POINT ENERGY      -700.246339272697

DIPOLE MOMENT
-------------
                                X             Y             Z
Electronic contribution:      1.16769       7.35900      14.94169
Nuclear contribution   :     -1.66567      -5.90236     -15.95042
                        -----------------------------------------
Total Dipole Moment    :     -0.49797       1.45663      -1.00874
                        -----------------------------------------
Magnitude (a.u.)       :      1.84046
Magnitude (Debye)      :      4.67809

Rotational constants in cm-1:     0.021600     0.017292     0.011381
Rotational constants in MHz :   647.565282   518.410024   341.193038

                             ****ORCA TERMINATED NORMALLY****
TOTAL RUN TIME: 0 days 0 hours 9 minutes 28 seconds 561 msec
