                         Program Version 5.0.0 -  RELEASE  -
|  1> !M062X D3Zero RIJCOSX def2-TZVPD def2/J TightSCF xyzfile
|  2>
|  3> *xyzfile 0 1 D2.xyz
|  4>
|  5> %MaxCore 64000
|  6>
|  7> %pal nprocs 4
|  8> end
|  9>
| 10> %scf
| 11>   MaxIter 150
| 12> end
| 13>
| 14>
| 15>                          ****END OF INPUT****

CARTESIAN COORDINATES (ANGSTROEM)
---------------------------------
  C      4.602954   -2.440100    2.634780
  C     -0.914947    0.615112    2.505538
  C     -0.059146    1.503524    3.410578
  H      0.365364    2.344315    2.861161
  H     -0.692261    1.920207    4.198985
  C      1.083027    0.749640    4.085705
  C      3.860851   -1.591565    3.622893
  N      2.756502   -2.046159    4.166333
  C      4.254325   -0.362905    3.860455
  H      3.565256    0.310994    4.168983
  H      5.054292   -0.016059    3.337838
  H      2.439696   -2.973894    3.897395
  H      2.066869   -1.412532    4.549813
  F      2.228167    1.263475    4.019826
  O      0.810034   -0.345411    4.636269
  C      3.744685   -2.580557    1.361882
  C      0.772139    0.636882    0.562129
  C     -0.130740   -0.193985    1.470763
  H     -0.840563   -0.760165    0.856377
  H      0.466691   -0.938942    2.006959
  H     -1.647961    1.245963    1.991076
  H     -1.478180   -0.081046    3.130424
  C      3.203721   -1.256004    0.826211
  H      2.898939   -3.239289    1.583074
  H      4.334962   -3.095523    0.600188
  C      2.107815   -1.442385   -0.216865
  H      2.786775   -0.672760    1.650711
  H      4.021008   -0.652993    0.414046
  C      1.390662   -0.145912   -0.602422
  H      1.372179   -2.152184    0.176151
  H      2.523302   -1.906787   -1.117115
  H      1.561361    1.100094    1.161831
  H      0.195516    1.468325    0.142758
  H      0.602893   -0.398214   -1.319716
  H      2.087247    0.508272   -1.137335
  H      5.561557   -1.971347    2.407084
  H      4.810498   -3.422552    3.063099

 Total Charge           Charge          ....    0
 Multiplicity           Mult            ....    1
 Number of Electrons    NEL             ....  118
 Basis Dimension        Dim             ....  759

ORBITAL ENERGIES
----------------

  NO   OCC          E(Eh)            E(eV)
   0   2.0000     -25.331047      -689.2928
   1   2.0000     -19.658829      -534.9439
   2   2.0000     -14.714215      -400.3942
   3   2.0000     -10.743981      -292.3586
   4   2.0000     -10.576427      -287.7992
   5   2.0000     -10.555073      -287.2181
   6   2.0000     -10.539424      -286.7923
   7   2.0000     -10.536840      -286.7220
   8   2.0000     -10.536458      -286.7116
   9   2.0000     -10.530951      -286.5617
  10   2.0000     -10.525925      -286.4250
  11   2.0000     -10.524579      -286.3884
  12   2.0000     -10.521809      -286.3130
  13   2.0000     -10.518693      -286.2282
  14   2.0000     -10.441471      -284.1269
  15   2.0000      -1.485176       -40.4137
  16   2.0000      -1.187129       -32.3034
  17   2.0000      -1.018594       -27.7173
  18   2.0000      -0.935349       -25.4521
  19   2.0000      -0.907028       -24.6815
  20   2.0000      -0.879252       -23.9257
  21   2.0000      -0.843755       -22.9597
  22   2.0000      -0.811806       -22.0904
  23   2.0000      -0.798443       -21.7267
  24   2.0000      -0.765263       -20.8239
  25   2.0000      -0.737663       -20.0728
  26   2.0000      -0.700707       -19.0672
  27   2.0000      -0.670622       -18.2486
  28   2.0000      -0.663176       -18.0459
  29   2.0000      -0.654495       -17.8097
  30   2.0000      -0.643420       -17.5083
  31   2.0000      -0.630989       -17.1701
  32   2.0000      -0.607678       -16.5358
  33   2.0000      -0.574734       -15.6393
  34   2.0000      -0.558449       -15.1962
  35   2.0000      -0.551426       -15.0051
  36   2.0000      -0.535946       -14.5838
  37   2.0000      -0.525690       -14.3048
  38   2.0000      -0.516534       -14.0556
  39   2.0000      -0.503330       -13.6963
  40   2.0000      -0.491777       -13.3819
  41   2.0000      -0.479411       -13.0454
  42   2.0000      -0.475930       -12.9507
  43   2.0000      -0.463649       -12.6165
  44   2.0000      -0.447133       -12.1671
  45   2.0000      -0.438210       -11.9243
  46   2.0000      -0.437338       -11.9006
  47   2.0000      -0.431954       -11.7541
  48   2.0000      -0.417710       -11.3665
  49   2.0000      -0.411520       -11.1980
  50   2.0000      -0.406047       -11.0491
  51   2.0000      -0.395783       -10.7698
  52   2.0000      -0.384680       -10.4677
  53   2.0000      -0.381867       -10.3911
  54   2.0000      -0.378184       -10.2909
  55   2.0000      -0.372050       -10.1240
  56   2.0000      -0.362091        -9.8530
  57   2.0000      -0.355181        -9.6650
  58   2.0000      -0.225913        -6.1474
  59   0.0000      -0.011893        -0.3236
  60   0.0000       0.008732         0.2376
  61   0.0000       0.016553         0.4504
  62   0.0000       0.022005         0.5988
  63   0.0000       0.026260         0.7146

MULLIKEN ATOMIC CHARGES
-----------------------
   0 C :   -1.404386
   1 C :   -0.909979
   2 C :   -0.749997
   3 H :    0.331931
   4 H :    0.424936
   5 C :    0.842703
   6 C :    0.600910
   7 N :   -0.583424
   8 C :   -0.707797
   9 H :    0.221597
  10 H :    0.231894
  11 H :    0.266256
  12 H :    0.492595
  13 F :   -0.337914
  14 O :   -0.768551
  15 C :   -0.670304
  16 C :   -0.408246
  17 C :   -0.386004
  18 H :    0.501238
  19 H :    0.127350
  20 H :    0.424840
  21 H :    0.317400
  22 C :    0.359042
  23 H :    0.271675
  24 H :    0.390665
  25 C :   -0.699819
  26 H :   -0.186341
  27 H :    0.251985
  28 C :   -1.149555
  29 H :    0.291899
  30 H :    0.401896
  31 H :    0.233598
  32 H :    0.449776
  33 H :    0.392147
  34 H :    0.375098
  35 H :    0.372794
  36 H :    0.388092
Sum of atomic charges:   -0.0000000

LOEWDIN ATOMIC CHARGES
----------------------
   0 C :   -0.145952
   1 C :   -0.194591
   2 C :   -0.095849
   3 H :    0.118081
   4 H :    0.131807
   5 C :   -0.427228
   6 C :   -0.505739
   7 N :    0.125588
   8 C :    0.023159
   9 H :   -0.000816
  10 H :    0.032823
  11 H :    0.115348
  12 H :    0.046411
  13 F :    0.175874
  14 O :    0.075449
  15 C :   -0.198156
  16 C :   -0.219030
  17 C :   -0.212343
  18 H :    0.125258
  19 H :    0.105941
  20 H :    0.119529
  21 H :    0.116830
  22 C :   -0.216531
  23 H :    0.105915
  24 H :    0.114012
  25 C :   -0.223666
  26 H :    0.085606
  27 H :    0.131920
  28 C :   -0.211818
  29 H :    0.108892
  30 H :    0.115662
  31 H :    0.105126
  32 H :    0.118586
  33 H :    0.111117
  34 H :    0.112920
  35 H :    0.115524
  36 H :    0.114342

  Mayer bond orders larger than 0.100000
B(  0-C ,  6-C ) :   0.5040 B(  0-C ,  7-N ) :   0.1016 B(  0-C ,  8-C ) :   0.2520
B(  0-C , 15-C ) :   0.5669 B(  0-C , 35-H ) :   0.9262 B(  0-C , 36-H ) :   1.0391
B(  1-C ,  2-C ) :   0.6640 B(  1-C , 16-C ) :   0.1530 B(  1-C , 17-C ) :   0.5989
B(  1-C , 20-H ) :   0.9050 B(  1-C , 21-H ) :   0.9851 B(  2-C ,  3-H ) :   1.0133
B(  2-C ,  4-H ) :   0.8366 B(  2-C ,  5-C ) :   0.8835 B(  2-C , 16-C ) :   0.1461
B(  2-C , 17-C ) :  -0.1006 B(  5-C , 13-F ) :   0.7319 B(  5-C , 14-O ) :   1.3690
B(  6-C ,  7-N ) :   0.8021 B(  6-C ,  8-C ) :   1.7698 B(  6-C ,  9-H ) :  -0.1207
B(  6-C , 10-H ) :  -0.1562 B(  7-N , 11-H ) :   0.9328 B(  7-N , 12-H ) :   0.6306
B(  8-C ,  9-H ) :   0.8676 B(  8-C , 10-H ) :   1.2219 B(  8-C , 22-C ) :   0.1079
B(  8-C , 26-H ) :  -0.1940 B( 15-C , 22-C ) :   0.2916 B( 15-C , 23-H ) :   1.0307
B( 15-C , 24-H ) :   0.9304 B( 15-C , 25-C ) :   0.3563 B( 15-C , 26-H ) :   0.1079
B( 15-C , 27-H ) :  -0.1133 B( 16-C , 17-C ) :   0.1809 B( 16-C , 19-H ) :  -0.1705
B( 16-C , 22-C ) :   0.1653 B( 16-C , 25-C ) :  -0.1428 B( 16-C , 28-C ) :   0.6110
B( 16-C , 31-H ) :   1.1300 B( 16-C , 32-H ) :   0.7879 B( 17-C , 18-H ) :   0.7332
B( 17-C , 19-H ) :   1.2352 B( 17-C , 25-C ) :   0.1304 B( 17-C , 28-C ) :   0.1960
B( 17-C , 31-H ) :  -0.1761 B( 22-C , 23-H ) :  -0.1274 B( 22-C , 25-C ) :   0.2498
B( 22-C , 26-H ) :   1.0801 B( 22-C , 27-H ) :   0.9567 B( 22-C , 28-C ) :   0.1127
B( 22-C , 29-H ) :  -0.1523 B( 25-C , 28-C ) :   0.5535 B( 25-C , 29-H ) :   1.0815
B( 25-C , 30-H ) :   0.8839 B( 26-H , 27-H ) :   0.1030 B( 28-C , 33-H ) :   0.9734
B( 28-C , 34-H ) :   0.9660

Dispersion correction           -0.002525604
FINAL SINGLE POINT ENERGY      -700.256165320365

DIPOLE MOMENT
-------------
                                X             Y             Z
Electronic contribution:      0.07219       6.25855      15.10660
Nuclear contribution   :     -1.39991      -5.60370     -16.00470
                        -----------------------------------------
Total Dipole Moment    :     -1.32772       0.65485      -0.89810
                        -----------------------------------------
Magnitude (a.u.)       :      1.73154
Magnitude (Debye)      :      4.40123

Rotational constants in cm-1:     0.021622     0.017313     0.011402
Rotational constants in MHz :   648.226014   519.043632   341.814105

                             ****ORCA TERMINATED NORMALLY****
TOTAL RUN TIME: 0 days 0 hours 9 minutes 38 seconds 502 msec
