                         Program Version 5.0.0 -  RELEASE  -
|  1> !M062X D3Zero RIJCOSX def2-TZVPD def2/J TightSCF xyzfile
|  2>
|  3> *xyzfile 0 1 D3.xyz
|  4>
|  5> %MaxCore 64000
|  6>
|  7> %pal nprocs 4
|  8> end
|  9>
| 10> %scf
| 11>   MaxIter 150
| 12> end
| 13>
| 14>
| 15>                          ****END OF INPUT****

CARTESIAN COORDINATES (ANGSTROEM)
---------------------------------
  C      4.602954   -2.440100    2.634780
  C     -0.914947    0.615112    2.505538
  C     -0.059146    1.503524    3.410578
  H      0.365364    2.344315    2.861161
  H     -0.692261    1.920207    4.198985
  C      1.083027    0.749640    4.085705
  C      3.860851   -1.591565    3.622893
  C      2.756502   -2.046159    4.166333
  N      4.254325   -0.362905    3.860455
  H      3.565256    0.310994    4.168983
  H      5.054292   -0.016059    3.337838
  H      2.439696   -2.973894    3.897395
  H      2.066869   -1.412532    4.549813
  O      2.228167    1.263475    4.019826
  F      0.810034   -0.345411    4.636269
  C      3.744685   -2.580557    1.361882
  C      0.772139    0.636882    0.562129
  C     -0.130740   -0.193985    1.470763
  H     -0.840563   -0.760165    0.856377
  H      0.466691   -0.938942    2.006959
  H     -1.647961    1.245963    1.991076
  H     -1.478180   -0.081046    3.130424
  C      3.203721   -1.256004    0.826211
  H      2.898939   -3.239289    1.583074
  H      4.334962   -3.095523    0.600188
  C      2.107815   -1.442385   -0.216865
  H      2.786775   -0.672760    1.650711
  H      4.021008   -0.652993    0.414046
  C      1.390662   -0.145912   -0.602422
  H      1.372179   -2.152184    0.176151
  H      2.523302   -1.906787   -1.117115
  H      1.561361    1.100094    1.161831
  H      0.195516    1.468325    0.142758
  H      0.602893   -0.398214   -1.319716
  H      2.087247    0.508272   -1.137335
  H      5.561557   -1.971347    2.407084
  H      4.810498   -3.422552    3.063099

 Total Charge           Charge          ....    0
 Multiplicity           Mult            ....    1
 Number of Electrons    NEL             ....  118
 Basis Dimension        Dim             ....  759

ORBITAL ENERGIES
----------------

  NO   OCC          E(Eh)            E(eV)
   0   2.0000     -25.330282      -689.2720
   1   2.0000     -19.657726      -534.9139
   2   2.0000     -14.711870      -400.3303
   3   2.0000     -10.742554      -292.3197
   4   2.0000     -10.574740      -287.7533
   5   2.0000     -10.556360      -287.2532
   6   2.0000     -10.540341      -286.8173
   7   2.0000     -10.537025      -286.7270
   8   2.0000     -10.533608      -286.6341
   9   2.0000     -10.529244      -286.5153
  10   2.0000     -10.523251      -286.3522
  11   2.0000     -10.522444      -286.3303
  12   2.0000     -10.521981      -286.3177
  13   2.0000     -10.517670      -286.2004
  14   2.0000     -10.441318      -284.1227
  15   2.0000      -1.484924       -40.4068
  16   2.0000      -1.184544       -32.2331
  17   2.0000      -1.017349       -27.6835
  18   2.0000      -0.936425       -25.4814
  19   2.0000      -0.906507       -24.6673
  20   2.0000      -0.878796       -23.9133
  21   2.0000      -0.842310       -22.9204
  22   2.0000      -0.808623       -22.0037
  23   2.0000      -0.791422       -21.5357
  24   2.0000      -0.765956       -20.8427
  25   2.0000      -0.737759       -20.0755
  26   2.0000      -0.701933       -19.1006
  27   2.0000      -0.674368       -18.3505
  28   2.0000      -0.665406       -18.1066
  29   2.0000      -0.661018       -17.9872
  30   2.0000      -0.639650       -17.4058
  31   2.0000      -0.623341       -16.9620
  32   2.0000      -0.601421       -16.3655
  33   2.0000      -0.568429       -15.4677
  34   2.0000      -0.556697       -15.1485
  35   2.0000      -0.550967       -14.9926
  36   2.0000      -0.541732       -14.7413
  37   2.0000      -0.519311       -14.1312
  38   2.0000      -0.516268       -14.0484
  39   2.0000      -0.502973       -13.6866
  40   2.0000      -0.491480       -13.3739
  41   2.0000      -0.480021       -13.0620
  42   2.0000      -0.475197       -12.9308
  43   2.0000      -0.459873       -12.5138
  44   2.0000      -0.452194       -12.3048
  45   2.0000      -0.441648       -12.0178
  46   2.0000      -0.436889       -11.8883
  47   2.0000      -0.429381       -11.6841
  48   2.0000      -0.416702       -11.3390
  49   2.0000      -0.407423       -11.0865
  50   2.0000      -0.404907       -11.0181
  51   2.0000      -0.396995       -10.8028
  52   2.0000      -0.385060       -10.4780
  53   2.0000      -0.379134       -10.3168
  54   2.0000      -0.373434       -10.1617
  55   2.0000      -0.370722       -10.0879
  56   2.0000      -0.361365        -9.8332
  57   2.0000      -0.355195        -9.6653
  58   2.0000      -0.224607        -6.1119
  59   0.0000      -0.007424        -0.2020
  60   0.0000       0.009130         0.2484
  61   0.0000       0.019353         0.5266
  62   0.0000       0.022340         0.6079
  63   0.0000       0.026724         0.7272

MULLIKEN ATOMIC CHARGES
-----------------------
   0 C :   -1.478366
   1 C :   -0.973418
   2 C :   -0.702353
   3 H :    0.289499
   4 H :    0.431027
   5 C :    0.812546
   6 C :    0.542803
   7 C :   -0.692725
   8 N :   -0.600057
   9 H :    0.500932
  10 H :    0.280007
  11 H :    0.317230
  12 H :    0.206142
  13 O :   -0.718108
  14 F :   -0.379028
  15 C :   -0.714970
  16 C :   -0.393965
  17 C :   -0.318887
  18 H :    0.500498
  19 H :    0.091122
  20 H :    0.417069
  21 H :    0.327964
  22 C :    0.366874
  23 H :    0.292194
  24 H :    0.399668
  25 C :   -0.675654
  26 H :   -0.180240
  27 H :    0.295714
  28 C :   -1.164799
  29 H :    0.275235
  30 H :    0.422923
  31 H :    0.223304
  32 H :    0.454195
  33 H :    0.387908
  34 H :    0.376087
  35 H :    0.412864
  36 H :    0.368764
Sum of atomic charges:    0.0000000

LOEWDIN ATOMIC CHARGES
----------------------
   0 C :   -0.143185
   1 C :   -0.198938
   2 C :   -0.092706
   3 H :    0.124408
   4 H :    0.129926
   5 C :   -0.430764
   6 C :   -0.500511
   7 C :    0.027697
   8 N :    0.113783
   9 H :    0.047198
  10 H :    0.113426
  11 H :    0.035884
  12 H :   -0.002731
  13 O :    0.073022
  14 F :    0.178139
  15 C :   -0.198711
  16 C :   -0.217395
  17 C :   -0.211744
  18 H :    0.125024
  19 H :    0.107354
  20 H :    0.119179
  21 H :    0.114699
  22 C :   -0.218530
  23 H :    0.110468
  24 H :    0.112505
  25 C :   -0.221992
  26 H :    0.085823
  27 H :    0.128355
  28 C :   -0.212217
  29 H :    0.109825
  30 H :    0.115906
  31 H :    0.106015
  32 H :    0.118674
  33 H :    0.110646
  34 H :    0.112725
  35 H :    0.110443
  36 H :    0.118298

  Mayer bond orders larger than 0.100000
B(  0-C ,  6-C ) :   0.5073 B(  0-C ,  7-C ) :   0.1558 B(  0-C , 15-C ) :   0.5918
B(  0-C , 22-C ) :   0.1305 B(  0-C , 35-H ) :   0.9737 B(  0-C , 36-H ) :   0.9929
B(  1-C ,  2-C ) :   0.6135 B(  1-C , 16-C ) :   0.1594 B(  1-C , 17-C ) :   0.4978
B(  1-C , 20-H ) :   0.9109 B(  1-C , 21-H ) :   1.0051 B(  2-C ,  3-H ) :   1.0658
B(  2-C ,  4-H ) :   0.8476 B(  2-C ,  5-C ) :   0.8688 B(  2-C , 16-C ) :   0.1533
B(  2-C , 17-C ) :  -0.1659 B(  5-C , 13-O ) :   1.4246 B(  5-C , 14-F ) :   0.7262
B(  6-C ,  7-C ) :   1.7615 B(  6-C ,  8-N ) :   0.8182 B(  6-C , 13-O ) :   0.1368
B(  6-C , 35-H ) :  -0.1445 B(  7-C , 11-H ) :   1.0897 B(  7-C , 12-H ) :   0.8887
B(  8-N ,  9-H ) :   0.7024 B(  8-N , 10-H ) :   0.8996 B(  8-N , 26-H ) :  -0.1091
B(  9-H , 13-O ) :  -0.1232 B( 15-C , 22-C ) :   0.3215 B( 15-C , 23-H ) :   1.0227
B( 15-C , 24-H ) :   0.9182 B( 15-C , 25-C ) :   0.3725 B( 15-C , 26-H ) :   0.1265
B( 15-C , 27-H ) :  -0.1038 B( 16-C , 17-C ) :   0.2361 B( 16-C , 19-H ) :  -0.1489
B( 16-C , 22-C ) :   0.1334 B( 16-C , 25-C ) :  -0.1432 B( 16-C , 28-C ) :   0.5920
B( 16-C , 31-H ) :   1.1268 B( 16-C , 32-H ) :   0.7739 B( 17-C , 18-H ) :   0.7423
B( 17-C , 19-H ) :   1.2090 B( 17-C , 25-C ) :   0.1294 B( 17-C , 28-C ) :   0.1988
B( 17-C , 31-H ) :  -0.1553 B( 22-C , 23-H ) :  -0.1191 B( 22-C , 25-C ) :   0.2122
B( 22-C , 26-H ) :   0.9901 B( 22-C , 27-H ) :   0.9790 B( 22-C , 28-C ) :   0.1215
B( 22-C , 29-H ) :  -0.1553 B( 25-C , 28-C ) :   0.5357 B( 25-C , 29-H ) :   1.0936
B( 25-C , 30-H ) :   0.8590 B( 28-C , 33-H ) :   0.9755 B( 28-C , 34-H ) :   0.9621

Dispersion correction           -0.002528124
FINAL SINGLE POINT ENERGY      -700.257817770113

DIPOLE MOMENT
-------------
                                X             Y             Z
Electronic contribution:     -1.23830       4.74011      15.94491
Nuclear contribution   :      0.05905      -3.94566     -16.70013
                        -----------------------------------------
Total Dipole Moment    :     -1.17925       0.79445      -0.75523
                        -----------------------------------------
Magnitude (a.u.)       :      1.61002
Magnitude (Debye)      :      4.09234

Rotational constants in cm-1:     0.021602     0.017295     0.011353
Rotational constants in MHz :   647.614981   518.478934   340.359556

                             ****ORCA TERMINATED NORMALLY****
TOTAL RUN TIME: 0 days 0 hours 10 minutes 25 seconds 233 msec
