                         Program Version 5.0.0 -  RELEASE  -
|  1> !M062X D3Zero RIJCOSX def2-TZVPD def2/J TightSCF xyzfile
|  2>
|  3> *xyzfile 0 1 D4.xyz
|  4>
|  5> %MaxCore 64000
|  6>
|  7> %pal nprocs 4
|  8> end
|  9>
| 10> %scf
| 11>   MaxIter 150
| 12> end
| 13>
| 14>
| 15>                          ****END OF INPUT****

CARTESIAN COORDINATES (ANGSTROEM)
---------------------------------
  C      4.602954   -2.440100    2.634780
  C     -0.914947    0.615112    2.505538
  C     -0.059146    1.503524    3.410578
  H      0.365364    2.344315    2.861161
  H     -0.692261    1.920207    4.198985
  C      1.083027    0.749640    4.085705
  C      3.860851   -1.591565    3.622893
  N      2.756502   -2.046159    4.166333
  C      4.254325   -0.362905    3.860455
  H      3.565256    0.310994    4.168983
  H      5.054292   -0.016059    3.337838
  H      2.439696   -2.973894    3.897395
  H      2.066869   -1.412532    4.549813
  O      2.228167    1.263475    4.019826
  F      0.810034   -0.345411    4.636269
  C      3.744685   -2.580557    1.361882
  C      0.772139    0.636882    0.562129
  C     -0.130740   -0.193985    1.470763
  H     -0.840563   -0.760165    0.856377
  H      0.466691   -0.938942    2.006959
  H     -1.647961    1.245963    1.991076
  H     -1.478180   -0.081046    3.130424
  C      3.203721   -1.256004    0.826211
  H      2.898939   -3.239289    1.583074
  H      4.334962   -3.095523    0.600188
  C      2.107815   -1.442385   -0.216865
  H      2.786775   -0.672760    1.650711
  H      4.021008   -0.652993    0.414046
  C      1.390662   -0.145912   -0.602422
  H      1.372179   -2.152184    0.176151
  H      2.523302   -1.906787   -1.117115
  H      1.561361    1.100094    1.161831
  H      0.195516    1.468325    0.142758
  H      0.602893   -0.398214   -1.319716
  H      2.087247    0.508272   -1.137335
  H      5.561557   -1.971347    2.407084
  H      4.810498   -3.422552    3.063099

 Total Charge           Charge          ....    0
 Multiplicity           Mult            ....    1
 Number of Electrons    NEL             ....  118
 Basis Dimension        Dim             ....  759

ORBITAL ENERGIES
----------------

  NO   OCC          E(Eh)            E(eV)
   0   2.0000     -25.342568      -689.6063
   1   2.0000     -19.649321      -534.6852
   2   2.0000     -14.727110      -400.7450
   3   2.0000     -10.737829      -292.1912
   4   2.0000     -10.574121      -287.7365
   5   2.0000     -10.557388      -287.2811
   6   2.0000     -10.543040      -286.8907
   7   2.0000     -10.533712      -286.6369
   8   2.0000     -10.532238      -286.5968
   9   2.0000     -10.529210      -286.5144
  10   2.0000     -10.524459      -286.3851
  11   2.0000     -10.523373      -286.3555
  12   2.0000     -10.520224      -286.2699
  13   2.0000     -10.516083      -286.1572
  14   2.0000     -10.431284      -283.8497
  15   2.0000      -1.496117       -40.7114
  16   2.0000      -1.177127       -32.0312
  17   2.0000      -1.025494       -27.9051
  18   2.0000      -0.937209       -25.5027
  19   2.0000      -0.906357       -24.6632
  20   2.0000      -0.879315       -23.9274
  21   2.0000      -0.840860       -22.8810
  22   2.0000      -0.815062       -22.1790
  23   2.0000      -0.789978       -21.4964
  24   2.0000      -0.773976       -21.0609
  25   2.0000      -0.735960       -20.0265
  26   2.0000      -0.702973       -19.1289
  27   2.0000      -0.680216       -18.5096
  28   2.0000      -0.672030       -18.2869
  29   2.0000      -0.664894       -18.0927
  30   2.0000      -0.636246       -17.3131
  31   2.0000      -0.624952       -17.0058
  32   2.0000      -0.602237       -16.3877
  33   2.0000      -0.577376       -15.7112
  34   2.0000      -0.559299       -15.2193
  35   2.0000      -0.554647       -15.0927
  36   2.0000      -0.532631       -14.4936
  37   2.0000      -0.518748       -14.1159
  38   2.0000      -0.512771       -13.9532
  39   2.0000      -0.505742       -13.7620
  40   2.0000      -0.490444       -13.3457
  41   2.0000      -0.484301       -13.1785
  42   2.0000      -0.476226       -12.9588
  43   2.0000      -0.458104       -12.4656
  44   2.0000      -0.449374       -12.2281
  45   2.0000      -0.440831       -11.9956
  46   2.0000      -0.437968       -11.9177
  47   2.0000      -0.427829       -11.6418
  48   2.0000      -0.419215       -11.4074
  49   2.0000      -0.411243       -11.1905
  50   2.0000      -0.407468       -11.0878
  51   2.0000      -0.393632       -10.7113
  52   2.0000      -0.384997       -10.4763
  53   2.0000      -0.382938       -10.4203
  54   2.0000      -0.371668       -10.1136
  55   2.0000      -0.369235       -10.0474
  56   2.0000      -0.360143        -9.8000
  57   2.0000      -0.338194        -9.2027
  58   2.0000      -0.224437        -6.1073
  59   0.0000      -0.006091        -0.1657
  60   0.0000       0.006527         0.1776
  61   0.0000       0.016289         0.4433
  62   0.0000       0.021505         0.5852
  63   0.0000       0.026272         0.7149

MULLIKEN ATOMIC CHARGES
-----------------------
   0 C :   -1.395108
   1 C :   -0.960443
   2 C :   -0.703201
   3 H :    0.285348
   4 H :    0.430807
   5 C :    0.765904
   6 C :    0.574279
   7 N :   -0.599757
   8 C :   -0.677010
   9 H :    0.286259
  10 H :    0.198468
  11 H :    0.270670
  12 H :    0.498101
  13 O :   -0.652240
  14 F :   -0.403928
  15 C :   -0.668673
  16 C :   -0.433832
  17 C :   -0.332973
  18 H :    0.498772
  19 H :    0.112301
  20 H :    0.420090
  21 H :    0.326714
  22 C :    0.430378
  23 H :    0.261904
  24 H :    0.386837
  25 C :   -0.704586
  26 H :   -0.230471
  27 H :    0.250252
  28 C :   -1.134117
  29 H :    0.282683
  30 H :    0.399816
  31 H :    0.240304
  32 H :    0.456027
  33 H :    0.391440
  34 H :    0.374531
  35 H :    0.369206
  36 H :    0.385247
Sum of atomic charges:   -0.0000000

LOEWDIN ATOMIC CHARGES
----------------------
   0 C :   -0.147621
   1 C :   -0.201358
   2 C :   -0.093863
   3 H :    0.125320
   4 H :    0.129140
   5 C :   -0.435649
   6 C :   -0.507166
   7 N :    0.124040
   8 C :    0.026720
   9 H :   -0.020988
  10 H :    0.036384
  11 H :    0.114700
  12 H :    0.071677
  13 O :    0.074284
  14 F :    0.182712
  15 C :   -0.199872
  16 C :   -0.216112
  17 C :   -0.213943
  18 H :    0.124588
  19 H :    0.104781
  20 H :    0.119204
  21 H :    0.113313
  22 C :   -0.214863
  23 H :    0.104398
  24 H :    0.113629
  25 C :   -0.224592
  26 H :    0.087021
  27 H :    0.132837
  28 C :   -0.211702
  29 H :    0.107678
  30 H :    0.115398
  31 H :    0.107871
  32 H :    0.119103
  33 H :    0.110414
  34 H :    0.113470
  35 H :    0.116045
  36 H :    0.113000

  Mayer bond orders larger than 0.100000
B(  0-C ,  6-C ) :   0.4965 B(  0-C ,  8-C ) :   0.2550 B(  0-C , 15-C ) :   0.5619
B(  0-C , 35-H ) :   0.9287 B(  0-C , 36-H ) :   1.0513 B(  1-C ,  2-C ) :   0.6066
B(  1-C , 16-C ) :   0.1651 B(  1-C , 17-C ) :   0.4934 B(  1-C , 20-H ) :   0.9087
B(  1-C , 21-H ) :   1.0072 B(  2-C ,  3-H ) :   1.0612 B(  2-C ,  4-H ) :   0.8501
B(  2-C ,  5-C ) :   0.9013 B(  2-C , 16-C ) :   0.1581 B(  2-C , 17-C ) :  -0.1756
B(  5-C , 13-O ) :   1.5299 B(  5-C , 14-F ) :   0.6140 B(  6-C ,  7-N ) :   0.8413
B(  6-C ,  8-C ) :   1.7283 B(  6-C ,  9-H ) :  -0.1431 B(  6-C , 10-H ) :  -0.1660
B(  7-N , 11-H ) :   0.9374 B(  7-N , 12-H ) :   0.6071 B(  8-C ,  9-H ) :   0.9012
B(  8-C , 10-H ) :   1.2788 B(  8-C , 26-H ) :  -0.1576 B(  9-H , 13-O ) :  -0.2367
B( 15-C , 22-C ) :   0.2774 B( 15-C , 23-H ) :   1.0386 B( 15-C , 24-H ) :   0.9302
B( 15-C , 25-C ) :   0.3547 B( 15-C , 26-H ) :   0.1090 B( 15-C , 27-H ) :  -0.1137
B( 16-C , 17-C ) :   0.2388 B( 16-C , 19-H ) :  -0.1382 B( 16-C , 22-C ) :   0.1433
B( 16-C , 25-C ) :  -0.1350 B( 16-C , 28-C ) :   0.5950 B( 16-C , 31-H ) :   1.1293
B( 16-C , 32-H ) :   0.7728 B( 17-C , 18-H ) :   0.7495 B( 17-C , 19-H ) :   1.2049
B( 17-C , 25-C ) :   0.1341 B( 17-C , 28-C ) :   0.1938 B( 17-C , 31-H ) :  -0.1592
B( 22-C , 23-H ) :  -0.1327 B( 22-C , 25-C ) :   0.2381 B( 22-C , 26-H ) :   1.0117
B( 22-C , 27-H ) :   0.9714 B( 22-C , 28-C ) :   0.1125 B( 22-C , 29-H ) :  -0.1534
B( 25-C , 28-C ) :   0.5536 B( 25-C , 29-H ) :   1.0870 B( 25-C , 30-H ) :   0.8848
B( 28-C , 33-H ) :   0.9745 B( 28-C , 34-H ) :   0.9646

Dispersion correction           -0.002528702
FINAL SINGLE POINT ENERGY      -700.245000420017

DIPOLE MOMENT
-------------
                                X             Y             Z
Electronic contribution:     -2.26038       3.60155      16.18251
Nuclear contribution   :      0.32481      -3.64700     -16.75441
                        -----------------------------------------
Total Dipole Moment    :     -1.93558      -0.04545      -0.57189
                        -----------------------------------------
Magnitude (a.u.)       :      2.01881
Magnitude (Debye)      :      5.13141

Rotational constants in cm-1:     0.021629     0.017327     0.011372
Rotational constants in MHz :   648.414821   519.443407   340.925013

                             ****ORCA TERMINATED NORMALLY****
TOTAL RUN TIME: 0 days 0 hours 9 minutes 32 seconds 459 msec
