                         Program Version 5.0.0 -  RELEASE  -
|  1> !TPSS D3BJ RIJCOSX def2-SVPD def2/J TightSCF
|  2> *xyz -1 1
|  3> C         -0.47749        0.60819       -4.10105
|  4> C          0.18467       -0.50664       -4.91676
|  5> O         -0.15869       -1.70109       -4.65798
|  6> O          1.05594       -0.17441       -5.74037
|  7> H         -0.09903        1.55672       -4.42038
|  8> H         -0.25931        0.46828       -3.06292
|  9> H         -1.53664        0.57826       -4.25010
| 10> *
| 11>
| 12> %MaxCore 64000
| 13>
| 14> %pal nprocs 4
| 15> end
| 16>
| 17> %scf
| 18>   MaxIter 150
| 19> end
| 20>
| 21>
| 22>                          ****END OF INPUT****

CARTESIAN COORDINATES (ANGSTROEM)
---------------------------------
  C     -0.477490    0.608190   -4.101050
  C      0.184670   -0.506640   -4.916760
  O     -0.158690   -1.701090   -4.657980
  O      1.055940   -0.174410   -5.740370
  H     -0.099030    1.556720   -4.420380
  H     -0.259310    0.468280   -3.062920
  H     -1.536640    0.578260   -4.250100

 Total Charge           Charge          ....   -1
 Multiplicity           Mult            ....    1
 Number of Electrons    NEL             ....   32
 Basis Dimension        Dim             ....  110

ORBITAL ENERGIES
----------------

  NO   OCC          E(Eh)            E(eV)
   0   2.0000     -18.636826      -507.1338
   1   2.0000     -18.631932      -507.0007
   2   2.0000      -9.874639      -268.7026
   3   2.0000      -9.813652      -267.0431
   4   2.0000      -0.736596       -20.0438
   5   2.0000      -0.645805       -17.5733
   6   2.0000      -0.481876       -13.1125
   7   2.0000      -0.251736        -6.8501
   8   2.0000      -0.217773        -5.9259
   9   2.0000      -0.203169        -5.5285
  10   2.0000      -0.173250        -4.7144
  11   2.0000      -0.135769        -3.6945
  12   2.0000      -0.123775        -3.3681
  13   2.0000      -0.009453        -0.2572
  14   2.0000       0.001856         0.0505
  15   2.0000       0.019916         0.5419
  16   0.0000       0.163382         4.4459
  17   0.0000       0.204177         5.5559
  18   0.0000       0.205440         5.5903
  19   0.0000       0.231117         6.2890
  20   0.0000       0.248634         6.7657

MULLIKEN ATOMIC CHARGES
-----------------------
   0 C :    0.406722
   1 C :    0.048018
   2 O :   -0.696474
   3 O :   -0.626820
   4 H :   -0.057894
   5 H :   -0.037212
   6 H :   -0.036341
Sum of atomic charges:   -1.0000000

LOEWDIN ATOMIC CHARGES
----------------------
   0 C :    0.148914
   1 C :   -0.331707
   2 O :   -0.349952
   3 O :   -0.327843
   4 H :   -0.051344
   5 H :   -0.043091
   6 H :   -0.044976

  Mayer bond orders larger than 0.100000
B(  0-C ,  1-C ) :   1.2451 B(  0-C ,  4-H ) :   0.8909 B(  0-C ,  5-H ) :   0.8436
B(  0-C ,  6-H ) :   0.8368 B(  1-C ,  2-O ) :   1.4473 B(  1-C ,  3-O ) :   1.4734
B(  1-C ,  4-H ) :   0.2376 B(  1-C ,  5-H ) :   0.1599 B(  1-C ,  6-H ) :   0.1670

Dispersion correction           -0.004505653
FINAL SINGLE POINT ENERGY      -228.405239885556

DIPOLE MOMENT
-------------
                                X             Y             Z
Electronic contribution:      1.63356      -2.63732      -1.97489
Nuclear contribution   :     -2.19461       3.67480       2.63888
                        -----------------------------------------
Total Dipole Moment    :     -0.56105       1.03748       0.66400
                        -----------------------------------------
Magnitude (a.u.)       :      1.35353
Magnitude (Debye)      :      3.44039

Rotational constants in cm-1:     0.393152     0.332423     0.186264
Rotational constants in MHz : 11786.395082  9965.786704  5584.045355

                             ****ORCA TERMINATED NORMALLY****
TOTAL RUN TIME: 0 days 0 hours 0 minutes 4 seconds 867 msec
