                         Program Version 5.0.0 -  RELEASE  -
|  1> !TPSS D3BJ RIJCOSX def2-SVPD def2/J TightSCF
|  2> *xyz 1 1
|  3> C          2.48645       -2.67712       -2.56345
|  4> C          3.03764       -2.36672       -3.92351
|  5> N          2.28036       -2.45441       -4.96769
|  6> N          4.32174       -2.01793       -4.01664
|  7> H          4.87994       -1.91167       -3.17382
|  8> H          4.71015       -1.67088       -4.88356
|  9> H          1.27042       -2.41265       -4.86614
| 10> H          2.58183       -2.05528       -5.84688
| 11> H          1.45238       -2.93848       -2.64882
| 12> H          2.58636       -1.81799       -1.93352
| 13> H          3.02742       -3.49632       -2.13781
| 14> *
| 15>
| 16> %MaxCore 64000
| 17>
| 18> %pal nprocs 4
| 19> end
| 20>
| 21> %scf
| 22>   MaxIter 150
| 23> end
| 24>
| 25>
| 26>                          ****END OF INPUT****

CARTESIAN COORDINATES (ANGSTROEM)
---------------------------------
  C      2.486450   -2.677120   -2.563450
  C      3.037640   -2.366720   -3.923510
  N      2.280360   -2.454410   -4.967690
  N      4.321740   -2.017930   -4.016640
  H      4.879940   -1.911670   -3.173820
  H      4.710150   -1.670880   -4.883560
  H      1.270420   -2.412650   -4.866140
  H      2.581830   -2.055280   -5.846880
  H      1.452380   -2.938480   -2.648820
  H      2.586360   -1.817990   -1.933520
  H      3.027420   -3.496320   -2.137810

 Total Charge           Charge          ....    1
 Multiplicity           Mult            ....    1
 Number of Electrons    NEL             ....   32
 Basis Dimension        Dim             ....  136

ORBITAL ENERGIES
----------------

  NO   OCC          E(Eh)            E(eV)
   0   2.0000     -14.374046      -391.1377
   1   2.0000     -14.369221      -391.0064
   2   2.0000     -10.324953      -280.9563
   3   2.0000     -10.202056      -277.6121
   4   2.0000      -1.140478       -31.0340
   5   2.0000      -1.049551       -28.5597
   6   2.0000      -0.896164       -24.3859
   7   2.0000      -0.797005       -21.6876
   8   2.0000      -0.736414       -20.0388
   9   2.0000      -0.723238       -19.6803
  10   2.0000      -0.665986       -18.1224
  11   2.0000      -0.619830       -16.8664
  12   2.0000      -0.577482       -15.7141
  13   2.0000      -0.564695       -15.3661
  14   2.0000      -0.542247       -14.7553
  15   2.0000      -0.467421       -12.7192
  16   0.0000      -0.250385        -6.8133
  17   0.0000      -0.176420        -4.8006
  18   0.0000      -0.134885        -3.6704
  19   0.0000      -0.131339        -3.5739
  20   0.0000      -0.108444        -2.9509

MULLIKEN ATOMIC CHARGES
-----------------------
   0 C :    0.556744
   1 C :    0.344528
   2 N :    0.091323
   3 N :    0.049453
   4 H :    0.015531
   5 H :   -0.114092
   6 H :    0.022313
   7 H :   -0.078805
   8 H :    0.045868
   9 H :    0.030288
  10 H :    0.036851
Sum of atomic charges:    1.0000000

LOEWDIN ATOMIC CHARGES
----------------------
   0 C :    0.245400
   1 C :   -0.067225
   2 N :    0.282699
   3 N :    0.282811
   4 H :    0.057216
   5 H :    0.044392
   6 H :    0.060707
   7 H :    0.051194
   8 H :    0.003878
   9 H :    0.018672
  10 H :    0.020255

  Mayer bond orders larger than 0.100000
B(  0-C ,  1-C ) :   1.2862 B(  0-C ,  8-H ) :   0.7834 B(  0-C ,  9-H ) :   0.7971
B(  0-C , 10-H ) :   0.7487 B(  1-C ,  2-N ) :   1.0989 B(  1-C ,  3-N ) :   1.0888
B(  1-C ,  5-H ) :  -0.1544 B(  1-C ,  7-H ) :  -0.1410 B(  1-C ,  8-H ) :   0.2399
B(  1-C ,  9-H ) :   0.1563 B(  1-C , 10-H ) :   0.1833 B(  2-N ,  3-N ) :   0.1749
B(  2-N ,  6-H ) :   1.0632 B(  2-N ,  7-H ) :   1.2091 B(  3-N ,  4-H ) :   1.1236
B(  3-N ,  5-H ) :   1.2481 B(  4-H ,  5-H ) :  -0.1499 B(  6-H ,  7-H ) :  -0.1192
B(  9-H , 10-H ) :   0.1022

Dispersion correction           -0.008441804
FINAL SINGLE POINT ENERGY      -189.624316773882

DIPOLE MOMENT
-------------
                                X             Y             Z
Electronic contribution:      0.80953       0.24773      -1.99158
Nuclear contribution   :     -0.70516       0.22720       1.57908
                        -----------------------------------------
Total Dipole Moment    :      0.10438       0.47494      -0.41250
                        -----------------------------------------
Magnitude (a.u.)       :      0.63767
Magnitude (Debye)      :      1.62083

Rotational constants in cm-1:     0.330529     0.301293     0.162717
Rotational constants in MHz :  9909.000224  9032.538169  4878.126278

                             ****ORCA TERMINATED NORMALLY****
TOTAL RUN TIME: 0 days 0 hours 0 minutes 6 seconds 32 msec
