                         Program Version 5.0.0 -  RELEASE  -
|  1> !TPSS D3BJ RIJCOSX def2-SVPD def2/J TightSCF xyzfile
|  2>
|  3> *xyzfile 0 1 B.xyz
|  4>
|  5> %MaxCore 64000
|  6>
|  7> %pal nprocs 4
|  8> end
|  9>
| 10> %scf
| 11>   MaxIter 150
| 12> end
| 13>
| 14>
| 15>                          ****END OF INPUT****

CARTESIAN COORDINATES (ANGSTROEM)
---------------------------------
  C      2.486452   -2.677121   -2.563447
  C     -0.870963    0.248043   -2.662804
  C     -0.477492    0.608191   -4.101052
  H      0.206773    1.458299   -4.118748
  H     -1.368442    0.929419   -4.647855
  C      0.184673   -0.506640   -4.916760
  C      3.037640   -2.366715   -3.923509
  N      2.280360   -2.454408   -4.967692
  N      4.321736   -2.017932   -4.016641
  H      4.879940   -1.911668   -3.173823
  H      4.710148   -1.670882   -4.883561
  H      1.270423   -2.412650   -4.866143
  H      2.581829   -2.055282   -5.846878
  O     -0.158685   -1.701088   -4.657981
  O      1.055938   -0.174410   -5.740373
  C      2.497991   -1.469464   -1.610303
  C      1.582841   -0.321986   -2.042619
  H      2.193083   -1.833912   -0.625420
  H      3.523356   -1.103982   -1.490392
  C      0.100160   -0.673551   -1.915815
  H      1.822311   -0.040361   -3.072834
  H      1.813180    0.557019   -1.433266
  H     -0.063284   -1.679120   -2.301112
  H     -0.168820   -0.691680   -0.853831
  H     -1.001048    1.181040   -2.104071
  H     -1.844645   -0.246592   -2.663281
  H      1.472592   -3.051527   -2.694366
  H      3.083201   -3.490638   -2.141472

 Total Charge           Charge          ....    0
 Multiplicity           Mult            ....    1
 Number of Electrons    NEL             ....   94
 Basis Dimension        Dim             ....  374

ORBITAL ENERGIES
----------------

  NO   OCC          E(Eh)            E(eV)
   0   2.0000     -18.816833      -512.0321
   1   2.0000     -18.810527      -511.8605
   2   2.0000     -14.200729      -386.4215
   3   2.0000     -14.163488      -385.4081
   4   2.0000     -10.137175      -275.8466
   5   2.0000     -10.045509      -273.3522
   6   2.0000     -10.044839      -273.3340
   7   2.0000     -10.027664      -272.8666
   8   2.0000      -9.998358      -272.0692
   9   2.0000      -9.980656      -271.5875
  10   2.0000      -9.975952      -271.4594
  11   2.0000      -9.964240      -271.1408
  12   2.0000      -0.957052       -26.0427
  13   2.0000      -0.920646       -25.0520
  14   2.0000      -0.864298       -23.5187
  15   2.0000      -0.829200       -22.5637
  16   2.0000      -0.766110       -20.8469
  17   2.0000      -0.714480       -19.4420
  18   2.0000      -0.673077       -18.3154
  19   2.0000      -0.622469       -16.9382
  20   2.0000      -0.605034       -16.4638
  21   2.0000      -0.564588       -15.3632
  22   2.0000      -0.560523       -15.2526
  23   2.0000      -0.530896       -14.4464
  24   2.0000      -0.507315       -13.8047
  25   2.0000      -0.479276       -13.0418
  26   2.0000      -0.455676       -12.3996
  27   2.0000      -0.437323       -11.9002
  28   2.0000      -0.414765       -11.2863
  29   2.0000      -0.408488       -11.1155
  30   2.0000      -0.399692       -10.8762
  31   2.0000      -0.382465       -10.4074
  32   2.0000      -0.372300       -10.1308
  33   2.0000      -0.368196       -10.0191
  34   2.0000      -0.347496        -9.4558
  35   2.0000      -0.340250        -9.2587
  36   2.0000      -0.326865        -8.8944
  37   2.0000      -0.319817        -8.7027
  38   2.0000      -0.314367        -8.5544
  39   2.0000      -0.298401        -8.1199
  40   2.0000      -0.286663        -7.8005
  41   2.0000      -0.279809        -7.6140
  42   2.0000      -0.270801        -7.3689
  43   2.0000      -0.262975        -7.1559
  44   2.0000      -0.191813        -5.2195
  45   2.0000      -0.175303        -4.7702
  46   2.0000      -0.160788        -4.3753
  47   0.0000      -0.071781        -1.9533
  48   0.0000      -0.030817        -0.8386
  49   0.0000       0.005379         0.1464
  50   0.0000       0.020246         0.5509
  51   0.0000       0.026287         0.7153

MULLIKEN ATOMIC CHARGES
-----------------------
   0 C :    0.203132
   1 C :    0.441056
   2 C :    0.214841
   3 H :    0.224933
   4 H :   -0.267842
   5 C :    0.254553
   6 C :    0.672836
   7 N :    0.302457
   8 N :    0.003551
   9 H :   -0.015946
  10 H :   -0.144647
  11 H :   -0.212598
  12 H :   -0.029471
  13 O :   -0.825148
  14 O :   -0.624969
  15 C :    0.230108
  16 C :    0.122378
  17 H :   -0.040034
  18 H :   -0.067078
  19 C :   -0.039163
  20 H :   -0.102478
  21 H :   -0.156510
  22 H :    0.052769
  23 H :   -0.169645
  24 H :   -0.116147
  25 H :    0.076203
  26 H :    0.078145
  27 H :   -0.065285
Sum of atomic charges:    0.0000000

LOEWDIN ATOMIC CHARGES
----------------------
   0 C :    0.063334
   1 C :   -0.010881
   2 C :    0.037843
   3 H :    0.012621
   4 H :    0.022934
   5 C :   -0.240366
   6 C :   -0.052355
   7 N :    0.309678
   8 N :    0.254464
   9 H :    0.022448
  10 H :    0.026570
  11 H :   -0.096166
  12 H :    0.029309
  13 O :   -0.243942
  14 O :   -0.250675
  15 C :   -0.006834
  16 C :   -0.001633
  17 H :    0.025689
  18 H :    0.005281
  19 C :   -0.020488
  20 H :    0.006691
  21 H :    0.023240
  22 H :   -0.014354
  23 H :    0.016787
  24 H :    0.010818
  25 H :    0.018596
  26 H :    0.020200
  27 H :    0.031191

  Mayer bond orders larger than 0.100000
B(  0-C ,  6-C ) :   1.0652 B(  0-C ,  7-N ) :   0.1148 B(  0-C , 15-C ) :   1.1711
B(  0-C , 17-H ) :   0.1398 B(  0-C , 18-H ) :   0.1455 B(  0-C , 26-H ) :   0.7659
B(  0-C , 27-H ) :   0.7578 B(  1-C ,  2-C ) :   1.1657 B(  1-C ,  4-H ) :   0.1179
B(  1-C , 19-C ) :   1.3030 B(  1-C , 23-H ) :   0.1032 B(  1-C , 24-H ) :   0.7953
B(  1-C , 25-H ) :   0.6765 B(  2-C ,  3-H ) :   0.7468 B(  2-C ,  4-H ) :   0.7855
B(  2-C ,  5-C ) :   1.1759 B(  2-C , 19-C ) :   0.1250 B(  2-C , 24-H ) :   0.1443
B(  3-H ,  5-C ) :   0.2657 B(  4-H ,  5-C ) :   0.2610 B(  5-C , 13-O ) :   1.2035
B(  5-C , 14-O ) :   1.4703 B(  6-C ,  7-N ) :   1.1399 B(  6-C ,  8-N ) :   0.9251
B(  6-C , 10-H ) :  -0.1151 B(  6-C , 12-H ) :  -0.1589 B(  6-C , 26-H ) :   0.1648
B(  6-C , 27-H ) :   0.1363 B(  7-N ,  8-N ) :   0.2446 B(  7-N , 11-H ) :   0.9759
B(  7-N , 12-H ) :   1.1093 B(  8-N ,  9-H ) :   1.1619 B(  8-N , 10-H ) :   1.2801
B(  9-H , 10-H ) :  -0.1726 B( 11-H , 12-H ) :  -0.1306 B( 11-H , 13-O ) :   0.2587
B( 13-O , 14-O ) :   0.1065 B( 15-C , 16-C ) :   1.2077 B( 15-C , 17-H ) :   0.8789
B( 15-C , 18-H ) :   0.7103 B( 15-C , 20-H ) :   0.1655 B( 15-C , 26-H ) :   0.1450
B( 15-C , 27-H ) :   0.1323 B( 16-C , 17-H ) :   0.1121 B( 16-C , 18-H ) :   0.2029
B( 16-C , 19-C ) :   1.1863 B( 16-C , 20-H ) :   0.8503 B( 16-C , 21-H ) :   0.8784
B( 16-C , 22-H ) :   0.1181 B( 16-C , 23-H ) :   0.2230 B( 19-C , 20-H ) :   0.1315
B( 19-C , 21-H ) :   0.1106 B( 19-C , 22-H ) :   0.8470 B( 19-C , 23-H ) :   0.8282
B( 19-C , 24-H ) :   0.1968 B( 19-C , 25-H ) :   0.1978 B( 22-H , 26-H ) :   0.1174

Dispersion correction           -0.039200221
FINAL SINGLE POINT ENERGY      -574.203921524291

DIPOLE MOMENT
-------------
                                X             Y             Z
Electronic contribution:      1.65314      -2.89907      -8.86917
Nuclear contribution   :      1.39386       1.90489      10.36520
                        -----------------------------------------
Total Dipole Moment    :      3.04700      -0.99418       1.49603
                        -----------------------------------------
Magnitude (a.u.)       :      3.53705
Magnitude (Debye)      :      8.99047

Rotational constants in cm-1:     0.041165     0.025922     0.019001
Rotational constants in MHz :  1234.086888   777.109255   569.639629

                             ****ORCA TERMINATED NORMALLY****
TOTAL RUN TIME: 0 days 0 hours 1 minutes 3 seconds 857 msec
