                         Program Version 5.0.0 -  RELEASE  -
|  1> !TPSS D3BJ RIJCOSX def2-SVPD def2/J TightSCF
|  2> *xyz 0 1
|  3> C         -0.47749        0.60819       -4.10105
|  4> C          0.18467       -0.50664       -4.91676
|  5> F         -0.15869       -1.70109       -4.65798
|  6> O          1.05594       -0.17441       -5.74037
|  7> H         -0.09903        1.55672       -4.42038
|  8> H         -0.25931        0.46828       -3.06292
|  9> H         -1.53664        0.57826       -4.25010
| 10> *
| 11>
| 12> %MaxCore 64000
| 13>
| 14> %pal nprocs 4
| 15> end
| 16>
| 17> %scf
| 18>   MaxIter 150
| 19> end
| 20>
| 21>
| 22>                          ****END OF INPUT****

CARTESIAN COORDINATES (ANGSTROEM)
---------------------------------
  C     -0.477490    0.608190   -4.101050
  C      0.184670   -0.506640   -4.916760
  F     -0.158690   -1.701090   -4.657980
  O      1.055940   -0.174410   -5.740370
  H     -0.099030    1.556720   -4.420380
  H     -0.259310    0.468280   -3.062920
  H     -1.536640    0.578260   -4.250100

 Total Charge           Charge          ....    0
 Multiplicity           Mult            ....    1
 Number of Electrons    NEL             ....   32
 Basis Dimension        Dim             ....  110

ORBITAL ENERGIES
----------------

  NO   OCC          E(Eh)            E(eV)
   0   2.0000     -24.494845      -666.5386
   1   2.0000     -18.910751      -514.5877
   2   2.0000     -10.175580      -276.8916
   3   2.0000     -10.030709      -272.9495
   4   2.0000      -1.218601       -33.1598
   5   2.0000      -0.964036       -26.2328
   6   2.0000      -0.711153       -19.3515
   7   2.0000      -0.596752       -16.2384
   8   2.0000      -0.492413       -13.3992
   9   2.0000      -0.488811       -13.3012
  10   2.0000      -0.452142       -12.3034
  11   2.0000      -0.405637       -11.0380
  12   2.0000      -0.395525       -10.7628
  13   2.0000      -0.357750        -9.7349
  14   2.0000      -0.325161        -8.8481
  15   2.0000      -0.253826        -6.9070
  16   0.0000      -0.064002        -1.7416
  17   0.0000       0.001725         0.0469
  18   0.0000       0.048663         1.3242
  19   0.0000       0.073137         1.9902
  20   0.0000       0.080471         2.1897

MULLIKEN ATOMIC CHARGES
-----------------------
   0 C :    0.367846
   1 C :    0.450676
   2 F :   -0.379006
   3 O :   -0.469076
   4 H :   -0.034135
   5 H :    0.033163
   6 H :    0.030531
Sum of atomic charges:   -0.0000000

LOEWDIN ATOMIC CHARGES
----------------------
   0 C :    0.223918
   1 C :   -0.035532
   2 F :   -0.041607
   3 O :   -0.127668
   4 H :   -0.005582
   5 H :   -0.005694
   6 H :   -0.007835

  Mayer bond orders larger than 0.100000
B(  0-C ,  1-C ) :   1.2368 B(  0-C ,  4-H ) :   0.9003 B(  0-C ,  5-H ) :   0.8220
B(  0-C ,  6-H ) :   0.8188 B(  1-C ,  2-F ) :   0.7338 B(  1-C ,  3-O ) :   1.7921
B(  1-C ,  4-H ) :   0.1985 B(  1-C ,  5-H ) :   0.1205 B(  1-C ,  6-H ) :   0.1248

Dispersion correction           -0.004152647
FINAL SINGLE POINT ENERGY      -252.945096717637

DIPOLE MOMENT
-------------
                                X             Y             Z
Electronic contribution:      1.11513      -4.68468      -1.64767
Nuclear contribution   :     -1.87439       4.97468       2.43802
                        -----------------------------------------
Total Dipole Moment    :     -0.75926       0.29000       0.79035
                        -----------------------------------------
Magnitude (a.u.)       :      1.13367
Magnitude (Debye)      :      2.88157

Rotational constants in cm-1:     0.370842     0.317886     0.176700
Rotational constants in MHz : 11117.569466  9529.969862  5297.328364

                             ****ORCA TERMINATED NORMALLY****
TOTAL RUN TIME: 0 days 0 hours 0 minutes 4 seconds 755 msec
