                         Program Version 5.0.0 -  RELEASE  -
|  1> !TPSS D3BJ RIJCOSX def2-SVPD def2/J TightSCF
|  2> *xyz 0 1
|  3> C          2.48645       -2.67712       -2.56345
|  4> C          3.03764       -2.36672       -3.92351
|  5> C          2.28036       -2.45441       -4.96769
|  6> N          4.32174       -2.01793       -4.01664
|  7> H          4.87994       -1.91167       -3.17382
|  8> H          4.71015       -1.67088       -4.88356
|  9> H          1.27042       -2.41265       -4.86614
| 10> H          2.58183       -2.05528       -5.84688
| 11> H          1.45238       -2.93848       -2.64882
| 12> H          2.58636       -1.81799       -1.93352
| 13> H          3.02742       -3.49632       -2.13781
| 14> *
| 15>
| 16> %MaxCore 64000
| 17>
| 18> %pal nprocs 4
| 19> end
| 20>
| 21> %scf
| 22>   MaxIter 150
| 23> end
| 24>
| 25>
| 26>                          ****END OF INPUT****

CARTESIAN COORDINATES (ANGSTROEM)
---------------------------------
  C      2.486450   -2.677120   -2.563450
  C      3.037640   -2.366720   -3.923510
  C      2.280360   -2.454410   -4.967690
  N      4.321740   -2.017930   -4.016640
  H      4.879940   -1.911670   -3.173820
  H      4.710150   -1.670880   -4.883560
  H      1.270420   -2.412650   -4.866140
  H      2.581830   -2.055280   -5.846880
  H      1.452380   -2.938480   -2.648820
  H      2.586360   -1.817990   -1.933520
  H      3.027420   -3.496320   -2.137810

 Total Charge           Charge          ....    0
 Multiplicity           Mult            ....    1
 Number of Electrons    NEL             ....   32
 Basis Dimension        Dim             ....  136

ORBITAL ENERGIES
----------------

  NO   OCC          E(Eh)            E(eV)
   0   2.0000     -14.120856      -384.2480
   1   2.0000     -10.016425      -272.5608
   2   2.0000      -9.992800      -271.9179
   3   2.0000      -9.931259      -270.2433
   4   2.0000      -0.853312       -23.2198
   5   2.0000      -0.697514       -18.9803
   6   2.0000      -0.633417       -17.2361
   7   2.0000      -0.521887       -14.2013
   8   2.0000      -0.479596       -13.0505
   9   2.0000      -0.431022       -11.7287
  10   2.0000      -0.392056       -10.6684
  11   2.0000      -0.357765        -9.7353
  12   2.0000      -0.353783        -9.6269
  13   2.0000      -0.309726        -8.4281
  14   2.0000      -0.293479        -7.9860
  15   2.0000      -0.166481        -4.5302
  16   0.0000       0.007568         0.2059
  17   0.0000       0.022011         0.5990
  18   0.0000       0.044758         1.2179
  19   0.0000       0.053802         1.4640
  20   0.0000       0.078613         2.1392

MULLIKEN ATOMIC CHARGES
-----------------------
   0 C :    0.737514
   1 C :   -0.422680
   2 C :    0.295153
   3 N :    0.143599
   4 H :   -0.169185
   5 H :   -0.170980
   6 H :   -0.052063
   7 H :   -0.346695
   8 H :    0.037644
   9 H :   -0.043441
  10 H :   -0.008866
Sum of atomic charges:    0.0000000

LOEWDIN ATOMIC CHARGES
----------------------
   0 C :    0.174372
   1 C :   -0.287609
   2 C :    0.158636
   3 N :    0.168455
   4 H :   -0.000935
   5 H :    0.001961
   6 H :   -0.078777
   7 H :   -0.086091
   8 H :   -0.016939
   9 H :   -0.016949
  10 H :   -0.016124

  Mayer bond orders larger than 0.100000
B(  0-C ,  1-C ) :   1.3212 B(  0-C ,  8-H ) :   0.8008 B(  0-C ,  9-H ) :   0.6444
B(  0-C , 10-H ) :   0.7175 B(  1-C ,  2-C ) :   1.8914 B(  1-C ,  3-N ) :   1.1343
B(  1-C ,  7-H ) :   0.2416 B(  1-C ,  8-H ) :   0.2197 B(  1-C ,  9-H ) :   0.3157
B(  1-C , 10-H ) :   0.2322 B(  2-C ,  3-N ) :   0.2891 B(  2-C ,  6-H ) :   0.8361
B(  2-C ,  7-H ) :   0.7285 B(  3-N ,  4-H ) :   1.1982 B(  3-N ,  5-H ) :   1.2051
B(  4-H ,  5-H ) :  -0.1301 B(  6-H ,  7-H ) :   0.2264

Dispersion correction           -0.008869979
FINAL SINGLE POINT ENERGY      -173.165103551963

DIPOLE MOMENT
-------------
                                X             Y             Z
Electronic contribution:      1.45046       0.18163      -0.92698
Nuclear contribution   :     -0.87498       0.20680       1.33581
                        -----------------------------------------
Total Dipole Moment    :      0.57547       0.38843       0.40883
                        -----------------------------------------
Magnitude (a.u.)       :      0.80573
Magnitude (Debye)      :      2.04799

Rotational constants in cm-1:     0.351941     0.304186     0.168624
Rotational constants in MHz : 10550.928440  9119.266441  5055.221775

                             ****ORCA TERMINATED NORMALLY****
TOTAL RUN TIME: 0 days 0 hours 0 minutes 7 seconds 502 msec
