                         Program Version 5.0.0 -  RELEASE  -
|  1> !TPSS D3BJ RIJCOSX def2-SVPD def2/J TightSCF
|  2> *xyz 0 1
|  3> C         -0.47749        0.60819       -4.10105
|  4> C          0.18467       -0.50664       -4.91676
|  5> O         -0.15869       -1.70109       -4.65798
|  6> F          1.05594       -0.17441       -5.74037
|  7> H         -0.09903        1.55672       -4.42038
|  8> H         -0.25931        0.46828       -3.06292
|  9> H         -1.53664        0.57826       -4.25010
| 10> *
| 11>
| 12> %MaxCore 64000
| 13>
| 14> %pal nprocs 4
| 15> end
| 16>
| 17> %scf
| 18>   MaxIter 150
| 19> end
| 20>
| 21>
| 22>                          ****END OF INPUT****

CARTESIAN COORDINATES (ANGSTROEM)
---------------------------------
  C     -0.477490    0.608190   -4.101050
  C      0.184670   -0.506640   -4.916760
  O     -0.158690   -1.701090   -4.657980
  F      1.055940   -0.174410   -5.740370
  H     -0.099030    1.556720   -4.420380
  H     -0.259310    0.468280   -3.062920
  H     -1.536640    0.578260   -4.250100

 Total Charge           Charge          ....    0
 Multiplicity           Mult            ....    1
 Number of Electrons    NEL             ....   32
 Basis Dimension        Dim             ....  110

ORBITAL ENERGIES
----------------

  NO   OCC          E(Eh)            E(eV)
   0   2.0000     -24.503697      -666.7795
   1   2.0000     -18.907003      -514.4857
   2   2.0000     -10.177755      -276.9508
   3   2.0000     -10.030967      -272.9565
   4   2.0000      -1.237167       -33.6650
   5   2.0000      -0.948697       -25.8154
   6   2.0000      -0.712059       -19.3761
   7   2.0000      -0.606327       -16.4990
   8   2.0000      -0.501995       -13.6600
   9   2.0000      -0.496348       -13.5063
  10   2.0000      -0.453589       -12.3428
  11   2.0000      -0.407589       -11.0911
  12   2.0000      -0.394466       -10.7340
  13   2.0000      -0.354660        -9.6508
  14   2.0000      -0.314133        -8.5480
  15   2.0000      -0.250264        -6.8100
  16   0.0000      -0.068894        -1.8747
  17   0.0000       0.001424         0.0388
  18   0.0000       0.048300         1.3143
  19   0.0000       0.074532         2.0281
  20   0.0000       0.077142         2.0991

MULLIKEN ATOMIC CHARGES
-----------------------
   0 C :    0.355241
   1 C :    0.441067
   2 O :   -0.518777
   3 F :   -0.330519
   4 H :   -0.015957
   5 H :    0.036254
   6 H :    0.032690
Sum of atomic charges:    0.0000000

LOEWDIN ATOMIC CHARGES
----------------------
   0 C :    0.223797
   1 C :   -0.035539
   2 O :   -0.143674
   3 F :   -0.025130
   4 H :   -0.019228
   5 H :    0.000405
   6 H :   -0.000631

  Mayer bond orders larger than 0.100000
B(  0-C ,  1-C ) :   1.2557 B(  0-C ,  4-H ) :   0.8933 B(  0-C ,  5-H ) :   0.8229
B(  0-C ,  6-H ) :   0.8171 B(  1-C ,  2-O ) :   1.7454 B(  1-C ,  3-F ) :   0.8044
B(  1-C ,  4-H ) :   0.1471 B(  1-C ,  5-H ) :   0.1317 B(  1-C ,  6-H ) :   0.1408

Dispersion correction           -0.004152055
FINAL SINGLE POINT ENERGY      -252.937831047612

DIPOLE MOMENT
-------------
                                X             Y             Z
Electronic contribution:      3.07417      -2.22921      -3.39424
Nuclear contribution   :     -3.12947       3.39716       3.55645
                        -----------------------------------------
Total Dipole Moment    :     -0.05529       1.16796       0.16222
                        -----------------------------------------
Magnitude (a.u.)       :      1.18046
Magnitude (Debye)      :      3.00050

Rotational constants in cm-1:     0.366922     0.321471     0.176896
Rotational constants in MHz : 11000.056350  9637.461211  5303.212706

                             ****ORCA TERMINATED NORMALLY****
TOTAL RUN TIME: 0 days 0 hours 0 minutes 4 seconds 612 msec
