                         Program Version 5.0.0 -  RELEASE  -
|  1> !TPSS D3BJ RIJCOSX def2-SVPD def2/J TightSCF
|  2> *xyz 0 1
|  3> C          2.48645       -2.67712       -2.56345
|  4> C          3.03764       -2.36672       -3.92351
|  5> N          2.28036       -2.45441       -4.96769
|  6> C          4.32174       -2.01793       -4.01664
|  7> H          4.87994       -1.91167       -3.17382
|  8> H          4.71015       -1.67088       -4.88356
|  9> H          1.27042       -2.41265       -4.86614
| 10> H          2.58183       -2.05528       -5.84688
| 11> H          1.45238       -2.93848       -2.64882
| 12> H          2.58636       -1.81799       -1.93352
| 13> H          3.02742       -3.49632       -2.13781
| 14> *
| 15>
| 16> %MaxCore 64000
| 17>
| 18> %pal nprocs 4
| 19> end
| 20>
| 21> %scf
| 22>   MaxIter 150
| 23> end
| 24>
| 25>
| 26>                          ****END OF INPUT****

CARTESIAN COORDINATES (ANGSTROEM)
---------------------------------
  C      2.486450   -2.677120   -2.563450
  C      3.037640   -2.366720   -3.923510
  N      2.280360   -2.454410   -4.967690
  C      4.321740   -2.017930   -4.016640
  H      4.879940   -1.911670   -3.173820
  H      4.710150   -1.670880   -4.883560
  H      1.270420   -2.412650   -4.866140
  H      2.581830   -2.055280   -5.846880
  H      1.452380   -2.938480   -2.648820
  H      2.586360   -1.817990   -1.933520
  H      3.027420   -3.496320   -2.137810

 Total Charge           Charge          ....    0
 Multiplicity           Mult            ....    1
 Number of Electrons    NEL             ....   32
 Basis Dimension        Dim             ....  136

ORBITAL ENERGIES
----------------

  NO   OCC          E(Eh)            E(eV)
   0   2.0000     -14.124232      -384.3399
   1   2.0000     -10.015795      -272.5436
   2   2.0000      -9.993140      -271.9272
   3   2.0000      -9.931195      -270.2415
   4   2.0000      -0.868166       -23.6240
   5   2.0000      -0.694310       -18.8931
   6   2.0000      -0.626444       -17.0464
   7   2.0000      -0.530419       -14.4334
   8   2.0000      -0.479340       -13.0435
   9   2.0000      -0.428600       -11.6628
  10   2.0000      -0.390832       -10.6351
  11   2.0000      -0.358379        -9.7520
  12   2.0000      -0.350093        -9.5265
  13   2.0000      -0.314021        -8.5449
  14   2.0000      -0.302217        -8.2237
  15   2.0000      -0.157131        -4.2758
  16   0.0000       0.005924         0.1612
  17   0.0000       0.019994         0.5441
  18   0.0000       0.044305         1.2056
  19   0.0000       0.051056         1.3893
  20   0.0000       0.075713         2.0603

MULLIKEN ATOMIC CHARGES
-----------------------
   0 C :    0.760701
   1 C :   -0.397092
   2 N :    0.136406
   3 C :    0.285160
   4 H :   -0.148097
   5 H :   -0.370192
   6 H :   -0.083256
   7 H :   -0.116821
   8 H :   -0.098629
   9 H :    0.014810
  10 H :    0.017010
Sum of atomic charges:   -0.0000000

LOEWDIN ATOMIC CHARGES
----------------------
   0 C :    0.176390
   1 C :   -0.291048
   2 N :    0.162415
   3 C :    0.169892
   4 H :   -0.082339
   5 H :   -0.094727
   6 H :    0.002132
   7 H :    0.009134
   8 H :   -0.031310
   9 H :   -0.010679
  10 H :   -0.009859

  Mayer bond orders larger than 0.100000
B(  0-C ,  1-C ) :   1.1187 B(  0-C ,  2-N ) :   0.1052 B(  0-C ,  8-H ) :   0.7226
B(  0-C ,  9-H ) :   0.7725 B(  0-C , 10-H ) :   0.7295 B(  1-C ,  2-N ) :   1.0644
B(  1-C ,  3-C ) :   1.7401 B(  1-C ,  4-H ) :   0.1079 B(  1-C ,  5-H ) :   0.1386
B(  1-C ,  8-H ) :   0.2897 B(  1-C ,  9-H ) :   0.1714 B(  1-C , 10-H ) :   0.1996
B(  2-N ,  3-C ) :   0.2619 B(  2-N ,  6-H ) :   1.0513 B(  2-N ,  7-H ) :   1.1538
B(  3-C ,  4-H ) :   0.8535 B(  3-C ,  5-H ) :   0.8849 B(  6-H ,  7-H ) :  -0.1015

Dispersion correction           -0.008870623
FINAL SINGLE POINT ENERGY      -173.165722345764

DIPOLE MOMENT
-------------
                                X             Y             Z
Electronic contribution:     -0.36339      -0.13599      -1.75324
Nuclear contribution   :     -0.41717       0.30469       1.54910
                        -----------------------------------------
Total Dipole Moment    :     -0.78056       0.16870      -0.20414
                        -----------------------------------------
Magnitude (a.u.)       :      0.82426
Magnitude (Debye)      :      2.09511

Rotational constants in cm-1:     0.351587     0.304754     0.168726
Rotational constants in MHz : 10540.302868  9136.286689  5058.281984

                             ****ORCA TERMINATED NORMALLY****
TOTAL RUN TIME: 0 days 0 hours 0 minutes 7 seconds 206 msec
