                         Program Version 5.0.0 -  RELEASE  -
|  1> !TPSS D3BJ RIJCOSX def2-SVPD def2/J TightSCF xyzfile
|  2>
|  3> *xyzfile 0 1 D1.xyz
|  4>
|  5> %MaxCore 64000
|  6>
|  7> %pal nprocs 4
|  8> end
|  9>
| 10> %scf
| 11>   MaxIter 150
| 12> end
| 13>
| 14>
| 15>                          ****END OF INPUT****

CARTESIAN COORDINATES (ANGSTROEM)
---------------------------------
  C      2.486452   -2.677121   -2.563447
  C     -0.870963    0.248043   -2.662804
  C     -0.477492    0.608191   -4.101052
  H      0.206773    1.458299   -4.118748
  H     -1.368442    0.929419   -4.647855
  C      0.184673   -0.506640   -4.916760
  C      3.037640   -2.366715   -3.923509
  C      2.280360   -2.454408   -4.967692
  N      4.321736   -2.017932   -4.016641
  H      4.879940   -1.911668   -3.173823
  H      4.710148   -1.670882   -4.883561
  H      1.270423   -2.412650   -4.866143
  H      2.581829   -2.055282   -5.846878
  F     -0.158685   -1.701088   -4.657981
  O      1.055938   -0.174410   -5.740373
  C      2.497991   -1.469464   -1.610303
  C      1.582841   -0.321986   -2.042619
  H      2.193083   -1.833912   -0.625420
  H      3.523356   -1.103982   -1.490392
  C      0.100160   -0.673551   -1.915815
  H      1.822311   -0.040361   -3.072834
  H      1.813180    0.557019   -1.433266
  H     -0.063284   -1.679120   -2.301112
  H     -0.168820   -0.691680   -0.853831
  H     -1.001048    1.181040   -2.104071
  H     -1.844645   -0.246592   -2.663281
  H      1.472592   -3.051527   -2.694366
  H      3.083201   -3.490638   -2.141472

 Total Charge           Charge          ....    0
 Multiplicity           Mult            ....    1
 Number of Electrons    NEL             ....   94
 Basis Dimension        Dim             ....  374

ORBITAL ENERGIES
----------------

  NO   OCC          E(Eh)            E(eV)
   0   2.0000     -24.493711      -666.5078
   1   2.0000     -18.904869      -514.4277
   2   2.0000     -14.109689      -383.9442
   3   2.0000     -10.168572      -276.7009
   4   2.0000     -10.029661      -272.9210
   5   2.0000     -10.014736      -272.5148
   6   2.0000     -10.003436      -272.2073
   7   2.0000     -10.000530      -272.1283
   8   2.0000     -10.000114      -272.1169
   9   2.0000      -9.999449      -272.0989
  10   2.0000      -9.994469      -271.9633
  11   2.0000      -9.911305      -269.7003
  12   2.0000      -1.222132       -33.2559
  13   2.0000      -0.959515       -26.1097
  14   2.0000      -0.842641       -22.9294
  15   2.0000      -0.761294       -20.7159
  16   2.0000      -0.728097       -19.8125
  17   2.0000      -0.681690       -18.5497
  18   2.0000      -0.659375       -17.9425
  19   2.0000      -0.617285       -16.7972
  20   2.0000      -0.598058       -16.2740
  21   2.0000      -0.562965       -15.3190
  22   2.0000      -0.529359       -14.4046
  23   2.0000      -0.518878       -14.1194
  24   2.0000      -0.494783       -13.4637
  25   2.0000      -0.486290       -13.2326
  26   2.0000      -0.464711       -12.6454
  27   2.0000      -0.443345       -12.0640
  28   2.0000      -0.436776       -11.8853
  29   2.0000      -0.426656       -11.6099
  30   2.0000      -0.415319       -11.3014
  31   2.0000      -0.401143       -10.9157
  32   2.0000      -0.389324       -10.5941
  33   2.0000      -0.367592       -10.0027
  34   2.0000      -0.364228        -9.9111
  35   2.0000      -0.348680        -9.4881
  36   2.0000      -0.337102        -9.1730
  37   2.0000      -0.335220        -9.1218
  38   2.0000      -0.319989        -8.7073
  39   2.0000      -0.313972        -8.5436
  40   2.0000      -0.303452        -8.2573
  41   2.0000      -0.298592        -8.1251
  42   2.0000      -0.285327        -7.7642
  43   2.0000      -0.276896        -7.5347
  44   2.0000      -0.274359        -7.4657
  45   2.0000      -0.245290        -6.6747
  46   2.0000      -0.152403        -4.1471
  47   0.0000      -0.062628        -1.7042
  48   0.0000       0.001159         0.0315
  49   0.0000       0.010869         0.2958
  50   0.0000       0.021479         0.5845
  51   0.0000       0.028236         0.7683

MULLIKEN ATOMIC CHARGES
-----------------------
   0 C :    0.202646
   1 C :    0.462147
   2 C :    0.162597
   3 H :    0.226296
   4 H :   -0.243139
   5 C :    0.505744
   6 C :   -0.145556
   7 C :    0.933483
   8 N :    0.135010
   9 H :   -0.095215
  10 H :   -0.192694
  11 H :   -0.319901
  12 H :   -0.330658
  13 F :   -0.602017
  14 O :   -0.527333
  15 C :    0.261928
  16 C :    0.146547
  17 H :   -0.073236
  18 H :   -0.048116
  19 C :   -0.037207
  20 H :   -0.094289
  21 H :   -0.145510
  22 H :   -0.000076
  23 H :   -0.148608
  24 H :   -0.090226
  25 H :    0.060755
  26 H :    0.150777
  27 H :   -0.154149
Sum of atomic charges:   -0.0000000

LOEWDIN ATOMIC CHARGES
----------------------
   0 C :    0.030280
   1 C :   -0.010410
   2 C :    0.066120
   3 H :    0.032547
   4 H :    0.033992
   5 C :   -0.002964
   6 C :   -0.238869
   7 C :    0.181253
   8 N :    0.181826
   9 H :   -0.009284
  10 H :    0.003855
  11 H :   -0.137391
  12 H :   -0.072732
  13 F :   -0.047907
  14 O :   -0.107763
  15 C :   -0.012356
  16 C :   -0.004603
  17 H :    0.016710
  18 H :    0.006507
  19 C :   -0.018535
  20 H :    0.005669
  21 H :    0.021820
  22 H :   -0.008459
  23 H :    0.023856
  24 H :    0.020399
  25 H :    0.018803
  26 H :    0.007183
  27 H :    0.020453

  Mayer bond orders larger than 0.100000
B(  0-C ,  6-C ) :   1.1564 B(  0-C ,  7-C ) :   0.1383 B(  0-C ,  8-N ) :   0.1388
B(  0-C , 15-C ) :   1.1227 B(  0-C , 17-H ) :   0.1882 B(  0-C , 18-H ) :   0.2148
B(  0-C , 26-H ) :   0.7401 B(  0-C , 27-H ) :   0.8641 B(  1-C ,  2-C ) :   1.1641
B(  1-C ,  4-H ) :   0.1215 B(  1-C , 19-C ) :   1.3009 B(  1-C , 24-H ) :   0.7893
B(  1-C , 25-H ) :   0.6863 B(  2-C ,  3-H ) :   0.7782 B(  2-C ,  4-H ) :   0.7731
B(  2-C ,  5-C ) :   1.1983 B(  2-C , 14-O ) :   0.1055 B(  2-C , 19-C ) :   0.1119
B(  2-C , 24-H ) :   0.1204 B(  3-H ,  5-C ) :   0.1961 B(  4-H ,  5-C ) :   0.2683
B(  5-C , 11-H ) :   0.1006 B(  5-C , 13-F ) :   0.5994 B(  5-C , 14-O ) :   1.7134
B(  6-C ,  7-C ) :   1.8968 B(  6-C ,  8-N ) :   1.0728 B(  6-C , 11-H ) :   0.2255
B(  6-C , 12-H ) :   0.4594 B(  6-C , 15-C ) :   0.1570 B(  6-C , 26-H ) :   0.1439
B(  6-C , 27-H ) :   0.2089 B(  7-C ,  8-N ) :   0.4413 B(  7-C , 11-H ) :   0.4027
B(  7-C , 12-H ) :   0.2262 B(  7-C , 26-H ) :  -0.1335 B(  8-N ,  9-H ) :   1.1565
B(  8-N , 10-H ) :   1.2234 B(  9-H , 10-H ) :  -0.1537 B( 11-H , 12-H ) :   0.2523
B( 11-H , 13-F ) :   0.2292 B( 13-F , 14-O ) :   0.1217 B( 15-C , 16-C ) :   1.2060
B( 15-C , 17-H ) :   0.8649 B( 15-C , 18-H ) :   0.7004 B( 15-C , 20-H ) :   0.1750
B( 15-C , 21-H ) :   0.1066 B( 15-C , 26-H ) :   0.1569 B( 16-C , 18-H ) :   0.2040
B( 16-C , 19-C ) :   1.1843 B( 16-C , 20-H ) :   0.8603 B( 16-C , 21-H ) :   0.8562
B( 16-C , 22-H ) :   0.1066 B( 16-C , 23-H ) :   0.2097 B( 19-C , 20-H ) :   0.1270
B( 19-C , 21-H ) :   0.1114 B( 19-C , 22-H ) :   0.8623 B( 19-C , 23-H ) :   0.8315
B( 19-C , 24-H ) :   0.1899 B( 19-C , 25-H ) :   0.1983 B( 22-H , 26-H ) :   0.1280

Dispersion correction           -0.038999444
FINAL SINGLE POINT ENERGY      -582.077621615581

DIPOLE MOMENT
-------------
                                X             Y             Z
Electronic contribution:     -3.65388      -1.65608     -10.27368
Nuclear contribution   :      3.32973       2.37270      11.37738
                        -----------------------------------------
Total Dipole Moment    :     -0.32416       0.71662       1.10370
                        -----------------------------------------
Magnitude (a.u.)       :      1.35528
Magnitude (Debye)      :      3.44484

Rotational constants in cm-1:     0.040902     0.025807     0.019036
Rotational constants in MHz :  1226.202138   773.670450   570.681201

                             ****ORCA TERMINATED NORMALLY****
TOTAL RUN TIME: 0 days 0 hours 0 minutes 59 seconds 573 msec
