                         Program Version 5.0.0 -  RELEASE  -
|  1> !TPSS D3BJ RIJCOSX def2-SVPD def2/J TightSCF xyzfile
|  2>
|  3> *xyzfile 0 1 D3.xyz
|  4>
|  5> %MaxCore 64000
|  6>
|  7> %pal nprocs 4
|  8> end
|  9>
| 10> %scf
| 11>   MaxIter 150
| 12> end
| 13>
| 14>
| 15>                          ****END OF INPUT****

CARTESIAN COORDINATES (ANGSTROEM)
---------------------------------
  C      2.486452   -2.677121   -2.563447
  C     -0.870963    0.248043   -2.662804
  C     -0.477492    0.608191   -4.101052
  H      0.206773    1.458299   -4.118748
  H     -1.368442    0.929419   -4.647855
  C      0.184673   -0.506640   -4.916760
  C      3.037640   -2.366715   -3.923509
  C      2.280360   -2.454408   -4.967692
  N      4.321736   -2.017932   -4.016641
  H      4.879940   -1.911668   -3.173823
  H      4.710148   -1.670882   -4.883561
  H      1.270423   -2.412650   -4.866143
  H      2.581829   -2.055282   -5.846878
  O     -0.158685   -1.701088   -4.657981
  F      1.055938   -0.174410   -5.740373
  C      2.497991   -1.469464   -1.610303
  C      1.582841   -0.321986   -2.042619
  H      2.193083   -1.833912   -0.625420
  H      3.523356   -1.103982   -1.490392
  C      0.100160   -0.673551   -1.915815
  H      1.822311   -0.040361   -3.072834
  H      1.813180    0.557019   -1.433266
  H     -0.063284   -1.679120   -2.301112
  H     -0.168820   -0.691680   -0.853831
  H     -1.001048    1.181040   -2.104071
  H     -1.844645   -0.246592   -2.663281
  H      1.472592   -3.051527   -2.694366
  H      3.083201   -3.490638   -2.141472

 Total Charge           Charge          ....    0
 Multiplicity           Mult            ....    1
 Number of Electrons    NEL             ....   94
 Basis Dimension        Dim             ....  374

ORBITAL ENERGIES
----------------

  NO   OCC          E(Eh)            E(eV)
   0   2.0000     -24.500161      -666.6833
   1   2.0000     -18.903709      -514.3961
   2   2.0000     -14.108635      -383.9155
   3   2.0000     -10.172757      -276.8148
   4   2.0000     -10.031754      -272.9779
   5   2.0000     -10.011971      -272.4396
   6   2.0000      -9.997881      -272.0562
   7   2.0000      -9.997666      -272.0503
   8   2.0000      -9.997589      -272.0482
   9   2.0000      -9.995016      -271.9782
  10   2.0000      -9.989531      -271.8290
  11   2.0000      -9.903994      -269.5014
  12   2.0000      -1.232876       -33.5483
  13   2.0000      -0.954205       -25.9652
  14   2.0000      -0.841369       -22.8948
  15   2.0000      -0.756129       -20.5753
  16   2.0000      -0.725511       -19.7422
  17   2.0000      -0.679785       -18.4979
  18   2.0000      -0.657003       -17.8780
  19   2.0000      -0.619406       -16.8549
  20   2.0000      -0.595039       -16.1918
  21   2.0000      -0.559004       -15.2113
  22   2.0000      -0.525496       -14.2995
  23   2.0000      -0.511492       -13.9184
  24   2.0000      -0.497171       -13.5287
  25   2.0000      -0.476698       -12.9716
  26   2.0000      -0.469877       -12.7860
  27   2.0000      -0.459975       -12.5166
  28   2.0000      -0.434079       -11.8119
  29   2.0000      -0.426175       -11.5968
  30   2.0000      -0.410887       -11.1808
  31   2.0000      -0.399163       -10.8618
  32   2.0000      -0.390436       -10.6243
  33   2.0000      -0.362224        -9.8566
  34   2.0000      -0.357401        -9.7254
  35   2.0000      -0.350023        -9.5246
  36   2.0000      -0.340299        -9.2600
  37   2.0000      -0.328214        -8.9312
  38   2.0000      -0.322046        -8.7633
  39   2.0000      -0.314762        -8.5651
  40   2.0000      -0.299591        -8.1523
  41   2.0000      -0.291934        -7.9439
  42   2.0000      -0.282483        -7.6868
  43   2.0000      -0.276305        -7.5186
  44   2.0000      -0.273327        -7.4376
  45   2.0000      -0.226624        -6.1668
  46   2.0000      -0.151332        -4.1180
  47   0.0000      -0.067173        -1.8279
  48   0.0000       0.002855         0.0777
  49   0.0000       0.012533         0.3410
  50   0.0000       0.020356         0.5539
  51   0.0000       0.029700         0.8082

MULLIKEN ATOMIC CHARGES
-----------------------
   0 C :    0.210759
   1 C :    0.459614
   2 C :    0.164841
   3 H :    0.238280
   4 H :   -0.241126
   5 C :    0.544927
   6 C :   -0.174246
   7 C :    0.854774
   8 N :    0.140033
   9 H :   -0.093520
  10 H :   -0.193484
  11 H :   -0.223059
  12 H :   -0.350977
  13 O :   -0.746215
  14 F :   -0.426191
  15 C :    0.244139
  16 C :    0.102671
  17 H :   -0.068712
  18 H :   -0.056226
  19 C :   -0.053949
  20 H :   -0.067348
  21 H :   -0.151321
  22 H :    0.030984
  23 H :   -0.171048
  24 H :   -0.085136
  25 H :    0.093031
  26 H :    0.166582
  27 H :   -0.148076
Sum of atomic charges:    0.0000000

LOEWDIN ATOMIC CHARGES
----------------------
   0 C :    0.034346
   1 C :    0.000577
   2 C :    0.058213
   3 H :    0.021936
   4 H :    0.034276
   5 C :    0.014623
   6 C :   -0.240158
   7 C :    0.180082
   8 N :    0.177030
   9 H :   -0.010475
  10 H :    0.000134
  11 H :   -0.166611
  12 H :   -0.074599
  13 O :   -0.125115
  14 F :   -0.006566
  15 C :   -0.011947
  16 C :   -0.007641
  17 H :    0.017600
  18 H :    0.004997
  19 C :   -0.014879
  20 H :    0.002119
  21 H :    0.020025
  22 H :   -0.008246
  23 H :    0.023606
  24 H :    0.020900
  25 H :    0.023753
  26 H :    0.011936
  27 H :    0.020086

  Mayer bond orders larger than 0.100000
B(  0-C ,  6-C ) :   1.1782 B(  0-C ,  7-C ) :   0.1377 B(  0-C ,  8-N ) :   0.1406
B(  0-C , 15-C ) :   1.1248 B(  0-C , 17-H ) :   0.1894 B(  0-C , 18-H ) :   0.2134
B(  0-C , 26-H ) :   0.7434 B(  0-C , 27-H ) :   0.8476 B(  1-C ,  2-C ) :   1.1998
B(  1-C ,  4-H ) :   0.1440 B(  1-C , 19-C ) :   1.3029 B(  1-C , 24-H ) :   0.7749
B(  1-C , 25-H ) :   0.6664 B(  2-C ,  3-H ) :   0.7777 B(  2-C ,  4-H ) :   0.7408
B(  2-C ,  5-C ) :   1.2170 B(  2-C , 14-F ) :   0.1041 B(  2-C , 19-C ) :   0.1260
B(  2-C , 24-H ) :   0.1330 B(  3-H ,  5-C ) :   0.1396 B(  4-H ,  5-C ) :   0.2837
B(  5-C , 13-O ) :   1.6351 B(  5-C , 14-F ) :   0.6042 B(  6-C ,  7-C ) :   1.9228
B(  6-C ,  8-N ) :   1.0795 B(  6-C , 11-H ) :   0.2086 B(  6-C , 12-H ) :   0.4478
B(  6-C , 15-C ) :   0.1569 B(  6-C , 26-H ) :   0.1366 B(  6-C , 27-H ) :   0.2159
B(  7-C ,  8-N ) :   0.4363 B(  7-C , 11-H ) :   0.4723 B(  7-C , 12-H ) :   0.2513
B(  7-C , 26-H ) :  -0.1283 B(  8-N ,  9-H ) :   1.1531 B(  8-N , 10-H ) :   1.2197
B(  9-H , 10-H ) :  -0.1529 B( 11-H , 12-H ) :   0.2425 B( 11-H , 13-O ) :   0.1374
B( 13-O , 14-F ) :   0.1071 B( 15-C , 16-C ) :   1.2075 B( 15-C , 17-H ) :   0.8614
B( 15-C , 18-H ) :   0.7029 B( 15-C , 20-H ) :   0.1722 B( 15-C , 21-H ) :   0.1123
B( 15-C , 26-H ) :   0.1574 B( 16-C , 18-H ) :   0.2073 B( 16-C , 19-C ) :   1.1941
B( 16-C , 20-H ) :   0.8544 B( 16-C , 21-H ) :   0.8694 B( 16-C , 22-H ) :   0.1079
B( 16-C , 23-H ) :   0.2138 B( 19-C , 20-H ) :   0.1152 B( 19-C , 21-H ) :   0.1127
B( 19-C , 22-H ) :   0.8674 B( 19-C , 23-H ) :   0.8337 B( 19-C , 24-H ) :   0.1974
B( 19-C , 25-H ) :   0.2064 B( 22-H , 26-H ) :   0.1202

Dispersion correction           -0.039184474
FINAL SINGLE POINT ENERGY      -582.073004655811

DIPOLE MOMENT
-------------
                                X             Y             Z
Electronic contribution:     -1.72025       0.85589     -12.11743
Nuclear contribution   :      1.88979       0.56282      12.66056
                        -----------------------------------------
Total Dipole Moment    :      0.16953       1.41871       0.54313
                        -----------------------------------------
Magnitude (a.u.)       :      1.52855
Magnitude (Debye)      :      3.88526

Rotational constants in cm-1:     0.040271     0.025954     0.018866
Rotational constants in MHz :  1207.302496   778.083475   565.600538

                             ****ORCA TERMINATED NORMALLY****
TOTAL RUN TIME: 0 days 0 hours 0 minutes 55 seconds 916 msec
