                         Program Version 5.0.0 -  RELEASE  -
|  1> !LC-BLYP RIJCOSX def2-TZVPD def2/J TightSCF
|  2> *xyz -1 1
|  3> C         -2.79070       -0.78527        5.70281
|  4> C         -2.45380        0.05510        6.94145
|  5> C         -2.07842        1.48042        6.56410
|  6> H         -1.62558       -0.38216        7.49891
|  7> H         -3.32527        0.08775        7.59917
|  8> O         -0.90125        1.85816        6.82810
|  9> O         -2.93658        2.17731        5.96415
| 10> H         -1.94052       -0.82114        5.05412
| 11> H         -3.61590       -0.34261        5.18514
| 12> H         -3.05063       -1.77815        6.00536
| 13> *
| 14> %MaxCore 64000
| 15>
| 16> %pal nprocs 4
| 17> end
| 18>
| 19> %scf
| 20>   MaxIter 150
| 21> end
| 22>
| 23>
| 24>                          ****END OF INPUT****

CARTESIAN COORDINATES (ANGSTROEM)
---------------------------------
  C     -2.790700   -0.785270    5.702810
  C     -2.453800    0.055100    6.941450
  C     -2.078420    1.480420    6.564100
  H     -1.625580   -0.382160    7.498910
  H     -3.325270    0.087750    7.599170
  O     -0.901250    1.858160    6.828100
  O     -2.936580    2.177310    5.964150
  H     -1.940520   -0.821140    5.054120
  H     -3.615900   -0.342610    5.185140
  H     -3.050630   -1.778150    6.005360

 Total Charge           Charge          ....   -1
 Multiplicity           Mult            ....    1
 Number of Electrons    NEL             ....   40
 Basis Dimension        Dim             ....  236

ORBITAL ENERGIES
----------------

  NO   OCC          E(Eh)            E(eV)
   0   2.0000     -18.676075      -508.2018
   1   2.0000     -18.674719      -508.1650
   2   2.0000      -9.955515      -270.9033
   3   2.0000      -9.906588      -269.5720
   4   2.0000      -9.896433      -269.2956
   5   2.0000      -0.913231       -24.8503
   6   2.0000      -0.818317       -22.2675
   7   2.0000      -0.717939       -19.5361
   8   2.0000      -0.585371       -15.9288
   9   2.0000      -0.430147       -11.7049
  10   2.0000      -0.400950       -10.9104
  11   2.0000      -0.364685        -9.9236
  12   2.0000      -0.337232        -9.1765
  13   2.0000      -0.317735        -8.6460
  14   2.0000      -0.310634        -8.4528
  15   2.0000      -0.278401        -7.5757
  16   2.0000      -0.266498        -7.2518
  17   2.0000      -0.148428        -4.0389
  18   2.0000      -0.142881        -3.8880
  19   2.0000      -0.127639        -3.4732
  20   0.0000       0.176391         4.7998
  21   0.0000       0.198815         5.4100
  22   0.0000       0.206118         5.6088
  23   0.0000       0.219906         5.9840
  24   0.0000       0.247207         6.7268

MULLIKEN ATOMIC CHARGES
-----------------------
   0 C :   -1.253500
   1 C :   -0.406232
   2 C :    0.316548
   3 H :    0.310664
   4 H :    0.298010
   5 O :   -0.680155
   6 O :   -0.663980
   7 H :    0.372300
   8 H :    0.336622
   9 H :    0.369724
Sum of atomic charges:   -1.0000000

LOEWDIN ATOMIC CHARGES
----------------------
   0 C :   -0.139485
   1 C :   -0.228035
   2 C :   -0.801055
   3 H :    0.093381
   4 H :    0.100048
   5 O :   -0.106033
   6 O :   -0.093929
   7 H :    0.067406
   8 H :    0.059818
   9 H :    0.047883

  Mayer bond orders larger than 0.100000
B(  0-C ,  1-C ) :   0.4403 B(  0-C ,  7-H ) :   0.9186 B(  0-C ,  8-H ) :   0.9894
B(  0-C ,  9-H ) :   0.8866 B(  1-C ,  2-C ) :   0.8940 B(  1-C ,  3-H ) :   0.9786
B(  1-C ,  4-H ) :   0.9545 B(  2-C ,  5-O ) :   1.4937 B(  2-C ,  6-O ) :   1.5113

FINAL SINGLE POINT ENERGY      -267.354334710647

DIPOLE MOMENT
-------------
                                X             Y             Z
Electronic contribution:      1.61437       5.49575       0.68718
Nuclear contribution   :     -2.24498      -7.51881      -0.57245
                        -----------------------------------------
Total Dipole Moment    :     -0.63061      -2.02306       0.11473
                        -----------------------------------------
Magnitude (a.u.)       :      2.12217
Magnitude (Debye)      :      5.39414

Rotational constants in cm-1:     0.305589     0.135336     0.107479
Rotational constants in MHz :  9161.317320  4057.276612  3222.126231

                             ****ORCA TERMINATED NORMALLY****
TOTAL RUN TIME: 0 days 0 hours 0 minutes 31 seconds 45 msec
