                         Program Version 5.0.0 -  RELEASE  -
|  1> !LC-BLYP RIJCOSX def2-TZVPD def2/J TightSCF
|  2> *xyz 1 1
|  3> C         -0.69912        3.48945        3.75516
|  4> H         -0.96672        4.34901        3.14049
|  5> N         -1.08067        3.79296        5.15686
|  6> C          0.77696        3.13839        3.61741
|  7> H         -1.33146        2.65651        3.44632
|  8> H         -0.87449        4.76274        5.42734
|  9> H         -0.68079        3.13476        5.83900
| 10> H         -2.05755        3.53169        5.34620
| 11> H          0.99957        2.92898        2.59199
| 12> H          0.99576        2.27685        4.21303
| 13> H          1.37223        3.96279        3.95046
| 14> *
| 15> %MaxCore 64000
| 16>
| 17> %pal nprocs 4
| 18> end
| 19>
| 20> %scf
| 21>   MaxIter 150
| 22> end
| 23>
| 24>
| 25>                          ****END OF INPUT****

CARTESIAN COORDINATES (ANGSTROEM)
---------------------------------
  C     -0.699120    3.489450    3.755160
  H     -0.966720    4.349010    3.140490
  N     -1.080670    3.792960    5.156860
  C      0.776960    3.138390    3.617410
  H     -1.331460    2.656510    3.446320
  H     -0.874490    4.762740    5.427340
  H     -0.680790    3.134760    5.839000
  H     -2.057550    3.531690    5.346200
  H      0.999570    2.928980    2.591990
  H      0.995760    2.276850    4.213030
  H      1.372230    3.962790    3.950460

 Total Charge           Charge          ....    1
 Multiplicity           Mult            ....    1
 Number of Electrons    NEL             ....   26
 Basis Dimension        Dim             ....  183

ORBITAL ENERGIES
----------------

  NO   OCC          E(Eh)            E(eV)
   0   2.0000     -14.503244      -394.6533
   1   2.0000     -10.322104      -280.8787
   2   2.0000     -10.240648      -278.6622
   3   2.0000      -1.318870       -35.8883
   4   2.0000      -1.075792       -29.2738
   5   2.0000      -0.954197       -25.9650
   6   2.0000      -0.919689       -25.0260
   7   2.0000      -0.871240       -23.7076
   8   2.0000      -0.801964       -21.8226
   9   2.0000      -0.747021       -20.3275
  10   2.0000      -0.681911       -18.5558
  11   2.0000      -0.667389       -18.1606
  12   2.0000      -0.648262       -17.6401
  13   0.0000      -0.143181        -3.8962
  14   0.0000      -0.085571        -2.3285
  15   0.0000      -0.083775        -2.2796
  16   0.0000      -0.076628        -2.0852
  17   0.0000      -0.046953        -1.2776

MULLIKEN ATOMIC CHARGES
-----------------------
   0 C :   -0.474155
   1 H :    0.410212
   2 N :   -0.400992
   3 C :   -1.343298
   4 H :    0.399937
   5 H :    0.362497
   6 H :    0.369778
   7 H :    0.373274
   8 H :    0.421510
   9 H :    0.446595
  10 H :    0.434641
Sum of atomic charges:    1.0000000

LOEWDIN ATOMIC CHARGES
----------------------
   0 C :   -0.215972
   1 H :    0.142330
   2 N :    0.175556
   3 C :   -0.066579
   4 H :    0.139886
   5 H :    0.188454
   6 H :    0.181666
   7 H :    0.183179
   8 H :    0.096829
   9 H :    0.086780
  10 H :    0.087871

  Mayer bond orders larger than 0.100000
B(  0-C ,  1-H ) :   0.8865 B(  0-C ,  2-N ) :   0.8357 B(  0-C ,  3-C ) :   0.4971
B(  0-C ,  4-H ) :   0.8597 B(  2-N ,  5-H ) :   0.8641 B(  2-N ,  6-H ) :   0.8554
B(  2-N ,  7-H ) :   0.8668 B(  3-C ,  8-H ) :   0.9081 B(  3-C ,  9-H ) :   0.8397
B(  3-C , 10-H ) :   0.8818

FINAL SINGLE POINT ENERGY      -135.187119534180

DIPOLE MOMENT
-------------
                                X             Y             Z
Electronic contribution:     -1.32719       0.56944       1.09365
Nuclear contribution   :      0.33986      -0.24565       0.10678
                        -----------------------------------------
Total Dipole Moment    :     -0.98734       0.32379       1.20043
                        -----------------------------------------
Magnitude (a.u.)       :      1.58767
Magnitude (Debye)      :      4.03554

Rotational constants in cm-1:     1.016237     0.277523     0.247812
Rotational constants in MHz : 30466.024354  8319.937961  7429.230177

                             ****ORCA TERMINATED NORMALLY****
TOTAL RUN TIME: 0 days 0 hours 0 minutes 18 seconds 143 msec
