                         Program Version 5.0.0 -  RELEASE  -
|  1> !LC-BLYP RIJCOSX def2-TZVPD def2/J TightSCF xyzfile
|  2>
|  3> *xyzfile 0 1 B.xyz
|  4>
|  5> %MaxCore 64000
|  6>
|  7> %pal nprocs 4
|  8> end
|  9>
| 10> %scf
| 11>   MaxIter 150
| 12> end
| 13>
| 14>
| 15>                          ****END OF INPUT****

CARTESIAN COORDINATES (ANGSTROEM)
---------------------------------
  C     -0.699123    3.489451    3.755163
  H     -0.966716    4.349013    3.140491
  N     -1.080669    3.792957    5.156857
  C      0.776956    3.138391    3.617408
  H     -1.331455    2.656510    3.446323
  H      1.371398    3.888342    4.149744
  H      1.046926    3.232057    2.561331
  C      1.118917    1.731170    4.115155
  H      2.200573    1.654226    4.254882
  C      0.659466    0.635182    3.153306
  H      0.677024    1.576674    5.103150
  H      1.312288    0.638870    2.274207
  H     -0.339563    0.868049    2.772876
  C      0.639957   -0.771175    3.755619
  C     -0.341821   -0.965537    4.915046
  H      1.648266   -1.028665    4.097015
  H      0.398568   -1.482386    2.958453
  H     -0.279892   -2.005646    5.252547
  C     -1.789164   -0.639231    4.557496
  H     -0.032380   -0.352918    5.765118
  H     -2.107151   -1.270102    3.719619
  H     -1.856352    0.391636    4.197604
  C     -2.790700   -0.785275    5.702812
  H     -2.867308   -1.835651    6.001675
  H     -3.774554   -0.486577    5.334807
  C     -2.453797    0.055101    6.941445
  C     -2.078419    1.480421    6.564098
  H     -1.625584   -0.382163    7.498914
  H     -3.325274    0.087746    7.599175
  H     -0.874488    4.762737    5.427344
  H     -0.680793    3.134762    5.839000
  H     -2.057550    3.531691    5.346197
  O     -0.901252    1.858156    6.828104
  O     -2.936582    2.177309    5.964151

 Total Charge           Charge          ....    0
 Multiplicity           Mult            ....    1
 Number of Electrons    NEL             ....  104
 Basis Dimension        Dim             ....  676

ORBITAL ENERGIES
----------------

  NO   OCC          E(Eh)            E(eV)
   0   2.0000     -18.875366      -513.6248
   1   2.0000     -18.874019      -513.5882
   2   2.0000     -14.248579      -387.7235
   3   2.0000     -10.146908      -276.1114
   4   2.0000     -10.137837      -275.8646
   5   2.0000     -10.091082      -274.5923
   6   2.0000     -10.066303      -273.9180
   7   2.0000     -10.063245      -273.8348
   8   2.0000     -10.056946      -273.6634
   9   2.0000     -10.048255      -273.4269
  10   2.0000     -10.047850      -273.4159
  11   2.0000     -10.046359      -273.3753
  12   2.0000     -10.041416      -273.2408
  13   2.0000      -1.125216       -30.6187
  14   2.0000      -1.082744       -29.4630
  15   2.0000      -1.022973       -27.8365
  16   2.0000      -0.933382       -25.3986
  17   2.0000      -0.904876       -24.6229
  18   2.0000      -0.876621       -23.8541
  19   2.0000      -0.829033       -22.5591
  20   2.0000      -0.797488       -21.7008
  21   2.0000      -0.758845       -20.6492
  22   2.0000      -0.720290       -19.6001
  23   2.0000      -0.702890       -19.1266
  24   2.0000      -0.684690       -18.6314
  25   2.0000      -0.659676       -17.9507
  26   2.0000      -0.651233       -17.7209
  27   2.0000      -0.606429       -16.5018
  28   2.0000      -0.589192       -16.0327
  29   2.0000      -0.581889       -15.8340
  30   2.0000      -0.580435       -15.7945
  31   2.0000      -0.553395       -15.0586
  32   2.0000      -0.548320       -14.9206
  33   2.0000      -0.538213       -14.6455
  34   2.0000      -0.525632       -14.3032
  35   2.0000      -0.511151       -13.9091
  36   2.0000      -0.503289       -13.6952
  37   2.0000      -0.501690       -13.6517
  38   2.0000      -0.488680       -13.2977
  39   2.0000      -0.482492       -13.1293
  40   2.0000      -0.463368       -12.6089
  41   2.0000      -0.456537       -12.4230
  42   2.0000      -0.450070       -12.2470
  43   2.0000      -0.434537       -11.8244
  44   2.0000      -0.422848       -11.5063
  45   2.0000      -0.419025       -11.4023
  46   2.0000      -0.404466       -11.0061
  47   2.0000      -0.398328       -10.8391
  48   2.0000      -0.392120       -10.6701
  49   2.0000      -0.349555        -9.5119
  50   2.0000      -0.334739        -9.1087
  51   2.0000      -0.333560        -9.0766
  52   0.0000       0.031827         0.8661
  53   0.0000       0.054727         1.4892
  54   0.0000       0.058885         1.6024
  55   0.0000       0.064252         1.7484
  56   0.0000       0.076954         2.0940

MULLIKEN ATOMIC CHARGES
-----------------------
   0 C :   -0.725379
   1 H :    0.432678
   2 N :   -0.311522
   3 C :   -0.848569
   4 H :    0.364910
   5 H :    0.389217
   6 H :    0.429952
   7 C :   -0.537149
   8 H :    0.390139
   9 C :   -0.770135
  10 H :    0.426623
  11 H :    0.390753
  12 H :    0.410292
  13 C :   -0.991092
  14 C :   -0.640807
  15 H :    0.398161
  16 H :    0.413849
  17 H :    0.362061
  18 C :   -0.550437
  19 H :    0.400668
  20 H :    0.411604
  21 H :    0.166232
  22 C :   -0.904924
  23 H :    0.413808
  24 H :    0.374074
  25 C :   -0.745853
  26 C :    0.639231
  27 H :    0.378725
  28 H :    0.450375
  29 H :    0.297757
  30 H :    0.307618
  31 H :    0.368417
  32 O :   -0.807621
  33 O :   -0.783655
Sum of atomic charges:   -0.0000000

LOEWDIN ATOMIC CHARGES
----------------------
   0 C :   -0.173993
   1 H :    0.129000
   2 N :    0.142871
   3 C :   -0.197470
   4 H :    0.121443
   5 H :    0.120107
   6 H :    0.122165
   7 C :   -0.208501
   8 H :    0.124872
   9 C :   -0.227048
  10 H :    0.094345
  11 H :    0.119292
  12 H :    0.100660
  13 C :   -0.217617
  14 C :   -0.218016
  15 H :    0.117221
  16 H :    0.115262
  17 H :    0.123289
  18 C :   -0.219935
  19 H :    0.100836
  20 H :    0.124659
  21 H :    0.095601
  22 C :   -0.208843
  23 H :    0.115587
  24 H :    0.115483
  25 C :   -0.133806
  26 C :   -0.670749
  27 H :    0.115063
  28 H :    0.123176
  29 H :    0.171525
  30 H :    0.065042
  31 H :    0.092937
  32 O :   -0.048310
  33 O :   -0.026148

  Mayer bond orders larger than 0.100000
B(  0-C ,  1-H ) :   0.8810 B(  0-C ,  2-N ) :   0.7964 B(  0-C ,  3-C ) :   0.6922
B(  0-C ,  4-H ) :   0.8809 B(  2-N , 29-H ) :   0.9049 B(  2-N , 30-H ) :   0.7623
B(  2-N , 31-H ) :   0.7636 B(  3-C ,  5-H ) :   0.9318 B(  3-C ,  6-H ) :   0.8599
B(  3-C ,  7-C ) :   0.6911 B(  7-C ,  8-H ) :   0.9635 B(  7-C ,  9-C ) :   0.2951
B(  7-C , 10-H ) :   0.9046 B(  7-C , 12-H ) :  -0.1024 B(  9-C , 11-H ) :   0.9554
B(  9-C , 12-H ) :   0.9358 B(  9-C , 13-C ) :   0.6759 B( 13-C , 14-C ) :   0.5724
B( 13-C , 15-H ) :   0.9542 B( 13-C , 16-H ) :   0.9527 B( 14-C , 17-H ) :   0.9673
B( 14-C , 18-C ) :   0.2424 B( 14-C , 19-H ) :   0.9412 B( 14-C , 21-H ) :  -0.2083
B( 18-C , 20-H ) :   0.8739 B( 18-C , 21-H ) :   1.2411 B( 18-C , 22-C ) :   0.6455
B( 18-C , 25-C ) :  -0.1421 B( 20-H , 21-H ) :   0.1237 B( 22-C , 23-H ) :   0.9022
B( 22-C , 24-H ) :   0.9547 B( 22-C , 25-C ) :   0.6163 B( 25-C , 26-C ) :   0.8307
B( 25-C , 27-H ) :   0.9955 B( 25-C , 28-H ) :   0.8632 B( 26-C , 32-O ) :   1.2318
B( 26-C , 33-O ) :   1.1381 B( 30-H , 32-O ) :   0.1926 B( 31-H , 33-O ) :   0.1601
B( 32-O , 33-O ) :   0.1295

FINAL SINGLE POINT ENERGY      -597.625353350732

DIPOLE MOMENT
-------------
                                X             Y             Z
Electronic contribution:     -4.66480       4.81936       6.70142
Nuclear contribution   :      5.60885      -3.40606      -8.06960
                        -----------------------------------------
Total Dipole Moment    :      0.94404       1.41330      -1.36817
                        -----------------------------------------
Magnitude (a.u.)       :      2.18187
Magnitude (Debye)      :      5.54587

Rotational constants in cm-1:     0.028465     0.023505     0.015110
Rotational constants in MHz :   853.363165   704.655786   452.976312

                             ****ORCA TERMINATED NORMALLY****
TOTAL RUN TIME: 0 days 0 hours 7 minutes 19 seconds 567 msec
