                         Program Version 5.0.0 -  RELEASE  -
|  1> !LC-BLYP RIJCOSX def2-TZVPD def2/J TightSCF
|  2> *xyz 0 1
|  3> C         -2.79070       -0.78527        5.70281
|  4> C         -2.45380        0.05510        6.94145
|  5> C         -2.07842        1.48042        6.56410
|  6> H         -1.62558       -0.38216        7.49891
|  7> H         -3.32527        0.08775        7.59917
|  8> F         -0.90125        1.85816        6.82810
|  9> O         -2.93658        2.17731        5.96415
| 10> H         -1.94052       -0.82114        5.05412
| 11> H         -3.61590       -0.34261        5.18514
| 12> H         -3.05063       -1.77815        6.00536
| 13> *
| 14> %MaxCore 64000
| 15>
| 16> %pal nprocs 4
| 17> end
| 18>
| 19> %scf
| 20>   MaxIter 150
| 21> end
| 22>
| 23>
| 24>                          ****END OF INPUT****

CARTESIAN COORDINATES (ANGSTROEM)
---------------------------------
  C     -2.790700   -0.785270    5.702810
  C     -2.453800    0.055100    6.941450
  C     -2.078420    1.480420    6.564100
  H     -1.625580   -0.382160    7.498910
  H     -3.325270    0.087750    7.599170
  F     -0.901250    1.858160    6.828100
  O     -2.936580    2.177310    5.964150
  H     -1.940520   -0.821140    5.054120
  H     -3.615900   -0.342610    5.185140
  H     -3.050630   -1.778150    6.005360

 Total Charge           Charge          ....    0
 Multiplicity           Mult            ....    1
 Number of Electrons    NEL             ....   40
 Basis Dimension        Dim             ....  236

ORBITAL ENERGIES
----------------

  NO   OCC          E(Eh)            E(eV)
   0   2.0000     -24.523886      -667.3289
   1   2.0000     -18.948032      -515.6022
   2   2.0000     -10.251680      -278.9624
   3   2.0000     -10.103104      -274.9194
   4   2.0000     -10.074689      -274.1462
   5   2.0000      -1.394986       -37.9595
   6   2.0000      -1.127711       -30.6866
   7   2.0000      -0.914257       -24.8782
   8   2.0000      -0.797872       -21.7112
   9   2.0000      -0.744127       -20.2487
  10   2.0000      -0.656010       -17.8509
  11   2.0000      -0.638839       -17.3837
  12   2.0000      -0.614934       -16.7332
  13   2.0000      -0.572163       -15.5693
  14   2.0000      -0.539421       -14.6784
  15   2.0000      -0.503731       -13.7072
  16   2.0000      -0.481683       -13.1073
  17   2.0000      -0.475597       -12.9417
  18   2.0000      -0.450697       -12.2641
  19   2.0000      -0.396802       -10.7975
  20   0.0000       0.040139         1.0922
  21   0.0000       0.052175         1.4198
  22   0.0000       0.071648         1.9497
  23   0.0000       0.078895         2.1469
  24   0.0000       0.088314         2.4031

MULLIKEN ATOMIC CHARGES
-----------------------
   0 C :   -1.272951
   1 C :   -0.458603
   2 C :    0.479960
   3 H :    0.358397
   4 H :    0.332038
   5 F :   -0.172914
   6 O :   -0.436504
   7 H :    0.404014
   8 H :    0.377539
   9 H :    0.389023
Sum of atomic charges:   -0.0000000

LOEWDIN ATOMIC CHARGES
----------------------
   0 C :   -0.097011
   1 C :   -0.171228
   2 C :   -0.512285
   3 H :    0.114599
   4 H :    0.127314
   5 F :    0.214051
   6 O :    0.092835
   7 H :    0.080061
   8 H :    0.077522
   9 H :    0.074141

  Mayer bond orders larger than 0.100000
B(  0-C ,  1-C ) :   0.5025 B(  0-C ,  7-H ) :   0.8795 B(  0-C ,  8-H ) :   0.9568
B(  0-C ,  9-H ) :   0.8940 B(  1-C ,  2-C ) :   0.8881 B(  1-C ,  3-H ) :   0.9172
B(  1-C ,  4-H ) :   0.9436 B(  2-C ,  5-F ) :   1.0480 B(  2-C ,  6-O ) :   1.7849

FINAL SINGLE POINT ENERGY      -291.906515987330

DIPOLE MOMENT
-------------
                                X             Y             Z
Electronic contribution:      3.96644       7.39928       1.50066
Nuclear contribution   :     -3.69486      -8.49563      -1.04945
                        -----------------------------------------
Total Dipole Moment    :      0.27158      -1.09635       0.45120
                        -----------------------------------------
Magnitude (a.u.)       :      1.21627
Magnitude (Debye)      :      3.09152

Rotational constants in cm-1:     0.293725     0.129218     0.102393
Rotational constants in MHz :  8805.653529  3873.869810  3069.666716

                             ****ORCA TERMINATED NORMALLY****
TOTAL RUN TIME: 0 days 0 hours 0 minutes 33 seconds 211 msec
