                         Program Version 5.0.0 -  RELEASE  -
|  1> !LC-BLYP RIJCOSX def2-TZVPD def2/J TightSCF
|  2> *xyz 0 1
|  3> C         -0.69912        3.48945        3.75516
|  4> H         -0.96672        4.34901        3.14049
|  5> C         -1.08067        3.79296        5.15686
|  6> C          0.77696        3.13839        3.61741
|  7> H         -1.33146        2.65651        3.44632
|  8> H         -0.87449        4.76274        5.42734
|  9> H         -0.68079        3.13476        5.83900
| 10> H         -2.05755        3.53169        5.34620
| 11> H          0.99957        2.92898        2.59199
| 12> H          0.99576        2.27685        4.21303
| 13> H          1.37223        3.96279        3.95046
| 14> *
| 15> %MaxCore 64000
| 16>
| 17> %pal nprocs 4
| 18> end
| 19>
| 20> %scf
| 21>   MaxIter 150
| 22> end
| 23>
| 24>
| 25>                          ****END OF INPUT****

CARTESIAN COORDINATES (ANGSTROEM)
---------------------------------
  C     -0.699120    3.489450    3.755160
  H     -0.966720    4.349010    3.140490
  C     -1.080670    3.792960    5.156860
  C      0.776960    3.138390    3.617410
  H     -1.331460    2.656510    3.446320
  H     -0.874490    4.762740    5.427340
  H     -0.680790    3.134760    5.839000
  H     -2.057550    3.531690    5.346200
  H      0.999570    2.928980    2.591990
  H      0.995760    2.276850    4.213030
  H      1.372230    3.962790    3.950460

 Total Charge           Charge          ....    0
 Multiplicity           Mult            ....    1
 Number of Electrons    NEL             ....   26
 Basis Dimension        Dim             ....  183

ORBITAL ENERGIES
----------------

  NO   OCC          E(Eh)            E(eV)
   0   2.0000     -10.054249      -273.5900
   1   2.0000     -10.044160      -273.3155
   2   2.0000     -10.026765      -272.8421
   3   2.0000      -0.900808       -24.5122
   4   2.0000      -0.800088       -21.7715
   5   2.0000      -0.695746       -18.9322
   6   2.0000      -0.579305       -15.7637
   7   2.0000      -0.545080       -14.8324
   8   2.0000      -0.501892       -13.6572
   9   2.0000      -0.496979       -13.5235
  10   2.0000      -0.438019       -11.9191
  11   2.0000      -0.425006       -11.5650
  12   2.0000      -0.422859       -11.5066
  13   0.0000       0.060041         1.6338
  14   0.0000       0.079755         2.1702
  15   0.0000       0.082952         2.2572
  16   0.0000       0.109504         2.9797
  17   0.0000       0.133043         3.6203

MULLIKEN ATOMIC CHARGES
-----------------------
   0 C :   -0.417796
   1 H :    0.339315
   2 C :   -1.435997
   3 C :   -1.259796
   4 H :    0.346840
   5 H :    0.390682
   6 H :    0.441874
   7 H :    0.459711
   8 H :    0.386298
   9 H :    0.379600
  10 H :    0.369271
Sum of atomic charges:   -0.0000000

LOEWDIN ATOMIC CHARGES
----------------------
   0 C :   -0.330531
   1 H :    0.109383
   2 C :   -0.144730
   3 C :   -0.127795
   4 H :    0.108079
   5 H :    0.062511
   6 H :    0.058631
   7 H :    0.056337
   8 H :    0.065326
   9 H :    0.070748
  10 H :    0.072040

  Mayer bond orders larger than 0.100000
B(  0-C ,  1-H ) :   0.9411 B(  0-C ,  2-C ) :   0.4865 B(  0-C ,  3-C ) :   0.5332
B(  0-C ,  4-H ) :   0.9470 B(  2-C ,  5-H ) :   0.8979 B(  2-C ,  6-H ) :   0.8765
B(  2-C ,  7-H ) :   0.8583 B(  3-C ,  8-H ) :   0.9345 B(  3-C ,  9-H ) :   0.9190
B(  3-C , 10-H ) :   0.9330

FINAL SINGLE POINT ENERGY      -118.780319524682

DIPOLE MOMENT
-------------
                                X             Y             Z
Electronic contribution:     -0.14631       0.11861      -0.39611
Nuclear contribution   :      0.10024      -0.14218       0.41628
                        -----------------------------------------
Total Dipole Moment    :     -0.04607      -0.02357       0.02018
                        -----------------------------------------
Magnitude (a.u.)       :      0.05554
Magnitude (Debye)      :      0.14117

Rotational constants in cm-1:     1.024179     0.291605     0.259489
Rotational constants in MHz : 30704.103454  8742.106283  7779.285909

                             ****ORCA TERMINATED NORMALLY****
TOTAL RUN TIME: 0 days 0 hours 0 minutes 18 seconds 19 msec
