                         Program Version 5.0.0 -  RELEASE  -
|  1> !LC-BLYP RIJCOSX def2-TZVPD def2/J TightSCF
|  2> *xyz 0 1
|  3> C         -2.79070       -0.78527        5.70281
|  4> C         -2.45380        0.05510        6.94145
|  5> C         -2.07842        1.48042        6.56410
|  6> H         -1.62558       -0.38216        7.49891
|  7> H         -3.32527        0.08775        7.59917
|  8> O         -0.90125        1.85816        6.82810
|  9> F         -2.93658        2.17731        5.96415
| 10> H         -1.94052       -0.82114        5.05412
| 11> H         -3.61590       -0.34261        5.18514
| 12> H         -3.05063       -1.77815        6.00536
| 13> *
| 14> %MaxCore 64000
| 15>
| 16> %pal nprocs 4
| 17> end
| 18>
| 19> %scf
| 20>   MaxIter 150
| 21> end
| 22>
| 23>
| 24>                          ****END OF INPUT****

CARTESIAN COORDINATES (ANGSTROEM)
---------------------------------
  C     -2.790700   -0.785270    5.702810
  C     -2.453800    0.055100    6.941450
  C     -2.078420    1.480420    6.564100
  H     -1.625580   -0.382160    7.498910
  H     -3.325270    0.087750    7.599170
  O     -0.901250    1.858160    6.828100
  F     -2.936580    2.177310    5.964150
  H     -1.940520   -0.821140    5.054120
  H     -3.615900   -0.342610    5.185140
  H     -3.050630   -1.778150    6.005360

 Total Charge           Charge          ....    0
 Multiplicity           Mult            ....    1
 Number of Electrons    NEL             ....   40
 Basis Dimension        Dim             ....  236

ORBITAL ENERGIES
----------------

  NO   OCC          E(Eh)            E(eV)
   0   2.0000     -24.527129      -667.4171
   1   2.0000     -18.946197      -515.5522
   2   2.0000     -10.251579      -278.9597
   3   2.0000     -10.102664      -274.9075
   4   2.0000     -10.078808      -274.2583
   5   2.0000      -1.400236       -38.1023
   6   2.0000      -1.122951       -30.5571
   7   2.0000      -0.917448       -24.9650
   8   2.0000      -0.795467       -21.6457
   9   2.0000      -0.751045       -20.4370
  10   2.0000      -0.660144       -17.9634
  11   2.0000      -0.645777       -17.5725
  12   2.0000      -0.608466       -16.5572
  13   2.0000      -0.572414       -15.5762
  14   2.0000      -0.539850       -14.6901
  15   2.0000      -0.506921       -13.7940
  16   2.0000      -0.485562       -13.2128
  17   2.0000      -0.478002       -13.0071
  18   2.0000      -0.452760       -12.3202
  19   2.0000      -0.390230       -10.6187
  20   0.0000       0.040648         1.1061
  21   0.0000       0.053543         1.4570
  22   0.0000       0.070621         1.9217
  23   0.0000       0.078145         2.1264
  24   0.0000       0.088658         2.4125

MULLIKEN ATOMIC CHARGES
-----------------------
   0 C :   -1.286777
   1 C :   -0.444982
   2 C :    0.496545
   3 H :    0.327052
   4 H :    0.355965
   5 O :   -0.453907
   6 F :   -0.172791
   7 H :    0.412604
   8 H :    0.384609
   9 H :    0.381682
Sum of atomic charges:   -0.0000000

LOEWDIN ATOMIC CHARGES
----------------------
   0 C :   -0.099174
   1 C :   -0.169218
   2 C :   -0.517184
   3 H :    0.122697
   4 H :    0.123659
   5 O :    0.084353
   6 F :    0.224290
   7 H :    0.081749
   8 H :    0.074215
   9 H :    0.074612

  Mayer bond orders larger than 0.100000
B(  0-C ,  1-C ) :   0.4524 B(  0-C ,  7-H ) :   0.9005 B(  0-C ,  8-H ) :   0.9180
B(  0-C ,  9-H ) :   0.9105 B(  1-C ,  2-C ) :   0.8820 B(  1-C ,  3-H ) :   0.9589
B(  1-C ,  4-H ) :   0.9205 B(  2-C ,  5-O ) :   1.7661 B(  2-C ,  6-F ) :   1.0399

FINAL SINGLE POINT ENERGY      -291.904027924625

DIPOLE MOMENT
-------------
                                X             Y             Z
Electronic contribution:      0.56372       7.90853       0.06021
Nuclear contribution   :     -1.47571      -8.84360      -0.10748
                        -----------------------------------------
Total Dipole Moment    :     -0.91199      -0.93507      -0.04727
                        -----------------------------------------
Magnitude (a.u.)       :      1.30702
Magnitude (Debye)      :      3.32219

Rotational constants in cm-1:     0.283081     0.133379     0.103386
Rotational constants in MHz :  8486.545774  3998.599544  3099.448040

                             ****ORCA TERMINATED NORMALLY****
TOTAL RUN TIME: 0 days 0 hours 0 minutes 33 seconds 151 msec
