                         Program Version 5.0.0 -  RELEASE  -
|  1> !LC-BLYP RIJCOSX def2-TZVPD def2/J TightSCF xyzfile
|  2>
|  3> *xyzfile 0 1 D1.xyz
|  4>
|  5> %MaxCore 64000
|  6>
|  7> %pal nprocs 4
|  8> end
|  9>
| 10> %scf
| 11>   MaxIter 150
| 12> end
| 13>
| 14>
| 15>                          ****END OF INPUT****

CARTESIAN COORDINATES (ANGSTROEM)
---------------------------------
  C     -0.699123    3.489451    3.755163
  H     -0.966716    4.349013    3.140491
  C     -1.080669    3.792957    5.156857
  C      0.776956    3.138391    3.617408
  H     -1.331455    2.656510    3.446323
  H      1.371398    3.888342    4.149744
  H      1.046926    3.232057    2.561331
  C      1.118917    1.731170    4.115155
  H      2.200573    1.654226    4.254882
  C      0.659466    0.635182    3.153306
  H      0.677024    1.576674    5.103150
  H      1.312288    0.638870    2.274207
  H     -0.339563    0.868049    2.772876
  C      0.639957   -0.771175    3.755619
  C     -0.341821   -0.965537    4.915046
  H      1.648266   -1.028665    4.097015
  H      0.398568   -1.482386    2.958453
  H     -0.279892   -2.005646    5.252547
  C     -1.789164   -0.639231    4.557496
  H     -0.032380   -0.352918    5.765118
  H     -2.107151   -1.270102    3.719619
  H     -1.856352    0.391636    4.197604
  C     -2.790700   -0.785275    5.702812
  H     -2.867308   -1.835651    6.001675
  H     -3.774554   -0.486577    5.334807
  C     -2.453797    0.055101    6.941445
  C     -2.078419    1.480421    6.564098
  H     -1.625584   -0.382163    7.498914
  H     -3.325274    0.087746    7.599175
  H     -0.874488    4.762737    5.427344
  H     -0.680793    3.134762    5.839000
  H     -2.057550    3.531691    5.346197
  F     -0.901252    1.858156    6.828104
  O     -2.936582    2.177309    5.964151

 Total Charge           Charge          ....    0
 Multiplicity           Mult            ....    1
 Number of Electrons    NEL             ....  104
 Basis Dimension        Dim             ....  676

ORBITAL ENERGIES
----------------

  NO   OCC          E(Eh)            E(eV)
   0   2.0000     -24.533121      -667.5802
   1   2.0000     -18.953358      -515.7471
   2   2.0000     -10.261597      -279.2323
   3   2.0000     -10.103939      -274.9421
   4   2.0000     -10.085674      -274.4451
   5   2.0000     -10.070885      -274.0427
   6   2.0000     -10.067956      -273.9630
   7   2.0000     -10.062692      -273.8198
   8   2.0000     -10.055361      -273.6203
   9   2.0000     -10.052725      -273.5486
  10   2.0000     -10.045569      -273.3538
  11   2.0000     -10.035915      -273.0911
  12   2.0000      -9.982280      -271.6317
  13   2.0000      -1.411316       -38.4039
  14   2.0000      -1.141182       -31.0531
  15   2.0000      -0.943519       -25.6745
  16   2.0000      -0.919084       -25.0096
  17   2.0000      -0.888119       -24.1669
  18   2.0000      -0.859357       -23.3843
  19   2.0000      -0.817064       -22.2335
  20   2.0000      -0.792883       -21.5755
  21   2.0000      -0.765202       -20.8222
  22   2.0000      -0.735249       -20.0071
  23   2.0000      -0.717339       -19.5198
  24   2.0000      -0.675577       -18.3834
  25   2.0000      -0.671924       -18.2840
  26   2.0000      -0.661666       -18.0048
  27   2.0000      -0.643072       -17.4989
  28   2.0000      -0.625837       -17.0299
  29   2.0000      -0.587962       -15.9993
  30   2.0000      -0.584357       -15.9012
  31   2.0000      -0.566931       -15.4270
  32   2.0000      -0.564792       -15.3688
  33   2.0000      -0.542130       -14.7521
  34   2.0000      -0.532645       -14.4940
  35   2.0000      -0.516685       -14.0597
  36   2.0000      -0.511111       -13.9080
  37   2.0000      -0.501861       -13.6563
  38   2.0000      -0.491712       -13.3802
  39   2.0000      -0.480570       -13.0770
  40   2.0000      -0.468204       -12.7405
  41   2.0000      -0.461348       -12.5539
  42   2.0000      -0.451796       -12.2940
  43   2.0000      -0.443030       -12.0555
  44   2.0000      -0.437144       -11.8953
  45   2.0000      -0.425630       -11.5820
  46   2.0000      -0.421121       -11.4593
  47   2.0000      -0.408837       -11.1250
  48   2.0000      -0.405013       -11.0210
  49   2.0000      -0.394125       -10.7247
  50   2.0000      -0.391521       -10.6538
  51   2.0000      -0.363378        -9.8880
  52   0.0000       0.033502         0.9116
  53   0.0000       0.048357         1.3159
  54   0.0000       0.058086         1.5806
  55   0.0000       0.061037         1.6609
  56   0.0000       0.067699         1.8422

MULLIKEN ATOMIC CHARGES
-----------------------
   0 C :   -0.349374
   1 H :    0.386497
   2 C :   -2.339729
   3 C :   -0.852090
   4 H :    0.297476
   5 H :    0.397368
   6 H :    0.373651
   7 C :   -0.517325
   8 H :    0.379942
   9 C :   -0.741091
  10 H :    0.311292
  11 H :    0.400434
  12 H :    0.376274
  13 C :   -0.993523
  14 C :   -0.612839
  15 H :    0.405164
  16 H :    0.410507
  17 H :    0.355557
  18 C :   -0.604403
  19 H :    0.380264
  20 H :    0.423224
  21 H :    0.220902
  22 C :   -0.864180
  23 H :    0.423227
  24 H :    0.399828
  25 C :   -0.764286
  26 C :    0.623513
  27 H :    0.401576
  28 H :    0.448564
  29 H :    0.539046
  30 H :    0.657576
  31 H :    0.798366
  32 F :   -0.261739
  33 O :   -0.509667
Sum of atomic charges:    0.0000000

LOEWDIN ATOMIC CHARGES
----------------------
   0 C :   -0.249245
   1 H :    0.115974
   2 C :   -0.131880
   3 C :   -0.219410
   4 H :    0.101692
   5 H :    0.118908
   6 H :    0.113207
   7 C :   -0.212283
   8 H :    0.120897
   9 C :   -0.226881
  10 H :    0.092437
  11 H :    0.120635
  12 H :    0.101752
  13 C :   -0.218152
  14 C :   -0.220472
  15 H :    0.117550
  16 H :    0.116059
  17 H :    0.123737
  18 C :   -0.215380
  19 H :    0.097908
  20 H :    0.130435
  21 H :    0.101241
  22 C :   -0.198520
  23 H :    0.122271
  24 H :    0.121726
  25 C :   -0.108140
  26 C :   -0.466243
  27 H :    0.120647
  28 H :    0.133794
  29 H :    0.075523
  30 H :    0.022530
  31 H :    0.021386
  32 F :    0.181830
  33 O :    0.094466

  Mayer bond orders larger than 0.100000
B(  0-C ,  1-H ) :   0.9062 B(  0-C ,  3-C ) :   0.6279 B(  0-C ,  4-H ) :   1.0485
B(  0-C , 30-H ) :  -0.1105 B(  2-C , 26-C ) :  -0.1172 B(  2-C , 29-H ) :   0.7223
B(  2-C , 30-H ) :   0.6058 B(  2-C , 31-H ) :   0.5276 B(  3-C ,  5-H ) :   0.9268
B(  3-C ,  6-H ) :   0.9193 B(  3-C ,  7-C ) :   0.7258 B(  7-C ,  8-H ) :   0.9363
B(  7-C ,  9-C ) :   0.3666 B(  7-C , 10-H ) :   1.0023 B(  9-C , 11-H ) :   0.9199
B(  9-C , 12-H ) :   0.9785 B(  9-C , 13-C ) :   0.6385 B( 13-C , 14-C ) :   0.6339
B( 13-C , 15-H ) :   0.9493 B( 13-C , 16-H ) :   0.9540 B( 14-C , 17-H ) :   0.9882
B( 14-C , 18-C ) :   0.1942 B( 14-C , 19-H ) :   0.9655 B( 14-C , 21-H ) :  -0.2093
B( 18-C , 19-H ) :  -0.1078 B( 18-C , 20-H ) :   0.8485 B( 18-C , 21-H ) :   1.2318
B( 18-C , 22-C ) :   0.6348 B( 18-C , 25-C ) :  -0.1303 B( 20-H , 21-H ) :   0.1123
B( 22-C , 23-H ) :   0.9014 B( 22-C , 24-H ) :   0.9314 B( 22-C , 25-C ) :   0.6340
B( 25-C , 26-C ) :   0.7646 B( 25-C , 27-H ) :   0.9763 B( 25-C , 28-H ) :   0.8623
B( 26-C , 32-F ) :   0.9138 B( 26-C , 33-O ) :   1.6244 B( 29-H , 31-H ) :   0.1277
B( 30-H , 32-F ) :  -0.2254 B( 31-H , 33-O ) :  -0.1752 B( 32-F , 33-O ) :   0.1079

FINAL SINGLE POINT ENERGY      -605.516449939429

DIPOLE MOMENT
-------------
                                X             Y             Z
Electronic contribution:     -5.47014       2.47551      10.84182
Nuclear contribution   :      5.54676      -3.70047     -10.28793
                        -----------------------------------------
Total Dipole Moment    :      0.07661      -1.22495       0.55389
                        -----------------------------------------
Magnitude (a.u.)       :      1.34654
Magnitude (Debye)      :      3.42263

Rotational constants in cm-1:     0.028503     0.023389     0.015214
Rotational constants in MHz :   854.502405   701.197575   456.108322

                             ****ORCA TERMINATED NORMALLY****
TOTAL RUN TIME: 0 days 0 hours 7 minutes 58 seconds 841 msec
