                         Program Version 5.0.0 -  RELEASE  -
|  1> !LC-BLYP RIJCOSX def2-TZVPD def2/J TightSCF xyzfile
|  2>
|  3> *xyzfile 0 1 D2.xyz
|  4>
|  5> %MaxCore 64000
|  6>
|  7> %pal nprocs 4
|  8> end
|  9>
| 10> %scf
| 11>   MaxIter 150
| 12> end
| 13>
| 14>
| 15>                          ****END OF INPUT****

CARTESIAN COORDINATES (ANGSTROEM)
---------------------------------
  C     -0.699123    3.489451    3.755163
  H     -0.966716    4.349013    3.140491
  C     -1.080669    3.792957    5.156857
  C      0.776956    3.138391    3.617408
  H     -1.331455    2.656510    3.446323
  H      1.371398    3.888342    4.149744
  H      1.046926    3.232057    2.561331
  C      1.118917    1.731170    4.115155
  H      2.200573    1.654226    4.254882
  C      0.659466    0.635182    3.153306
  H      0.677024    1.576674    5.103150
  H      1.312288    0.638870    2.274207
  H     -0.339563    0.868049    2.772876
  C      0.639957   -0.771175    3.755619
  C     -0.341821   -0.965537    4.915046
  H      1.648266   -1.028665    4.097015
  H      0.398568   -1.482386    2.958453
  H     -0.279892   -2.005646    5.252547
  C     -1.789164   -0.639231    4.557496
  H     -0.032380   -0.352918    5.765118
  H     -2.107151   -1.270102    3.719619
  H     -1.856352    0.391636    4.197604
  C     -2.790700   -0.785275    5.702812
  H     -2.867308   -1.835651    6.001675
  H     -3.774554   -0.486577    5.334807
  C     -2.453797    0.055101    6.941445
  C     -2.078419    1.480421    6.564098
  H     -1.625584   -0.382163    7.498914
  H     -3.325274    0.087746    7.599175
  H     -0.874488    4.762737    5.427344
  H     -0.680793    3.134762    5.839000
  H     -2.057550    3.531691    5.346197
  O     -0.901252    1.858156    6.828104
  F     -2.936582    2.177309    5.964151

 Total Charge           Charge          ....    0
 Multiplicity           Mult            ....    1
 Number of Electrons    NEL             ....  104
 Basis Dimension        Dim             ....  676

ORBITAL ENERGIES
----------------

  NO   OCC          E(Eh)            E(eV)
   0   2.0000     -24.536688      -667.6772
   1   2.0000     -18.953225      -515.7435
   2   2.0000     -10.263418      -279.2818
   3   2.0000     -10.104353      -274.9534
   4   2.0000     -10.089112      -274.5387
   5   2.0000     -10.073199      -274.1057
   6   2.0000     -10.062454      -273.8133
   7   2.0000     -10.058634      -273.7093
   8   2.0000     -10.051234      -273.5080
   9   2.0000     -10.044407      -273.3222
  10   2.0000     -10.042128      -273.2602
  11   2.0000     -10.035747      -273.0866
  12   2.0000      -9.981086      -271.5991
  13   2.0000      -1.414870       -38.5006
  14   2.0000      -1.140918       -31.0460
  15   2.0000      -0.944821       -25.7099
  16   2.0000      -0.916168       -24.9302
  17   2.0000      -0.886321       -24.1180
  18   2.0000      -0.857859       -23.3435
  19   2.0000      -0.813758       -22.1435
  20   2.0000      -0.789873       -21.4935
  21   2.0000      -0.767365       -20.8811
  22   2.0000      -0.731095       -19.8941
  23   2.0000      -0.718852       -19.5610
  24   2.0000      -0.674097       -18.3431
  25   2.0000      -0.672187       -18.2911
  26   2.0000      -0.664104       -18.0712
  27   2.0000      -0.643095       -17.4995
  28   2.0000      -0.621891       -16.9225
  29   2.0000      -0.590676       -16.0731
  30   2.0000      -0.585436       -15.9305
  31   2.0000      -0.565656       -15.3923
  32   2.0000      -0.559246       -15.2179
  33   2.0000      -0.536853       -14.6085
  34   2.0000      -0.527395       -14.3512
  35   2.0000      -0.519517       -14.1368
  36   2.0000      -0.510966       -13.9041
  37   2.0000      -0.504802       -13.7364
  38   2.0000      -0.490237       -13.3400
  39   2.0000      -0.477059       -12.9814
  40   2.0000      -0.473195       -12.8763
  41   2.0000      -0.467024       -12.7084
  42   2.0000      -0.450404       -12.2561
  43   2.0000      -0.442319       -12.0361
  44   2.0000      -0.434344       -11.8191
  45   2.0000      -0.424203       -11.5432
  46   2.0000      -0.417899       -11.3716
  47   2.0000      -0.407486       -11.0883
  48   2.0000      -0.401271       -10.9191
  49   2.0000      -0.390884       -10.6365
  50   2.0000      -0.388783       -10.5793
  51   2.0000      -0.353987        -9.6325
  52   0.0000       0.033442         0.9100
  53   0.0000       0.047859         1.3023
  54   0.0000       0.057812         1.5731
  55   0.0000       0.061556         1.6750
  56   0.0000       0.067838         1.8460

MULLIKEN ATOMIC CHARGES
-----------------------
   0 C :   -0.355230
   1 H :    0.380757
   2 C :   -2.329451
   3 C :   -0.874940
   4 H :    0.298825
   5 H :    0.402490
   6 H :    0.373770
   7 C :   -0.560026
   8 H :    0.372079
   9 C :   -0.733187
  10 H :    0.384219
  11 H :    0.401135
  12 H :    0.367610
  13 C :   -0.982674
  14 C :   -0.652907
  15 H :    0.400321
  16 H :    0.407850
  17 H :    0.359105
  18 C :   -0.510515
  19 H :    0.410257
  20 H :    0.421516
  21 H :    0.182404
  22 C :   -0.938961
  23 H :    0.420490
  24 H :    0.403790
  25 C :   -0.715874
  26 C :    0.600414
  27 H :    0.380296
  28 H :    0.482145
  29 H :    0.522097
  30 H :    0.767197
  31 H :    0.678464
  32 O :   -0.537429
  33 F :   -0.226034
Sum of atomic charges:    0.0000000

LOEWDIN ATOMIC CHARGES
----------------------
   0 C :   -0.252619
   1 H :    0.113545
   2 C :   -0.131846
   3 C :   -0.216969
   4 H :    0.098924
   5 H :    0.119881
   6 H :    0.112391
   7 C :   -0.209244
   8 H :    0.121088
   9 C :   -0.227642
  10 H :    0.093113
  11 H :    0.119688
  12 H :    0.100067
  13 C :   -0.217954
  14 C :   -0.217835
  15 H :    0.117926
  16 H :    0.114827
  17 H :    0.123532
  18 C :   -0.215989
  19 H :    0.100380
  20 H :    0.129758
  21 H :    0.100528
  22 C :   -0.202983
  23 H :    0.122612
  24 H :    0.118441
  25 C :   -0.103754
  26 C :   -0.463493
  27 H :    0.128415
  28 H :    0.130837
  29 H :    0.075908
  30 H :    0.001002
  31 H :    0.037729
  32 O :    0.067086
  33 F :    0.212652

  Mayer bond orders larger than 0.100000
B(  0-C ,  1-H ) :   0.9209 B(  0-C ,  2-C ) :  -0.1115 B(  0-C ,  3-C ) :   0.6711
B(  0-C ,  4-H ) :   1.0490 B(  0-C , 30-H ) :  -0.1137 B(  2-C , 26-C ) :  -0.1112
B(  2-C , 29-H ) :   0.7562 B(  2-C , 30-H ) :   0.5515 B(  2-C , 31-H ) :   0.5992
B(  2-C , 32-O ) :   0.1382 B(  3-C ,  5-H ) :   0.9153 B(  3-C ,  6-H ) :   0.9206
B(  3-C ,  7-C ) :   0.7263 B(  7-C ,  8-H ) :   0.9581 B(  7-C ,  9-C ) :   0.3275
B(  7-C , 10-H ) :   0.9642 B(  7-C , 12-H ) :  -0.1015 B(  9-C , 11-H ) :   0.9197
B(  9-C , 12-H ) :   0.9864 B(  9-C , 13-C ) :   0.6361 B( 13-C , 14-C ) :   0.6113
B( 13-C , 15-H ) :   0.9508 B( 13-C , 16-H ) :   0.9598 B( 14-C , 17-H ) :   0.9818
B( 14-C , 18-C ) :   0.2412 B( 14-C , 19-H ) :   0.9419 B( 14-C , 21-H ) :  -0.1853
B( 18-C , 20-H ) :   0.8711 B( 18-C , 21-H ) :   1.1926 B( 18-C , 22-C ) :   0.5663
B( 18-C , 25-C ) :  -0.1883 B( 20-H , 21-H ) :   0.1038 B( 22-C , 23-H ) :   0.8990
B( 22-C , 24-H ) :   0.9545 B( 22-C , 25-C ) :   0.5770 B( 25-C , 26-C ) :   0.7776
B( 25-C , 27-H ) :   0.9952 B( 25-C , 28-H ) :   0.8493 B( 26-C , 32-O ) :   1.7182
B( 26-C , 33-F ) :   0.8260 B( 29-H , 31-H ) :   0.1293 B( 30-H , 32-O ) :  -0.3175
B( 32-O , 33-F ) :   0.1146

FINAL SINGLE POINT ENERGY      -605.514478258189

DIPOLE MOMENT
-------------
                                X             Y             Z
Electronic contribution:     -8.95391       3.00450       9.46204
Nuclear contribution   :      8.07181      -4.09641      -9.21610
                        -----------------------------------------
Total Dipole Moment    :     -0.88210      -1.09191       0.24593
                        -----------------------------------------
Magnitude (a.u.)       :      1.42508
Magnitude (Debye)      :      3.62227

Rotational constants in cm-1:     0.028400     0.023377     0.015073
Rotational constants in MHz :   851.414727   700.831775   451.871218

                             ****ORCA TERMINATED NORMALLY****
TOTAL RUN TIME: 0 days 0 hours 8 minutes 37 seconds 517 msec
