                         Program Version 5.0.0 -  RELEASE  -
|  1> !wB97X-D3 RIJCOSX def2-TZVP def2/J TightSCF
|  2> *xyz -1 1
|  3> C          3.51177       -2.80621       -6.49228
|  4> S          3.00462       -1.09621       -6.38926
|  5> O          4.12886       -0.32965       -6.95372
|  6> O          1.78128       -1.00078       -7.13640
|  7> O          2.85155       -0.78368       -4.95679
|  8> H          3.63615       -3.08010       -7.51913
|  9> H          2.76397       -3.42755       -6.04548
| 10> H          4.43892       -2.93511       -5.97393
| 11> *
| 12>
| 13> %MaxCore 64000
| 14>
| 15> %pal nprocs 8
| 16> end
| 17>
| 18> %scf
| 19>   MaxIter 150
| 20> end
| 21>
| 22>
| 23>                          ****END OF INPUT****

CARTESIAN COORDINATES (ANGSTROEM)
---------------------------------
  C      3.511770   -2.806210   -6.492280
  S      3.004620   -1.096210   -6.389260
  O      4.128860   -0.329650   -6.953720
  O      1.781280   -1.000780   -7.136400
  O      2.851550   -0.783680   -4.956790
  H      3.636150   -3.080100   -7.519130
  H      2.763970   -3.427550   -6.045480
  H      4.438920   -2.935110   -5.973930

 Total Charge           Charge          ....   -1
 Multiplicity           Mult            ....    1
 Number of Electrons    NEL             ....   50
 Basis Dimension        Dim             ....  179

ORBITAL ENERGIES
----------------

  NO   OCC          E(Eh)            E(eV)
   0   2.0000     -88.928600     -2419.8702
   1   2.0000     -19.001967      -517.0698
   2   2.0000     -18.990493      -516.7576
   3   2.0000     -18.989997      -516.7441
   4   2.0000     -10.122038      -275.4347
   5   2.0000      -7.990722      -217.4386
   6   2.0000      -5.945175      -161.7764
   7   2.0000      -5.943694      -161.7361
   8   2.0000      -5.943425      -161.7288
   9   2.0000      -1.029030       -28.0013
  10   2.0000      -0.894909       -24.3517
  11   2.0000      -0.874811       -23.8048
  12   2.0000      -0.696011       -18.9394
  13   2.0000      -0.488439       -13.2911
  14   2.0000      -0.392202       -10.6724
  15   2.0000      -0.386183       -10.5086
  16   2.0000      -0.385006       -10.4765
  17   2.0000      -0.337296        -9.1783
  18   2.0000      -0.335265        -9.1230
  19   2.0000      -0.239444        -6.5156
  20   2.0000      -0.238703        -6.4954
  21   2.0000      -0.201877        -5.4934
  22   2.0000      -0.195378        -5.3165
  23   2.0000      -0.187823        -5.1109
  24   2.0000      -0.147960        -4.0262
  25   0.0000       0.276309         7.5188
  26   0.0000       0.332027         9.0349
  27   0.0000       0.333960         9.0875
  28   0.0000       0.348611         9.4862
  29   0.0000       0.420914        11.4536

MULLIKEN ATOMIC CHARGES
-----------------------
   0 C :   -0.384139
   1 S :    0.847841
   2 O :   -0.597911
   3 O :   -0.557931
   4 O :   -0.597518
   5 H :    0.095660
   6 H :    0.093967
   7 H :    0.100030
Sum of atomic charges:   -1.0000000

LOEWDIN ATOMIC CHARGES
----------------------
   0 C :   -0.461385
   1 S :    0.401339
   2 O :   -0.426434
   3 O :   -0.378993
   4 O :   -0.427249
   5 H :    0.097472
   6 H :    0.096523
   7 H :    0.098726

  Mayer bond orders larger than 0.100000
B(  0-C ,  1-S ) :   0.8744 B(  0-C ,  5-H ) :   0.9674 B(  0-C ,  6-H ) :   0.9667
B(  0-C ,  7-H ) :   0.9696 B(  1-S ,  2-O ) :   1.7639 B(  1-S ,  3-O ) :   1.8072
B(  1-S ,  4-O ) :   1.7655

Dispersion correction           -0.001518362
FINAL SINGLE POINT ENERGY      -663.899651327727

DIPOLE MOMENT
-------------
                                X             Y             Z
Electronic contribution:     -1.29824       4.05404       0.18465
Nuclear contribution   :      1.59265      -5.51967      -0.35565
                        -----------------------------------------
Total Dipole Moment    :      0.29441      -1.46562      -0.17100
                        -----------------------------------------
Magnitude (a.u.)       :      1.50465
Magnitude (Debye)      :      3.82451

Rotational constants in cm-1:     0.172598     0.157065     0.154689
Rotational constants in MHz :  5174.362736  4708.699947  4637.458896

                             ****ORCA TERMINATED NORMALLY****
TOTAL RUN TIME: 0 days 0 hours 0 minutes 11 seconds 937 msec
