                         Program Version 5.0.0 -  RELEASE  -
|  1> !wB97X-D3 RIJCOSX def2-TZVP def2/J TightSCF
|  2> *xyz 1 1
|  3> C          4.49059        1.15590       -2.46929
|  4> N          4.30539        1.22276       -3.90832
|  5> C          4.63192        2.24637       -4.67096
|  6> N          4.54169        2.14399       -5.98714
|  7> N          5.08409        3.39358       -4.11855
|  8> H          4.92067        3.57050       -3.13587
|  9> H          5.25465        4.19739       -4.70696
| 10> H          3.82453        0.44911       -4.35093
| 11> H          4.34337        1.24932       -6.41665
| 12> H          4.67671        2.95662       -6.57411
| 13> H          5.00867        2.03053       -2.13534
| 14> H          5.06354        0.28631       -2.22344
| 15> H          3.53600        1.10160       -1.98897
| 16> *
| 17>
| 18> %MaxCore 64000
| 19>
| 20> %pal nprocs 8
| 21> end
| 22>
| 23> %scf
| 24>   MaxIter 150
| 25> end
| 26>
| 27>
| 28>                          ****END OF INPUT****

CARTESIAN COORDINATES (ANGSTROEM)
---------------------------------
  C      4.490590    1.155900   -2.469290
  N      4.305390    1.222760   -3.908320
  C      4.631920    2.246370   -4.670960
  N      4.541690    2.143990   -5.987140
  N      5.084090    3.393580   -4.118550
  H      4.920670    3.570500   -3.135870
  H      5.254650    4.197390   -4.706960
  H      3.824530    0.449110   -4.350930
  H      4.343370    1.249320   -6.416650
  H      4.676710    2.956620   -6.574110
  H      5.008670    2.030530   -2.135340
  H      5.063540    0.286310   -2.223440
  H      3.536000    1.101600   -1.988970

 Total Charge           Charge          ....    1
 Multiplicity           Mult            ....    1
 Number of Electrons    NEL             ....   40
 Basis Dimension        Dim             ....  203

ORBITAL ENERGIES
----------------

  NO   OCC          E(Eh)            E(eV)
   0   2.0000     -14.652590      -398.7172
   1   2.0000     -14.647424      -398.5767
   2   2.0000     -14.644206      -398.4891
   3   2.0000     -10.617323      -288.9121
   4   2.0000     -10.478298      -285.1290
   5   2.0000      -1.338198       -36.4142
   6   2.0000      -1.225700       -33.3530
   7   2.0000      -1.209228       -32.9048
   8   2.0000      -1.023271       -27.8446
   9   2.0000      -0.938036       -25.5253
  10   2.0000      -0.895586       -24.3701
  11   2.0000      -0.861143       -23.4329
  12   2.0000      -0.794306       -21.6142
  13   2.0000      -0.790419       -21.5084
  14   2.0000      -0.758868       -20.6498
  15   2.0000      -0.740566       -20.1518
  16   2.0000      -0.693721       -18.8771
  17   2.0000      -0.680282       -18.5114
  18   2.0000      -0.574220       -15.6253
  19   2.0000      -0.548451       -14.9241
  20   0.0000      -0.081567        -2.2195
  21   0.0000      -0.068784        -1.8717
  22   0.0000      -0.035187        -0.9575
  23   0.0000      -0.026299        -0.7156
  24   0.0000      -0.004129        -0.1124

MULLIKEN ATOMIC CHARGES
-----------------------
   0 C :   -0.238875
   1 N :   -0.298818
   2 C :    0.512594
   3 N :   -0.452210
   4 N :   -0.471311
   5 H :    0.292531
   6 H :    0.293853
   7 H :    0.277005
   8 H :    0.302570
   9 H :    0.302580
  10 H :    0.117434
  11 H :    0.180121
  12 H :    0.182524
Sum of atomic charges:    1.0000000

LOEWDIN ATOMIC CHARGES
----------------------
   0 C :   -0.252834
   1 N :    0.149760
   2 C :   -0.398738
   3 N :    0.066856
   4 N :    0.046662
   5 H :    0.192232
   6 H :    0.196373
   7 H :    0.212867
   8 H :    0.201150
   9 H :    0.200968
  10 H :    0.121230
  11 H :    0.133043
  12 H :    0.130433

  Mayer bond orders larger than 0.100000
B(  0-C ,  1-N ) :   0.8890 B(  0-C , 10-H ) :   0.9739 B(  0-C , 11-H ) :   0.9612
B(  0-C , 12-H ) :   0.9598 B(  1-N ,  2-C ) :   1.3962 B(  1-N ,  7-H ) :   0.8983
B(  2-C ,  3-N ) :   1.3369 B(  2-C ,  4-N ) :   1.3033 B(  3-N ,  8-H ) :   0.8910
B(  3-N ,  9-H ) :   0.8896 B(  4-N ,  5-H ) :   0.8942 B(  4-N ,  6-H ) :   0.8951

Dispersion correction           -0.002329592
FINAL SINGLE POINT ENERGY      -245.107506479047

DIPOLE MOMENT
-------------
                                X             Y             Z
Electronic contribution:      0.01556       0.69469      -2.70884
Nuclear contribution   :     -0.23495      -0.48067       2.19509
                        -----------------------------------------
Total Dipole Moment    :     -0.21938       0.21402      -0.51375
                        -----------------------------------------
Magnitude (a.u.)       :      0.59823
Magnitude (Debye)      :      1.52057

Rotational constants in cm-1:     0.315679     0.134071     0.096006
Rotational constants in MHz :  9463.824527  4019.347586  2878.182223

                             ****ORCA TERMINATED NORMALLY****
TOTAL RUN TIME: 0 days 0 hours 0 minutes 17 seconds 561 msec
