                         Program Version 5.0.0 -  RELEASE  -
|  1> !wB97X-D3 RIJCOSX def2-TZVP def2/J TightSCF
|  2> *xyz 0 1
|  3> C          3.51177       -2.80621       -6.49228
|  4> S          3.00462       -1.09621       -6.38926
|  5> F          4.12886       -0.32965       -6.95372
|  6> O          1.78128       -1.00078       -7.13640
|  7> O          2.85155       -0.78368       -4.95679
|  8> H          3.63615       -3.08010       -7.51913
|  9> H          2.76397       -3.42755       -6.04548
| 10> H          4.43892       -2.93511       -5.97393
| 11> *
| 12>
| 13> %MaxCore 64000
| 14>
| 15> %pal nprocs 8
| 16> end
| 17>
| 18> %scf
| 19>   MaxIter 150
| 20> end
| 21>
| 22>
| 23>                          ****END OF INPUT****

CARTESIAN COORDINATES (ANGSTROEM)
---------------------------------
  C      3.511770   -2.806210   -6.492280
  S      3.004620   -1.096210   -6.389260
  F      4.128860   -0.329650   -6.953720
  O      1.781280   -1.000780   -7.136400
  O      2.851550   -0.783680   -4.956790
  H      3.636150   -3.080100   -7.519130
  H      2.763970   -3.427550   -6.045480
  H      4.438920   -2.935110   -5.973930

 Total Charge           Charge          ....    0
 Multiplicity           Mult            ....    1
 Number of Electrons    NEL             ....   50
 Basis Dimension        Dim             ....  179

ORBITAL ENERGIES
----------------

  NO   OCC          E(Eh)            E(eV)
   0   2.0000     -89.200955     -2427.2814
   1   2.0000     -24.895580      -677.4432
   2   2.0000     -19.247335      -523.7466
   3   2.0000     -19.236162      -523.4426
   4   2.0000     -10.333892      -281.1995
   5   2.0000      -8.263562      -224.8630
   6   2.0000      -6.221006      -169.2822
   7   2.0000      -6.214913      -169.1164
   8   2.0000      -6.214031      -169.0924
   9   2.0000      -1.479045       -40.2469
  10   2.0000      -1.227651       -33.4061
  11   2.0000      -1.128262       -30.7016
  12   2.0000      -0.920249       -25.0413
  13   2.0000      -0.816131       -22.2081
  14   2.0000      -0.697480       -18.9794
  15   2.0000      -0.678052       -18.4507
  16   2.0000      -0.659265       -17.9395
  17   2.0000      -0.581469       -15.8226
  18   2.0000      -0.577793       -15.7225
  19   2.0000      -0.566127       -15.4051
  20   2.0000      -0.538346       -14.6491
  21   2.0000      -0.488525       -13.2934
  22   2.0000      -0.439302       -11.9540
  23   2.0000      -0.428380       -11.6568
  24   2.0000      -0.409434       -11.1413
  25   0.0000       0.102130         2.7791
  26   0.0000       0.129511         3.5242
  27   0.0000       0.145402         3.9566
  28   0.0000       0.156212         4.2507
  29   0.0000       0.166158         4.5214

MULLIKEN ATOMIC CHARGES
-----------------------
   0 C :   -0.385275
   1 S :    0.869055
   2 F :   -0.117996
   3 O :   -0.412054
   4 O :   -0.450751
   5 H :    0.158839
   6 H :    0.178649
   7 H :    0.159532
Sum of atomic charges:    0.0000000

LOEWDIN ATOMIC CHARGES
----------------------
   0 C :   -0.398482
   1 S :    0.531045
   2 F :    0.061618
   3 O :   -0.261343
   4 O :   -0.307355
   5 H :    0.120726
   6 H :    0.132855
   7 H :    0.120936

  Mayer bond orders larger than 0.100000
B(  0-C ,  1-S ) :   0.9252 B(  0-C ,  5-H ) :   0.9455 B(  0-C ,  6-H ) :   0.9470
B(  0-C ,  7-H ) :   0.9471 B(  1-S ,  2-F ) :   1.1211 B(  1-S ,  3-O ) :   1.9464
B(  1-S ,  4-O ) :   1.9016

Dispersion correction           -0.001527781
FINAL SINGLE POINT ENERGY      -688.431779237929

DIPOLE MOMENT
-------------
                                X             Y             Z
Electronic contribution:      0.60225       5.26825      -0.79037
Nuclear contribution   :      0.51040      -6.36905       0.21167
                        -----------------------------------------
Total Dipole Moment    :      1.11265      -1.10080      -0.57870
                        -----------------------------------------
Magnitude (a.u.)       :      1.66872
Magnitude (Debye)      :      4.24155

Rotational constants in cm-1:     0.163860     0.154073     0.147119
Rotational constants in MHz :  4912.396151  4618.979177  4410.507958

                             ****ORCA TERMINATED NORMALLY****
TOTAL RUN TIME: 0 days 0 hours 0 minutes 12 seconds 610 msec
