                         Program Version 5.0.0 -  RELEASE  -
|  1> !wB97X-D3 RIJCOSX def2-TZVP def2/J TightSCF
|  2> *xyz 0 1
|  3> C          4.49059        1.15590       -2.46929
|  4> C          4.30539        1.22276       -3.90832
|  5> C          4.63192        2.24637       -4.67096
|  6> N          4.54169        2.14399       -5.98714
|  7> N          5.08409        3.39358       -4.11855
|  8> H          4.92067        3.57050       -3.13587
|  9> H          5.25465        4.19739       -4.70696
| 10> H          3.82453        0.44911       -4.35093
| 11> H          4.34337        1.24932       -6.41665
| 12> H          4.67671        2.95662       -6.57411
| 13> H          5.00867        2.03053       -2.13534
| 14> H          5.06354        0.28631       -2.22344
| 15> H          3.53600        1.10160       -1.98897
| 16> *
| 17>
| 18> %MaxCore 64000
| 19>
| 20> %pal nprocs 8
| 21> end
| 22>
| 23> %scf
| 24>   MaxIter 150
| 25> end
| 26>
| 27>
| 28>                          ****END OF INPUT****

CARTESIAN COORDINATES (ANGSTROEM)
---------------------------------
  C      4.490590    1.155900   -2.469290
  C      4.305390    1.222760   -3.908320
  C      4.631920    2.246370   -4.670960
  N      4.541690    2.143990   -5.987140
  N      5.084090    3.393580   -4.118550
  H      4.920670    3.570500   -3.135870
  H      5.254650    4.197390   -4.706960
  H      3.824530    0.449110   -4.350930
  H      4.343370    1.249320   -6.416650
  H      4.676710    2.956620   -6.574110
  H      5.008670    2.030530   -2.135340
  H      5.063540    0.286310   -2.223440
  H      3.536000    1.101600   -1.988970

 Total Charge           Charge          ....    0
 Multiplicity           Mult            ....    1
 Number of Electrons    NEL             ....   40
 Basis Dimension        Dim             ....  203

ORBITAL ENERGIES
----------------

  NO   OCC          E(Eh)            E(eV)
   0   2.0000     -14.415426      -392.2637
   1   2.0000     -14.414640      -392.2423
   2   2.0000     -10.313811      -280.6531
   3   2.0000     -10.233300      -278.4622
   4   2.0000     -10.190525      -277.2983
   5   2.0000      -1.072913       -29.1955
   6   2.0000      -0.980814       -26.6893
   7   2.0000      -0.866072       -23.5670
   8   2.0000      -0.766905       -20.8685
   9   2.0000      -0.685072       -18.6418
  10   2.0000      -0.640161       -17.4197
  11   2.0000      -0.612969       -16.6797
  12   2.0000      -0.568879       -15.4800
  13   2.0000      -0.519213       -14.1285
  14   2.0000      -0.506504       -13.7827
  15   2.0000      -0.471245       -12.8232
  16   2.0000      -0.454048       -12.3553
  17   2.0000      -0.435061       -11.8386
  18   2.0000      -0.356025        -9.6879
  19   2.0000      -0.240049        -6.5321
  20   0.0000       0.105499         2.8708
  21   0.0000       0.138328         3.7641
  22   0.0000       0.150264         4.0889
  23   0.0000       0.176820         4.8115
  24   0.0000       0.181651         4.9430

MULLIKEN ATOMIC CHARGES
-----------------------
   0 C :   -0.277872
   1 C :   -0.339897
   2 C :    0.377344
   3 N :   -0.519917
   4 N :   -0.537925
   5 H :    0.245997
   6 H :    0.225123
   7 H :    0.089779
   8 H :    0.255210
   9 H :    0.226724
  10 H :    0.046777
  11 H :    0.104194
  12 H :    0.104462
Sum of atomic charges:   -0.0000000

LOEWDIN ATOMIC CHARGES
----------------------
   0 C :   -0.308536
   1 C :   -0.307935
   2 C :   -0.461924
   3 N :   -0.018898
   4 N :   -0.034905
   5 H :    0.170185
   6 H :    0.160161
   7 H :    0.116671
   8 H :    0.179008
   9 H :    0.162144
  10 H :    0.110334
  11 H :    0.118187
  12 H :    0.115506

  Mayer bond orders larger than 0.100000
B(  0-C ,  1-C ) :   0.9826 B(  0-C , 10-H ) :   0.9894 B(  0-C , 11-H ) :   0.9849
B(  0-C , 12-H ) :   0.9849 B(  1-C ,  2-C ) :   1.6904 B(  1-C ,  7-H ) :   0.9988
B(  2-C ,  3-N ) :   1.1355 B(  2-C ,  4-N ) :   1.0992 B(  3-N ,  8-H ) :   0.9183
B(  3-N ,  9-H ) :   0.9258 B(  4-N ,  5-H ) :   0.9205 B(  4-N ,  6-H ) :   0.9286

Dispersion correction           -0.002331427
FINAL SINGLE POINT ENERGY      -228.625217003970

DIPOLE MOMENT
-------------
                                X             Y             Z
Electronic contribution:      0.30858       1.41010      -2.92711
Nuclear contribution   :     -0.29662      -0.64714       2.26125
                        -----------------------------------------
Total Dipole Moment    :      0.01196       0.76296      -0.66586
                        -----------------------------------------
Magnitude (a.u.)       :      1.01273
Magnitude (Debye)      :      2.57415

Rotational constants in cm-1:     0.320965     0.135060     0.096994
Rotational constants in MHz :  9622.302637  4048.999301  2907.812202

                             ****ORCA TERMINATED NORMALLY****
TOTAL RUN TIME: 0 days 0 hours 0 minutes 18 seconds 227 msec
