                         Program Version 5.0.0 -  RELEASE  -
|  1> !wB97X-D3 RIJCOSX def2-TZVP def2/J TightSCF
|  2> *xyz 0 1
|  3> C          3.51177       -2.80621       -6.49228
|  4> S          3.00462       -1.09621       -6.38926
|  5> O          4.12886       -0.32965       -6.95372
|  6> F          1.78128       -1.00078       -7.13640
|  7> O          2.85155       -0.78368       -4.95679
|  8> H          3.63615       -3.08010       -7.51913
|  9> H          2.76397       -3.42755       -6.04548
| 10> H          4.43892       -2.93511       -5.97393
| 11> *
| 12>
| 13> %MaxCore 64000
| 14>
| 15> %pal nprocs 8
| 16> end
| 17>
| 18> %scf
| 19>   MaxIter 150
| 20> end
| 21>
| 22>
| 23>                          ****END OF INPUT****

CARTESIAN COORDINATES (ANGSTROEM)
---------------------------------
  C      3.511770   -2.806210   -6.492280
  S      3.004620   -1.096210   -6.389260
  O      4.128860   -0.329650   -6.953720
  F      1.781280   -1.000780   -7.136400
  O      2.851550   -0.783680   -4.956790
  H      3.636150   -3.080100   -7.519130
  H      2.763970   -3.427550   -6.045480
  H      4.438920   -2.935110   -5.973930

 Total Charge           Charge          ....    0
 Multiplicity           Mult            ....    1
 Number of Electrons    NEL             ....   50
 Basis Dimension        Dim             ....  179

ORBITAL ENERGIES
----------------

  NO   OCC          E(Eh)            E(eV)
   0   2.0000     -89.202922     -2427.3349
   1   2.0000     -24.914047      -677.9457
   2   2.0000     -19.236526      -523.4525
   3   2.0000     -19.235849      -523.4341
   4   2.0000     -10.334403      -281.2134
   5   2.0000      -8.265491      -224.9154
   6   2.0000      -6.222911      -169.3340
   7   2.0000      -6.216684      -169.1646
   8   2.0000      -6.216037      -169.1470
   9   2.0000      -1.509635       -41.0793
  10   2.0000      -1.214000       -33.0346
  11   2.0000      -1.114821       -30.3358
  12   2.0000      -0.921977       -25.0883
  13   2.0000      -0.831460       -22.6252
  14   2.0000      -0.713067       -19.4035
  15   2.0000      -0.699675       -19.0391
  16   2.0000      -0.662512       -18.0279
  17   2.0000      -0.581107       -15.8127
  18   2.0000      -0.574853       -15.6426
  19   2.0000      -0.566578       -15.4174
  20   2.0000      -0.531954       -14.4752
  21   2.0000      -0.481094       -13.0912
  22   2.0000      -0.429480       -11.6867
  23   2.0000      -0.423722       -11.5301
  24   2.0000      -0.398537       -10.8447
  25   0.0000       0.101773         2.7694
  26   0.0000       0.132190         3.5971
  27   0.0000       0.143933         3.9166
  28   0.0000       0.148595         4.0435
  29   0.0000       0.167332         4.5533

MULLIKEN ATOMIC CHARGES
-----------------------
   0 C :   -0.384084
   1 S :    0.865461
   2 O :   -0.443652
   3 F :   -0.091263
   4 O :   -0.443792
   5 H :    0.158005
   6 H :    0.157459
   7 H :    0.181867
Sum of atomic charges:    0.0000000

LOEWDIN ATOMIC CHARGES
----------------------
   0 C :   -0.399032
   1 S :    0.525601
   2 O :   -0.303191
   3 F :    0.106130
   4 O :   -0.304116
   5 H :    0.120500
   6 H :    0.119919
   7 H :    0.134188

  Mayer bond orders larger than 0.100000
B(  0-C ,  1-S ) :   0.9254 B(  0-C ,  5-H ) :   0.9453 B(  0-C ,  6-H ) :   0.9454
B(  0-C ,  7-H ) :   0.9476 B(  1-S ,  2-O ) :   1.9022 B(  1-S ,  3-F ) :   1.1560
B(  1-S ,  4-O ) :   1.9034

Dispersion correction           -0.001528726
FINAL SINGLE POINT ENERGY      -688.416906857834

DIPOLE MOMENT
-------------
                                X             Y             Z
Electronic contribution:     -3.35534       4.13803      -1.08838
Nuclear contribution   :      2.85578      -5.69854       0.39418
                        -----------------------------------------
Total Dipole Moment    :     -0.49956      -1.56051      -0.69421
                        -----------------------------------------
Magnitude (a.u.)       :      1.77952
Magnitude (Debye)      :      4.52318

Rotational constants in cm-1:     0.163257     0.155833     0.146211
Rotational constants in MHz :  4894.333085  4671.750883  4383.281537

                             ****ORCA TERMINATED NORMALLY****
TOTAL RUN TIME: 0 days 0 hours 0 minutes 12 seconds 487 msec
