                         Program Version 5.0.0 -  RELEASE  -
|  1> !wB97X-D3 RIJCOSX def2-TZVP def2/J TightSCF
|  2> *xyz 0 1
|  3> C          4.49059        1.15590       -2.46929
|  4> N          4.30539        1.22276       -3.90832
|  5> C          4.63192        2.24637       -4.67096
|  6> C          4.54169        2.14399       -5.98714
|  7> N          5.08409        3.39358       -4.11855
|  8> H          4.92067        3.57050       -3.13587
|  9> H          5.25465        4.19739       -4.70696
| 10> H          3.82453        0.44911       -4.35093
| 11> H          4.34337        1.24932       -6.41665
| 12> H          4.67671        2.95662       -6.57411
| 13> H          5.00867        2.03053       -2.13534
| 14> H          5.06354        0.28631       -2.22344
| 15> H          3.53600        1.10160       -1.98897
| 16> *
| 17>
| 18> %MaxCore 64000
| 19>
| 20> %pal nprocs 8
| 21> end
| 22>
| 23> %scf
| 24>   MaxIter 150
| 25> end
| 26>
| 27>
| 28>                          ****END OF INPUT****

CARTESIAN COORDINATES (ANGSTROEM)
---------------------------------
  C      4.490590    1.155900   -2.469290
  N      4.305390    1.222760   -3.908320
  C      4.631920    2.246370   -4.670960
  C      4.541690    2.143990   -5.987140
  N      5.084090    3.393580   -4.118550
  H      4.920670    3.570500   -3.135870
  H      5.254650    4.197390   -4.706960
  H      3.824530    0.449110   -4.350930
  H      4.343370    1.249320   -6.416650
  H      4.676710    2.956620   -6.574110
  H      5.008670    2.030530   -2.135340
  H      5.063540    0.286310   -2.223440
  H      3.536000    1.101600   -1.988970

 Total Charge           Charge          ....    0
 Multiplicity           Mult            ....    1
 Number of Electrons    NEL             ....   40
 Basis Dimension        Dim             ....  203

ORBITAL ENERGIES
----------------

  NO   OCC          E(Eh)            E(eV)
   0   2.0000     -14.421520      -392.4295
   1   2.0000     -14.417627      -392.3236
   2   2.0000     -10.320218      -280.8274
   3   2.0000     -10.304479      -280.3991
   4   2.0000     -10.178805      -276.9794
   5   2.0000      -1.084262       -29.5043
   6   2.0000      -0.994628       -27.0652
   7   2.0000      -0.859307       -23.3829
   8   2.0000      -0.778313       -21.1790
   9   2.0000      -0.707198       -19.2438
  10   2.0000      -0.639257       -17.3951
  11   2.0000      -0.592256       -16.1161
  12   2.0000      -0.572682       -15.5835
  13   2.0000      -0.554795       -15.0967
  14   2.0000      -0.505773       -13.7628
  15   2.0000      -0.486453       -13.2371
  16   2.0000      -0.480464       -13.0741
  17   2.0000      -0.456988       -12.4353
  18   2.0000      -0.345739        -9.4080
  19   2.0000      -0.247109        -6.7242
  20   0.0000       0.108075         2.9409
  21   0.0000       0.137747         3.7483
  22   0.0000       0.147802         4.0219
  23   0.0000       0.166208         4.5228
  24   0.0000       0.182937         4.9780

MULLIKEN ATOMIC CHARGES
-----------------------
   0 C :   -0.210820
   1 N :   -0.355475
   2 C :    0.443112
   3 C :   -0.579050
   4 N :   -0.537661
   5 H :    0.222410
   6 H :    0.253669
   7 H :    0.235357
   8 H :    0.098495
   9 H :    0.094853
  10 H :    0.091170
  11 H :    0.121303
  12 H :    0.122636
Sum of atomic charges:    0.0000000

LOEWDIN ATOMIC CHARGES
----------------------
   0 C :   -0.301011
   1 N :    0.095320
   2 C :   -0.460555
   3 C :   -0.347749
   4 N :   -0.029276
   5 H :    0.156077
   6 H :    0.176367
   7 H :    0.194320
   8 H :    0.095758
   9 H :    0.095156
  10 H :    0.110791
  11 H :    0.108761
  12 H :    0.106042

  Mayer bond orders larger than 0.100000
B(  0-C ,  1-N ) :   0.9345 B(  0-C , 10-H ) :   0.9824 B(  0-C , 11-H ) :   0.9772
B(  0-C , 12-H ) :   0.9742 B(  1-N ,  2-C ) :   1.1923 B(  1-N ,  7-H ) :   0.9250
B(  2-C ,  3-C ) :   1.5827 B(  2-C ,  4-N ) :   1.1193 B(  3-C ,  8-H ) :   1.0183
B(  3-C ,  9-H ) :   1.0131 B(  4-N ,  5-H ) :   0.9269 B(  4-N ,  6-H ) :   0.9215

Dispersion correction           -0.002342100
FINAL SINGLE POINT ENERGY      -228.614921430733

DIPOLE MOMENT
-------------
                                X             Y             Z
Electronic contribution:      0.08728       0.51630      -0.71980
Nuclear contribution   :     -0.24876      -0.46055       1.84019
                        -----------------------------------------
Total Dipole Moment    :     -0.16148       0.05575       1.12039
                        -----------------------------------------
Magnitude (a.u.)       :      1.13334
Magnitude (Debye)      :      2.88072

Rotational constants in cm-1:     0.322158     0.139919     0.099594
Rotational constants in MHz :  9658.057362  4194.660927  2985.745059

                             ****ORCA TERMINATED NORMALLY****
TOTAL RUN TIME: 0 days 0 hours 0 minutes 18 seconds 694 msec
