                         Program Version 5.0.0 -  RELEASE  -
|  1> !wB97X-D3 RIJCOSX def2-TZVP def2/J TightSCF
|  2> *xyz 0 1
|  3> C          3.51177       -2.80621       -6.49228
|  4> S          3.00462       -1.09621       -6.38926
|  5> O          4.12886       -0.32965       -6.95372
|  6> O          1.78128       -1.00078       -7.13640
|  7> F          2.85155       -0.78368       -4.95679
|  8> H          3.63615       -3.08010       -7.51913
|  9> H          2.76397       -3.42755       -6.04548
| 10> H          4.43892       -2.93511       -5.97393
| 11> *
| 12>
| 13> %MaxCore 64000
| 14>
| 15> %pal nprocs 8
| 16> end
| 17>
| 18> %scf
| 19>   MaxIter 150
| 20> end
| 21>
| 22>
| 23>                          ****END OF INPUT****

CARTESIAN COORDINATES (ANGSTROEM)
---------------------------------
  C      3.511770   -2.806210   -6.492280
  S      3.004620   -1.096210   -6.389260
  O      4.128860   -0.329650   -6.953720
  O      1.781280   -1.000780   -7.136400
  F      2.851550   -0.783680   -4.956790
  H      3.636150   -3.080100   -7.519130
  H      2.763970   -3.427550   -6.045480
  H      4.438920   -2.935110   -5.973930

 Total Charge           Charge          ....    0
 Multiplicity           Mult            ....    1
 Number of Electrons    NEL             ....   50
 Basis Dimension        Dim             ....  179

ORBITAL ENERGIES
----------------

  NO   OCC          E(Eh)            E(eV)
   0   2.0000     -89.200941     -2427.2810
   1   2.0000     -24.895740      -677.4475
   2   2.0000     -19.247551      -523.7525
   3   2.0000     -19.235731      -523.4309
   4   2.0000     -10.333672      -281.1935
   5   2.0000      -8.263544      -224.8625
   6   2.0000      -6.220956      -169.2808
   7   2.0000      -6.214975      -169.1181
   8   2.0000      -6.213961      -169.0905
   9   2.0000      -1.478563       -40.2337
  10   2.0000      -1.227603       -33.4048
  11   2.0000      -1.129355       -30.7313
  12   2.0000      -0.919031       -25.0081
  13   2.0000      -0.816154       -22.2087
  14   2.0000      -0.697378       -18.9766
  15   2.0000      -0.677444       -18.4342
  16   2.0000      -0.659280       -17.9399
  17   2.0000      -0.581249       -15.8166
  18   2.0000      -0.576890       -15.6980
  19   2.0000      -0.567455       -15.4412
  20   2.0000      -0.538489       -14.6530
  21   2.0000      -0.487950       -13.2778
  22   2.0000      -0.439238       -11.9523
  23   2.0000      -0.427325       -11.6281
  24   2.0000      -0.410465       -11.1693
  25   0.0000       0.099625         2.7109
  26   0.0000       0.128129         3.4866
  27   0.0000       0.146785         3.9942
  28   0.0000       0.157967         4.2985
  29   0.0000       0.166990         4.5440

MULLIKEN ATOMIC CHARGES
-----------------------
   0 C :   -0.384230
   1 S :    0.869714
   2 O :   -0.451236
   3 O :   -0.412860
   4 F :   -0.117760
   5 H :    0.179627
   6 H :    0.156279
   7 H :    0.160466
Sum of atomic charges:    0.0000000

LOEWDIN ATOMIC CHARGES
----------------------
   0 C :   -0.398372
   1 S :    0.531671
   2 O :   -0.306710
   3 O :   -0.261733
   4 F :    0.060766
   5 H :    0.133465
   6 H :    0.119568
   7 H :    0.121345

  Mayer bond orders larger than 0.100000
B(  0-C ,  1-S ) :   0.9261 B(  0-C ,  5-H ) :   0.9465 B(  0-C ,  6-H ) :   0.9458
B(  0-C ,  7-H ) :   0.9472 B(  1-S ,  2-O ) :   1.9004 B(  1-S ,  3-O ) :   1.9457
B(  1-S ,  4-F ) :   1.1220

Dispersion correction           -0.001524852
FINAL SINGLE POINT ENERGY      -688.431468766158

DIPOLE MOMENT
-------------
                                X             Y             Z
Electronic contribution:     -1.55931       4.49763       2.59265
Nuclear contribution   :      1.78651      -5.91544      -1.78339
                        -----------------------------------------
Total Dipole Moment    :      0.22721      -1.41781       0.80925
                        -----------------------------------------
Magnitude (a.u.)       :      1.64824
Magnitude (Debye)      :      4.18950

Rotational constants in cm-1:     0.165193     0.152051     0.147788
Rotational constants in MHz :  4952.361749  4558.380225  4430.570551

                             ****ORCA TERMINATED NORMALLY****
TOTAL RUN TIME: 0 days 0 hours 0 minutes 12 seconds 566 msec
