                         Program Version 5.0.0 -  RELEASE  -
|  1> !wB97X-D3 RIJCOSX def2-TZVP def2/J TightSCF
|  2> *xyz 0 1
|  3> C          4.49059        1.15590       -2.46929
|  4> N          4.30539        1.22276       -3.90832
|  5> C          4.63192        2.24637       -4.67096
|  6> N          4.54169        2.14399       -5.98714
|  7> C          5.08409        3.39358       -4.11855
|  8> H          4.92067        3.57050       -3.13587
|  9> H          5.25465        4.19739       -4.70696
| 10> H          3.82453        0.44911       -4.35093
| 11> H          4.34337        1.24932       -6.41665
| 12> H          4.67671        2.95662       -6.57411
| 13> H          5.00867        2.03053       -2.13534
| 14> H          5.06354        0.28631       -2.22344
| 15> H          3.53600        1.10160       -1.98897
| 16> *
| 17>
| 18> %MaxCore 64000
| 19>
| 20> %pal nprocs 8
| 21> end
| 22>
| 23> %scf
| 24>   MaxIter 150
| 25> end
| 26>
| 27>
| 28>                          ****END OF INPUT****

CARTESIAN COORDINATES (ANGSTROEM)
---------------------------------
  C      4.490590    1.155900   -2.469290
  N      4.305390    1.222760   -3.908320
  C      4.631920    2.246370   -4.670960
  N      4.541690    2.143990   -5.987140
  C      5.084090    3.393580   -4.118550
  H      4.920670    3.570500   -3.135870
  H      5.254650    4.197390   -4.706960
  H      3.824530    0.449110   -4.350930
  H      4.343370    1.249320   -6.416650
  H      4.676710    2.956620   -6.574110
  H      5.008670    2.030530   -2.135340
  H      5.063540    0.286310   -2.223440
  H      3.536000    1.101600   -1.988970

 Total Charge           Charge          ....    0
 Multiplicity           Mult            ....    1
 Number of Electrons    NEL             ....   40
 Basis Dimension        Dim             ....  203

ORBITAL ENERGIES
----------------

  NO   OCC          E(Eh)            E(eV)
   0   2.0000     -14.424407      -392.5081
   1   2.0000     -14.420606      -392.4046
   2   2.0000     -10.323266      -280.9103
   3   2.0000     -10.294013      -280.1143
   4   2.0000     -10.178129      -276.9610
   5   2.0000      -1.088070       -29.6079
   6   2.0000      -1.001417       -27.2499
   7   2.0000      -0.831111       -22.6157
   8   2.0000      -0.807244       -21.9662
   9   2.0000      -0.676257       -18.4019
  10   2.0000      -0.653422       -17.7805
  11   2.0000      -0.622271       -16.9329
  12   2.0000      -0.554600       -15.0914
  13   2.0000      -0.541087       -14.7237
  14   2.0000      -0.512238       -13.9387
  15   2.0000      -0.478264       -13.0142
  16   2.0000      -0.475099       -12.9281
  17   2.0000      -0.452977       -12.3261
  18   2.0000      -0.342889        -9.3305
  19   2.0000      -0.246519        -6.7081
  20   0.0000       0.105289         2.8651
  21   0.0000       0.138932         3.7805
  22   0.0000       0.154438         4.2025
  23   0.0000       0.161838         4.4038
  24   0.0000       0.175209         4.7677

MULLIKEN ATOMIC CHARGES
-----------------------
   0 C :   -0.206832
   1 N :   -0.361195
   2 C :    0.412499
   3 N :   -0.520676
   4 C :   -0.557343
   5 H :    0.086442
   6 H :    0.078147
   7 H :    0.205921
   8 H :    0.228256
   9 H :    0.260728
  10 H :    0.136561
  11 H :    0.116878
  12 H :    0.120613
Sum of atomic charges:    0.0000000

LOEWDIN ATOMIC CHARGES
----------------------
   0 C :   -0.286980
   1 N :    0.091229
   2 C :   -0.467823
   3 N :   -0.010783
   4 C :   -0.370700
   5 H :    0.091898
   6 H :    0.091345
   7 H :    0.177395
   8 H :    0.162976
   9 H :    0.180851
  10 H :    0.125071
  11 H :    0.108041
  12 H :    0.107480

  Mayer bond orders larger than 0.100000
B(  0-C ,  1-N ) :   0.9061 B(  0-C , 10-H ) :   0.9763 B(  0-C , 11-H ) :   0.9792
B(  0-C , 12-H ) :   0.9788 B(  1-N ,  2-C ) :   1.1751 B(  1-N ,  7-H ) :   0.9325
B(  2-C ,  3-N ) :   1.1406 B(  2-C ,  4-C ) :   1.5831 B(  3-N ,  8-H ) :   0.9251
B(  3-N ,  9-H ) :   0.9160 B(  4-C ,  5-H ) :   1.0077 B(  4-C ,  6-H ) :   1.0142

Dispersion correction           -0.002335114
FINAL SINGLE POINT ENERGY      -228.613149256749

DIPOLE MOMENT
-------------
                                X             Y             Z
Electronic contribution:     -0.42881      -0.80074      -2.69280
Nuclear contribution   :     -0.13890      -0.20745       2.21867
                        -----------------------------------------
Total Dipole Moment    :     -0.56771      -1.00819      -0.47414
                        -----------------------------------------
Magnitude (a.u.)       :      1.25042
Magnitude (Debye)      :      3.17832

Rotational constants in cm-1:     0.339212     0.134625     0.098371
Rotational constants in MHz : 10169.318272  4035.946597  2949.073953

                             ****ORCA TERMINATED NORMALLY****
TOTAL RUN TIME: 0 days 0 hours 0 minutes 17 seconds 905 msec
