                         Program Version 5.0.0 -  RELEASE  -
|  1> !wB97X-D3 RIJCOSX def2-TZVP def2/J TightSCF xyzfile
|  2>
|  3> *xyzfile 0 1 D1.xyz
|  4>
|  5> %MaxCore 64000
|  6>
|  7> %pal nprocs 18
|  8> end
|  9>
| 10> %scf
| 11>   MaxIter 150
| 12> end
| 13>
| 14>
| 15>                          ****END OF INPUT****

CARTESIAN COORDINATES (ANGSTROEM)
---------------------------------
  C      4.490588    1.155899   -2.469290
  C      4.305394    1.222762   -3.908317
  C      4.906458   -3.102816   -5.954844
  C      3.511771   -2.806215   -6.492283
  H      2.736044   -3.373445   -5.973736
  H      3.444904   -3.040831   -7.555281
  S      3.004618   -1.096206   -6.389259
  C      4.631918    2.246365   -4.670958
  N      4.541686    2.143990   -5.987139
  N      5.084086    3.393584   -4.118545
  H      4.920675    3.570501   -3.135870
  H      5.254652    4.197390   -4.706956
  H      3.824530    0.449113   -4.350926
  H      4.343373    1.249318   -6.416646
  H      4.676712    2.956624   -6.574113
  F      4.128856   -0.329647   -6.953717
  O      1.781285   -1.000779   -7.136399
  C      5.942129    0.939500   -2.036893
  H      3.864305    0.328532   -2.136611
  H      4.076233    2.049994   -1.989010
  C      6.462677   -3.117775   -3.944671
  C      5.024977   -3.025679   -4.437625
  H      4.423321   -3.818693   -3.977648
  H      4.579350   -2.087131   -4.108727
  H      5.201533   -4.100207   -6.296905
  H      5.605922   -2.397822   -6.413368
  C      6.559957   -0.356290   -2.559086
  H      5.967976    0.952567   -0.942444
  H      6.547184    1.788331   -2.368849
  C      6.006283   -1.615917   -1.899301
  H      7.642360   -0.318000   -2.402059
  H      6.414855   -0.403433   -3.642587
  C      6.608718   -2.917014   -2.435655
  H      6.190324   -1.561115   -0.820948
  H      4.919250   -1.651245   -2.016586
  H      7.066975   -2.374258   -4.475514
  H      6.887808   -4.089747   -4.215332
  H      6.135197   -3.755573   -1.915159
  H      7.671142   -2.955503   -2.172291
  O      2.851546   -0.783683   -4.956789

 Total Charge           Charge          ....    0
 Multiplicity           Mult            ....    1
 Number of Electrons    NEL             ....  144
 Basis Dimension        Dim             ....  671

ORBITAL ENERGIES
----------------

  NO   OCC          E(Eh)            E(eV)
   0   2.0000     -89.202742     -2427.3300
   1   2.0000     -24.912248      -677.8967
   2   2.0000     -19.253303      -523.9090
   3   2.0000     -19.240000      -523.5470
   4   2.0000     -14.407296      -392.0425
   5   2.0000     -14.402923      -391.9235
   6   2.0000     -10.340923      -281.3908
   7   2.0000     -10.304603      -280.4025
   8   2.0000     -10.301107      -280.3074
   9   2.0000     -10.273599      -279.5589
  10   2.0000     -10.269129      -279.4372
  11   2.0000     -10.262658      -279.2611
  12   2.0000     -10.253287      -279.0061
  13   2.0000     -10.246197      -278.8132
  14   2.0000     -10.240885      -278.6686
  15   2.0000     -10.233601      -278.4704
  16   2.0000     -10.162926      -276.5473
  17   2.0000      -8.266561      -224.9446
  18   2.0000      -6.224246      -169.3704
  19   2.0000      -6.217250      -169.1800
  20   2.0000      -6.217022      -169.1738
  21   2.0000      -1.498161       -40.7670
  22   2.0000      -1.235150       -33.6101
  23   2.0000      -1.137222       -30.9454
  24   2.0000      -1.063486       -28.9389
  25   2.0000      -0.973227       -26.4828
  26   2.0000      -0.961572       -26.1657
  27   2.0000      -0.923230       -25.1224
  28   2.0000      -0.893823       -24.3221
  29   2.0000      -0.867103       -23.5951
  30   2.0000      -0.839558       -22.8455
  31   2.0000      -0.814975       -22.1766
  32   2.0000      -0.783696       -21.3254
  33   2.0000      -0.751698       -20.4547
  34   2.0000      -0.726686       -19.7741
  35   2.0000      -0.716489       -19.4967
  36   2.0000      -0.699323       -19.0296
  37   2.0000      -0.691034       -18.8040
  38   2.0000      -0.667192       -18.1552
  39   2.0000      -0.665423       -18.1071
  40   2.0000      -0.648421       -17.6444
  41   2.0000      -0.628687       -17.1074
  42   2.0000      -0.602367       -16.3912
  43   2.0000      -0.594677       -16.1820
  44   2.0000      -0.587799       -15.9948
  45   2.0000      -0.574503       -15.6330
  46   2.0000      -0.562649       -15.3105
  47   2.0000      -0.552402       -15.0316
  48   2.0000      -0.550076       -14.9683
  49   2.0000      -0.547310       -14.8931
  50   2.0000      -0.525057       -14.2875
  51   2.0000      -0.517797       -14.0900
  52   2.0000      -0.515528       -14.0282
  53   2.0000      -0.503615       -13.7041
  54   2.0000      -0.488880       -13.3031
  55   2.0000      -0.478497       -13.0206
  56   2.0000      -0.477382       -12.9902
  57   2.0000      -0.465295       -12.6613
  58   2.0000      -0.462829       -12.5942
  59   2.0000      -0.447866       -12.1870
  60   2.0000      -0.444537       -12.0965
  61   2.0000      -0.436774       -11.8852
  62   2.0000      -0.430643       -11.7184
  63   2.0000      -0.416051       -11.3213
  64   2.0000      -0.413538       -11.2529
  65   2.0000      -0.407035       -11.0760
  66   2.0000      -0.399274       -10.8648
  67   2.0000      -0.390095       -10.6150
  68   2.0000      -0.383193       -10.4272
  69   2.0000      -0.367367        -9.9966
  70   2.0000      -0.346224        -9.4212
  71   2.0000      -0.228719        -6.2238
  72   0.0000       0.084465         2.2984
  73   0.0000       0.111974         3.0470
  74   0.0000       0.116792         3.1781
  75   0.0000       0.125447         3.4136
  76   0.0000       0.126166         3.4332

MULLIKEN ATOMIC CHARGES
-----------------------
   0 C :   -0.311594
   1 C :   -0.328347
   2 C :   -0.215882
   3 C :   -0.238674
   4 H :    0.171102
   5 H :    0.168281
   6 S :    0.873566
   7 C :    0.367684
   8 N :   -0.516357
   9 N :   -0.528347
  10 H :    0.251367
  11 H :    0.218116
  12 H :    0.095603
  13 H :    0.234767
  14 H :    0.221081
  15 F :   -0.139825
  16 O :   -0.406072
  17 C :   -0.111651
  18 H :    0.112161
  19 H :    0.089476
  20 C :   -0.207605
  21 C :   -0.297698
  22 H :    0.103114
  23 H :    0.145097
  24 H :    0.126214
  25 H :    0.126286
  26 C :   -0.185585
  27 H :    0.076572
  28 H :    0.097715
  29 C :   -0.260015
  30 H :    0.094064
  31 H :    0.104169
  32 C :   -0.152567
  33 H :    0.101358
  34 H :    0.120517
  35 H :    0.115432
  36 H :    0.102970
  37 H :    0.099071
  38 H :    0.102789
  39 O :   -0.418355
Sum of atomic charges:   -0.0000000

LOEWDIN ATOMIC CHARGES
----------------------
   0 C :   -0.284738
   1 C :   -0.288674
   2 C :   -0.285846
   3 C :   -0.358738
   4 H :    0.155722
   5 H :    0.143853
   6 S :    0.560608
   7 C :   -0.458899
   8 N :   -0.026691
   9 N :   -0.029192
  10 H :    0.172861
  11 H :    0.157782
  12 H :    0.107569
  13 H :    0.148946
  14 H :    0.159743
  15 F :    0.073688
  16 O :   -0.250629
  17 C :   -0.263879
  18 H :    0.141597
  19 H :    0.125168
  20 C :   -0.270554
  21 C :   -0.271844
  22 H :    0.137973
  23 H :    0.143432
  24 H :    0.145387
  25 H :    0.140194
  26 C :   -0.266530
  27 H :    0.128101
  28 H :    0.132080
  29 C :   -0.269311
  30 H :    0.132216
  31 H :    0.135060
  32 C :   -0.267296
  33 H :    0.135113
  34 H :    0.133793
  35 H :    0.135629
  36 H :    0.133439
  37 H :    0.134467
  38 H :    0.135574
  39 O :   -0.257174

  Mayer bond orders larger than 0.100000
B(  0-C ,  1-C ) :   0.9573 B(  0-C , 17-C ) :   0.9387 B(  0-C , 18-H ) :   1.0107
B(  0-C , 19-H ) :   1.0003 B(  1-C ,  7-C ) :   1.6615 B(  1-C , 12-H ) :   0.9738
B(  2-C ,  3-C ) :   0.9621 B(  2-C , 21-C ) :   0.9501 B(  2-C , 24-H ) :   0.9606
B(  2-C , 25-H ) :   0.9846 B(  3-C ,  4-H ) :   0.9422 B(  3-C ,  5-H ) :   0.9563
B(  3-C ,  6-S ) :   0.9145 B(  6-S , 15-F ) :   1.0501 B(  6-S , 16-O ) :   1.9822
B(  6-S , 39-O ) :   1.8308 B(  7-C ,  8-N ) :   1.1529 B(  7-C ,  9-N ) :   1.1418
B(  8-N , 13-H ) :   0.9095 B(  8-N , 14-H ) :   0.9259 B(  9-N , 10-H ) :   0.9110
B(  9-N , 11-H ) :   0.9311 B( 17-C , 26-C ) :   0.9908 B( 17-C , 27-H ) :   0.9830
B( 17-C , 28-H ) :   0.9714 B( 20-C , 21-C ) :   0.9624 B( 20-C , 32-C ) :   0.9768
B( 20-C , 35-H ) :   0.9842 B( 20-C , 36-H ) :   0.9748 B( 21-C , 22-H ) :   0.9657
B( 21-C , 23-H ) :   0.9790 B( 26-C , 29-C ) :   0.9483 B( 26-C , 30-H ) :   0.9753
B( 26-C , 31-H ) :   0.9676 B( 29-C , 32-C ) :   0.9684 B( 29-C , 33-H ) :   0.9714
B( 29-C , 34-H ) :   0.9899 B( 32-C , 37-H ) :   0.9847 B( 32-C , 38-H ) :   0.9802

Dispersion correction           -0.021879082
FINAL SINGLE POINT ENERGY     -1191.059785165007

DIPOLE MOMENT
-------------
                                X             Y             Z
Electronic contribution:    -16.31569       4.91999     -21.49729
Nuclear contribution   :     17.24138      -5.45913      20.34076
                        -----------------------------------------
Total Dipole Moment    :      0.92570      -0.53914      -1.15653
                        -----------------------------------------
Magnitude (a.u.)       :      1.57644
Magnitude (Debye)      :      4.00698

Rotational constants in cm-1:     0.014201     0.012275     0.007453
Rotational constants in MHz :   425.728191   368.008875   223.435232

                             ****ORCA TERMINATED NORMALLY****
TOTAL RUN TIME: 0 days 0 hours 2 minutes 24 seconds 646 msec
