                         Program Version 5.0.0 -  RELEASE  -
|  1> !wB97X-D3 RIJCOSX def2-TZVP def2/J TightSCF xyzfile
|  2>
|  3> *xyzfile 0 1 D3.xyz
|  4>
|  5> %MaxCore 64000
|  6>
|  7> %pal nprocs 18
|  8> end
|  9>
| 10> %scf
| 11>   MaxIter 150
| 12> end
| 13>
| 14>
| 15>                          ****END OF INPUT****

CARTESIAN COORDINATES (ANGSTROEM)
---------------------------------
  C      4.490588    1.155899   -2.469290
  N      4.305394    1.222762   -3.908317
  C      4.906458   -3.102816   -5.954844
  C      3.511771   -2.806215   -6.492283
  H      2.736044   -3.373445   -5.973736
  H      3.444904   -3.040831   -7.555281
  S      3.004618   -1.096206   -6.389259
  C      4.631918    2.246365   -4.670958
  N      4.541686    2.143990   -5.987139
  C      5.084086    3.393584   -4.118545
  H      4.920675    3.570501   -3.135870
  H      5.254652    4.197390   -4.706956
  H      3.824530    0.449113   -4.350926
  H      4.343373    1.249318   -6.416646
  H      4.676712    2.956624   -6.574113
  F      4.128856   -0.329647   -6.953717
  O      1.781285   -1.000779   -7.136399
  C      5.942129    0.939500   -2.036893
  H      3.864305    0.328532   -2.136611
  H      4.076233    2.049994   -1.989010
  C      6.462677   -3.117775   -3.944671
  C      5.024977   -3.025679   -4.437625
  H      4.423321   -3.818693   -3.977648
  H      4.579350   -2.087131   -4.108727
  H      5.201533   -4.100207   -6.296905
  H      5.605922   -2.397822   -6.413368
  C      6.559957   -0.356290   -2.559086
  H      5.967976    0.952567   -0.942444
  H      6.547184    1.788331   -2.368849
  C      6.006283   -1.615917   -1.899301
  H      7.642360   -0.318000   -2.402059
  H      6.414855   -0.403433   -3.642587
  C      6.608718   -2.917014   -2.435655
  H      6.190324   -1.561115   -0.820948
  H      4.919250   -1.651245   -2.016586
  H      7.066975   -2.374258   -4.475514
  H      6.887808   -4.089747   -4.215332
  H      6.135197   -3.755573   -1.915159
  H      7.671142   -2.955503   -2.172291
  O      2.851546   -0.783683   -4.956789

 Total Charge           Charge          ....    0
 Multiplicity           Mult            ....    1
 Number of Electrons    NEL             ....  144
 Basis Dimension        Dim             ....  671

ORBITAL ENERGIES
----------------

  NO   OCC          E(Eh)            E(eV)
   0   2.0000     -89.222662     -2427.8721
   1   2.0000     -24.928233      -678.3317
   2   2.0000     -19.270528      -524.3777
   3   2.0000     -19.266897      -524.2789
   4   2.0000     -14.404789      -391.9742
   5   2.0000     -14.393648      -391.6711
   6   2.0000     -10.355491      -281.7872
   7   2.0000     -10.317084      -280.7421
   8   2.0000     -10.306126      -280.4440
   9   2.0000     -10.289703      -279.9971
  10   2.0000     -10.286897      -279.9207
  11   2.0000     -10.279891      -279.7300
  12   2.0000     -10.272956      -279.5413
  13   2.0000     -10.265446      -279.3370
  14   2.0000     -10.259313      -279.1701
  15   2.0000     -10.253211      -279.0041
  16   2.0000     -10.165373      -276.6139
  17   2.0000      -8.286474      -225.4864
  18   2.0000      -6.244165      -169.9124
  19   2.0000      -6.237289      -169.7253
  20   2.0000      -6.236822      -169.7126
  21   2.0000      -1.514466       -41.2107
  22   2.0000      -1.255138       -34.1540
  23   2.0000      -1.159988       -31.5649
  24   2.0000      -1.070860       -29.1396
  25   2.0000      -0.987946       -26.8834
  26   2.0000      -0.975942       -26.5567
  27   2.0000      -0.933992       -25.4152
  28   2.0000      -0.899047       -24.4643
  29   2.0000      -0.871359       -23.7109
  30   2.0000      -0.841949       -22.9106
  31   2.0000      -0.813781       -22.1441
  32   2.0000      -0.801188       -21.8014
  33   2.0000      -0.770047       -20.9540
  34   2.0000      -0.742589       -20.2069
  35   2.0000      -0.726354       -19.7651
  36   2.0000      -0.715795       -19.4778
  37   2.0000      -0.703809       -19.1516
  38   2.0000      -0.687332       -18.7033
  39   2.0000      -0.669942       -18.2301
  40   2.0000      -0.646163       -17.5830
  41   2.0000      -0.629848       -17.1390
  42   2.0000      -0.622184       -16.9305
  43   2.0000      -0.605604       -16.4793
  44   2.0000      -0.599015       -16.3000
  45   2.0000      -0.584842       -15.9144
  46   2.0000      -0.576908       -15.6985
  47   2.0000      -0.568759       -15.4767
  48   2.0000      -0.556686       -15.1482
  49   2.0000      -0.545957       -14.8562
  50   2.0000      -0.536370       -14.5954
  51   2.0000      -0.532717       -14.4960
  52   2.0000      -0.520212       -14.1557
  53   2.0000      -0.507611       -13.8128
  54   2.0000      -0.492991       -13.4150
  55   2.0000      -0.486461       -13.2373
  56   2.0000      -0.483761       -13.1638
  57   2.0000      -0.475282       -12.9331
  58   2.0000      -0.465185       -12.6583
  59   2.0000      -0.463620       -12.6158
  60   2.0000      -0.455592       -12.3973
  61   2.0000      -0.447358       -12.1732
  62   2.0000      -0.445362       -12.1189
  63   2.0000      -0.438911       -11.9434
  64   2.0000      -0.430422       -11.7124
  65   2.0000      -0.426992       -11.6190
  66   2.0000      -0.421757       -11.4766
  67   2.0000      -0.405501       -11.0343
  68   2.0000      -0.403916       -10.9911
  69   2.0000      -0.394717       -10.7408
  70   2.0000      -0.324270        -8.8238
  71   2.0000      -0.233312        -6.3487
  72   0.0000       0.071353         1.9416
  73   0.0000       0.102791         2.7971
  74   0.0000       0.114827         3.1246
  75   0.0000       0.115857         3.1526
  76   0.0000       0.118274         3.2184

MULLIKEN ATOMIC CHARGES
-----------------------
   0 C :   -0.210683
   1 N :   -0.325362
   2 C :   -0.224315
   3 C :   -0.238283
   4 H :    0.175894
   5 H :    0.175857
   6 S :    0.884733
   7 C :    0.420453
   8 N :   -0.528017
   9 C :   -0.581119
  10 H :    0.103084
  11 H :    0.074816
  12 H :    0.187378
  13 H :    0.213244
  14 H :    0.253440
  15 F :   -0.132458
  16 O :   -0.393246
  17 C :   -0.113695
  18 H :    0.136555
  19 H :    0.127882
  20 C :   -0.212317
  21 C :   -0.286691
  22 H :    0.109022
  23 H :    0.119207
  24 H :    0.131942
  25 H :    0.131781
  26 C :   -0.231344
  27 H :    0.088912
  28 H :    0.140913
  29 C :   -0.250574
  30 H :    0.105580
  31 H :    0.098550
  32 C :   -0.157620
  33 H :    0.107162
  34 H :    0.113509
  35 H :    0.119703
  36 H :    0.108168
  37 H :    0.102925
  38 H :    0.108541
  39 O :   -0.453529
Sum of atomic charges:   -0.0000000

LOEWDIN ATOMIC CHARGES
----------------------
   0 C :   -0.276544
   1 N :    0.114438
   2 C :   -0.284967
   3 C :   -0.356154
   4 H :    0.157128
   5 H :    0.146735
   6 S :    0.565798
   7 C :   -0.466091
   8 N :   -0.021339
   9 C :   -0.368138
  10 H :    0.094847
  11 H :    0.088805
  12 H :    0.152563
  13 H :    0.136743
  14 H :    0.177505
  15 F :    0.076406
  16 O :   -0.239904
  17 C :   -0.265670
  18 H :    0.131432
  19 H :    0.131891
  20 C :   -0.269793
  21 C :   -0.272871
  22 H :    0.139330
  23 H :    0.138422
  24 H :    0.147585
  25 H :    0.141215
  26 C :   -0.268603
  27 H :    0.135118
  28 H :    0.144323
  29 C :   -0.270951
  30 H :    0.136308
  31 H :    0.132332
  32 C :   -0.266158
  33 H :    0.136753
  34 H :    0.131415
  35 H :    0.136377
  36 H :    0.135184
  37 H :    0.135529
  38 H :    0.137375
  39 O :   -0.274371

  Mayer bond orders larger than 0.100000
B(  0-C ,  1-N ) :   0.9347 B(  0-C , 17-C ) :   0.9397 B(  0-C , 18-H ) :   0.9920
B(  0-C , 19-H ) :   0.9833 B(  1-N ,  7-C ) :   1.1812 B(  1-N , 12-H ) :   0.8886
B(  2-C ,  3-C ) :   0.9604 B(  2-C , 21-C ) :   0.9485 B(  2-C , 24-H ) :   0.9589
B(  2-C , 25-H ) :   0.9851 B(  3-C ,  4-H ) :   0.9398 B(  3-C ,  5-H ) :   0.9542
B(  3-C ,  6-S ) :   0.9160 B(  6-S , 15-F ) :   1.0648 B(  6-S , 16-O ) :   1.9919
B(  6-S , 39-O ) :   1.7725 B(  7-C ,  8-N ) :   1.1283 B(  7-C ,  9-C ) :   1.5962
B(  8-N , 13-H ) :   0.9148 B(  8-N , 14-H ) :   0.9191 B(  9-C , 10-H ) :   1.0074
B(  9-C , 11-H ) :   1.0085 B( 17-C , 26-C ) :   0.9796 B( 17-C , 27-H ) :   0.9810
B( 17-C , 28-H ) :   0.9635 B( 20-C , 21-C ) :   0.9618 B( 20-C , 32-C ) :   0.9729
B( 20-C , 35-H ) :   0.9853 B( 20-C , 36-H ) :   0.9740 B( 21-C , 22-H ) :   0.9648
B( 21-C , 23-H ) :   0.9824 B( 26-C , 29-C ) :   0.9463 B( 26-C , 30-H ) :   0.9728
B( 26-C , 31-H ) :   0.9722 B( 29-C , 32-C ) :   0.9699 B( 29-C , 33-H ) :   0.9706
B( 29-C , 34-H ) :   0.9897 B( 32-C , 37-H ) :   0.9846 B( 32-C , 38-H ) :   0.9802

Dispersion correction           -0.021830216
FINAL SINGLE POINT ENERGY     -1191.067542801805

DIPOLE MOMENT
-------------
                                X             Y             Z
Electronic contribution:    -16.89732       2.64826     -21.38437
Nuclear contribution   :     17.35766      -5.13497      20.30937
                        -----------------------------------------
Total Dipole Moment    :      0.46034      -2.48671      -1.07500
                        -----------------------------------------
Magnitude (a.u.)       :      2.74796
Magnitude (Debye)      :      6.98475

Rotational constants in cm-1:     0.014431     0.012329     0.007535
Rotational constants in MHz :   432.628327   369.619539   225.898827

                             ****ORCA TERMINATED NORMALLY****
TOTAL RUN TIME: 0 days 0 hours 2 minutes 23 seconds 48 msec
