                         Program Version 5.0.0 -  RELEASE  -
|  1> !wB97X-D3 RIJCOSX def2-TZVP def2/J TightSCF xyzfile
|  2>
|  3> *xyzfile 0 1 D5.xyz
|  4>
|  5> %MaxCore 64000
|  6>
|  7> %pal nprocs 18
|  8> end
|  9>
| 10> %scf
| 11>   MaxIter 150
| 12> end
| 13>
| 14>
| 15>                          ****END OF INPUT****

CARTESIAN COORDINATES (ANGSTROEM)
---------------------------------
  C      4.490588    1.155899   -2.469290
  N      4.305394    1.222762   -3.908317
  C      4.906458   -3.102816   -5.954844
  C      3.511771   -2.806215   -6.492283
  H      2.736044   -3.373445   -5.973736
  H      3.444904   -3.040831   -7.555281
  S      3.004618   -1.096206   -6.389259
  C      4.631918    2.246365   -4.670958
  C      4.541686    2.143990   -5.987139
  N      5.084086    3.393584   -4.118545
  H      4.920675    3.570501   -3.135870
  H      5.254652    4.197390   -4.706956
  H      3.824530    0.449113   -4.350926
  H      4.343373    1.249318   -6.416646
  H      4.676712    2.956624   -6.574113
  O      4.128856   -0.329647   -6.953717
  F      1.781285   -1.000779   -7.136399
  C      5.942129    0.939500   -2.036893
  H      3.864305    0.328532   -2.136611
  H      4.076233    2.049994   -1.989010
  C      6.462677   -3.117775   -3.944671
  C      5.024977   -3.025679   -4.437625
  H      4.423321   -3.818693   -3.977648
  H      4.579350   -2.087131   -4.108727
  H      5.201533   -4.100207   -6.296905
  H      5.605922   -2.397822   -6.413368
  C      6.559957   -0.356290   -2.559086
  H      5.967976    0.952567   -0.942444
  H      6.547184    1.788331   -2.368849
  C      6.006283   -1.615917   -1.899301
  H      7.642360   -0.318000   -2.402059
  H      6.414855   -0.403433   -3.642587
  C      6.608718   -2.917014   -2.435655
  H      6.190324   -1.561115   -0.820948
  H      4.919250   -1.651245   -2.016586
  H      7.066975   -2.374258   -4.475514
  H      6.887808   -4.089747   -4.215332
  H      6.135197   -3.755573   -1.915159
  H      7.671142   -2.955503   -2.172291
  O      2.851546   -0.783683   -4.956789

 Total Charge           Charge          ....    0
 Multiplicity           Mult            ....    1
 Number of Electrons    NEL             ....  144
 Basis Dimension        Dim             ....  671

ORBITAL ENERGIES
----------------

  NO   OCC          E(Eh)            E(eV)
   0   2.0000     -89.211026     -2427.5554
   1   2.0000     -24.922037      -678.1631
   2   2.0000     -19.253730      -523.9206
   3   2.0000     -19.243341      -523.6379
   4   2.0000     -14.392391      -391.6369
   5   2.0000     -14.379197      -391.2779
   6   2.0000     -10.345599      -281.5181
   7   2.0000     -10.305010      -280.4136
   8   2.0000     -10.289850      -280.0011
   9   2.0000     -10.287941      -279.9491
  10   2.0000     -10.277108      -279.6543
  11   2.0000     -10.271785      -279.5095
  12   2.0000     -10.267924      -279.4044
  13   2.0000     -10.262088      -279.2456
  14   2.0000     -10.256025      -279.0806
  15   2.0000     -10.255539      -279.0674
  16   2.0000     -10.139340      -275.9055
  17   2.0000      -8.274514      -225.1610
  18   2.0000      -6.231759      -169.5748
  19   2.0000      -6.225461      -169.4034
  20   2.0000      -6.225213      -169.3966
  21   2.0000      -1.517178       -41.2845
  22   2.0000      -1.231306       -33.5055
  23   2.0000      -1.132775       -30.8244
  24   2.0000      -1.053983       -28.6803
  25   2.0000      -0.968936       -26.3661
  26   2.0000      -0.962816       -26.1996
  27   2.0000      -0.927187       -25.2300
  28   2.0000      -0.897297       -24.4167
  29   2.0000      -0.866237       -23.5715
  30   2.0000      -0.839916       -22.8553
  31   2.0000      -0.812114       -22.0987
  32   2.0000      -0.781970       -21.2785
  33   2.0000      -0.754346       -20.5268
  34   2.0000      -0.731878       -19.9154
  35   2.0000      -0.710289       -19.3279
  36   2.0000      -0.699484       -19.0339
  37   2.0000      -0.697315       -18.9749
  38   2.0000      -0.684521       -18.6268
  39   2.0000      -0.665650       -18.1133
  40   2.0000      -0.654640       -17.8137
  41   2.0000      -0.616397       -16.7730
  42   2.0000      -0.607100       -16.5200
  43   2.0000      -0.592169       -16.1137
  44   2.0000      -0.580010       -15.7829
  45   2.0000      -0.574762       -15.6401
  46   2.0000      -0.563363       -15.3299
  47   2.0000      -0.561357       -15.2753
  48   2.0000      -0.547901       -14.9091
  49   2.0000      -0.540120       -14.6974
  50   2.0000      -0.530151       -14.4261
  51   2.0000      -0.522605       -14.2208
  52   2.0000      -0.513565       -13.9748
  53   2.0000      -0.494148       -13.4465
  54   2.0000      -0.485475       -13.2105
  55   2.0000      -0.482583       -13.1317
  56   2.0000      -0.471990       -12.8435
  57   2.0000      -0.467110       -12.7107
  58   2.0000      -0.454233       -12.3603
  59   2.0000      -0.450526       -12.2594
  60   2.0000      -0.447948       -12.1893
  61   2.0000      -0.440782       -11.9943
  62   2.0000      -0.430903       -11.7255
  63   2.0000      -0.425115       -11.5680
  64   2.0000      -0.418863       -11.3979
  65   2.0000      -0.411032       -11.1847
  66   2.0000      -0.401648       -10.9294
  67   2.0000      -0.400028       -10.8853
  68   2.0000      -0.393533       -10.7086
  69   2.0000      -0.382903       -10.4193
  70   2.0000      -0.317510        -8.6399
  71   2.0000      -0.216452        -5.8900
  72   0.0000       0.098026         2.6674
  73   0.0000       0.100267         2.7284
  74   0.0000       0.118846         3.2340
  75   0.0000       0.125121         3.4047
  76   0.0000       0.127819         3.4781

MULLIKEN ATOMIC CHARGES
-----------------------
   0 C :   -0.266232
   1 N :   -0.315972
   2 C :   -0.203314
   3 C :   -0.235931
   4 H :    0.150532
   5 H :    0.163790
   6 S :    0.914089
   7 C :    0.439187
   8 C :   -0.632512
   9 N :   -0.533503
  10 H :    0.225804
  11 H :    0.241151
  12 H :    0.229119
  13 H :    0.143753
  14 H :    0.077010
  15 O :   -0.425748
  16 F :   -0.087352
  17 C :   -0.088417
  18 H :    0.137176
  19 H :    0.114151
  20 C :   -0.220088
  21 C :   -0.284328
  22 H :    0.100108
  23 H :    0.119030
  24 H :    0.125337
  25 H :    0.154902
  26 C :   -0.245498
  27 H :    0.083550
  28 H :    0.115338
  29 C :   -0.248192
  30 H :    0.102392
  31 H :    0.133400
  32 C :   -0.154427
  33 H :    0.103565
  34 H :    0.111591
  35 H :    0.127218
  36 H :    0.104342
  37 H :    0.100144
  38 H :    0.106372
  39 O :   -0.481532
Sum of atomic charges:   -0.0000000

LOEWDIN ATOMIC CHARGES
----------------------
   0 C :   -0.297160
   1 N :    0.117422
   2 C :   -0.272711
   3 C :   -0.365632
   4 H :    0.142431
   5 H :    0.142928
   6 S :    0.571284
   7 C :   -0.463474
   8 C :   -0.359130
   9 N :   -0.031194
  10 H :    0.156467
  11 H :    0.171819
  12 H :    0.166655
  13 H :    0.084172
  14 H :    0.088848
  15 O :   -0.253310
  16 F :    0.116378
  17 C :   -0.271656
  18 H :    0.132837
  19 H :    0.121139
  20 C :   -0.268854
  21 C :   -0.270408
  22 H :    0.136465
  23 H :    0.139754
  24 H :    0.146799
  25 H :    0.152172
  26 C :   -0.267169
  27 H :    0.133095
  28 H :    0.136472
  29 C :   -0.271200
  30 H :    0.135871
  31 H :    0.140674
  32 C :   -0.266529
  33 H :    0.135312
  34 H :    0.131351
  35 H :    0.138827
  36 H :    0.134378
  37 H :    0.134756
  38 H :    0.136689
  39 O :   -0.286569

  Mayer bond orders larger than 0.100000
B(  0-C ,  1-N ) :   0.9420 B(  0-C , 17-C ) :   0.9171 B(  0-C , 18-H ) :   0.9935
B(  0-C , 19-H ) :   0.9973 B(  1-N ,  7-C ) :   1.2002 B(  1-N , 12-H ) :   0.8860
B(  2-C ,  3-C ) :   0.9729 B(  2-C , 21-C ) :   0.9833 B(  2-C , 24-H ) :   0.9583
B(  2-C , 25-H ) :   0.9645 B(  3-C ,  4-H ) :   0.9400 B(  3-C ,  5-H ) :   0.9448
B(  3-C ,  6-S ) :   0.9278 B(  6-S , 15-O ) :   1.8419 B(  6-S , 16-F ) :   1.1665
B(  6-S , 39-O ) :   1.7660 B(  7-C ,  8-C ) :   1.5606 B(  7-C ,  9-N ) :   1.1025
B(  8-C , 13-H ) :   1.0222 B(  8-C , 14-H ) :   1.0121 B(  9-N , 10-H ) :   0.9201
B(  9-N , 11-H ) :   0.9254 B( 17-C , 26-C ) :   0.9732 B( 17-C , 27-H ) :   0.9750
B( 17-C , 28-H ) :   0.9682 B( 20-C , 21-C ) :   0.9693 B( 20-C , 32-C ) :   0.9716
B( 20-C , 35-H ) :   0.9856 B( 20-C , 36-H ) :   0.9736 B( 21-C , 22-H ) :   0.9668
B( 21-C , 23-H ) :   0.9752 B( 26-C , 29-C ) :   0.9482 B( 26-C , 30-H ) :   0.9718
B( 26-C , 31-H ) :   0.9708 B( 29-C , 32-C ) :   0.9728 B( 29-C , 33-H ) :   0.9709
B( 29-C , 34-H ) :   0.9888 B( 32-C , 37-H ) :   0.9846 B( 32-C , 38-H ) :   0.9804

Dispersion correction           -0.022008519
FINAL SINGLE POINT ENERGY     -1191.048278483036

DIPOLE MOMENT
-------------
                                X             Y             Z
Electronic contribution:    -20.65044       2.65965     -20.19864
Nuclear contribution   :     20.03262      -4.53368      20.24480
                        -----------------------------------------
Total Dipole Moment    :     -0.61781      -1.87403       0.04616
                        -----------------------------------------
Magnitude (a.u.)       :      1.97378
Magnitude (Debye)      :      5.01696

Rotational constants in cm-1:     0.014367     0.012055     0.007393
Rotational constants in MHz :   430.711297   361.391195   221.649333

                             ****ORCA TERMINATED NORMALLY****
TOTAL RUN TIME: 0 days 0 hours 2 minutes 22 seconds 960 msec
