                         Program Version 5.0.0 -  RELEASE  -
|  1> !wB97X-D3 RIJCOSX def2-TZVP def2/J TightSCF xyzfile
|  2>
|  3> *xyzfile 0 1 D7.xyz
|  4>
|  5> %MaxCore 64000
|  6>
|  7> %pal nprocs 18
|  8> end
|  9>
| 10> %scf
| 11>   MaxIter 150
| 12> end
| 13>
| 14>
| 15>                          ****END OF INPUT****

CARTESIAN COORDINATES (ANGSTROEM)
---------------------------------
  C      4.490588    1.155899   -2.469290
  C      4.305394    1.222762   -3.908317
  C      4.906458   -3.102816   -5.954844
  C      3.511771   -2.806215   -6.492283
  H      2.736044   -3.373445   -5.973736
  H      3.444904   -3.040831   -7.555281
  S      3.004618   -1.096206   -6.389259
  C      4.631918    2.246365   -4.670958
  N      4.541686    2.143990   -5.987139
  N      5.084086    3.393584   -4.118545
  H      4.920675    3.570501   -3.135870
  H      5.254652    4.197390   -4.706956
  H      3.824530    0.449113   -4.350926
  H      4.343373    1.249318   -6.416646
  H      4.676712    2.956624   -6.574113
  O      4.128856   -0.329647   -6.953717
  O      1.781285   -1.000779   -7.136399
  C      5.942129    0.939500   -2.036893
  H      3.864305    0.328532   -2.136611
  H      4.076233    2.049994   -1.989010
  C      6.462677   -3.117775   -3.944671
  C      5.024977   -3.025679   -4.437625
  H      4.423321   -3.818693   -3.977648
  H      4.579350   -2.087131   -4.108727
  H      5.201533   -4.100207   -6.296905
  H      5.605922   -2.397822   -6.413368
  C      6.559957   -0.356290   -2.559086
  H      5.967976    0.952567   -0.942444
  H      6.547184    1.788331   -2.368849
  C      6.006283   -1.615917   -1.899301
  H      7.642360   -0.318000   -2.402059
  H      6.414855   -0.403433   -3.642587
  C      6.608718   -2.917014   -2.435655
  H      6.190324   -1.561115   -0.820948
  H      4.919250   -1.651245   -2.016586
  H      7.066975   -2.374258   -4.475514
  H      6.887808   -4.089747   -4.215332
  H      6.135197   -3.755573   -1.915159
  H      7.671142   -2.955503   -2.172291
  F      2.851546   -0.783683   -4.956789

 Total Charge           Charge          ....    0
 Multiplicity           Mult            ....    1
 Number of Electrons    NEL             ....  144
 Basis Dimension        Dim             ....  671

ORBITAL ENERGIES
----------------

  NO   OCC          E(Eh)            E(eV)
   0   2.0000     -89.205538     -2427.4061
   1   2.0000     -24.897749      -677.5022
   2   2.0000     -19.254460      -523.9405
   3   2.0000     -19.250893      -523.8434
   4   2.0000     -14.408583      -392.0775
   5   2.0000     -14.385768      -391.4567
   6   2.0000     -10.341388      -281.4035
   7   2.0000     -10.304086      -280.3884
   8   2.0000     -10.301407      -280.3155
   9   2.0000     -10.282679      -279.8059
  10   2.0000     -10.272938      -279.5409
  11   2.0000     -10.266666      -279.3702
  12   2.0000     -10.258545      -279.1492
  13   2.0000     -10.249417      -278.9008
  14   2.0000     -10.244678      -278.7719
  15   2.0000     -10.240828      -278.6671
  16   2.0000     -10.172998      -276.8213
  17   2.0000      -8.269063      -225.0126
  18   2.0000      -6.226473      -169.4309
  19   2.0000      -6.220143      -169.2587
  20   2.0000      -6.219571      -169.2431
  21   2.0000      -1.484954       -40.4077
  22   2.0000      -1.238255       -33.6946
  23   2.0000      -1.144601       -31.1462
  24   2.0000      -1.059006       -28.8170
  25   2.0000      -0.966546       -26.3010
  26   2.0000      -0.961531       -26.1646
  27   2.0000      -0.926674       -25.2161
  28   2.0000      -0.897505       -24.4223
  29   2.0000      -0.870494       -23.6873
  30   2.0000      -0.833632       -22.6843
  31   2.0000      -0.819228       -22.2923
  32   2.0000      -0.782257       -21.2863
  33   2.0000      -0.754530       -20.5318
  34   2.0000      -0.733035       -19.9469
  35   2.0000      -0.700968       -19.0743
  36   2.0000      -0.694002       -18.8848
  37   2.0000      -0.686107       -18.6699
  38   2.0000      -0.679835       -18.4993
  39   2.0000      -0.658559       -17.9203
  40   2.0000      -0.651269       -17.7219
  41   2.0000      -0.626304       -17.0426
  42   2.0000      -0.602280       -16.3889
  43   2.0000      -0.590222       -16.0608
  44   2.0000      -0.585725       -15.9384
  45   2.0000      -0.578809       -15.7502
  46   2.0000      -0.576296       -15.6818
  47   2.0000      -0.559078       -15.2133
  48   2.0000      -0.549120       -14.9423
  49   2.0000      -0.539830       -14.6895
  50   2.0000      -0.527426       -14.3520
  51   2.0000      -0.522262       -14.2115
  52   2.0000      -0.519634       -14.1400
  53   2.0000      -0.502440       -13.6721
  54   2.0000      -0.492073       -13.3900
  55   2.0000      -0.480253       -13.0683
  56   2.0000      -0.472321       -12.8525
  57   2.0000      -0.466908       -12.7052
  58   2.0000      -0.462339       -12.5809
  59   2.0000      -0.449581       -12.2337
  60   2.0000      -0.441963       -12.0264
  61   2.0000      -0.436752       -11.8846
  62   2.0000      -0.431217       -11.7340
  63   2.0000      -0.425246       -11.5715
  64   2.0000      -0.421015       -11.4564
  65   2.0000      -0.418809       -11.3964
  66   2.0000      -0.411252       -11.1907
  67   2.0000      -0.395486       -10.7617
  68   2.0000      -0.389422       -10.5967
  69   2.0000      -0.384081       -10.4514
  70   2.0000      -0.339933        -9.2501
  71   2.0000      -0.231664        -6.3039
  72   0.0000       0.092808         2.5254
  73   0.0000       0.110495         3.0067
  74   0.0000       0.115057         3.1308
  75   0.0000       0.124930         3.3995
  76   0.0000       0.125818         3.4237

MULLIKEN ATOMIC CHARGES
-----------------------
   0 C :   -0.286687
   1 C :   -0.362931
   2 C :   -0.183592
   3 C :   -0.257455
   4 H :    0.156695
   5 H :    0.183457
   6 S :    0.898250
   7 C :    0.360299
   8 N :   -0.508165
   9 N :   -0.526687
  10 H :    0.248650
  11 H :    0.222652
  12 H :    0.081297
  13 H :    0.264351
  14 H :    0.212536
  15 O :   -0.483709
  16 O :   -0.410824
  17 C :   -0.106948
  18 H :    0.096126
  19 H :    0.092911
  20 C :   -0.215567
  21 C :   -0.296661
  22 H :    0.108218
  23 H :    0.101749
  24 H :    0.121815
  25 H :    0.149958
  26 C :   -0.202989
  27 H :    0.077063
  28 H :    0.101714
  29 C :   -0.254133
  30 H :    0.096894
  31 H :    0.124407
  32 C :   -0.153963
  33 H :    0.104060
  34 H :    0.107583
  35 H :    0.125461
  36 H :    0.106921
  37 H :    0.099639
  38 H :    0.105589
  39 F :   -0.097986
Sum of atomic charges:    0.0000000

LOEWDIN ATOMIC CHARGES
----------------------
   0 C :   -0.289556
   1 C :   -0.308451
   2 C :   -0.282616
   3 C :   -0.359340
   4 H :    0.143608
   5 H :    0.155477
   6 S :    0.571880
   7 C :   -0.450853
   8 N :   -0.014833
   9 N :   -0.025666
  10 H :    0.171619
  11 H :    0.160025
  12 H :    0.104141
  13 H :    0.147436
  14 H :    0.157903
  15 O :   -0.280854
  16 O :   -0.250490
  17 C :   -0.263627
  18 H :    0.137258
  19 H :    0.125766
  20 C :   -0.267663
  21 C :   -0.273534
  22 H :    0.137417
  23 H :    0.134230
  24 H :    0.144981
  25 H :    0.149423
  26 C :   -0.266534
  27 H :    0.128189
  28 H :    0.133446
  29 C :   -0.270197
  30 H :    0.133444
  31 H :    0.138056
  32 C :   -0.267288
  33 H :    0.135702
  34 H :    0.129782
  35 H :    0.138904
  36 H :    0.135297
  37 H :    0.134272
  38 H :    0.136635
  39 F :    0.086610

  Mayer bond orders larger than 0.100000
B(  0-C ,  1-C ) :   0.9568 B(  0-C , 17-C ) :   0.9411 B(  0-C , 18-H ) :   1.0062
B(  0-C , 19-H ) :   1.0009 B(  1-C ,  7-C ) :   1.6457 B(  1-C , 12-H ) :   0.9973
B(  2-C ,  3-C ) :   0.9546 B(  2-C , 21-C ) :   0.9739 B(  2-C , 24-H ) :   0.9567
B(  2-C , 25-H ) :   0.9668 B(  3-C ,  4-H ) :   0.9506 B(  3-C ,  5-H ) :   0.9469
B(  3-C ,  6-S ) :   0.9163 B(  6-S , 15-O ) :   1.7492 B(  6-S , 16-O ) :   1.9840
B(  6-S , 39-F ) :   1.1087 B(  7-C ,  8-N ) :   1.2077 B(  7-C ,  9-N ) :   1.1497
B(  8-N , 13-H ) :   0.8611 B(  8-N , 14-H ) :   0.9288 B(  9-N , 10-H ) :   0.9113
B(  9-N , 11-H ) :   0.9288 B( 17-C , 26-C ) :   0.9882 B( 17-C , 27-H ) :   0.9825
B( 17-C , 28-H ) :   0.9714 B( 20-C , 21-C ) :   0.9727 B( 20-C , 32-C ) :   0.9722
B( 20-C , 35-H ) :   0.9843 B( 20-C , 36-H ) :   0.9743 B( 21-C , 22-H ) :   0.9652
B( 21-C , 23-H ) :   0.9788 B( 26-C , 29-C ) :   0.9448 B( 26-C , 30-H ) :   0.9748
B( 26-C , 31-H ) :   0.9690 B( 29-C , 32-C ) :   0.9679 B( 29-C , 33-H ) :   0.9714
B( 29-C , 34-H ) :   0.9926 B( 32-C , 37-H ) :   0.9859 B( 32-C , 38-H ) :   0.9796

Dispersion correction           -0.021801064
FINAL SINGLE POINT ENERGY     -1191.074106815580

DIPOLE MOMENT
-------------
                                X             Y             Z
Electronic contribution:    -18.43164       4.10861     -18.05649
Nuclear contribution   :     18.74089      -4.92611      17.99644
                        -----------------------------------------
Total Dipole Moment    :      0.30925      -0.81750      -0.06005
                        -----------------------------------------
Magnitude (a.u.)       :      0.87610
Magnitude (Debye)      :      2.22686

Rotational constants in cm-1:     0.014210     0.012324     0.007480
Rotational constants in MHz :   425.991442   369.455467   224.259162

                             ****ORCA TERMINATED NORMALLY****
TOTAL RUN TIME: 0 days 0 hours 2 minutes 27 seconds 224 msec
