                         Program Version 5.0.0 -  RELEASE  -
|  1> !wB97X-D3 RIJCOSX def2-TZVP def2/J TightSCF xyzfile
|  2>
|  3> *xyzfile 0 1 D9.xyz
|  4>
|  5> %MaxCore 64000
|  6>
|  7> %pal nprocs 18
|  8> end
|  9>
| 10> %scf
| 11>   MaxIter 150
| 12> end
| 13>
| 14>
| 15>                          ****END OF INPUT****

CARTESIAN COORDINATES (ANGSTROEM)
---------------------------------
  C      4.490588    1.155899   -2.469290
  N      4.305394    1.222762   -3.908317
  C      4.906458   -3.102816   -5.954844
  C      3.511771   -2.806215   -6.492283
  H      2.736044   -3.373445   -5.973736
  H      3.444904   -3.040831   -7.555281
  S      3.004618   -1.096206   -6.389259
  C      4.631918    2.246365   -4.670958
  N      4.541686    2.143990   -5.987139
  C      5.084086    3.393584   -4.118545
  H      4.920675    3.570501   -3.135870
  H      5.254652    4.197390   -4.706956
  H      3.824530    0.449113   -4.350926
  H      4.343373    1.249318   -6.416646
  H      4.676712    2.956624   -6.574113
  O      4.128856   -0.329647   -6.953717
  O      1.781285   -1.000779   -7.136399
  C      5.942129    0.939500   -2.036893
  H      3.864305    0.328532   -2.136611
  H      4.076233    2.049994   -1.989010
  C      6.462677   -3.117775   -3.944671
  C      5.024977   -3.025679   -4.437625
  H      4.423321   -3.818693   -3.977648
  H      4.579350   -2.087131   -4.108727
  H      5.201533   -4.100207   -6.296905
  H      5.605922   -2.397822   -6.413368
  C      6.559957   -0.356290   -2.559086
  H      5.967976    0.952567   -0.942444
  H      6.547184    1.788331   -2.368849
  C      6.006283   -1.615917   -1.899301
  H      7.642360   -0.318000   -2.402059
  H      6.414855   -0.403433   -3.642587
  C      6.608718   -2.917014   -2.435655
  H      6.190324   -1.561115   -0.820948
  H      4.919250   -1.651245   -2.016586
  H      7.066975   -2.374258   -4.475514
  H      6.887808   -4.089747   -4.215332
  H      6.135197   -3.755573   -1.915159
  H      7.671142   -2.955503   -2.172291
  F      2.851546   -0.783683   -4.956789

 Total Charge           Charge          ....    0
 Multiplicity           Mult            ....    1
 Number of Electrons    NEL             ....  144
 Basis Dimension        Dim             ....  671

ORBITAL ENERGIES
----------------

  NO   OCC          E(Eh)            E(eV)
   0   2.0000     -89.221530     -2427.8413
   1   2.0000     -24.925593      -678.2599
   2   2.0000     -19.269627      -524.3532
   3   2.0000     -19.266522      -524.2687
   4   2.0000     -14.408889      -392.0858
   5   2.0000     -14.385302      -391.4440
   6   2.0000     -10.354858      -281.7700
   7   2.0000     -10.313568      -280.6465
   8   2.0000     -10.304976      -280.4126
   9   2.0000     -10.299434      -280.2618
  10   2.0000     -10.296421      -280.1799
  11   2.0000     -10.284122      -279.8452
  12   2.0000     -10.277569      -279.6669
  13   2.0000     -10.271642      -279.5056
  14   2.0000     -10.263710      -279.2898
  15   2.0000     -10.258708      -279.1536
  16   2.0000     -10.164444      -276.5886
  17   2.0000      -8.285367      -225.4563
  18   2.0000      -6.243010      -169.8809
  19   2.0000      -6.236255      -169.6971
  20   2.0000      -6.235680      -169.6815
  21   2.0000      -1.511757       -41.1370
  22   2.0000      -1.254296       -34.1311
  23   2.0000      -1.159951       -31.5639
  24   2.0000      -1.072066       -29.1724
  25   2.0000      -0.984194       -26.7813
  26   2.0000      -0.975553       -26.5461
  27   2.0000      -0.937457       -25.5095
  28   2.0000      -0.903507       -24.5857
  29   2.0000      -0.870817       -23.6961
  30   2.0000      -0.847289       -23.0559
  31   2.0000      -0.814559       -22.1653
  32   2.0000      -0.801117       -21.7995
  33   2.0000      -0.775110       -21.0918
  34   2.0000      -0.750589       -20.4246
  35   2.0000      -0.721994       -19.6464
  36   2.0000      -0.712938       -19.4000
  37   2.0000      -0.705811       -19.2061
  38   2.0000      -0.686972       -18.6935
  39   2.0000      -0.673189       -18.3184
  40   2.0000      -0.643199       -17.5023
  41   2.0000      -0.628905       -17.1134
  42   2.0000      -0.618282       -16.8243
  43   2.0000      -0.611208       -16.6318
  44   2.0000      -0.596105       -16.2208
  45   2.0000      -0.593855       -16.1596
  46   2.0000      -0.576995       -15.7008
  47   2.0000      -0.573753       -15.6126
  48   2.0000      -0.554765       -15.0959
  49   2.0000      -0.550459       -14.9788
  50   2.0000      -0.538469       -14.6525
  51   2.0000      -0.536291       -14.5932
  52   2.0000      -0.518113       -14.0986
  53   2.0000      -0.509625       -13.8676
  54   2.0000      -0.495901       -13.4942
  55   2.0000      -0.489191       -13.3116
  56   2.0000      -0.482080       -13.1181
  57   2.0000      -0.473577       -12.8867
  58   2.0000      -0.467347       -12.7172
  59   2.0000      -0.460353       -12.5269
  60   2.0000      -0.456246       -12.4151
  61   2.0000      -0.451109       -12.2753
  62   2.0000      -0.445341       -12.1183
  63   2.0000      -0.440250       -11.9798
  64   2.0000      -0.437965       -11.9176
  65   2.0000      -0.431579       -11.7439
  66   2.0000      -0.427985       -11.6461
  67   2.0000      -0.411414       -11.1951
  68   2.0000      -0.409916       -11.1544
  69   2.0000      -0.400616       -10.9013
  70   2.0000      -0.323291        -8.7972
  71   2.0000      -0.232657        -6.3309
  72   0.0000       0.075821         2.0632
  73   0.0000       0.097917         2.6644
  74   0.0000       0.110562         3.0085
  75   0.0000       0.114715         3.1216
  76   0.0000       0.121771         3.3136

MULLIKEN ATOMIC CHARGES
-----------------------
   0 C :   -0.211002
   1 N :   -0.329597
   2 C :   -0.189640
   3 C :   -0.255315
   4 H :    0.160960
   5 H :    0.189629
   6 S :    0.890608
   7 C :    0.416607
   8 N :   -0.528541
   9 C :   -0.582257
  10 H :    0.098469
  11 H :    0.077818
  12 H :    0.170826
  13 H :    0.248946
  14 H :    0.244537
  15 O :   -0.471854
  16 O :   -0.398211
  17 C :   -0.111124
  18 H :    0.124461
  19 H :    0.133905
  20 C :   -0.220038
  21 C :   -0.286237
  22 H :    0.114707
  23 H :    0.072412
  24 H :    0.127387
  25 H :    0.154888
  26 C :   -0.248622
  27 H :    0.090427
  28 H :    0.147166
  29 C :   -0.245102
  30 H :    0.109075
  31 H :    0.118580
  32 C :   -0.158927
  33 H :    0.110212
  34 H :    0.100656
  35 H :    0.129773
  36 H :    0.112441
  37 H :    0.103810
  38 H :    0.111511
  39 F :   -0.123347
Sum of atomic charges:    0.0000000

LOEWDIN ATOMIC CHARGES
----------------------
   0 C :   -0.279352
   1 N :    0.108718
   2 C :   -0.281804
   3 C :   -0.357683
   4 H :    0.144719
   5 H :    0.157907
   6 S :    0.565948
   7 C :   -0.465388
   8 N :   -0.013908
   9 C :   -0.369106
  10 H :    0.092949
  11 H :    0.090142
  12 H :    0.154742
  13 H :    0.136664
  14 H :    0.175029
  15 O :   -0.276405
  16 O :   -0.241432
  17 C :   -0.264712
  18 H :    0.127102
  19 H :    0.133535
  20 C :   -0.266855
  21 C :   -0.274452
  22 H :    0.138923
  23 H :    0.128417
  24 H :    0.147116
  25 H :    0.150317
  26 C :   -0.268447
  27 H :    0.135669
  28 H :    0.146202
  29 C :   -0.271942
  30 H :    0.137838
  31 H :    0.135530
  32 C :   -0.266075
  33 H :    0.137436
  34 H :    0.127208
  35 H :    0.139667
  36 H :    0.137189
  37 H :    0.135436
  38 H :    0.138512
  39 F :    0.074649

  Mayer bond orders larger than 0.100000
B(  0-C ,  1-N ) :   0.9341 B(  0-C , 17-C ) :   0.9391 B(  0-C , 18-H ) :   0.9936
B(  0-C , 19-H ) :   0.9847 B(  1-N ,  7-C ) :   1.1562 B(  1-N , 12-H ) :   0.9246
B(  2-C ,  3-C ) :   0.9533 B(  2-C , 21-C ) :   0.9730 B(  2-C , 24-H ) :   0.9553
B(  2-C , 25-H ) :   0.9671 B(  3-C ,  4-H ) :   0.9491 B(  3-C ,  5-H ) :   0.9442
B(  3-C ,  6-S ) :   0.9157 B(  6-S , 15-O ) :   1.7661 B(  6-S , 16-O ) :   1.9906
B(  6-S , 39-F ) :   1.0629 B(  7-C ,  8-N ) :   1.1664 B(  7-C ,  9-C ) :   1.5880
B(  8-N , 13-H ) :   0.8704 B(  8-N , 14-H ) :   0.9243 B(  9-C , 10-H ) :   1.0045
B(  9-C , 11-H ) :   1.0085 B( 17-C , 26-C ) :   0.9770 B( 17-C , 27-H ) :   0.9802
B( 17-C , 28-H ) :   0.9621 B( 20-C , 21-C ) :   0.9722 B( 20-C , 32-C ) :   0.9680
B( 20-C , 35-H ) :   0.9853 B( 20-C , 36-H ) :   0.9735 B( 21-C , 22-H ) :   0.9646
B( 21-C , 23-H ) :   0.9803 B( 26-C , 29-C ) :   0.9417 B( 26-C , 30-H ) :   0.9724
B( 26-C , 31-H ) :   0.9739 B( 29-C , 32-C ) :   0.9695 B( 29-C , 33-H ) :   0.9703
B( 29-C , 34-H ) :   0.9923 B( 32-C , 37-H ) :   0.9858 B( 32-C , 38-H ) :   0.9795

Dispersion correction           -0.021750747
FINAL SINGLE POINT ENERGY     -1191.068726482509

DIPOLE MOMENT
-------------
                                X             Y             Z
Electronic contribution:    -19.00257       1.81801     -17.87253
Nuclear contribution   :     18.85717      -4.60195      17.96505
                        -----------------------------------------
Total Dipole Moment    :     -0.14539      -2.78393       0.09252
                        -----------------------------------------
Magnitude (a.u.)       :      2.78926
Magnitude (Debye)      :      7.08975

Rotational constants in cm-1:     0.014436     0.012382     0.007563
Rotational constants in MHz :   432.785702   371.214592   226.743759

                             ****ORCA TERMINATED NORMALLY****
TOTAL RUN TIME: 0 days 0 hours 2 minutes 6 seconds 527 msec
