                         Program Version 5.0.0 -  RELEASE  -
|  1> !PBE0 D3BJ RIJCOSX def2-SVPD def2/J TightSCF
|  2> *xyz -1 1
|  3> C          1.44442        5.26658       -0.97546
|  4> O          1.56525        4.23349       -1.86489
|  5> H          1.76623        6.17572       -1.43893
|  6> H          2.05096        5.07018       -0.11614
|  7> H          0.42160        5.36155       -0.67592
|  8> *
|  9> %MaxCore 64000
| 10>
| 11> %pal nprocs 8
| 12> end
| 13>
| 14> %scf
| 15>   MaxIter 150
| 16> end
| 17>
| 18>
| 19>                          ****END OF INPUT****

CARTESIAN COORDINATES (ANGSTROEM)
---------------------------------
  C      1.444420    5.266580   -0.975460
  O      1.565250    4.233490   -1.864890
  H      1.766230    6.175720   -1.438930
  H      2.050960    5.070180   -0.116140
  H      0.421600    5.361550   -0.675920

 Total Charge           Charge          ....   -1
 Multiplicity           Mult            ....    1
 Number of Electrons    NEL             ....   18
 Basis Dimension        Dim             ....   67

ORBITAL ENERGIES
----------------

  NO   OCC          E(Eh)            E(eV)
   0   2.0000     -18.860723      -513.2264
   1   2.0000     -10.015108      -272.5249
   2   2.0000      -0.673857       -18.3366
   3   2.0000      -0.407990       -11.1020
   4   2.0000      -0.207698        -5.6517
   5   2.0000      -0.207686        -5.6514
   6   2.0000      -0.111357        -3.0302
   7   2.0000       0.041266         1.1229
   8   2.0000       0.041276         1.1232
   9   0.0000       0.205338         5.5875
  10   0.0000       0.277322         7.5463
  11   0.0000       0.277323         7.5463
  12   0.0000       0.285514         7.7692
  13   0.0000       0.321245         8.7415

MULLIKEN ATOMIC CHARGES
-----------------------
   0 C :    0.705851
   1 O :   -1.056442
   2 H :   -0.216797
   3 H :   -0.216391
   4 H :   -0.216221
Sum of atomic charges:   -1.0000000

LOEWDIN ATOMIC CHARGES
----------------------
   0 C :   -0.116897
   1 O :   -0.651323
   2 H :   -0.077246
   3 H :   -0.077259
   4 H :   -0.077274

  Mayer bond orders larger than 0.100000
B(  0-C ,  1-O ) :   1.1243 B(  0-C ,  2-H ) :   0.9380 B(  0-C ,  3-H ) :   0.9376
B(  0-C ,  4-H ) :   0.9372

Dispersion correction           -0.001163292
FINAL SINGLE POINT ENERGY      -114.883601098254

DIPOLE MOMENT
-------------
                                X             Y             Z
Electronic contribution:      0.16517      -1.41298      -1.21667
Nuclear contribution   :     -0.25440       2.17514       1.87266
                        -----------------------------------------
Total Dipole Moment    :     -0.08923       0.76216       0.65599
                        -----------------------------------------
Magnitude (a.u.)       :      1.00954
Magnitude (Debye)      :      2.56605

Rotational constants in cm-1:     5.477715     0.940444     0.940443
Rotational constants in MHz : 164217.753846 28193.799011 28193.774483

                             ****ORCA TERMINATED NORMALLY****
TOTAL RUN TIME: 0 days 0 hours 0 minutes 3 seconds 158 msec
