                         Program Version 5.0.0 -  RELEASE  -
|  1> !PBE0 D3BJ RIJCOSX def2-SVPD def2/J TightSCF
|  2> *xyz 1 1
|  3> C         -0.70169        4.07250       -4.00392
|  4> N          0.68053        4.61482       -4.04800
|  5> H          0.69993        5.58489       -4.38827
|  6> H          1.27804        4.05598       -4.66824
|  7> H          1.08573        4.53358       -3.10652
|  8> H         -1.14500        4.14653       -4.97495
|  9> H         -1.28296        4.63405       -3.30271
| 10> H         -0.67274        3.04629       -3.70235
| 11> *
| 12> %MaxCore 64000
| 13>
| 14> %pal nprocs 8
| 15> end
| 16>
| 17> %scf
| 18>   MaxIter 150
| 19> end
| 20>
| 21>
| 22>                          ****END OF INPUT****

CARTESIAN COORDINATES (ANGSTROEM)
---------------------------------
  C     -0.701690    4.072500   -4.003920
  N      0.680530    4.614820   -4.048000
  H      0.699930    5.584890   -4.388270
  H      1.278040    4.055980   -4.668240
  H      1.085730    4.533580   -3.106520
  H     -1.145000    4.146530   -4.974950
  H     -1.282960    4.634050   -3.302710
  H     -0.672740    3.046290   -3.702350

 Total Charge           Charge          ....    1
 Multiplicity           Mult            ....    1
 Number of Electrons    NEL             ....   18
 Basis Dimension        Dim             ....   88

ORBITAL ENERGIES
----------------

  NO   OCC          E(Eh)            E(eV)
   0   2.0000     -14.746881      -401.2830
   1   2.0000     -10.490786      -285.4688
   2   2.0000      -1.245708       -33.8974
   3   2.0000      -0.955133       -25.9905
   4   2.0000      -0.832890       -22.6641
   5   2.0000      -0.822614       -22.3845
   6   2.0000      -0.730739       -19.8844
   7   2.0000      -0.640954       -17.4412
   8   2.0000      -0.639281       -17.3957
   9   0.0000      -0.195353        -5.3158
  10   0.0000      -0.126365        -3.4386
  11   0.0000      -0.124593        -3.3904
  12   0.0000      -0.120966        -3.2916
  13   0.0000      -0.077300        -2.1034

MULLIKEN ATOMIC CHARGES
-----------------------
   0 C :    0.778937
   1 N :   -0.872499
   2 H :    0.380440
   3 H :    0.376697
   4 H :    0.395735
   5 H :   -0.027058
   6 H :   -0.017417
   7 H :   -0.014835
Sum of atomic charges:    1.0000000

LOEWDIN ATOMIC CHARGES
----------------------
   0 C :    0.278689
   1 N :    0.308306
   2 H :    0.112896
   3 H :    0.108527
   4 H :    0.110011
   5 H :    0.026438
   6 H :    0.027412
   7 H :    0.027722

  Mayer bond orders larger than 0.100000
B(  0-C ,  1-N ) :   0.7941 B(  0-C ,  5-H ) :   0.9261 B(  0-C ,  6-H ) :   0.9149
B(  0-C ,  7-H ) :   0.9116 B(  1-N ,  2-H ) :   0.7664 B(  1-N ,  3-H ) :   0.7767
B(  1-N ,  4-H ) :   0.7504

Dispersion correction           -0.002676325
FINAL SINGLE POINT ENERGY       -96.035119563393

DIPOLE MOMENT
-------------
                                X             Y             Z
Electronic contribution:      1.01941       0.42560      -0.03873
Nuclear contribution   :     -0.21844      -0.13976       0.01729
                        -----------------------------------------
Total Dipole Moment    :      0.80097       0.28584      -0.02144
                        -----------------------------------------
Magnitude (a.u.)       :      0.85072
Magnitude (Debye)      :      2.16235

Rotational constants in cm-1:     2.865765     0.688517     0.685249
Rotational constants in MHz : 85913.460223 20641.211162 20543.252263

                             ****ORCA TERMINATED NORMALLY****
TOTAL RUN TIME: 0 days 0 hours 0 minutes 3 seconds 517 msec
