                         Program Version 5.0.0 -  RELEASE  -
|  1> !PBE0 D3BJ RIJCOSX def2-SVPD def2/J TightSCF xyzfile
|  2>
|  3> *xyzfile 0 1 B.xyz
|  4>
|  5> %MaxCore 64000
|  6>
|  7> %pal nprocs 4
|  8> end
|  9>
| 10> %scf
| 11>   MaxIter 150
| 12> end
| 13>
| 14>
| 15>                          ****END OF INPUT****

CARTESIAN COORDINATES (ANGSTROEM)
---------------------------------
  C     -0.701686    4.072499   -4.003920
  N      0.680528    4.614820   -4.048005
  C      1.444422    5.266576   -0.975463
  O      1.565248    4.233493   -1.864885
  H      0.699926    5.584890   -4.388272
  H      1.278044    4.055977   -4.668235
  H      1.085729    4.533581   -3.106524
  C     -1.703475    5.093197   -3.477396
  H     -0.995895    3.740394   -5.000654
  H     -0.643580    3.201910   -3.351533
  C     -1.313997    5.785995   -2.169271
  H     -1.877057    5.850103   -4.251154
  H     -2.653264    4.564475   -3.354796
  H     -2.097137    6.509395   -1.929558
  H     -0.416875    6.387594   -2.339097
  C     -1.073895    4.844728   -0.979904
  H     -1.968893    4.809608   -0.352568
  C      0.148120    5.210874   -0.138092
  H     -0.909754    3.827531   -1.338975
  H      1.474250    6.264638   -1.476917
  H      2.289622    5.303267   -0.264450
  H      0.261827    4.450942    0.640711
  H     -0.002516    6.171031    0.371483

 Total Charge           Charge          ....    0
 Multiplicity           Mult            ....    1
 Number of Electrons    NEL             ....   66
 Basis Dimension        Dim             ....  283

ORBITAL ENERGIES
----------------

  NO   OCC          E(Eh)            E(eV)
   0   2.0000     -19.087583      -519.3995
   1   2.0000     -14.476231      -393.9183
   2   2.0000     -10.299368      -280.2601
   3   2.0000     -10.255123      -279.0561
   4   2.0000     -10.230125      -278.3759
   5   2.0000     -10.217646      -278.0363
   6   2.0000     -10.208514      -277.7878
   7   2.0000     -10.189972      -277.2832
   8   2.0000      -1.007376       -27.4121
   9   2.0000      -0.908450       -24.7202
  10   2.0000      -0.828184       -22.5360
  11   2.0000      -0.763858       -20.7856
  12   2.0000      -0.710486       -19.3333
  13   2.0000      -0.651280       -17.7222
  14   2.0000      -0.603500       -16.4221
  15   2.0000      -0.587170       -15.9777
  16   2.0000      -0.584213       -15.8972
  17   2.0000      -0.533230       -14.5099
  18   2.0000      -0.506436       -13.7808
  19   2.0000      -0.478629       -13.0242
  20   2.0000      -0.471196       -12.8219
  21   2.0000      -0.433295       -11.7905
  22   2.0000      -0.422413       -11.4944
  23   2.0000      -0.408167       -11.1068
  24   2.0000      -0.390074       -10.6144
  25   2.0000      -0.368321       -10.0225
  26   2.0000      -0.362830        -9.8731
  27   2.0000      -0.344420        -9.3721
  28   2.0000      -0.321437        -8.7467
  29   2.0000      -0.314337        -8.5535
  30   2.0000      -0.305803        -8.3213
  31   2.0000      -0.192903        -5.2492
  32   2.0000      -0.187533        -5.1030
  33   0.0000      -0.005785        -0.1574
  34   0.0000       0.027781         0.7560
  35   0.0000       0.034633         0.9424
  36   0.0000       0.050951         1.3864
  37   0.0000       0.064282         1.7492

MULLIKEN ATOMIC CHARGES
-----------------------
   0 C :    0.601816
   1 N :   -0.219142
   2 C :    0.457392
   3 O :   -0.745353
   4 H :    0.356429
   5 H :    0.301246
   6 H :   -0.324792
   7 C :    0.011540
   8 H :   -0.223906
   9 H :    0.136694
  10 C :   -0.012883
  11 H :    0.062101
  12 H :   -0.056478
  13 H :   -0.186886
  14 H :    0.072096
  15 C :   -0.039754
  16 H :   -0.192516
  17 C :    0.037848
  18 H :    0.156745
  19 H :    0.194411
  20 H :   -0.365931
  21 H :    0.064685
  22 H :   -0.085362
Sum of atomic charges:    0.0000000

LOEWDIN ATOMIC CHARGES
----------------------
   0 C :    0.080983
   1 N :    0.316183
   2 C :   -0.075483
   3 O :   -0.394700
   4 H :    0.084777
   5 H :    0.087783
   6 H :   -0.197508
   7 C :   -0.023793
   8 H :    0.028343
   9 H :    0.036162
  10 C :   -0.019161
  11 H :    0.023555
  12 H :    0.033281
  13 H :    0.022629
  14 H :   -0.004096
  15 C :   -0.027596
  16 H :    0.016563
  17 C :   -0.034308
  18 H :    0.002368
  19 H :   -0.002452
  20 H :    0.007904
  21 H :    0.020509
  22 H :    0.018057

  Mayer bond orders larger than 0.100000
B(  0-C ,  1-N ) :   0.8049 B(  0-C ,  7-C ) :   1.2198 B(  0-C ,  8-H ) :   0.9554
B(  0-C ,  9-H ) :   0.7401 B(  0-C , 11-H ) :   0.1089 B(  0-C , 12-H ) :   0.1325
B(  1-N ,  4-H ) :   0.7609 B(  1-N ,  5-H ) :   0.8389 B(  1-N ,  6-H ) :   1.3085
B(  1-N ,  8-H ) :   0.1082 B(  1-N ,  9-H ) :   0.1374 B(  2-C ,  3-O ) :   0.9841
B(  2-C , 17-C ) :   1.1438 B(  2-C , 19-H ) :   0.7548 B(  2-C , 20-H ) :   1.0774
B(  2-C , 21-H ) :   0.1021 B(  2-C , 22-H ) :   0.1085 B(  3-O ,  6-H ) :   0.3949
B(  7-C ,  8-H ) :   0.1019 B(  7-C ,  9-H ) :   0.1136 B(  7-C , 10-C ) :   1.2512
B(  7-C , 11-H ) :   0.7685 B(  7-C , 12-H ) :   0.9261 B(  7-C , 13-H ) :   0.1170
B(  8-H ,  9-H ) :  -0.1107 B( 10-C , 11-H ) :   0.1576 B( 10-C , 12-H ) :   0.1036
B( 10-C , 13-H ) :   0.8570 B( 10-C , 14-H ) :   0.8819 B( 10-C , 15-C ) :   1.2082
B( 10-C , 16-H ) :   0.1848 B( 13-H , 15-C ) :   0.1425 B( 14-H , 15-C ) :   0.1049
B( 15-C , 16-H ) :   0.9176 B( 15-C , 17-C ) :   1.2817 B( 15-C , 18-H ) :   0.8248
B( 15-C , 21-H ) :   0.1711 B( 15-C , 22-H ) :   0.1250 B( 17-C , 20-H ) :   0.1381
B( 17-C , 21-H ) :   0.7559 B( 17-C , 22-H ) :   0.9460

Dispersion correction           -0.018835089
FINAL SINGLE POINT ENERGY      -366.941568617413

DIPOLE MOMENT
-------------
                                X             Y             Z
Electronic contribution:      1.99665      -1.53618      -1.29150
Nuclear contribution   :     -3.16446       1.92310      -1.11926
                        -----------------------------------------
Total Dipole Moment    :     -1.16782       0.38692      -2.41076
                        -----------------------------------------
Magnitude (a.u.)       :      2.70652
Magnitude (Debye)      :      6.87943

Rotational constants in cm-1:     0.085554     0.055600     0.038553
Rotational constants in MHz :  2564.854379  1666.836664  1155.798427

                             ****ORCA TERMINATED NORMALLY****
TOTAL RUN TIME: 0 days 0 hours 0 minutes 59 seconds 118 msec
