                         Program Version 5.0.0 -  RELEASE  -
|  1> !PBE0 D3BJ RIJCOSX def2-SVPD def2/J TightSCF
|  2> *xyz 0 1
|  3> C          1.44442        5.26658       -0.97546
|  4> F          1.56525        4.23349       -1.86489
|  5> H          1.76623        6.17572       -1.43893
|  6> H          2.05096        5.07018       -0.11614
|  7> H          0.42160        5.36155       -0.67592
|  8> *
|  9> %MaxCore 64000
| 10>
| 11> %pal nprocs 8
| 12> end
| 13>
| 14> %scf
| 15>   MaxIter 150
| 16> end
| 17>
| 18>
| 19>                          ****END OF INPUT****

CARTESIAN COORDINATES (ANGSTROEM)
---------------------------------
  C      1.444420    5.266580   -0.975460
  F      1.565250    4.233490   -1.864890
  H      1.766230    6.175720   -1.438930
  H      2.050960    5.070180   -0.116140
  H      0.421600    5.361550   -0.675920

 Total Charge           Charge          ....    0
 Multiplicity           Mult            ....    1
 Number of Electrons    NEL             ....   18
 Basis Dimension        Dim             ....   67

ORBITAL ENERGIES
----------------

  NO   OCC          E(Eh)            E(eV)
   0   2.0000     -24.768818      -673.9938
   1   2.0000     -10.302316      -280.3403
   2   2.0000      -1.214789       -33.0561
   3   2.0000      -0.723159       -19.6782
   4   2.0000      -0.516372       -14.0512
   5   2.0000      -0.508112       -13.8264
   6   2.0000      -0.508103       -13.8262
   7   2.0000      -0.366292        -9.9673
   8   2.0000      -0.366267        -9.9666
   9   0.0000       0.033703         0.9171
  10   0.0000       0.069951         1.9035
  11   0.0000       0.110316         3.0018
  12   0.0000       0.110317         3.0019
  13   0.0000       0.154172         4.1952

MULLIKEN ATOMIC CHARGES
-----------------------
   0 C :    0.778389
   1 F :   -0.503765
   2 H :   -0.092012
   3 H :   -0.091481
   4 H :   -0.091132
Sum of atomic charges:    0.0000000

LOEWDIN ATOMIC CHARGES
----------------------
   0 C :    0.268898
   1 F :   -0.256431
   2 H :   -0.004155
   3 H :   -0.004157
   4 H :   -0.004155

  Mayer bond orders larger than 0.100000
B(  0-C ,  1-F ) :   0.8097 B(  0-C ,  2-H ) :   0.9568 B(  0-C ,  3-H ) :   0.9565
B(  0-C ,  4-H ) :   0.9558

Dispersion correction           -0.001017821
FINAL SINGLE POINT ENERGY      -139.497376226364

DIPOLE MOMENT
-------------
                                X             Y             Z
Electronic contribution:      0.25888      -2.21406      -1.90624
Nuclear contribution   :     -0.32265       2.75860       2.37499
                        -----------------------------------------
Total Dipole Moment    :     -0.06377       0.54454       0.46875
                        -----------------------------------------
Magnitude (a.u.)       :      0.72133
Magnitude (Debye)      :      1.83347

Rotational constants in cm-1:     5.477715     0.875416     0.875415
Rotational constants in MHz : 164217.753846 26244.308980 26244.287726

                             ****ORCA TERMINATED NORMALLY****
TOTAL RUN TIME: 0 days 0 hours 0 minutes 3 seconds 127 msec
