                         Program Version 5.0.0 -  RELEASE  -
|  1> !PBE0 D3BJ RIJCOSX def2-SVPD def2/J TightSCF
|  2> *xyz 0 1
|  3> C         -0.70169        4.07250       -4.00392
|  4> C          0.68053        4.61482       -4.04800
|  5> H          0.69993        5.58489       -4.38827
|  6> H          1.27804        4.05598       -4.66824
|  7> H          1.08573        4.53358       -3.10652
|  8> H         -1.14500        4.14653       -4.97495
|  9> H         -1.28296        4.63405       -3.30271
| 10> H         -0.67274        3.04629       -3.70235
| 11> *
| 12> %MaxCore 64000
| 13>
| 14> %pal nprocs 8
| 15> end
| 16>
| 17> %scf
| 18>   MaxIter 150
| 19> end
| 20>
| 21>
| 22>                          ****END OF INPUT****

CARTESIAN COORDINATES (ANGSTROEM)
---------------------------------
  C     -0.701690    4.072500   -4.003920
  C      0.680530    4.614820   -4.048000
  H      0.699930    5.584890   -4.388270
  H      1.278040    4.055980   -4.668240
  H      1.085730    4.533580   -3.106520
  H     -1.145000    4.146530   -4.974950
  H     -1.282960    4.634050   -3.302710
  H     -0.672740    3.046290   -3.702350

 Total Charge           Charge          ....    0
 Multiplicity           Mult            ....    1
 Number of Electrons    NEL             ....   18
 Basis Dimension        Dim             ....   88

ORBITAL ENERGIES
----------------

  NO   OCC          E(Eh)            E(eV)
   0   2.0000     -10.208846      -277.7968
   1   2.0000     -10.195595      -277.4363
   2   2.0000      -0.786392       -21.3988
   3   2.0000      -0.634004       -17.2521
   4   2.0000      -0.465837       -12.6761
   5   2.0000      -0.459737       -12.5101
   6   2.0000      -0.381209       -10.3732
   7   2.0000      -0.359622        -9.7858
   8   2.0000      -0.353960        -9.6317
   9   0.0000       0.036038         0.9806
  10   0.0000       0.068421         1.8618
  11   0.0000       0.110648         3.0109
  12   0.0000       0.112126         3.0511
  13   0.0000       0.131253         3.5716

MULLIKEN ATOMIC CHARGES
-----------------------
   0 C :    0.061364
   1 C :    0.385689
   2 H :   -0.134529
   3 H :   -0.133836
   4 H :   -0.113637
   5 H :   -0.026183
   6 H :   -0.023284
   7 H :   -0.015584
Sum of atomic charges:    0.0000000

LOEWDIN ATOMIC CHARGES
----------------------
   0 C :    0.068006
   1 C :    0.072884
   2 H :   -0.030087
   3 H :   -0.034132
   4 H :   -0.031772
   5 H :   -0.016023
   6 H :   -0.014803
   7 H :   -0.014074

  Mayer bond orders larger than 0.100000
B(  0-C ,  1-C ) :   1.4788 B(  0-C ,  2-H ) :   0.1456 B(  0-C ,  3-H ) :   0.1455
B(  0-C ,  4-H ) :   0.1606 B(  0-C ,  5-H ) :   0.9040 B(  0-C ,  6-H ) :   0.8890
B(  0-C ,  7-H ) :   0.8868 B(  1-C ,  2-H ) :   0.8414 B(  1-C ,  3-H ) :   0.8249
B(  1-C ,  4-H ) :   0.8256 B(  1-C ,  5-H ) :   0.1251 B(  1-C ,  6-H ) :   0.1319
B(  1-C ,  7-H ) :   0.1327

Dispersion correction           -0.002686463
FINAL SINGLE POINT ENERGY       -79.655970451177

DIPOLE MOMENT
-------------
                                X             Y             Z
Electronic contribution:      0.00692       0.04519      -0.01077
Nuclear contribution   :      0.01985      -0.04545       0.00953
                        -----------------------------------------
Total Dipole Moment    :      0.02677      -0.00026      -0.00124
                        -----------------------------------------
Magnitude (a.u.)       :      0.02680
Magnitude (Debye)      :      0.06812

Rotational constants in cm-1:     2.865782     0.718825     0.715264
Rotational constants in MHz : 85913.996449 21549.842906 21443.078705

                             ****ORCA TERMINATED NORMALLY****
TOTAL RUN TIME: 0 days 0 hours 0 minutes 3 seconds 435 msec
