                         Program Version 5.0.0 -  RELEASE  -
|  1> !BLYP D3BJ RIJCOSX def2-SVPD def2/J TightSCF
|  2> *xyz -1 1
|  3> C         -1.10433        0.25137       -2.86006
|  4> C         -0.71189        0.84252       -4.21834
|  5> H          0.15463        1.49980       -4.13091
|  6> H         -1.53813        1.45922       -4.58267
|  7> C         -0.39762       -0.20587       -5.28802
|  8> O          0.61717       -0.00535       -5.99827
|  9> O         -1.13317       -1.22138       -5.34147
| 10> C         -0.19626       -0.86337       -2.32576
| 11> H         -1.14384        1.06671       -2.12968
| 12> H         -2.11440       -0.15683       -2.93032
| 13> H         -0.15538       -1.66172       -3.03700
| 14> H         -0.58845       -1.22999       -1.40020
| 15> H          0.78852       -0.47602       -2.16737
| 16> *
| 17>
| 18> %MaxCore 64000
| 19>
| 20> %pal nprocs 4
| 21> end
| 22>
| 23> %scf
| 24>   MaxIter 150
| 25> end
| 26>
| 27>
| 28>                          ****END OF INPUT****

CARTESIAN COORDINATES (ANGSTROEM)
---------------------------------
  C     -1.104330    0.251370   -2.860060
  C     -0.711890    0.842520   -4.218340
  H      0.154630    1.499800   -4.130910
  H     -1.538130    1.459220   -4.582670
  C     -0.397620   -0.205870   -5.288020
  O      0.617170   -0.005350   -5.998270
  O     -1.133170   -1.221380   -5.341470
  C     -0.196260   -0.863370   -2.325760
  H     -1.143840    1.066710   -2.129680
  H     -2.114400   -0.156830   -2.930320
  H     -0.155380   -1.661720   -3.037000
  H     -0.588450   -1.229990   -1.400200
  H      0.788520   -0.476020   -2.167370

 Total Charge           Charge          ....   -1
 Multiplicity           Mult            ....    1
 Number of Electrons    NEL             ....   48
 Basis Dimension        Dim             ....  182

ORBITAL ENERGIES
----------------

  NO   OCC          E(Eh)            E(eV)
   0   2.0000     -18.535720      -504.3826
   1   2.0000     -18.534596      -504.3520
   2   2.0000      -9.805668      -266.8258
   3   2.0000      -9.772474      -265.9225
   4   2.0000      -9.764967      -265.7183
   5   2.0000      -9.749385      -265.2943
   6   2.0000      -0.722309       -19.6550
   7   2.0000      -0.634577       -17.2677
   8   2.0000      -0.548804       -14.9337
   9   2.0000      -0.463364       -12.6088
  10   2.0000      -0.374312       -10.1855
  11   2.0000      -0.267337        -7.2746
  12   2.0000      -0.250882        -6.8268
  13   2.0000      -0.233660        -6.3582
  14   2.0000      -0.205528        -5.5927
  15   2.0000      -0.178025        -4.8443
  16   2.0000      -0.165928        -4.5151
  17   2.0000      -0.157810        -4.2942
  18   2.0000      -0.146754        -3.9934
  19   2.0000      -0.128910        -3.5078
  20   2.0000      -0.118639        -3.2283
  21   2.0000      -0.014102        -0.3837
  22   2.0000      -0.000378        -0.0103
  23   2.0000       0.016008         0.4356
  24   0.0000       0.129758         3.5309
  25   0.0000       0.153991         4.1903
  26   0.0000       0.171607         4.6697
  27   0.0000       0.180814         4.9202
  28   0.0000       0.197057         5.3622

MULLIKEN ATOMIC CHARGES
-----------------------
   0 C :   -0.167651
   1 C :    0.450005
   2 H :   -0.139156
   3 H :   -0.174494
   4 C :    0.169405
   5 O :   -0.566846
   6 O :   -0.637657
   7 C :    1.054257
   8 H :   -0.333263
   9 H :   -0.112508
  10 H :   -0.194681
  11 H :   -0.202084
  12 H :   -0.145328
Sum of atomic charges:   -1.0000000

LOEWDIN ATOMIC CHARGES
----------------------
   0 C :   -0.082364
   1 C :    0.008116
   2 H :   -0.007225
   3 H :    0.002641
   4 C :   -0.329398
   5 O :   -0.305971
   6 O :   -0.294494
   7 C :    0.127278
   8 H :   -0.010593
   9 H :    0.002794
  10 H :   -0.034600
  11 H :   -0.043655
  12 H :   -0.032529

  Mayer bond orders larger than 0.100000
B(  0-C ,  1-C ) :   1.2077 B(  0-C ,  2-H ) :   0.1801 B(  0-C ,  3-H ) :   0.1766
B(  0-C ,  7-C ) :   1.3300 B(  0-C ,  8-H ) :   0.8634 B(  0-C ,  9-H ) :   0.7981
B(  0-C , 10-H ) :   0.2662 B(  0-C , 11-H ) :   0.3007 B(  0-C , 12-H ) :   0.2529
B(  1-C ,  2-H ) :   0.7850 B(  1-C ,  3-H ) :   0.7314 B(  1-C ,  4-C ) :   1.0427
B(  1-C ,  8-H ) :   0.1500 B(  1-C ,  9-H ) :   0.1554 B(  2-H ,  4-C ) :   0.2813
B(  3-H ,  4-C ) :   0.1229 B(  4-C ,  5-O ) :   1.4942 B(  4-C ,  6-O ) :   1.5809
B(  7-C ,  8-H ) :   0.1243 B(  7-C ,  9-H ) :   0.1232 B(  7-C , 10-H ) :   0.7393
B(  7-C , 11-H ) :   0.6191 B(  7-C , 12-H ) :   0.6978

Dispersion correction           -0.020230454
FINAL SINGLE POINT ENERGY      -306.857603788701

DIPOLE MOMENT
-------------
                                X             Y             Z
Electronic contribution:      0.67722      -1.06788      -7.19465
Nuclear contribution   :     -1.15173       1.87787       9.37659
                        -----------------------------------------
Total Dipole Moment    :     -0.47452       0.80998       2.18194
                        -----------------------------------------
Magnitude (a.u.)       :      2.37531
Magnitude (Debye)      :      6.03757

Rotational constants in cm-1:     0.203160     0.081703     0.075834
Rotational constants in MHz :  6090.598467  2449.397428  2273.436534

                             ****ORCA TERMINATED NORMALLY****
TOTAL RUN TIME: 0 days 0 hours 0 minutes 6 seconds 670 msec
