                         Program Version 5.0.0 -  RELEASE  -
|  1> !BLYP D3BJ RIJCOSX def2-SVPD def2/J TightSCF
|  2> *xyz 1 1
|  3> C          2.23447       -2.98975       -2.39762
|  4> N          2.75680       -2.94555       -3.76503
|  5> C          1.98721       -2.59045       -4.81898
|  6> N          0.74322       -3.01749       -4.91352
|  7> N          2.49964       -1.84860       -5.80324
|  8> H          3.30978       -1.29282       -5.55895
|  9> H          1.80103       -1.30430       -6.28913
| 10> H          3.71612       -2.62880       -3.82953
| 11> H          0.39583       -3.62775       -4.18502
| 12> H          0.03920       -2.45438       -5.37137
| 13> C          2.19120       -1.61950       -1.71549
| 14> H          2.87278       -3.66637       -1.82801
| 15> H          1.24619       -3.44744       -2.40784
| 16> C          1.29873       -0.55431       -2.35977
| 17> H          1.87292       -1.78796       -0.68131
| 18> H          3.21681       -1.23843       -1.65443
| 19> H          1.61097       -0.39090       -3.37007
| 20> H          1.37981        0.35955       -1.80916
| 21> H          0.28197       -0.88750       -2.35015
| 22> *
| 23>
| 24> %MaxCore 64000
| 25>
| 26> %pal nprocs 4
| 27> end
| 28>
| 29> %scf
| 30>   MaxIter 150
| 31> end
| 32>
| 33>
| 34>                          ****END OF INPUT****

CARTESIAN COORDINATES (ANGSTROEM)
---------------------------------
  C      2.234470   -2.989750   -2.397620
  N      2.756800   -2.945550   -3.765030
  C      1.987210   -2.590450   -4.818980
  N      0.743220   -3.017490   -4.913520
  N      2.499640   -1.848600   -5.803240
  H      3.309780   -1.292820   -5.558950
  H      1.801030   -1.304300   -6.289130
  H      3.716120   -2.628800   -3.829530
  H      0.395830   -3.627750   -4.185020
  H      0.039200   -2.454380   -5.371370
  C      2.191200   -1.619500   -1.715490
  H      2.872780   -3.666370   -1.828010
  H      1.246190   -3.447440   -2.407840
  C      1.298730   -0.554310   -2.359770
  H      1.872920   -1.787960   -0.681310
  H      3.216810   -1.238430   -1.654430
  H      1.610970   -0.390900   -3.370070
  H      1.379810    0.359550   -1.809160
  H      0.281970   -0.887500   -2.350150

 Total Charge           Charge          ....    1
 Multiplicity           Mult            ....    1
 Number of Electrons    NEL             ....   56
 Basis Dimension        Dim             ....  236

ORBITAL ENERGIES
----------------

  NO   OCC          E(Eh)            E(eV)
   0   2.0000     -14.250507      -387.7760
   1   2.0000     -14.247373      -387.6907
   2   2.0000     -14.243994      -387.5988
   3   2.0000     -10.249606      -278.9060
   4   2.0000     -10.127565      -275.5851
   5   2.0000     -10.072500      -274.0867
   6   2.0000     -10.053727      -273.5758
   7   2.0000      -1.118222       -30.4284
   8   2.0000      -1.012510       -27.5518
   9   2.0000      -1.008467       -27.4418
  10   2.0000      -0.858145       -23.3513
  11   2.0000      -0.794391       -21.6165
  12   2.0000      -0.759401       -20.6643
  13   2.0000      -0.725056       -19.7298
  14   2.0000      -0.703743       -19.1498
  15   2.0000      -0.671014       -18.2592
  16   2.0000      -0.645013       -17.5517
  17   2.0000      -0.632134       -17.2013
  18   2.0000      -0.597322       -16.2540
  19   2.0000      -0.573383       -15.6025
  20   2.0000      -0.547389       -14.8952
  21   2.0000      -0.536669       -14.6035
  22   2.0000      -0.512281       -13.9399
  23   2.0000      -0.475654       -12.9432
  24   2.0000      -0.454079       -12.3561
  25   2.0000      -0.448615       -12.2074
  26   2.0000      -0.439061       -11.9475
  27   2.0000      -0.406576       -11.0635
  28   0.0000      -0.223171        -6.0728
  29   0.0000      -0.176140        -4.7930
  30   0.0000      -0.149271        -4.0619
  31   0.0000      -0.136662        -3.7188
  32   0.0000      -0.118817        -3.2332

MULLIKEN ATOMIC CHARGES
-----------------------
   0 C :    1.026437
   1 N :   -0.212820
   2 C :    0.644992
   3 N :    0.325341
   4 N :    0.216495
   5 H :   -0.067030
   6 H :   -0.036050
   7 H :   -0.215703
   8 H :   -0.065259
   9 H :   -0.108417
  10 C :   -0.058458
  11 H :   -0.440354
  12 H :   -0.213568
  13 C :    1.246355
  14 H :   -0.184188
  15 H :   -0.176138
  16 H :   -0.345143
  17 H :   -0.234480
  18 H :   -0.102013
Sum of atomic charges:    1.0000000

LOEWDIN ATOMIC CHARGES
----------------------
   0 C :    0.076440
   1 N :    0.079978
   2 C :   -0.088197
   3 N :    0.304258
   4 N :    0.292611
   5 H :    0.028837
   6 H :    0.029236
   7 H :    0.046838
   8 H :    0.020743
   9 H :    0.043009
  10 C :   -0.032558
  11 H :    0.036135
  12 H :    0.013531
  13 C :    0.154620
  14 H :    0.035741
  15 H :    0.025020
  16 H :   -0.046003
  17 H :   -0.004718
  18 H :   -0.015518

  Mayer bond orders larger than 0.100000
B(  0-C ,  1-N ) :   0.9842 B(  0-C , 10-C ) :   1.1230 B(  0-C , 11-H ) :   0.6927
B(  0-C , 12-H ) :   0.6608 B(  0-C , 14-H ) :   0.1836 B(  0-C , 15-H ) :   0.1619
B(  1-N ,  2-C ) :   1.1505 B(  1-N ,  3-N ) :   0.1093 B(  1-N ,  4-N ) :   0.1814
B(  1-N ,  7-H ) :   1.1390 B(  1-N , 11-H ) :   0.2349 B(  1-N , 12-H ) :   0.1533
B(  2-C ,  3-N ) :   1.0952 B(  2-C ,  4-N ) :   1.0094 B(  2-C ,  7-H ) :  -0.1861
B(  2-C ,  9-H ) :  -0.1035 B(  3-N ,  4-N ) :   0.1695 B(  3-N ,  8-H ) :   0.9828
B(  3-N ,  9-H ) :   1.1855 B(  4-N ,  5-H ) :   1.0071 B(  4-N ,  6-H ) :   1.0034
B(  8-H ,  9-H ) :  -0.1712 B( 10-C , 11-H ) :   0.1109 B( 10-C , 12-H ) :   0.1741
B( 10-C , 13-C ) :   1.2774 B( 10-C , 14-H ) :   0.8150 B( 10-C , 15-H ) :   0.8325
B( 10-C , 16-H ) :   0.2989 B( 10-C , 17-H ) :   0.2747 B( 10-C , 18-H ) :   0.3004
B( 11-H , 12-H ) :  -0.1682 B( 13-C , 14-H ) :   0.1168 B( 13-C , 16-H ) :   0.6652
B( 13-C , 17-H ) :   0.6425 B( 13-C , 18-H ) :   0.6226 B( 16-H , 18-H ) :   0.1411

Dispersion correction           -0.033133526
FINAL SINGLE POINT ENERGY      -323.363054311649

DIPOLE MOMENT
-------------
                                X             Y             Z
Electronic contribution:      1.24876      -3.58176      -5.55903
Nuclear contribution   :     -1.48325       3.81474       4.74728
                        -----------------------------------------
Total Dipole Moment    :     -0.23449       0.23298      -0.81175
                        -----------------------------------------
Magnitude (a.u.)       :      0.87647
Magnitude (Debye)      :      2.22782

Rotational constants in cm-1:     0.127669     0.058023     0.053953
Rotational constants in MHz :  3827.411023  1739.493733  1617.466565

                             ****ORCA TERMINATED NORMALLY****
TOTAL RUN TIME: 0 days 0 hours 0 minutes 10 seconds 741 msec
