                         Program Version 5.0.0 -  RELEASE  -
|  1> !BLYP D3BJ RIJCOSX def2-SVPD def2/J TightSCF
|  2> *xyz 0 1
|  3> C         -1.10433        0.25137       -2.86006
|  4> C         -0.71189        0.84252       -4.21834
|  5> H          0.15463        1.49980       -4.13091
|  6> H         -1.53813        1.45922       -4.58267
|  7> C         -0.39762       -0.20587       -5.28802
|  8> F          0.61717       -0.00535       -5.99827
|  9> O         -1.13317       -1.22138       -5.34147
| 10> C         -0.19626       -0.86337       -2.32576
| 11> H         -1.14384        1.06671       -2.12968
| 12> H         -2.11440       -0.15683       -2.93032
| 13> H         -0.15538       -1.66172       -3.03700
| 14> H         -0.58845       -1.22999       -1.40020
| 15> H          0.78852       -0.47602       -2.16737
| 16> *
| 17>
| 18> %MaxCore 64000
| 19>
| 20> %pal nprocs 4
| 21> end
| 22>
| 23> %scf
| 24>   MaxIter 150
| 25> end
| 26>
| 27>
| 28>                          ****END OF INPUT****

CARTESIAN COORDINATES (ANGSTROEM)
---------------------------------
  C     -1.104330    0.251370   -2.860060
  C     -0.711890    0.842520   -4.218340
  H      0.154630    1.499800   -4.130910
  H     -1.538130    1.459220   -4.582670
  C     -0.397620   -0.205870   -5.288020
  F      0.617170   -0.005350   -5.998270
  O     -1.133170   -1.221380   -5.341470
  C     -0.196260   -0.863370   -2.325760
  H     -1.143840    1.066710   -2.129680
  H     -2.114400   -0.156830   -2.930320
  H     -0.155380   -1.661720   -3.037000
  H     -0.588450   -1.229990   -1.400200
  H      0.788520   -0.476020   -2.167370

 Total Charge           Charge          ....    0
 Multiplicity           Mult            ....    1
 Number of Electrons    NEL             ....   48
 Basis Dimension        Dim             ....  182

ORBITAL ENERGIES
----------------

  NO   OCC          E(Eh)            E(eV)
   0   2.0000     -24.375561      -663.2927
   1   2.0000     -18.799517      -511.5609
   2   2.0000     -10.096705      -274.7453
   3   2.0000      -9.953115      -270.8380
   4   2.0000      -9.935268      -270.3524
   5   2.0000      -9.912807      -269.7412
   6   2.0000      -1.197768       -32.5929
   7   2.0000      -0.933230       -25.3945
   8   2.0000      -0.725221       -19.7343
   9   2.0000      -0.650137       -17.6911
  10   2.0000      -0.591672       -16.1002
  11   2.0000      -0.542242       -14.7552
  12   2.0000      -0.488017       -13.2796
  13   2.0000      -0.468203       -12.7404
  14   2.0000      -0.446638       -12.1536
  15   2.0000      -0.414070       -11.2674
  16   2.0000      -0.401310       -10.9202
  17   2.0000      -0.368979       -10.0404
  18   2.0000      -0.350123        -9.5273
  19   2.0000      -0.325006        -8.8439
  20   2.0000      -0.312580        -8.5057
  21   2.0000      -0.305140        -8.3033
  22   2.0000      -0.300426        -8.1750
  23   2.0000      -0.245065        -6.6686
  24   0.0000      -0.068961        -1.8765
  25   0.0000      -0.004852        -0.1320
  26   0.0000       0.023472         0.6387
  27   0.0000       0.029983         0.8159
  28   0.0000       0.039241         1.0678

MULLIKEN ATOMIC CHARGES
-----------------------
   0 C :   -0.102507
   1 C :    0.377969
   2 H :   -0.109169
   3 H :   -0.111014
   4 C :    0.550082
   5 F :   -0.292786
   6 O :   -0.442885
   7 C :    1.085316
   8 H :   -0.304718
   9 H :   -0.107738
  10 H :   -0.220309
  11 H :   -0.183199
  12 H :   -0.139043
Sum of atomic charges:   -0.0000000

LOEWDIN ATOMIC CHARGES
----------------------
   0 C :   -0.051890
   1 C :    0.049280
   2 H :    0.017988
   3 H :    0.035408
   4 C :   -0.042154
   5 F :   -0.012411
   6 O :   -0.110688
   7 C :    0.147705
   8 H :    0.018443
   9 H :    0.021060
  10 H :   -0.031959
  11 H :   -0.019510
  12 H :   -0.021270

  Mayer bond orders larger than 0.100000
B(  0-C ,  1-C ) :   1.2466 B(  0-C ,  2-H ) :   0.1720 B(  0-C ,  3-H ) :   0.1738
B(  0-C ,  7-C ) :   1.3630 B(  0-C ,  8-H ) :   0.8332 B(  0-C ,  9-H ) :   0.7911
B(  0-C , 10-H ) :   0.2517 B(  0-C , 11-H ) :   0.2838 B(  0-C , 12-H ) :   0.2434
B(  1-C ,  2-H ) :   0.8020 B(  1-C ,  3-H ) :   0.7272 B(  1-C ,  4-C ) :   1.0843
B(  1-C ,  8-H ) :   0.1481 B(  1-C ,  9-H ) :   0.1444 B(  2-H ,  4-C ) :   0.1516
B(  3-H ,  4-C ) :   0.1011 B(  4-C ,  5-F ) :   0.8004 B(  4-C ,  6-O ) :   1.8679
B(  5-F ,  6-O ) :   0.1249 B(  7-C ,  8-H ) :   0.1151 B(  7-C ,  9-H ) :   0.1159
B(  7-C , 10-H ) :   0.7320 B(  7-C , 11-H ) :   0.6250 B(  7-C , 12-H ) :   0.6972

Dispersion correction           -0.019474350
FINAL SINGLE POINT ENERGY      -331.392527182230

DIPOLE MOMENT
-------------
                                X             Y             Z
Electronic contribution:      2.60196      -0.70671     -10.69603
Nuclear contribution   :     -2.39146       1.63977      11.24418
                        -----------------------------------------
Total Dipole Moment    :      0.21051       0.93306       0.54814
                        -----------------------------------------
Magnitude (a.u.)       :      1.10244
Magnitude (Debye)      :      2.80218

Rotational constants in cm-1:     0.198868     0.077542     0.072498
Rotational constants in MHz :  5961.919605  2324.650173  2173.425242

                             ****ORCA TERMINATED NORMALLY****
TOTAL RUN TIME: 0 days 0 hours 0 minutes 6 seconds 114 msec
