                         Program Version 5.0.0 -  RELEASE  -
|  1> !BLYP D3BJ RIJCOSX def2-SVPD def2/J TightSCF
|  2> *xyz 0 1
|  3> C          2.23447       -2.98975       -2.39762
|  4> C          2.75680       -2.94555       -3.76503
|  5> C          1.98721       -2.59045       -4.81898
|  6> N          0.74322       -3.01749       -4.91352
|  7> N          2.49964       -1.84860       -5.80324
|  8> H          3.30978       -1.29282       -5.55895
|  9> H          1.80103       -1.30430       -6.28913
| 10> H          3.71612       -2.62880       -3.82953
| 11> H          0.39583       -3.62775       -4.18502
| 12> H          0.03920       -2.45438       -5.37137
| 13> C          2.19120       -1.61950       -1.71549
| 14> H          2.87278       -3.66637       -1.82801
| 15> H          1.24619       -3.44744       -2.40784
| 16> C          1.29873       -0.55431       -2.35977
| 17> H          1.87292       -1.78796       -0.68131
| 18> H          3.21681       -1.23843       -1.65443
| 19> H          1.61097       -0.39090       -3.37007
| 20> H          1.37981        0.35955       -1.80916
| 21> H          0.28197       -0.88750       -2.35015
| 22> *
| 23>
| 24> %MaxCore 64000
| 25>
| 26> %pal nprocs 4
| 27> end
| 28>
| 29> %scf
| 30>   MaxIter 150
| 31> end
| 32>
| 33>
| 34>                          ****END OF INPUT****

CARTESIAN COORDINATES (ANGSTROEM)
---------------------------------
  C      2.234470   -2.989750   -2.397620
  C      2.756800   -2.945550   -3.765030
  C      1.987210   -2.590450   -4.818980
  N      0.743220   -3.017490   -4.913520
  N      2.499640   -1.848600   -5.803240
  H      3.309780   -1.292820   -5.558950
  H      1.801030   -1.304300   -6.289130
  H      3.716120   -2.628800   -3.829530
  H      0.395830   -3.627750   -4.185020
  H      0.039200   -2.454380   -5.371370
  C      2.191200   -1.619500   -1.715490
  H      2.872780   -3.666370   -1.828010
  H      1.246190   -3.447440   -2.407840
  C      1.298730   -0.554310   -2.359770
  H      1.872920   -1.787960   -0.681310
  H      3.216810   -1.238430   -1.654430
  H      1.610970   -0.390900   -3.370070
  H      1.379810    0.359550   -1.809160
  H      0.281970   -0.887500   -2.350150

 Total Charge           Charge          ....    0
 Multiplicity           Mult            ....    1
 Number of Electrons    NEL             ....   56
 Basis Dimension        Dim             ....  236

ORBITAL ENERGIES
----------------

  NO   OCC          E(Eh)            E(eV)
   0   2.0000     -14.032230      -381.8364
   1   2.0000     -14.029037      -381.7495
   2   2.0000      -9.966468      -271.2014
   3   2.0000      -9.904371      -269.5116
   4   2.0000      -9.900033      -269.3936
   5   2.0000      -9.899959      -269.3916
   6   2.0000      -9.851041      -268.0604
   7   2.0000      -0.875284       -23.8177
   8   2.0000      -0.790504       -21.5107
   9   2.0000      -0.701307       -19.0835
  10   2.0000      -0.641901       -17.4670
  11   2.0000      -0.587420       -15.9845
  12   2.0000      -0.537110       -14.6155
  13   2.0000      -0.504265       -13.7218
  14   2.0000      -0.487871       -13.2756
  15   2.0000      -0.452287       -12.3074
  16   2.0000      -0.421832       -11.4786
  17   2.0000      -0.397940       -10.8285
  18   2.0000      -0.388136       -10.5617
  19   2.0000      -0.363641        -9.8952
  20   2.0000      -0.337764        -9.1910
  21   2.0000      -0.328226        -8.9315
  22   2.0000      -0.307571        -8.3694
  23   2.0000      -0.295681        -8.0459
  24   2.0000      -0.274741        -7.4761
  25   2.0000      -0.271057        -7.3758
  26   2.0000      -0.230813        -6.2807
  27   2.0000      -0.130056        -3.5390
  28   0.0000      -0.015999        -0.4354
  29   0.0000       0.014112         0.3840
  30   0.0000       0.021359         0.5812
  31   0.0000       0.023583         0.6417
  32   0.0000       0.039224         1.0673

MULLIKEN ATOMIC CHARGES
-----------------------
   0 C :    0.492136
   1 C :   -0.012930
   2 C :    0.093927
   3 N :    0.295417
   4 N :    0.219534
   5 H :   -0.016543
   6 H :   -0.058439
   7 H :   -0.301602
   8 H :   -0.070901
   9 H :   -0.198501
  10 C :   -0.064177
  11 H :   -0.217816
  12 H :   -0.310043
  13 C :    1.285402
  14 H :   -0.245211
  15 H :   -0.197158
  16 H :   -0.309838
  17 H :   -0.276678
  18 H :   -0.106579
Sum of atomic charges:   -0.0000000

LOEWDIN ATOMIC CHARGES
----------------------
   0 C :   -0.060383
   1 C :   -0.005615
   2 C :   -0.263671
   3 N :    0.221492
   4 N :    0.214907
   5 H :   -0.003865
   6 H :   -0.019257
   7 H :   -0.060348
   8 H :   -0.009076
   9 H :   -0.009204
  10 C :   -0.060348
  11 H :    0.005237
  12 H :   -0.010885
  13 C :    0.138502
  14 H :    0.008204
  15 H :    0.013701
  16 H :   -0.044235
  17 H :   -0.028104
  18 H :   -0.027055

  Mayer bond orders larger than 0.100000
B(  0-C ,  1-C ) :   1.2266 B(  0-C ,  2-C ) :   0.1874 B(  0-C ,  7-H ) :   0.3940
B(  0-C , 10-C ) :   1.1626 B(  0-C , 11-H ) :   0.6687 B(  0-C , 12-H ) :   0.6231
B(  0-C , 14-H ) :   0.2624 B(  0-C , 15-H ) :   0.2155 B(  1-C ,  2-C ) :   1.5409
B(  1-C ,  3-N ) :   0.1621 B(  1-C ,  4-N ) :   0.2984 B(  1-C ,  7-H ) :   0.4934
B(  1-C , 10-C ) :   0.1217 B(  1-C , 11-H ) :   0.2549 B(  1-C , 12-H ) :   0.2761
B(  2-C ,  3-N ) :   1.1560 B(  2-C ,  4-N ) :   0.9858 B(  2-C ,  6-H ) :   0.1265
B(  2-C ,  7-H ) :   0.3478 B(  3-N ,  4-N ) :   0.1373 B(  3-N ,  8-H ) :   0.9922
B(  3-N ,  9-H ) :   1.1643 B(  4-N ,  5-H ) :   0.9391 B(  4-N ,  6-H ) :   0.8537
B(  8-H ,  9-H ) :  -0.1528 B( 10-C , 11-H ) :   0.1159 B( 10-C , 12-H ) :   0.1738
B( 10-C , 13-C ) :   1.2725 B( 10-C , 14-H ) :   0.7715 B( 10-C , 15-H ) :   0.8151
B( 10-C , 16-H ) :   0.3202 B( 10-C , 17-H ) :   0.3060 B( 10-C , 18-H ) :   0.2886
B( 13-C , 14-H ) :   0.1098 B( 13-C , 15-H ) :   0.1217 B( 13-C , 16-H ) :   0.6649
B( 13-C , 17-H ) :   0.5890 B( 13-C , 18-H ) :   0.6362 B( 16-H , 18-H ) :   0.1447

Dispersion correction           -0.034421354
FINAL SINGLE POINT ENERGY      -306.885313212023

DIPOLE MOMENT
-------------
                                X             Y             Z
Electronic contribution:      0.60685      -2.88182      -5.04319
Nuclear contribution   :     -1.30515       3.65216       4.73330
                        -----------------------------------------
Total Dipole Moment    :     -0.69830       0.77034      -0.30989
                        -----------------------------------------
Magnitude (a.u.)       :      1.08494
Magnitude (Debye)      :      2.75769

Rotational constants in cm-1:     0.129987     0.058163     0.054282
Rotational constants in MHz :  3896.918182  1743.696851  1627.337267

                             ****ORCA TERMINATED NORMALLY****
TOTAL RUN TIME: 0 days 0 hours 0 minutes 11 seconds 409 msec
