                         Program Version 5.0.0 -  RELEASE  -
|  1> !BLYP D3BJ RIJCOSX def2-SVPD def2/J TightSCF
|  2> *xyz 0 1
|  3> C         -1.10433        0.25137       -2.86006
|  4> C         -0.71189        0.84252       -4.21834
|  5> H          0.15463        1.49980       -4.13091
|  6> H         -1.53813        1.45922       -4.58267
|  7> C         -0.39762       -0.20587       -5.28802
|  8> O          0.61717       -0.00535       -5.99827
|  9> F         -1.13317       -1.22138       -5.34147
| 10> C         -0.19626       -0.86337       -2.32576
| 11> H         -1.14384        1.06671       -2.12968
| 12> H         -2.11440       -0.15683       -2.93032
| 13> H         -0.15538       -1.66172       -3.03700
| 14> H         -0.58845       -1.22999       -1.40020
| 15> H          0.78852       -0.47602       -2.16737
| 16> *
| 17>
| 18> %MaxCore 64000
| 19>
| 20> %pal nprocs 4
| 21> end
| 22>
| 23> %scf
| 24>   MaxIter 150
| 25> end
| 26>
| 27>
| 28>                          ****END OF INPUT****

CARTESIAN COORDINATES (ANGSTROEM)
---------------------------------
  C     -1.104330    0.251370   -2.860060
  C     -0.711890    0.842520   -4.218340
  H      0.154630    1.499800   -4.130910
  H     -1.538130    1.459220   -4.582670
  C     -0.397620   -0.205870   -5.288020
  O      0.617170   -0.005350   -5.998270
  F     -1.133170   -1.221380   -5.341470
  C     -0.196260   -0.863370   -2.325760
  H     -1.143840    1.066710   -2.129680
  H     -2.114400   -0.156830   -2.930320
  H     -0.155380   -1.661720   -3.037000
  H     -0.588450   -1.229990   -1.400200
  H      0.788520   -0.476020   -2.167370

 Total Charge           Charge          ....    0
 Multiplicity           Mult            ....    1
 Number of Electrons    NEL             ....   48
 Basis Dimension        Dim             ....  182

ORBITAL ENERGIES
----------------

  NO   OCC          E(Eh)            E(eV)
   0   2.0000     -24.376457      -663.3171
   1   2.0000     -18.798000      -511.5196
   2   2.0000     -10.095859      -274.7223
   3   2.0000      -9.952016      -270.8081
   4   2.0000      -9.940100      -270.4839
   5   2.0000      -9.920589      -269.9530
   6   2.0000      -1.198484       -32.6124
   7   2.0000      -0.931387       -25.3443
   8   2.0000      -0.730401       -19.8752
   9   2.0000      -0.650824       -17.7098
  10   2.0000      -0.592123       -16.1125
  11   2.0000      -0.548001       -14.9119
  12   2.0000      -0.489929       -13.3317
  13   2.0000      -0.478489       -13.0203
  14   2.0000      -0.431472       -11.7409
  15   2.0000      -0.420722       -11.4484
  16   2.0000      -0.403367       -10.9762
  17   2.0000      -0.371230       -10.1017
  18   2.0000      -0.351744        -9.5714
  19   2.0000      -0.332886        -9.0583
  20   2.0000      -0.319333        -8.6895
  21   2.0000      -0.310724        -8.4552
  22   2.0000      -0.302120        -8.2211
  23   2.0000      -0.239962        -6.5297
  24   0.0000      -0.066357        -1.8057
  25   0.0000      -0.008839        -0.2405
  26   0.0000       0.024814         0.6752
  27   0.0000       0.028659         0.7799
  28   0.0000       0.036798         1.0013

MULLIKEN ATOMIC CHARGES
-----------------------
   0 C :   -0.102486
   1 C :    0.401592
   2 H :   -0.124758
   3 H :   -0.126732
   4 C :    0.558932
   5 O :   -0.374151
   6 F :   -0.349010
   7 C :    1.087360
   8 H :   -0.314503
   9 H :   -0.126314
  10 H :   -0.220697
  11 H :   -0.182749
  12 H :   -0.126484
Sum of atomic charges:    0.0000000

LOEWDIN ATOMIC CHARGES
----------------------
   0 C :   -0.060440
   1 C :    0.055030
   2 H :    0.029866
   3 H :    0.033155
   4 C :   -0.048545
   5 O :   -0.112501
   6 F :   -0.011053
   7 C :    0.147052
   8 H :    0.018468
   9 H :    0.015735
  10 H :   -0.031201
  11 H :   -0.019333
  12 H :   -0.016231

  Mayer bond orders larger than 0.100000
B(  0-C ,  1-C ) :   1.2252 B(  0-C ,  2-H ) :   0.1652 B(  0-C ,  3-H ) :   0.1649
B(  0-C ,  7-C ) :   1.3590 B(  0-C ,  8-H ) :   0.8398 B(  0-C ,  9-H ) :   0.7932
B(  0-C , 10-H ) :   0.2542 B(  0-C , 11-H ) :   0.2883 B(  0-C , 12-H ) :   0.2499
B(  1-C ,  2-H ) :   0.8127 B(  1-C ,  3-H ) :   0.7395 B(  1-C ,  4-C ) :   1.0397
B(  1-C ,  8-H ) :   0.1498 B(  1-C ,  9-H ) :   0.1373 B(  2-H ,  4-C ) :   0.1979
B(  4-C ,  5-O ) :   1.8418 B(  4-C ,  6-F ) :   0.7719 B(  5-O ,  6-F ) :   0.1418
B(  7-C ,  8-H ) :   0.1094 B(  7-C ,  9-H ) :   0.1132 B(  7-C , 10-H ) :   0.7340
B(  7-C , 11-H ) :   0.6220 B(  7-C , 12-H ) :   0.7010

Dispersion correction           -0.019289149
FINAL SINGLE POINT ENERGY      -331.391521101689

DIPOLE MOMENT
-------------
                                X             Y             Z
Electronic contribution:     -0.33766      -2.73268      -9.53589
Nuclear contribution   :     -0.41432       3.01336      10.50227
                        -----------------------------------------
Total Dipole Moment    :     -0.75198       0.28068       0.96638
                        -----------------------------------------
Magnitude (a.u.)       :      1.25624
Magnitude (Debye)      :      3.19312

Rotational constants in cm-1:     0.192167     0.080512     0.073747
Rotational constants in MHz :  5761.018137  2413.690728  2210.882638

                             ****ORCA TERMINATED NORMALLY****
TOTAL RUN TIME: 0 days 0 hours 0 minutes 6 seconds 248 msec
