                         Program Version 5.0.0 -  RELEASE  -
|  1> !BLYP D3BJ RIJCOSX def2-SVPD def2/J TightSCF
|  2> *xyz 0 1
|  3> C          2.23447       -2.98975       -2.39762
|  4> N          2.75680       -2.94555       -3.76503
|  5> C          1.98721       -2.59045       -4.81898
|  6> C          0.74322       -3.01749       -4.91352
|  7> N          2.49964       -1.84860       -5.80324
|  8> H          3.30978       -1.29282       -5.55895
|  9> H          1.80103       -1.30430       -6.28913
| 10> H          3.71612       -2.62880       -3.82953
| 11> H          0.39583       -3.62775       -4.18502
| 12> H          0.03920       -2.45438       -5.37137
| 13> C          2.19120       -1.61950       -1.71549
| 14> H          2.87278       -3.66637       -1.82801
| 15> H          1.24619       -3.44744       -2.40784
| 16> C          1.29873       -0.55431       -2.35977
| 17> H          1.87292       -1.78796       -0.68131
| 18> H          3.21681       -1.23843       -1.65443
| 19> H          1.61097       -0.39090       -3.37007
| 20> H          1.37981        0.35955       -1.80916
| 21> H          0.28197       -0.88750       -2.35015
| 22> *
| 23>
| 24> %MaxCore 64000
| 25>
| 26> %pal nprocs 4
| 27> end
| 28>
| 29> %scf
| 30>   MaxIter 150
| 31> end
| 32>
| 33>
| 34>                          ****END OF INPUT****

CARTESIAN COORDINATES (ANGSTROEM)
---------------------------------
  C      2.234470   -2.989750   -2.397620
  N      2.756800   -2.945550   -3.765030
  C      1.987210   -2.590450   -4.818980
  C      0.743220   -3.017490   -4.913520
  N      2.499640   -1.848600   -5.803240
  H      3.309780   -1.292820   -5.558950
  H      1.801030   -1.304300   -6.289130
  H      3.716120   -2.628800   -3.829530
  H      0.395830   -3.627750   -4.185020
  H      0.039200   -2.454380   -5.371370
  C      2.191200   -1.619500   -1.715490
  H      2.872780   -3.666370   -1.828010
  H      1.246190   -3.447440   -2.407840
  C      1.298730   -0.554310   -2.359770
  H      1.872920   -1.787960   -0.681310
  H      3.216810   -1.238430   -1.654430
  H      1.610970   -0.390900   -3.370070
  H      1.379810    0.359550   -1.809160
  H      0.281970   -0.887500   -2.350150

 Total Charge           Charge          ....    0
 Multiplicity           Mult            ....    1
 Number of Electrons    NEL             ....   56
 Basis Dimension        Dim             ....  236

ORBITAL ENERGIES
----------------

  NO   OCC          E(Eh)            E(eV)
   0   2.0000     -14.026858      -381.6902
   1   2.0000     -14.026748      -381.6872
   2   2.0000      -9.963333      -271.1161
   3   2.0000      -9.953124      -270.8383
   4   2.0000      -9.923153      -270.0227
   5   2.0000      -9.908224      -269.6165
   6   2.0000      -9.843228      -267.8478
   7   2.0000      -0.872011       -23.7286
   8   2.0000      -0.798480       -21.7278
   9   2.0000      -0.694730       -18.9046
  10   2.0000      -0.640511       -17.4292
  11   2.0000      -0.612829       -16.6759
  12   2.0000      -0.537718       -14.6320
  13   2.0000      -0.499783       -13.5998
  14   2.0000      -0.485990       -13.2245
  15   2.0000      -0.455848       -12.4042
  16   2.0000      -0.418172       -11.3790
  17   2.0000      -0.403658       -10.9841
  18   2.0000      -0.379670       -10.3313
  19   2.0000      -0.363278        -9.8853
  20   2.0000      -0.350681        -9.5425
  21   2.0000      -0.333270        -9.0687
  22   2.0000      -0.320814        -8.7298
  23   2.0000      -0.310296        -8.4436
  24   2.0000      -0.300227        -8.1696
  25   2.0000      -0.292698        -7.9647
  26   2.0000      -0.210017        -5.7148
  27   2.0000      -0.142246        -3.8707
  28   0.0000      -0.011942        -0.3250
  29   0.0000       0.011876         0.3232
  30   0.0000       0.017517         0.4766
  31   0.0000       0.030246         0.8230
  32   0.0000       0.036335         0.9887

MULLIKEN ATOMIC CHARGES
-----------------------
   0 C :    0.998687
   1 N :   -0.137040
   2 C :    0.284753
   3 C :    0.596364
   4 N :    0.221212
   5 H :   -0.122115
   6 H :   -0.021575
   7 H :   -0.329058
   8 H :   -0.315299
   9 H :   -0.533255
  10 C :   -0.107389
  11 H :   -0.463187
  12 H :   -0.209649
  13 C :    1.271502
  14 H :   -0.221340
  15 H :   -0.196297
  16 H :   -0.374577
  17 H :   -0.215356
  18 H :   -0.126381
Sum of atomic charges:    0.0000000

LOEWDIN ATOMIC CHARGES
----------------------
   0 C :    0.052647
   1 N :    0.021009
   2 C :   -0.270728
   3 C :    0.170622
   4 N :    0.212014
   5 H :   -0.023792
   6 H :   -0.005781
   7 H :    0.006239
   8 H :   -0.107547
   9 H :   -0.095462
  10 C :   -0.053828
  11 H :    0.011928
  12 H :    0.004832
  13 C :    0.143347
  14 H :    0.012951
  15 H :    0.009324
  16 H :   -0.041732
  17 H :   -0.025984
  18 H :   -0.020059

  Mayer bond orders larger than 0.100000
B(  0-C ,  1-N ) :   0.9751 B(  0-C ,  3-C ) :   0.1118 B(  0-C , 10-C ) :   1.0845
B(  0-C , 11-H ) :   0.7050 B(  0-C , 12-H ) :   0.6381 B(  0-C , 14-H ) :   0.1977
B(  0-C , 15-H ) :   0.1645 B(  1-N ,  2-C ) :   1.1309 B(  1-N ,  3-C ) :   0.3157
B(  1-N ,  4-N ) :   0.1537 B(  1-N ,  7-H ) :   1.0482 B(  1-N , 11-H ) :   0.2118
B(  1-N , 12-H ) :   0.1560 B(  2-C ,  3-C ) :   1.6233 B(  2-C ,  4-N ) :   0.9495
B(  2-C ,  7-H ) :  -0.1189 B(  2-C ,  8-H ) :   0.3504 B(  2-C ,  9-H ) :   0.2095
B(  3-C ,  4-N ) :   0.2728 B(  3-C ,  8-H ) :   0.4015 B(  3-C ,  9-H ) :   0.7057
B(  4-N ,  5-H ) :   0.9253 B(  4-N ,  6-H ) :   0.9310 B(  8-H ,  9-H ) :   0.1659
B( 10-C , 11-H ) :   0.1107 B( 10-C , 12-H ) :   0.1881 B( 10-C , 13-C ) :   1.2686
B( 10-C , 14-H ) :   0.8239 B( 10-C , 15-H ) :   0.8442 B( 10-C , 16-H ) :   0.3175
B( 10-C , 17-H ) :   0.2706 B( 10-C , 18-H ) :   0.3014 B( 11-H , 12-H ) :  -0.1752
B( 13-C , 14-H ) :   0.1195 B( 13-C , 15-H ) :   0.1038 B( 13-C , 16-H ) :   0.6693
B( 13-C , 17-H ) :   0.6122 B( 13-C , 18-H ) :   0.6162 B( 16-H , 18-H ) :   0.1716

Dispersion correction           -0.034228597
FINAL SINGLE POINT ENERGY      -306.878673861300

DIPOLE MOMENT
-------------
                                X             Y             Z
Electronic contribution:      2.34485      -2.73786      -3.90836
Nuclear contribution   :     -1.74624       3.63640       4.48172
                        -----------------------------------------
Total Dipole Moment    :      0.59861       0.89855       0.57336
                        -----------------------------------------
Magnitude (a.u.)       :      1.22248
Magnitude (Debye)      :      3.10731

Rotational constants in cm-1:     0.131012     0.059513     0.054636
Rotational constants in MHz :  3927.631151  1784.169731  1637.945644

                             ****ORCA TERMINATED NORMALLY****
TOTAL RUN TIME: 0 days 0 hours 0 minutes 11 seconds 513 msec
