                         Program Version 5.0.0 -  RELEASE  -
|  1> !BLYP D3BJ RIJCOSX def2-SVPD def2/J TightSCF
|  2> *xyz 0 1
|  3> C          2.23447       -2.98975       -2.39762
|  4> N          2.75680       -2.94555       -3.76503
|  5> C          1.98721       -2.59045       -4.81898
|  6> N          0.74322       -3.01749       -4.91352
|  7> C          2.49964       -1.84860       -5.80324
|  8> H          3.30978       -1.29282       -5.55895
|  9> H          1.80103       -1.30430       -6.28913
| 10> H          3.71612       -2.62880       -3.82953
| 11> H          0.39583       -3.62775       -4.18502
| 12> H          0.03920       -2.45438       -5.37137
| 13> C          2.19120       -1.61950       -1.71549
| 14> H          2.87278       -3.66637       -1.82801
| 15> H          1.24619       -3.44744       -2.40784
| 16> C          1.29873       -0.55431       -2.35977
| 17> H          1.87292       -1.78796       -0.68131
| 18> H          3.21681       -1.23843       -1.65443
| 19> H          1.61097       -0.39090       -3.37007
| 20> H          1.37981        0.35955       -1.80916
| 21> H          0.28197       -0.88750       -2.35015
| 22> *
| 23>
| 24> %MaxCore 64000
| 25>
| 26> %pal nprocs 4
| 27> end
| 28>
| 29> %scf
| 30>   MaxIter 150
| 31> end
| 32>
| 33>
| 34>                          ****END OF INPUT****

CARTESIAN COORDINATES (ANGSTROEM)
---------------------------------
  C      2.234470   -2.989750   -2.397620
  N      2.756800   -2.945550   -3.765030
  C      1.987210   -2.590450   -4.818980
  N      0.743220   -3.017490   -4.913520
  C      2.499640   -1.848600   -5.803240
  H      3.309780   -1.292820   -5.558950
  H      1.801030   -1.304300   -6.289130
  H      3.716120   -2.628800   -3.829530
  H      0.395830   -3.627750   -4.185020
  H      0.039200   -2.454380   -5.371370
  C      2.191200   -1.619500   -1.715490
  H      2.872780   -3.666370   -1.828010
  H      1.246190   -3.447440   -2.407840
  C      1.298730   -0.554310   -2.359770
  H      1.872920   -1.787960   -0.681310
  H      3.216810   -1.238430   -1.654430
  H      1.610970   -0.390900   -3.370070
  H      1.379810    0.359550   -1.809160
  H      0.281970   -0.887500   -2.350150

 Total Charge           Charge          ....    0
 Multiplicity           Mult            ....    1
 Number of Electrons    NEL             ....   56
 Basis Dimension        Dim             ....  236

ORBITAL ENERGIES
----------------

  NO   OCC          E(Eh)            E(eV)
   0   2.0000     -14.029395      -381.7592
   1   2.0000     -14.025655      -381.6575
   2   2.0000      -9.966739      -271.2088
   3   2.0000      -9.960659      -271.0433
   4   2.0000      -9.925923      -270.0981
   5   2.0000      -9.910041      -269.6659
   6   2.0000      -9.839350      -267.7423
   7   2.0000      -0.873589       -23.7716
   8   2.0000      -0.798201       -21.7201
   9   2.0000      -0.701365       -19.0851
  10   2.0000      -0.647903       -17.6303
  11   2.0000      -0.599289       -16.3075
  12   2.0000      -0.540211       -14.6999
  13   2.0000      -0.530347       -14.4315
  14   2.0000      -0.483861       -13.1665
  15   2.0000      -0.440946       -11.9988
  16   2.0000      -0.433414       -11.7938
  17   2.0000      -0.400124       -10.8879
  18   2.0000      -0.395985       -10.7753
  19   2.0000      -0.358490        -9.7550
  20   2.0000      -0.344925        -9.3859
  21   2.0000      -0.331324        -9.0158
  22   2.0000      -0.320780        -8.7289
  23   2.0000      -0.312410        -8.5011
  24   2.0000      -0.300882        -8.1874
  25   2.0000      -0.299403        -8.1472
  26   2.0000      -0.211711        -5.7610
  27   2.0000      -0.138487        -3.7684
  28   0.0000      -0.010367        -0.2821
  29   0.0000       0.009465         0.2576
  30   0.0000       0.013213         0.3595
  31   0.0000       0.024767         0.6739
  32   0.0000       0.033892         0.9222

MULLIKEN ATOMIC CHARGES
-----------------------
   0 C :    1.052734
   1 N :   -0.239847
   2 C :    0.117771
   3 N :    0.475425
   4 C :    0.735097
   5 H :   -0.324116
   6 H :   -0.567998
   7 H :   -0.216781
   8 H :   -0.176439
   9 H :   -0.162058
  10 C :   -0.129132
  11 H :   -0.479554
  12 H :   -0.237779
  13 C :    1.244054
  14 H :   -0.216502
  15 H :   -0.198491
  16 H :   -0.274587
  17 H :   -0.308264
  18 H :   -0.093535
Sum of atomic charges:    0.0000000

LOEWDIN ATOMIC CHARGES
----------------------
   0 C :    0.045181
   1 N :    0.024759
   2 C :   -0.266518
   3 N :    0.222649
   4 C :    0.152240
   5 H :   -0.110601
   6 H :   -0.110533
   7 H :    0.020953
   8 H :   -0.024593
   9 H :    0.008321
  10 C :   -0.054323
  11 H :    0.010420
  12 H :   -0.002091
  13 C :    0.145459
  14 H :    0.011364
  15 H :    0.013385
  16 H :   -0.036677
  17 H :   -0.024818
  18 H :   -0.024579

  Mayer bond orders larger than 0.100000
B(  0-C ,  1-N ) :   0.9789 B(  0-C , 10-C ) :   1.0897 B(  0-C , 11-H ) :   0.6830
B(  0-C , 12-H ) :   0.6498 B(  0-C , 14-H ) :   0.1776 B(  0-C , 15-H ) :   0.1829
B(  1-N ,  2-C ) :   1.1164 B(  1-N ,  4-C ) :   0.2420 B(  1-N ,  7-H ) :   1.0728
B(  1-N , 11-H ) :   0.2415 B(  1-N , 12-H ) :   0.1678 B(  2-C ,  3-N ) :   1.1422
B(  2-C ,  4-C ) :   1.8890 B(  2-C ,  5-H ) :   0.3156 B(  2-C ,  6-H ) :   0.3629
B(  2-C ,  7-H ) :  -0.1101 B(  3-N ,  4-C ) :   0.2416 B(  3-N ,  8-H ) :   0.9510
B(  3-N ,  9-H ) :   1.0620 B(  4-C ,  5-H ) :   0.5680 B(  4-C ,  6-H ) :   0.5006
B(  5-H ,  6-H ) :   0.3108 B(  8-H ,  9-H ) :  -0.1619 B( 10-C , 11-H ) :   0.1268
B( 10-C , 12-H ) :   0.1905 B( 10-C , 13-C ) :   1.2715 B( 10-C , 14-H ) :   0.8439
B( 10-C , 15-H ) :   0.8097 B( 10-C , 16-H ) :   0.3171 B( 10-C , 17-H ) :   0.2856
B( 10-C , 18-H ) :   0.3002 B( 11-H , 12-H ) :  -0.1701 B( 13-C , 14-H ) :   0.1126
B( 13-C , 15-H ) :   0.1122 B( 13-C , 16-H ) :   0.6870 B( 13-C , 17-H ) :   0.6106
B( 13-C , 18-H ) :   0.6359 B( 16-H , 18-H ) :   0.1209

Dispersion correction           -0.034098738
FINAL SINGLE POINT ENERGY      -306.874865020352

DIPOLE MOMENT
-------------
                                X             Y             Z
Electronic contribution:      0.77031      -3.84189      -3.06170
Nuclear contribution   :     -1.36148       3.89245       4.28682
                        -----------------------------------------
Total Dipole Moment    :     -0.59118       0.05056       1.22512
                        -----------------------------------------
Magnitude (a.u.)       :      1.36124
Magnitude (Debye)      :      3.45999

Rotational constants in cm-1:     0.130039     0.059901     0.055416
Rotational constants in MHz :  3898.472533  1795.778295  1661.317267

                             ****ORCA TERMINATED NORMALLY****
TOTAL RUN TIME: 0 days 0 hours 0 minutes 10 seconds 809 msec
