                         Program Version 5.0.0 -  RELEASE  -
|  1> !BLYP D3BJ RIJCOSX def2-SVPD def2/J TightSCF xyzfile
|  2>
|  3> *xyzfile 0 1 D1.xyz
|  4>
|  5> %MaxCore 64000
|  6>
|  7> %pal nprocs 4
|  8> end
|  9>
| 10> %scf
| 11>   MaxIter 150
| 12> end
| 13>
| 14>
| 15>                          ****END OF INPUT****

CARTESIAN COORDINATES (ANGSTROEM)
---------------------------------
  C      2.234473   -2.989754   -2.397622
  C      2.756799   -2.945553   -3.765029
  C     -1.104325    0.251374   -2.860056
  C     -0.711893    0.842517   -4.218344
  H      0.154626    1.499800   -4.130909
  H     -1.538134    1.459222   -4.582671
  C     -0.397624   -0.205875   -5.288018
  C      1.987208   -2.590451   -4.818975
  N      0.743221   -3.017493   -4.913524
  N      2.499636   -1.848598   -5.803241
  H      3.309780   -1.292818   -5.558947
  H      1.801025   -1.304298   -6.289129
  H      3.716116   -2.628797   -3.829533
  H      0.395828   -3.627747   -4.185024
  H      0.039201   -2.454383   -5.371367
  F      0.617165   -0.005348   -5.998273
  O     -1.133173   -1.221380   -5.341465
  C      2.191199   -1.619503   -1.715492
  H      2.872783   -3.666368   -1.828014
  H      1.246188   -3.447444   -2.407842
  C      1.298729   -0.554314   -2.359773
  H      1.872917   -1.787955   -0.681310
  H      3.216809   -1.238432   -1.654428
  C     -0.196255   -0.863365   -2.325763
  H      1.612531   -0.371346   -3.393065
  H      1.480944    0.388638   -1.834444
  H     -0.404105   -1.761825   -2.909448
  H     -0.490439   -1.087880   -1.294131
  H     -1.143842    1.066711   -2.129680
  H     -2.114401   -0.156834   -2.930323

 Total Charge           Charge          ....    0
 Multiplicity           Mult            ....    1
 Number of Electrons    NEL             ....  102
 Basis Dimension        Dim             ....  402

ORBITAL ENERGIES
----------------

  NO   OCC          E(Eh)            E(eV)
   0   2.0000     -24.404862      -664.0901
   1   2.0000     -18.824443      -512.2391
   2   2.0000     -14.015801      -381.3893
   3   2.0000     -14.006272      -381.1300
   4   2.0000     -10.115013      -275.2435
   5   2.0000      -9.962715      -271.0993
   6   2.0000      -9.957613      -270.9604
   7   2.0000      -9.939025      -270.4546
   8   2.0000      -9.920454      -269.9493
   9   2.0000      -9.917657      -269.8732
  10   2.0000      -9.906834      -269.5787
  11   2.0000      -9.897869      -269.3347
  12   2.0000      -9.844973      -267.8953
  13   2.0000      -1.228332       -33.4246
  14   2.0000      -0.962837       -26.2001
  15   2.0000      -0.863264       -23.4906
  16   2.0000      -0.777183       -21.1482
  17   2.0000      -0.741928       -20.1889
  18   2.0000      -0.705653       -19.2018
  19   2.0000      -0.672134       -18.2897
  20   2.0000      -0.632576       -17.2133
  21   2.0000      -0.614446       -16.7199
  22   2.0000      -0.581169       -15.8144
  23   2.0000      -0.545617       -14.8470
  24   2.0000      -0.523378       -14.2418
  25   2.0000      -0.519799       -14.1445
  26   2.0000      -0.502989       -13.6870
  27   2.0000      -0.488479       -13.2922
  28   2.0000      -0.479465       -13.0469
  29   2.0000      -0.457995       -12.4627
  30   2.0000      -0.440295       -11.9810
  31   2.0000      -0.426383       -11.6025
  32   2.0000      -0.421573       -11.4716
  33   2.0000      -0.408695       -11.1212
  34   2.0000      -0.391350       -10.6492
  35   2.0000      -0.387838       -10.5536
  36   2.0000      -0.372584       -10.1385
  37   2.0000      -0.359392        -9.7796
  38   2.0000      -0.347174        -9.4471
  39   2.0000      -0.341131        -9.2826
  40   2.0000      -0.330857        -9.0031
  41   2.0000      -0.319637        -8.6978
  42   2.0000      -0.313813        -8.5393
  43   2.0000      -0.304276        -8.2798
  44   2.0000      -0.294768        -8.0211
  45   2.0000      -0.283393        -7.7115
  46   2.0000      -0.273095        -7.4313
  47   2.0000      -0.267642        -7.2829
  48   2.0000      -0.265057        -7.2126
  49   2.0000      -0.214972        -5.8497
  50   2.0000      -0.122619        -3.3366
  51   0.0000      -0.091003        -2.4763
  52   0.0000      -0.013093        -0.3563
  53   0.0000       0.008490         0.2310
  54   0.0000       0.013282         0.3614
  55   0.0000       0.014542         0.3957

MULLIKEN ATOMIC CHARGES
-----------------------
   0 C :    0.662171
   1 C :   -0.051698
   2 C :    0.873772
   3 C :    0.495534
   4 H :    0.056803
   5 H :   -0.435336
   6 C :    0.482497
   7 C :    0.152123
   8 N :    0.542057
   9 N :    0.373888
  10 H :    0.068024
  11 H :   -0.265585
  12 H :   -0.318334
  13 H :    0.010080
  14 H :   -0.588057
  15 F :   -0.340202
  16 O :   -0.511848
  17 C :    0.728934
  18 H :   -0.329104
  19 H :   -0.301636
  20 C :    0.285984
  21 H :   -0.153120
  22 H :   -0.248832
  23 C :    0.261438
  24 H :   -0.310448
  25 H :   -0.251577
  26 H :   -0.308216
  27 H :   -0.272909
  28 H :   -0.247620
  29 H :   -0.058784
Sum of atomic charges:    0.0000000

LOEWDIN ATOMIC CHARGES
----------------------
   0 C :   -0.050693
   1 C :   -0.001537
   2 C :   -0.002978
   3 C :    0.062881
   4 H :    0.020341
   5 H :    0.035813
   6 C :   -0.008542
   7 C :   -0.233142
   8 N :    0.251543
   9 N :    0.230155
  10 H :    0.001194
  11 H :   -0.071863
  12 H :   -0.062431
  13 H :   -0.000996
  14 H :   -0.106468
  15 F :   -0.015519
  16 O :   -0.099084
  17 C :   -0.012849
  18 H :    0.005542
  19 H :   -0.012842
  20 C :   -0.019229
  21 H :    0.012521
  22 H :    0.016850
  23 C :   -0.013987
  24 H :   -0.004577
  25 H :    0.019399
  26 H :   -0.010919
  27 H :    0.025421
  28 H :    0.022767
  29 H :    0.023230

  Mayer bond orders larger than 0.100000
B(  0-C ,  1-C ) :   1.1634 B(  0-C ,  7-C ) :   0.1698 B(  0-C , 12-H ) :   0.4613
B(  0-C , 17-C ) :   1.0994 B(  0-C , 18-H ) :   0.5180 B(  0-C , 19-H ) :   0.5986
B(  0-C , 20-C ) :   0.1134 B(  0-C , 21-H ) :   0.2736 B(  0-C , 22-H ) :   0.2378
B(  1-C ,  7-C ) :   1.3523 B(  1-C ,  8-N ) :   0.1727 B(  1-C ,  9-N ) :   0.3562
B(  1-C , 12-H ) :   0.3594 B(  1-C , 17-C ) :   0.1040 B(  1-C , 18-H ) :   0.2835
B(  1-C , 19-H ) :   0.2914 B(  2-C ,  3-C ) :   1.1208 B(  2-C ,  4-H ) :   0.1454
B(  2-C ,  5-H ) :   0.2150 B(  2-C ,  6-C ) :   0.1036 B(  2-C , 23-C ) :   1.1913
B(  2-C , 26-H ) :   0.1381 B(  2-C , 28-H ) :   0.6141 B(  2-C , 29-H ) :   0.4827
B(  3-C ,  4-H ) :   0.7494 B(  3-C ,  5-H ) :   0.5858 B(  3-C ,  6-C ) :   1.1749
B(  3-C , 23-C ) :   0.1963 B(  3-C , 28-H ) :   0.2156 B(  3-C , 29-H ) :   0.1258
B(  4-H ,  5-H ) :  -0.1420 B(  4-H ,  6-C ) :   0.2146 B(  5-H ,  6-C ) :   0.2311
B(  5-H , 24-H ) :  -0.1022 B(  6-C , 15-F ) :   0.7336 B(  6-C , 16-O ) :   1.7286
B(  7-C ,  8-N ) :   1.1139 B(  7-C ,  9-N ) :   0.9217 B(  7-C , 11-H ) :   0.1424
B(  7-C , 12-H ) :   0.4553 B(  8-N ,  9-N ) :   0.1443 B(  8-N , 13-H ) :   0.8785
B(  8-N , 14-H ) :   1.0998 B(  9-N , 10-H ) :   0.8459 B(  9-N , 11-H ) :   0.7881
B( 11-H , 12-H ) :   0.1159 B( 13-H , 14-H ) :  -0.2675 B( 14-H , 16-O ) :   0.1913
B( 15-F , 16-O ) :   0.1042 B( 17-C , 18-H ) :   0.1508 B( 17-C , 19-H ) :   0.1649
B( 17-C , 20-C ) :   1.1925 B( 17-C , 21-H ) :   0.6302 B( 17-C , 22-H ) :   0.4947
B( 17-C , 24-H ) :   0.1611 B( 20-C , 21-H ) :   0.2071 B( 20-C , 22-H ) :   0.3679
B( 20-C , 23-C ) :   1.2433 B( 20-C , 24-H ) :   0.7507 B( 20-C , 25-H ) :   0.6124
B( 20-C , 26-H ) :   0.1961 B( 20-C , 27-H ) :   0.2649 B( 21-H , 22-H ) :  -0.1964
B( 23-C , 24-H ) :   0.2197 B( 23-C , 25-H ) :   0.2539 B( 23-C , 26-H ) :   0.7894
B( 23-C , 27-H ) :   0.5933 B( 23-C , 28-H ) :   0.2142 B( 23-C , 29-H ) :   0.3547
B( 28-H , 29-H ) :  -0.1780

Dispersion correction           -0.070184665
FINAL SINGLE POINT ENERGY      -637.090036546466

DIPOLE MOMENT
-------------
                                X             Y             Z
Electronic contribution:     -2.94445       2.05432     -14.50590
Nuclear contribution   :      2.31842      -0.27661      14.74721
                        -----------------------------------------
Total Dipole Moment    :     -0.62602       1.77771       0.24131
                        -----------------------------------------
Magnitude (a.u.)       :      1.90010
Magnitude (Debye)      :      4.82968

Rotational constants in cm-1:     0.032691     0.023990     0.017099
Rotational constants in MHz :   980.050971   719.190545   512.606858

                             ****ORCA TERMINATED NORMALLY****
TOTAL RUN TIME: 0 days 0 hours 0 minutes 43 seconds 924 msec
