                         Program Version 5.0.0 -  RELEASE  -
|  1> !BLYP D3BJ RIJCOSX def2-SVPD def2/J TightSCF xyzfile
|  2>
|  3> *xyzfile 0 1 D2.xyz
|  4>
|  5> %MaxCore 64000
|  6>
|  7> %pal nprocs 4
|  8> end
|  9>
| 10> %scf
| 11>   MaxIter 150
| 12> end
| 13>
| 14>
| 15>                          ****END OF INPUT****

CARTESIAN COORDINATES (ANGSTROEM)
---------------------------------
  C      2.234473   -2.989754   -2.397622
  N      2.756799   -2.945553   -3.765029
  C     -1.104325    0.251374   -2.860056
  C     -0.711893    0.842517   -4.218344
  H      0.154626    1.499800   -4.130909
  H     -1.538134    1.459222   -4.582671
  C     -0.397624   -0.205875   -5.288018
  C      1.987208   -2.590451   -4.818975
  C      0.743221   -3.017493   -4.913524
  N      2.499636   -1.848598   -5.803241
  H      3.309780   -1.292818   -5.558947
  H      1.801025   -1.304298   -6.289129
  H      3.716116   -2.628797   -3.829533
  H      0.395828   -3.627747   -4.185024
  H      0.039201   -2.454383   -5.371367
  F      0.617165   -0.005348   -5.998273
  O     -1.133173   -1.221380   -5.341465
  C      2.191199   -1.619503   -1.715492
  H      2.872783   -3.666368   -1.828014
  H      1.246188   -3.447444   -2.407842
  C      1.298729   -0.554314   -2.359773
  H      1.872917   -1.787955   -0.681310
  H      3.216809   -1.238432   -1.654428
  C     -0.196255   -0.863365   -2.325763
  H      1.612531   -0.371346   -3.393065
  H      1.480944    0.388638   -1.834444
  H     -0.404105   -1.761825   -2.909448
  H     -0.490439   -1.087880   -1.294131
  H     -1.143842    1.066711   -2.129680
  H     -2.114401   -0.156834   -2.930323

 Total Charge           Charge          ....    0
 Multiplicity           Mult            ....    1
 Number of Electrons    NEL             ....  102
 Basis Dimension        Dim             ....  402

ORBITAL ENERGIES
----------------

  NO   OCC          E(Eh)            E(eV)
   0   2.0000     -24.392758      -663.7607
   1   2.0000     -18.805352      -511.7196
   2   2.0000     -14.018128      -381.4526
   3   2.0000     -14.011235      -381.2651
   4   2.0000     -10.102931      -274.9147
   5   2.0000      -9.955915      -270.9142
   6   2.0000      -9.949968      -270.7524
   7   2.0000      -9.949418      -270.7374
   8   2.0000      -9.934937      -270.3434
   9   2.0000      -9.924137      -270.0495
  10   2.0000      -9.923478      -270.0316
  11   2.0000      -9.917554      -269.8704
  12   2.0000      -9.822253      -267.2771
  13   2.0000      -1.216296       -33.0971
  14   2.0000      -0.944335       -25.6966
  15   2.0000      -0.862136       -23.4599
  16   2.0000      -0.790073       -21.4990
  17   2.0000      -0.736962       -20.0538
  18   2.0000      -0.701603       -19.0916
  19   2.0000      -0.654910       -17.8210
  20   2.0000      -0.631156       -17.1746
  21   2.0000      -0.615932       -16.7604
  22   2.0000      -0.591783       -16.1032
  23   2.0000      -0.550543       -14.9810
  24   2.0000      -0.522787       -14.2257
  25   2.0000      -0.505331       -13.7507
  26   2.0000      -0.486927       -13.2500
  27   2.0000      -0.479602       -13.0506
  28   2.0000      -0.476407       -12.9637
  29   2.0000      -0.462938       -12.5972
  30   2.0000      -0.438999       -11.9458
  31   2.0000      -0.427096       -11.6219
  32   2.0000      -0.417683       -11.3657
  33   2.0000      -0.398749       -10.8505
  34   2.0000      -0.392198       -10.6723
  35   2.0000      -0.377958       -10.2848
  36   2.0000      -0.367026        -9.9873
  37   2.0000      -0.359339        -9.7781
  38   2.0000      -0.347391        -9.4530
  39   2.0000      -0.337557        -9.1854
  40   2.0000      -0.329740        -8.9727
  41   2.0000      -0.322381        -8.7724
  42   2.0000      -0.312383        -8.5004
  43   2.0000      -0.311400        -8.4736
  44   2.0000      -0.300010        -8.1637
  45   2.0000      -0.289682        -7.8826
  46   2.0000      -0.280611        -7.6358
  47   2.0000      -0.278450        -7.5770
  48   2.0000      -0.238964        -6.5025
  49   2.0000      -0.200561        -5.4576
  50   2.0000      -0.129700        -3.5293
  51   0.0000      -0.077357        -2.1050
  52   0.0000      -0.012261        -0.3336
  53   0.0000       0.002936         0.0799
  54   0.0000       0.008975         0.2442
  55   0.0000       0.021640         0.5889

MULLIKEN ATOMIC CHARGES
-----------------------
   0 C :    1.096172
   1 N :   -0.152415
   2 C :    0.899208
   3 C :    0.483741
   4 H :    0.031448
   5 H :   -0.439566
   6 C :    0.405060
   7 C :    0.253603
   8 C :    1.090829
   9 N :    0.409479
  10 H :   -0.012874
  11 H :   -0.247291
  12 H :   -0.270211
  13 H :   -0.191422
  14 H :   -0.996136
  15 F :   -0.363641
  16 O :   -0.546000
  17 C :    0.656653
  18 H :   -0.565898
  19 H :   -0.125381
  20 C :    0.277271
  21 H :   -0.117902
  22 H :   -0.244977
  23 C :    0.184959
  24 H :   -0.363337
  25 H :   -0.282599
  26 H :   -0.296334
  27 H :   -0.272569
  28 H :   -0.248175
  29 H :   -0.051698
Sum of atomic charges:   -0.0000000

LOEWDIN ATOMIC CHARGES
----------------------
   0 C :    0.061032
   1 N :    0.021168
   2 C :   -0.001637
   3 C :    0.061548
   4 H :    0.017430
   5 H :    0.035011
   6 C :   -0.002525
   7 C :   -0.246149
   8 C :    0.192603
   9 N :    0.221741
  10 H :   -0.019824
  11 H :   -0.062381
  12 H :    0.004210
  13 H :   -0.089933
  14 H :   -0.166047
  15 F :   -0.014517
  16 O :   -0.096919
  17 C :   -0.007343
  18 H :    0.012066
  19 H :    0.001974
  20 C :   -0.018278
  21 H :    0.016667
  22 H :    0.012345
  23 C :   -0.010824
  24 H :   -0.004639
  25 H :    0.019943
  26 H :   -0.006174
  27 H :    0.024121
  28 H :    0.020971
  29 H :    0.024360

  Mayer bond orders larger than 0.100000
B(  0-C ,  1-N ) :   0.9797 B(  0-C ,  8-C ) :   0.1345 B(  0-C , 17-C ) :   1.0428
B(  0-C , 18-H ) :   0.5623 B(  0-C , 19-H ) :   0.6675 B(  0-C , 20-C ) :   0.1332
B(  0-C , 21-H ) :   0.2099 B(  0-C , 22-H ) :   0.1496 B(  1-N ,  7-C ) :   1.1067
B(  1-N ,  8-C ) :   0.3586 B(  1-N ,  9-N ) :   0.1830 B(  1-N , 12-H ) :   0.9965
B(  1-N , 18-H ) :   0.2561 B(  1-N , 19-H ) :   0.1489 B(  2-C ,  3-C ) :   1.1159
B(  2-C ,  4-H ) :   0.1359 B(  2-C ,  5-H ) :   0.2093 B(  2-C , 23-C ) :   1.2038
B(  2-C , 26-H ) :   0.1160 B(  2-C , 28-H ) :   0.6011 B(  2-C , 29-H ) :   0.4842
B(  3-C ,  4-H ) :   0.7644 B(  3-C ,  5-H ) :   0.5673 B(  3-C ,  6-C ) :   1.1914
B(  3-C , 23-C ) :   0.1953 B(  3-C , 28-H ) :   0.2242 B(  3-C , 29-H ) :   0.1238
B(  4-H ,  5-H ) :  -0.1392 B(  4-H ,  6-C ) :   0.2159 B(  5-H ,  6-C ) :   0.2528
B(  6-C , 14-H ) :   0.1377 B(  6-C , 15-F ) :   0.7051 B(  6-C , 16-O ) :   1.8571
B(  6-C , 24-H ) :   0.1002 B(  7-C ,  8-C ) :   1.6392 B(  7-C ,  9-N ) :   0.8723
B(  7-C , 10-H ) :   0.1061 B(  7-C , 13-H ) :   0.4338 B(  7-C , 14-H ) :   0.1644
B(  8-C ,  9-N ) :   0.2826 B(  8-C , 13-H ) :   0.1559 B(  9-N , 10-H ) :   0.8247
B(  9-N , 11-H ) :   0.9062 B( 10-H , 13-H ) :   0.1014 B( 11-H , 13-H ) :  -0.1004
B( 13-H , 14-H ) :  -0.1194 B( 14-H , 16-O ) :   0.3097 B( 15-F , 16-O ) :   0.1259
B( 17-C , 18-H ) :   0.1517 B( 17-C , 19-H ) :   0.1676 B( 17-C , 20-C ) :   1.1891
B( 17-C , 21-H ) :   0.6733 B( 17-C , 22-H ) :   0.5543 B( 17-C , 24-H ) :   0.1628
B( 18-H , 19-H ) :  -0.2063 B( 20-C , 21-H ) :   0.2300 B( 20-C , 22-H ) :   0.3306
B( 20-C , 23-C ) :   1.2340 B( 20-C , 24-H ) :   0.7728 B( 20-C , 25-H ) :   0.6492
B( 20-C , 26-H ) :   0.2026 B( 20-C , 27-H ) :   0.2949 B( 21-H , 22-H ) :  -0.1667
B( 23-C , 24-H ) :   0.2294 B( 23-C , 25-H ) :   0.2604 B( 23-C , 26-H ) :   0.8300
B( 23-C , 27-H ) :   0.5642 B( 23-C , 28-H ) :   0.2182 B( 23-C , 29-H ) :   0.3533
B( 28-H , 29-H ) :  -0.1853

Dispersion correction           -0.070304254
FINAL SINGLE POINT ENERGY      -637.068632042861

DIPOLE MOMENT
-------------
                                X             Y             Z
Electronic contribution:     -1.50384       2.10034     -13.56801
Nuclear contribution   :      2.00823      -0.28769      14.57028
                        -----------------------------------------
Total Dipole Moment    :      0.50439       1.81265       1.00226
                        -----------------------------------------
Magnitude (a.u.)       :      2.13182
Magnitude (Debye)      :      5.41864

Rotational constants in cm-1:     0.033070     0.023715     0.016943
Rotational constants in MHz :   991.423248   710.957140   507.940500

                             ****ORCA TERMINATED NORMALLY****
TOTAL RUN TIME: 0 days 0 hours 0 minutes 41 seconds 784 msec
