                         Program Version 5.0.0 -  RELEASE  -
|  1> !BLYP D3BJ RIJCOSX def2-SVPD def2/J TightSCF xyzfile
|  2>
|  3> *xyzfile 0 1 D5.xyz
|  4>
|  5> %MaxCore 64000
|  6>
|  7> %pal nprocs 4
|  8> end
|  9>
| 10> %scf
| 11>   MaxIter 150
| 12> end
| 13>
| 14>
| 15>                          ****END OF INPUT****

CARTESIAN COORDINATES (ANGSTROEM)
---------------------------------
  C      2.234473   -2.989754   -2.397622
  N      2.756799   -2.945553   -3.765029
  C     -1.104325    0.251374   -2.860056
  C     -0.711893    0.842517   -4.218344
  H      0.154626    1.499800   -4.130909
  H     -1.538134    1.459222   -4.582671
  C     -0.397624   -0.205875   -5.288018
  C      1.987208   -2.590451   -4.818975
  C      0.743221   -3.017493   -4.913524
  N      2.499636   -1.848598   -5.803241
  H      3.309780   -1.292818   -5.558947
  H      1.801025   -1.304298   -6.289129
  H      3.716116   -2.628797   -3.829533
  H      0.395828   -3.627747   -4.185024
  H      0.039201   -2.454383   -5.371367
  O      0.617165   -0.005348   -5.998273
  F     -1.133173   -1.221380   -5.341465
  C      2.191199   -1.619503   -1.715492
  H      2.872783   -3.666368   -1.828014
  H      1.246188   -3.447444   -2.407842
  C      1.298729   -0.554314   -2.359773
  H      1.872917   -1.787955   -0.681310
  H      3.216809   -1.238432   -1.654428
  C     -0.196255   -0.863365   -2.325763
  H      1.612531   -0.371346   -3.393065
  H      1.480944    0.388638   -1.834444
  H     -0.404105   -1.761825   -2.909448
  H     -0.490439   -1.087880   -1.294131
  H     -1.143842    1.066711   -2.129680
  H     -2.114401   -0.156834   -2.930323

 Total Charge           Charge          ....    0
 Multiplicity           Mult            ....    1
 Number of Electrons    NEL             ....  102
 Basis Dimension        Dim             ....  402

ORBITAL ENERGIES
----------------

  NO   OCC          E(Eh)            E(eV)
   0   2.0000     -24.380419      -663.4249
   1   2.0000     -18.810195      -511.8514
   2   2.0000     -14.018926      -381.4744
   3   2.0000     -14.000837      -380.9821
   4   2.0000     -10.104146      -274.9478
   5   2.0000      -9.954704      -270.8813
   6   2.0000      -9.952506      -270.8214
   7   2.0000      -9.950528      -270.7676
   8   2.0000      -9.938226      -270.4329
   9   2.0000      -9.923523      -270.0328
  10   2.0000      -9.922620      -270.0082
  11   2.0000      -9.921964      -269.9904
  12   2.0000      -9.830798      -267.5096
  13   2.0000      -1.206559       -32.8321
  14   2.0000      -0.947160       -25.7735
  15   2.0000      -0.859579       -23.3903
  16   2.0000      -0.784952       -21.3596
  17   2.0000      -0.740077       -20.1385
  18   2.0000      -0.701337       -19.0844
  19   2.0000      -0.654891       -17.8205
  20   2.0000      -0.627401       -17.0724
  21   2.0000      -0.612646       -16.6709
  22   2.0000      -0.590504       -16.0684
  23   2.0000      -0.550106       -14.9692
  24   2.0000      -0.521220       -14.1831
  25   2.0000      -0.507294       -13.8042
  26   2.0000      -0.487546       -13.2668
  27   2.0000      -0.481990       -13.1156
  28   2.0000      -0.472986       -12.8706
  29   2.0000      -0.456769       -12.4293
  30   2.0000      -0.431951       -11.7540
  31   2.0000      -0.427385       -11.6297
  32   2.0000      -0.419882       -11.4256
  33   2.0000      -0.399288       -10.8652
  34   2.0000      -0.392656       -10.6847
  35   2.0000      -0.371450       -10.1077
  36   2.0000      -0.367259        -9.9936
  37   2.0000      -0.362349        -9.8600
  38   2.0000      -0.345000        -9.3879
  39   2.0000      -0.338075        -9.1995
  40   2.0000      -0.331053        -9.0084
  41   2.0000      -0.326064        -8.8727
  42   2.0000      -0.314850        -8.5675
  43   2.0000      -0.313984        -8.5439
  44   2.0000      -0.296849        -8.0777
  45   2.0000      -0.288923        -7.8620
  46   2.0000      -0.285946        -7.7810
  47   2.0000      -0.280294        -7.6272
  48   2.0000      -0.252522        -6.8715
  49   2.0000      -0.196981        -5.3601
  50   2.0000      -0.133743        -3.6393
  51   0.0000      -0.075497        -2.0544
  52   0.0000      -0.009684        -0.2635
  53   0.0000       0.001481         0.0403
  54   0.0000       0.012689         0.3453
  55   0.0000       0.021331         0.5804

MULLIKEN ATOMIC CHARGES
-----------------------
   0 C :    1.094683
   1 N :   -0.160071
   2 C :    0.885018
   3 C :    0.504572
   4 H :    0.039917
   5 H :   -0.444743
   6 C :    0.371462
   7 C :    0.281940
   8 C :    1.036442
   9 N :    0.395843
  10 H :   -0.007304
  11 H :   -0.252061
  12 H :   -0.264652
  13 H :   -0.178155
  14 H :   -0.988185
  15 O :   -0.389098
  16 F :   -0.459988
  17 C :    0.670285
  18 H :   -0.571509
  19 H :   -0.124063
  20 C :    0.291825
  21 H :   -0.124080
  22 H :   -0.243306
  23 C :    0.209655
  24 H :   -0.350823
  25 H :   -0.298549
  26 H :   -0.322553
  27 H :   -0.258243
  28 H :   -0.255988
  29 H :   -0.088270
Sum of atomic charges:    0.0000000

LOEWDIN ATOMIC CHARGES
----------------------
   0 C :    0.060415
   1 N :    0.023482
   2 C :   -0.010351
   3 C :    0.068441
   4 H :    0.029050
   5 H :    0.033454
   6 C :   -0.003172
   7 C :   -0.238693
   8 C :    0.188800
   9 N :    0.233835
  10 H :   -0.015273
  11 H :   -0.087152
  12 H :    0.006603
  13 H :   -0.094275
  14 H :   -0.144446
  15 O :   -0.110921
  16 F :   -0.018416
  17 C :   -0.007110
  18 H :    0.012028
  19 H :    0.000798
  20 C :   -0.014937
  21 H :    0.015972
  22 H :    0.013277
  23 C :   -0.015733
  24 H :   -0.000318
  25 H :    0.020927
  26 H :   -0.009627
  27 H :    0.023329
  28 H :    0.020789
  29 H :    0.019225

  Mayer bond orders larger than 0.100000
B(  0-C ,  1-N ) :   0.9823 B(  0-C ,  8-C ) :   0.1258 B(  0-C , 17-C ) :   1.0416
B(  0-C , 18-H ) :   0.5625 B(  0-C , 19-H ) :   0.6707 B(  0-C , 20-C ) :   0.1329
B(  0-C , 21-H ) :   0.2121 B(  0-C , 22-H ) :   0.1517 B(  1-N ,  7-C ) :   1.1120
B(  1-N ,  8-C ) :   0.3510 B(  1-N ,  9-N ) :   0.1842 B(  1-N , 12-H ) :   0.9974
B(  1-N , 18-H ) :   0.2554 B(  1-N , 19-H ) :   0.1501 B(  2-C ,  3-C ) :   1.1004
B(  2-C ,  4-H ) :   0.1109 B(  2-C ,  5-H ) :   0.2139 B(  2-C , 23-C ) :   1.1987
B(  2-C , 26-H ) :   0.1289 B(  2-C , 28-H ) :   0.6263 B(  2-C , 29-H ) :   0.4859
B(  3-C ,  4-H ) :   0.7676 B(  3-C ,  5-H ) :   0.5602 B(  3-C ,  6-C ) :   1.1813
B(  3-C , 23-C ) :   0.1714 B(  3-C , 28-H ) :   0.2063 B(  3-C , 29-H ) :   0.1234
B(  4-H ,  5-H ) :  -0.1514 B(  4-H ,  6-C ) :   0.2766 B(  5-H ,  6-C ) :   0.2532
B(  6-C , 14-H ) :   0.1659 B(  6-C , 15-O ) :   1.7099 B(  6-C , 16-F ) :   0.7300
B(  7-C ,  8-C ) :   1.6310 B(  7-C ,  9-N ) :   0.8803 B(  7-C , 10-H ) :   0.1095
B(  7-C , 13-H ) :   0.4152 B(  7-C , 14-H ) :   0.1832 B(  8-C ,  9-N ) :   0.2760
B(  8-C , 10-H ) :  -0.1070 B(  8-C , 13-H ) :   0.1675 B(  9-N , 10-H ) :   0.8181
B(  9-N , 11-H ) :   0.8914 B( 10-H , 13-H ) :   0.1114 B( 11-H , 13-H ) :  -0.1153
B( 11-H , 15-O ) :   0.1230 B( 13-H , 14-H ) :  -0.1277 B( 14-H , 16-F ) :   0.2727
B( 15-O , 16-F ) :   0.1232 B( 17-C , 18-H ) :   0.1509 B( 17-C , 19-H ) :   0.1688
B( 17-C , 20-C ) :   1.1866 B( 17-C , 21-H ) :   0.6704 B( 17-C , 22-H ) :   0.5508
B( 17-C , 24-H ) :   0.1582 B( 18-H , 19-H ) :  -0.2104 B( 20-C , 21-H ) :   0.2268
B( 20-C , 22-H ) :   0.3335 B( 20-C , 23-C ) :   1.2422 B( 20-C , 24-H ) :   0.7665
B( 20-C , 25-H ) :   0.6525 B( 20-C , 26-H ) :   0.2093 B( 20-C , 27-H ) :   0.2951
B( 21-H , 22-H ) :  -0.1683 B( 23-C , 24-H ) :   0.2260 B( 23-C , 25-H ) :   0.2585
B( 23-C , 26-H ) :   0.7980 B( 23-C , 27-H ) :   0.5842 B( 23-C , 28-H ) :   0.2223
B( 23-C , 29-H ) :   0.3425 B( 28-H , 29-H ) :  -0.1894

Dispersion correction           -0.070258299
FINAL SINGLE POINT ENERGY      -637.078735025848

DIPOLE MOMENT
-------------
                                X             Y             Z
Electronic contribution:     -4.31475       0.09831     -12.45606
Nuclear contribution   :      4.07548       1.14852      13.79455
                        -----------------------------------------
Total Dipole Moment    :     -0.23927       1.24683       1.33849
                        -----------------------------------------
Magnitude (a.u.)       :      1.84483
Magnitude (Debye)      :      4.68917

Rotational constants in cm-1:     0.033274     0.023559     0.016968
Rotational constants in MHz :   997.539108   706.293545   508.690532

                             ****ORCA TERMINATED NORMALLY****
TOTAL RUN TIME: 0 days 0 hours 0 minutes 40 seconds 668 msec
