                         Program Version 5.0.0 -  RELEASE  -
|  1> !wB97X-D3 RIJCOSX def2-TZVPD def2/J TightSCF
|  2> *xyz -1 1
|  3> C         -0.47749        0.60819       -4.10105
|  4> C          0.18467       -0.50664       -4.91676
|  5> O         -0.15869       -1.70109       -4.65798
|  6> O          1.05594       -0.17441       -5.74037
|  7> H         -0.09903        1.55672       -4.42038
|  8> H         -0.25931        0.46828       -3.06292
|  9> H         -1.53664        0.57826       -4.25010
| 10> *
| 11>
| 12> %MaxCore 64000
| 13>
| 14> %pal nprocs 18
| 15> end
| 16>
| 17> %scf
| 18>   MaxIter 150
| 19> end
| 20>
| 21>
| 22>                          ****END OF INPUT****

CARTESIAN COORDINATES (ANGSTROEM)
---------------------------------
  C     -0.477490    0.608190   -4.101050
  C      0.184670   -0.506640   -4.916760
  O     -0.158690   -1.701090   -4.657980
  O      1.055940   -0.174410   -5.740370
  H     -0.099030    1.556720   -4.420380
  H     -0.259310    0.468280   -3.062920
  H     -1.536640    0.578260   -4.250100

 Total Charge           Charge          ....   -1
 Multiplicity           Mult            ....    1
 Number of Electrons    NEL             ....   32
 Basis Dimension        Dim             ....  181

ORBITAL ENERGIES
----------------

  NO   OCC          E(Eh)            E(eV)
   0   2.0000     -18.962638      -515.9996
   1   2.0000     -18.957215      -515.8521
   2   2.0000     -10.157119      -276.3892
   3   2.0000     -10.084408      -274.4107
   4   2.0000      -0.932176       -25.3658
   5   2.0000      -0.835552       -22.7365
   6   2.0000      -0.657925       -17.9031
   7   2.0000      -0.409250       -11.1363
   8   2.0000      -0.359267        -9.7761
   9   2.0000      -0.345339        -9.3972
  10   2.0000      -0.325119        -8.8469
  11   2.0000      -0.280455        -7.6316
  12   2.0000      -0.261281        -7.1098
  13   2.0000      -0.136769        -3.7217
  14   2.0000      -0.132940        -3.6175
  15   2.0000      -0.118515        -3.2250
  16   0.0000       0.203122         5.5272
  17   0.0000       0.223702         6.0872
  18   0.0000       0.236059         6.4235
  19   0.0000       0.254113         6.9148
  20   0.0000       0.275235         7.4895

MULLIKEN ATOMIC CHARGES
-----------------------
   0 C :   -0.700625
   1 C :    0.541073
   2 O :   -0.769298
   3 O :   -0.737724
   4 H :    0.239674
   5 H :    0.209915
   6 H :    0.216984
Sum of atomic charges:   -1.0000000

LOEWDIN ATOMIC CHARGES
----------------------
   0 C :   -0.071115
   1 C :   -0.805297
   2 O :   -0.146667
   3 O :   -0.114476
   4 H :    0.042865
   5 H :    0.048014
   6 H :    0.046676

  Mayer bond orders larger than 0.100000
B(  0-C ,  1-C ) :   0.8916 B(  0-C ,  4-H ) :   0.9881 B(  0-C ,  5-H ) :   0.9407
B(  0-C ,  6-H ) :   0.9471 B(  1-C ,  2-O ) :   1.4572 B(  1-C ,  3-O ) :   1.4875

Dispersion correction           -0.000907159
FINAL SINGLE POINT ENERGY      -228.553252222394

DIPOLE MOMENT
-------------
                                X             Y             Z
Electronic contribution:      1.59866      -2.57464      -1.93438
Nuclear contribution   :     -2.19461       3.67480       2.63888
                        -----------------------------------------
Total Dipole Moment    :     -0.59595       1.10016       0.70451
                        -----------------------------------------
Magnitude (a.u.)       :      1.43591
Magnitude (Debye)      :      3.64979

Rotational constants in cm-1:     0.393152     0.332423     0.186264
Rotational constants in MHz : 11786.395082  9965.786704  5584.045355

                             ****ORCA TERMINATED NORMALLY****
TOTAL RUN TIME: 0 days 0 hours 0 minutes 11 seconds 165 msec
