                         Program Version 5.0.0 -  RELEASE  -
|  1> !wB97X-D3 RIJCOSX def2-TZVPD def2/J TightSCF
|  2> *xyz 1 1
|  3> C          2.48645       -2.67712       -2.56345
|  4> C          3.03764       -2.36672       -3.92351
|  5> N          2.28036       -2.45441       -4.96769
|  6> N          4.32174       -2.01793       -4.01664
|  7> H          4.87994       -1.91167       -3.17382
|  8> H          4.71015       -1.67088       -4.88356
|  9> H          1.27042       -2.41265       -4.86614
| 10> H          2.58183       -2.05528       -5.84688
| 11> H          1.45238       -2.93848       -2.64882
| 12> H          2.58636       -1.81799       -1.93352
| 13> H          3.02742       -3.49632       -2.13781
| 14> *
| 15>
| 16> %MaxCore 64000
| 17>
| 18> %pal nprocs 18
| 19> end
| 20>
| 21> %scf
| 22>   MaxIter 150
| 23> end
| 24>
| 25>
| 26>                          ****END OF INPUT****

CARTESIAN COORDINATES (ANGSTROEM)
---------------------------------
  C      2.486450   -2.677120   -2.563450
  C      3.037640   -2.366720   -3.923510
  N      2.280360   -2.454410   -4.967690
  N      4.321740   -2.017930   -4.016640
  H      4.879940   -1.911670   -3.173820
  H      4.710150   -1.670880   -4.883560
  H      1.270420   -2.412650   -4.866140
  H      2.581830   -2.055280   -5.846880
  H      1.452380   -2.938480   -2.648820
  H      2.586360   -1.817990   -1.933520
  H      3.027420   -3.496320   -2.137810

 Total Charge           Charge          ....    1
 Multiplicity           Mult            ....    1
 Number of Electrons    NEL             ....   32
 Basis Dimension        Dim             ....  211

ORBITAL ENERGIES
----------------

  NO   OCC          E(Eh)            E(eV)
   0   2.0000     -14.676000      -399.3543
   1   2.0000     -14.670627      -399.2081
   2   2.0000     -10.612800      -288.7890
   3   2.0000     -10.472387      -284.9681
   4   2.0000      -1.331993       -36.2454
   5   2.0000      -1.232372       -33.5346
   6   2.0000      -1.071609       -29.1600
   7   2.0000      -0.955191       -25.9921
   8   2.0000      -0.883632       -24.0448
   9   2.0000      -0.871607       -23.7176
  10   2.0000      -0.804715       -21.8974
  11   2.0000      -0.765473       -20.8296
  12   2.0000      -0.712528       -19.3889
  13   2.0000      -0.700622       -19.0649
  14   2.0000      -0.676810       -18.4169
  15   2.0000      -0.595633       -16.2080
  16   0.0000      -0.138112        -3.7582
  17   0.0000      -0.097533        -2.6540
  18   0.0000      -0.055124        -1.5000
  19   0.0000      -0.053821        -1.4645
  20   0.0000      -0.029767        -0.8100

MULLIKEN ATOMIC CHARGES
-----------------------
   0 C :   -1.151003
   1 C :    0.866640
   2 N :   -0.397465
   3 N :   -0.407112
   4 H :    0.258867
   5 H :    0.226582
   6 H :    0.278925
   7 H :    0.241885
   8 H :    0.346940
   9 H :    0.373504
  10 H :    0.362238
Sum of atomic charges:    1.0000000

LOEWDIN ATOMIC CHARGES
----------------------
   0 C :    0.033871
   1 C :   -0.375548
   2 N :    0.220746
   3 N :    0.210903
   4 H :    0.152157
   5 H :    0.144829
   6 H :    0.157234
   7 H :    0.151460
   8 H :    0.093145
   9 H :    0.105211
  10 H :    0.105992

  Mayer bond orders larger than 0.100000
B(  0-C ,  1-C ) :   0.6979 B(  0-C ,  8-H ) :   0.9093 B(  0-C ,  9-H ) :   0.8817
B(  0-C , 10-H ) :   0.9178 B(  1-C ,  2-N ) :   1.2821 B(  1-C ,  3-N ) :   1.2100
B(  2-N ,  6-H ) :   0.9162 B(  2-N ,  7-H ) :   0.9793 B(  3-N ,  4-H ) :   0.9503
B(  3-N ,  5-H ) :   1.0052

Dispersion correction           -0.001683817
FINAL SINGLE POINT ENERGY      -189.735867812147

DIPOLE MOMENT
-------------
                                X             Y             Z
Electronic contribution:      0.78600       0.25191      -1.96323
Nuclear contribution   :     -0.70516       0.22720       1.57908
                        -----------------------------------------
Total Dipole Moment    :      0.08084       0.47911      -0.38415
                        -----------------------------------------
Magnitude (a.u.)       :      0.61940
Magnitude (Debye)      :      1.57439

Rotational constants in cm-1:     0.330529     0.301293     0.162717
Rotational constants in MHz :  9909.000224  9032.538169  4878.126278

                             ****ORCA TERMINATED NORMALLY****
TOTAL RUN TIME: 0 days 0 hours 0 minutes 14 seconds 233 msec
