                         Program Version 5.0.0 -  RELEASE  -
|  1> !wB97X-D3 RIJCOSX def2-TZVPD def2/J TightSCF xyzfile
|  2>
|  3> *xyzfile 0 1 B.xyz
|  4>
|  5> %MaxCore 64000
|  6>
|  7> %pal nprocs 18
|  8> end
|  9>
| 10> %scf
| 11>   MaxIter 150
| 12> end
| 13>
| 14>
| 15>                          ****END OF INPUT****

CARTESIAN COORDINATES (ANGSTROEM)
---------------------------------
  C      2.486452   -2.677121   -2.563447
  C     -0.870963    0.248043   -2.662804
  C     -0.477492    0.608191   -4.101052
  H      0.206773    1.458299   -4.118748
  H     -1.368442    0.929419   -4.647855
  C      0.184673   -0.506640   -4.916760
  C      3.037640   -2.366715   -3.923509
  N      2.280360   -2.454408   -4.967692
  N      4.321736   -2.017932   -4.016641
  H      4.879940   -1.911668   -3.173823
  H      4.710148   -1.670882   -4.883561
  H      1.270423   -2.412650   -4.866143
  H      2.581829   -2.055282   -5.846878
  O     -0.158685   -1.701088   -4.657981
  O      1.055938   -0.174410   -5.740373
  C      2.497991   -1.469464   -1.610303
  C      1.582841   -0.321986   -2.042619
  H      2.193083   -1.833912   -0.625420
  H      3.523356   -1.103982   -1.490392
  C      0.100160   -0.673551   -1.915815
  H      1.822311   -0.040361   -3.072834
  H      1.813180    0.557019   -1.433266
  H     -0.063284   -1.679120   -2.301112
  H     -0.168820   -0.691680   -0.853831
  H     -1.001048    1.181040   -2.104071
  H     -1.844645   -0.246592   -2.663281
  H      1.472592   -3.051527   -2.694366
  H      3.083201   -3.490638   -2.141472

 Total Charge           Charge          ....    0
 Multiplicity           Mult            ....    1
 Number of Electrons    NEL             ....   94
 Basis Dimension        Dim             ....  594

ORBITAL ENERGIES
----------------

  NO   OCC          E(Eh)            E(eV)
   0   2.0000     -19.139694      -520.8175
   1   2.0000     -19.133162      -520.6398
   2   2.0000     -14.504904      -394.6985
   3   2.0000     -14.467972      -393.6935
   4   2.0000     -10.428692      -283.7791
   5   2.0000     -10.325429      -280.9692
   6   2.0000     -10.321189      -280.8538
   7   2.0000     -10.303082      -280.3611
   8   2.0000     -10.272163      -279.5198
   9   2.0000     -10.253679      -279.0168
  10   2.0000     -10.249087      -278.8918
  11   2.0000     -10.236622      -278.5526
  12   2.0000      -1.151497       -31.3338
  13   2.0000      -1.114414       -30.3248
  14   2.0000      -1.050199       -28.5774
  15   2.0000      -1.017415       -27.6853
  16   2.0000      -0.949766       -25.8445
  17   2.0000      -0.894963       -24.3532
  18   2.0000      -0.849055       -23.1040
  19   2.0000      -0.791630       -21.5414
  20   2.0000      -0.770228       -20.9590
  21   2.0000      -0.726080       -19.7577
  22   2.0000      -0.711261       -19.3544
  23   2.0000      -0.685222       -18.6458
  24   2.0000      -0.664128       -18.0718
  25   2.0000      -0.625886       -17.0312
  26   2.0000      -0.603418       -16.4198
  27   2.0000      -0.582039       -15.8381
  28   2.0000      -0.560763       -15.2592
  29   2.0000      -0.554091       -15.0776
  30   2.0000      -0.547130       -14.8882
  31   2.0000      -0.522701       -14.2234
  32   2.0000      -0.510842       -13.9007
  33   2.0000      -0.507034       -13.7971
  34   2.0000      -0.490240       -13.3401
  35   2.0000      -0.477772       -13.0009
  36   2.0000      -0.466005       -12.6806
  37   2.0000      -0.452696       -12.3185
  38   2.0000      -0.446394       -12.1470
  39   2.0000      -0.429943       -11.6993
  40   2.0000      -0.416144       -11.3238
  41   2.0000      -0.407245       -11.0817
  42   2.0000      -0.397996       -10.8300
  43   2.0000      -0.388548       -10.5729
  44   2.0000      -0.318202        -8.6587
  45   2.0000      -0.305755        -8.3200
  46   2.0000      -0.295444        -8.0394
  47   0.0000       0.030465         0.8290
  48   0.0000       0.040060         1.0901
  49   0.0000       0.068470         1.8632
  50   0.0000       0.076512         2.0820
  51   0.0000       0.084393         2.2964

MULLIKEN ATOMIC CHARGES
-----------------------
   0 C :   -0.437553
   1 C :   -0.627220
   2 C :   -0.526299
   3 H :    0.296553
   4 H :    0.284347
   5 C :    0.649094
   6 C :    0.348460
   7 N :   -0.252943
   8 N :   -0.445736
   9 H :    0.236018
  10 H :    0.212612
  11 H :    0.218372
  12 H :    0.238205
  13 O :   -0.867860
  14 O :   -0.798005
  15 C :   -0.485437
  16 C :   -0.403563
  17 H :    0.303997
  18 H :    0.297996
  19 C :   -0.550774
  20 H :    0.240201
  21 H :    0.288216
  22 H :    0.224290
  23 H :    0.348098
  24 H :    0.277194
  25 H :    0.326237
  26 H :    0.269311
  27 H :    0.336191
Sum of atomic charges:   -0.0000000

LOEWDIN ATOMIC CHARGES
----------------------
   0 C :   -0.103152
   1 C :   -0.197454
   2 C :   -0.129839
   3 H :    0.108070
   4 H :    0.116450
   5 C :   -0.689938
   6 C :   -0.359090
   7 N :    0.231870
   8 N :    0.187267
   9 H :    0.127814
  10 H :    0.133043
  11 H :    0.050722
  12 H :    0.136094
  13 O :   -0.078856
  14 O :   -0.048697
  15 C :   -0.188074
  16 C :   -0.193269
  17 H :    0.117810
  18 H :    0.101779
  19 C :   -0.213537
  20 H :    0.106156
  21 H :    0.118818
  22 H :    0.089552
  23 H :    0.113084
  24 H :    0.105562
  25 H :    0.109172
  26 H :    0.120006
  27 H :    0.128636

  Mayer bond orders larger than 0.100000
B(  0-C ,  6-C ) :   0.7431 B(  0-C ,  8-N ) :   0.1010 B(  0-C , 15-C ) :   0.8250
B(  0-C , 19-C ) :   0.1456 B(  0-C , 26-H ) :   0.9827 B(  0-C , 27-H ) :   0.8724
B(  1-C ,  2-C ) :   0.8734 B(  1-C , 16-C ) :   0.2129 B(  1-C , 19-C ) :   1.1263
B(  1-C , 22-H ) :   0.1363 B(  1-C , 24-H ) :   0.9387 B(  1-C , 25-H ) :   0.8881
B(  2-C ,  3-H ) :   0.9971 B(  2-C ,  4-H ) :   0.8794 B(  2-C ,  5-C ) :   0.9617
B(  2-C , 16-C ) :   0.1166 B(  5-C , 13-O ) :   1.1917 B(  5-C , 14-O ) :   1.3219
B(  6-C ,  7-N ) :   1.4846 B(  6-C ,  8-N ) :   1.0603 B(  6-C , 15-C ) :   0.2744
B(  6-C , 16-C ) :   0.1059 B(  7-N , 11-H ) :   0.7376 B(  7-N , 12-H ) :   0.9257
B(  7-N , 13-O ) :  -0.1039 B(  8-N ,  9-H ) :   0.9699 B(  8-N , 10-H ) :   0.9857
B( 11-H , 13-O ) :   0.2426 B( 15-C , 16-C ) :   1.0079 B( 15-C , 17-H ) :   0.9197
B( 15-C , 18-H ) :   0.8542 B( 15-C , 19-C ) :   0.4091 B( 16-C , 19-C ) :   0.4175
B( 16-C , 20-H ) :   0.9469 B( 16-C , 21-H ) :   0.9202 B( 19-C , 22-H ) :   0.9712
B( 19-C , 23-H ) :   0.8540

Dispersion correction           -0.013688326
FINAL SINGLE POINT ENERGY      -574.534826335297

DIPOLE MOMENT
-------------
                                X             Y             Z
Electronic contribution:      1.73976      -2.92753      -8.78394
Nuclear contribution   :      1.39386       1.90489      10.36520
                        -----------------------------------------
Total Dipole Moment    :      3.13361      -1.02264       1.58126
                        -----------------------------------------
Magnitude (a.u.)       :      3.65592
Magnitude (Debye)      :      9.29260

Rotational constants in cm-1:     0.041165     0.025922     0.019001
Rotational constants in MHz :  1234.086888   777.109255   569.639629

                             ****ORCA TERMINATED NORMALLY****
TOTAL RUN TIME: 0 days 0 hours 2 minutes 12 seconds 175 msec
