                         Program Version 5.0.0 -  RELEASE  -
|  1> !wB97X-D3 RIJCOSX def2-TZVPD def2/J TightSCF
|  2> *xyz 0 1
|  3> C         -0.47749        0.60819       -4.10105
|  4> C          0.18467       -0.50664       -4.91676
|  5> F         -0.15869       -1.70109       -4.65798
|  6> O          1.05594       -0.17441       -5.74037
|  7> H         -0.09903        1.55672       -4.42038
|  8> H         -0.25931        0.46828       -3.06292
|  9> H         -1.53664        0.57826       -4.25010
| 10> *
| 11>
| 12> %MaxCore 64000
| 13>
| 14> %pal nprocs 18
| 15> end
| 16>
| 17> %scf
| 18>   MaxIter 150
| 19> end
| 20>
| 21>
| 22>                          ****END OF INPUT****

CARTESIAN COORDINATES (ANGSTROEM)
---------------------------------
  C     -0.477490    0.608190   -4.101050
  C      0.184670   -0.506640   -4.916760
  F     -0.158690   -1.701090   -4.657980
  O      1.055940   -0.174410   -5.740370
  H     -0.099030    1.556720   -4.420380
  H     -0.259310    0.468280   -3.062920
  H     -1.536640    0.578260   -4.250100

 Total Charge           Charge          ....    0
 Multiplicity           Mult            ....    1
 Number of Electrons    NEL             ....   32
 Basis Dimension        Dim             ....  181

ORBITAL ENERGIES
----------------

  NO   OCC          E(Eh)            E(eV)
   0   2.0000     -24.853706      -676.3037
   1   2.0000     -19.240185      -523.5521
   2   2.0000     -10.460156      -284.6353
   3   2.0000     -10.300629      -280.2944
   4   2.0000      -1.428651       -38.8756
   5   2.0000      -1.158189       -31.5159
   6   2.0000      -0.888401       -24.1746
   7   2.0000      -0.763895       -20.7867
   8   2.0000      -0.649747       -17.6805
   9   2.0000      -0.646506       -17.5923
  10   2.0000      -0.609638       -16.5891
  11   2.0000      -0.544817       -14.8252
  12   2.0000      -0.533993       -14.5307
  13   2.0000      -0.502898       -13.6845
  14   2.0000      -0.456700       -12.4274
  15   2.0000      -0.393783       -10.7154
  16   0.0000       0.057165         1.5555
  17   0.0000       0.062013         1.6875
  18   0.0000       0.093682         2.5492
  19   0.0000       0.106972         2.9109
  20   0.0000       0.115940         3.1549

MULLIKEN ATOMIC CHARGES
-----------------------
   0 C :   -0.803236
   1 C :    0.718601
   2 F :   -0.224037
   3 O :   -0.540609
   4 H :    0.269537
   5 H :    0.286408
   6 H :    0.293335
Sum of atomic charges:   -0.0000000

LOEWDIN ATOMIC CHARGES
----------------------
   0 C :    0.008973
   1 C :   -0.503230
   2 F :    0.182317
   3 O :    0.075586
   4 H :    0.079969
   5 H :    0.078962
   6 H :    0.077423

  Mayer bond orders larger than 0.100000
B(  0-C ,  1-C ) :   0.8731 B(  0-C ,  4-H ) :   0.9783 B(  0-C ,  5-H ) :   0.9123
B(  0-C ,  6-H ) :   0.9174 B(  1-C ,  2-F ) :   0.9685 B(  1-C ,  3-O ) :   1.7103

Dispersion correction           -0.000898239
FINAL SINGLE POINT ENERGY      -253.125085516048

DIPOLE MOMENT
-------------
                                X             Y             Z
Electronic contribution:      1.08333      -4.67512      -1.61653
Nuclear contribution   :     -1.87439       4.97468       2.43802
                        -----------------------------------------
Total Dipole Moment    :     -0.79106       0.29956       0.82149
                        -----------------------------------------
Magnitude (a.u.)       :      1.17914
Magnitude (Debye)      :      2.99713

Rotational constants in cm-1:     0.370842     0.317886     0.176700
Rotational constants in MHz : 11117.569466  9529.969862  5297.328364

                             ****ORCA TERMINATED NORMALLY****
TOTAL RUN TIME: 0 days 0 hours 0 minutes 12 seconds 48 msec
