                         Program Version 5.0.0 -  RELEASE  -
|  1> !wB97X-D3 RIJCOSX def2-TZVPD def2/J TightSCF
|  2> *xyz 0 1
|  3> C          2.48645       -2.67712       -2.56345
|  4> C          3.03764       -2.36672       -3.92351
|  5> C          2.28036       -2.45441       -4.96769
|  6> N          4.32174       -2.01793       -4.01664
|  7> H          4.87994       -1.91167       -3.17382
|  8> H          4.71015       -1.67088       -4.88356
|  9> H          1.27042       -2.41265       -4.86614
| 10> H          2.58183       -2.05528       -5.84688
| 11> H          1.45238       -2.93848       -2.64882
| 12> H          2.58636       -1.81799       -1.93352
| 13> H          3.02742       -3.49632       -2.13781
| 14> *
| 15>
| 16> %MaxCore 64000
| 17>
| 18> %pal nprocs 18
| 19> end
| 20>
| 21> %scf
| 22>   MaxIter 150
| 23> end
| 24>
| 25>
| 26>                          ****END OF INPUT****

CARTESIAN COORDINATES (ANGSTROEM)
---------------------------------
  C      2.486450   -2.677120   -2.563450
  C      3.037640   -2.366720   -3.923510
  C      2.280360   -2.454410   -4.967690
  N      4.321740   -2.017930   -4.016640
  H      4.879940   -1.911670   -3.173820
  H      4.710150   -1.670880   -4.883560
  H      1.270420   -2.412650   -4.866140
  H      2.581830   -2.055280   -5.846880
  H      1.452380   -2.938480   -2.648820
  H      2.586360   -1.817990   -1.933520
  H      3.027420   -3.496320   -2.137810

 Total Charge           Charge          ....    0
 Multiplicity           Mult            ....    1
 Number of Electrons    NEL             ....   32
 Basis Dimension        Dim             ....  211

ORBITAL ENERGIES
----------------

  NO   OCC          E(Eh)            E(eV)
   0   2.0000     -14.422250      -392.4494
   1   2.0000     -10.299791      -280.2716
   2   2.0000     -10.263464      -279.2831
   3   2.0000     -10.201594      -277.5995
   4   2.0000      -1.042179       -28.3591
   5   2.0000      -0.876710       -23.8565
   6   2.0000      -0.807168       -21.9642
   7   2.0000      -0.677155       -18.4263
   8   2.0000      -0.625031       -17.0080
   9   2.0000      -0.577832       -15.7236
  10   2.0000      -0.534521       -14.5451
  11   2.0000      -0.492961       -13.4141
  12   2.0000      -0.491381       -13.3712
  13   2.0000      -0.442144       -12.0314
  14   2.0000      -0.430502       -11.7146
  15   2.0000      -0.285902        -7.7798
  16   0.0000       0.068581         1.8662
  17   0.0000       0.097342         2.6488
  18   0.0000       0.102036         2.7765
  19   0.0000       0.114502         3.1158
  20   0.0000       0.131792         3.5862

MULLIKEN ATOMIC CHARGES
-----------------------
   0 C :   -1.242141
   1 C :    0.991454
   2 C :   -1.293238
   3 N :   -0.493229
   4 H :    0.195775
   5 H :    0.182371
   6 H :    0.319528
   7 H :    0.356868
   8 H :    0.290827
   9 H :    0.354727
  10 H :    0.337058
Sum of atomic charges:   -0.0000000

LOEWDIN ATOMIC CHARGES
----------------------
   0 C :   -0.042782
   1 C :   -0.526952
   2 C :   -0.006698
   3 N :    0.084037
   4 H :    0.106567
   5 H :    0.108925
   6 H :    0.027875
   7 H :    0.024949
   8 H :    0.073420
   9 H :    0.075360
  10 H :    0.075299

  Mayer bond orders larger than 0.100000
B(  0-C ,  1-C ) :   0.4928 B(  0-C ,  8-H ) :   0.9818 B(  0-C ,  9-H ) :   0.9253
B(  0-C , 10-H ) :   0.9251 B(  1-C ,  2-C ) :   1.3288 B(  1-C ,  3-N ) :   1.0547
B(  2-C ,  3-N ) :   0.1419 B(  2-C ,  6-H ) :   0.9518 B(  2-C ,  7-H ) :   0.9770
B(  3-N ,  4-H ) :   1.0129 B(  3-N ,  5-H ) :   1.0084

Dispersion correction           -0.001693990
FINAL SINGLE POINT ENERGY      -173.265291421646

DIPOLE MOMENT
-------------
                                X             Y             Z
Electronic contribution:      1.43173       0.18717      -0.89525
Nuclear contribution   :     -0.87498       0.20680       1.33581
                        -----------------------------------------
Total Dipole Moment    :      0.55675       0.39397       0.44056
                        -----------------------------------------
Magnitude (a.u.)       :      0.81196
Magnitude (Debye)      :      2.06384

Rotational constants in cm-1:     0.351941     0.304186     0.168624
Rotational constants in MHz : 10550.928440  9119.266441  5055.221775

                             ****ORCA TERMINATED NORMALLY****
TOTAL RUN TIME: 0 days 0 hours 0 minutes 16 seconds 341 msec
