                         Program Version 5.0.0 -  RELEASE  -
|  1> !wB97X-D3 RIJCOSX def2-TZVPD def2/J TightSCF
|  2> *xyz 0 1
|  3> C         -0.47749        0.60819       -4.10105
|  4> C          0.18467       -0.50664       -4.91676
|  5> O         -0.15869       -1.70109       -4.65798
|  6> F          1.05594       -0.17441       -5.74037
|  7> H         -0.09903        1.55672       -4.42038
|  8> H         -0.25931        0.46828       -3.06292
|  9> H         -1.53664        0.57826       -4.25010
| 10> *
| 11>
| 12> %MaxCore 64000
| 13>
| 14> %pal nprocs 18
| 15> end
| 16>
| 17> %scf
| 18>   MaxIter 150
| 19> end
| 20>
| 21>
| 22>                          ****END OF INPUT****

CARTESIAN COORDINATES (ANGSTROEM)
---------------------------------
  C     -0.477490    0.608190   -4.101050
  C      0.184670   -0.506640   -4.916760
  O     -0.158690   -1.701090   -4.657980
  F      1.055940   -0.174410   -5.740370
  H     -0.099030    1.556720   -4.420380
  H     -0.259310    0.468280   -3.062920
  H     -1.536640    0.578260   -4.250100

 Total Charge           Charge          ....    0
 Multiplicity           Mult            ....    1
 Number of Electrons    NEL             ....   32
 Basis Dimension        Dim             ....  181

ORBITAL ENERGIES
----------------

  NO   OCC          E(Eh)            E(eV)
   0   2.0000     -24.863152      -676.5608
   1   2.0000     -19.236127      -523.4416
   2   2.0000     -10.462660      -284.7034
   3   2.0000     -10.300940      -280.3028
   4   2.0000      -1.447633       -39.3921
   5   2.0000      -1.142038       -31.0764
   6   2.0000      -0.889578       -24.2067
   7   2.0000      -0.774179       -21.0665
   8   2.0000      -0.659984       -17.9591
   9   2.0000      -0.655740       -17.8436
  10   2.0000      -0.609677       -16.5902
  11   2.0000      -0.546278       -14.8650
  12   2.0000      -0.532842       -14.4994
  13   2.0000      -0.498898       -13.5757
  14   2.0000      -0.444995       -12.1089
  15   2.0000      -0.390317       -10.6211
  16   0.0000       0.051743         1.4080
  17   0.0000       0.061239         1.6664
  18   0.0000       0.093217         2.5366
  19   0.0000       0.107441         2.9236
  20   0.0000       0.117417         3.1951

MULLIKEN ATOMIC CHARGES
-----------------------
   0 C :   -0.778177
   1 C :    0.704282
   2 O :   -0.558929
   3 F :   -0.208441
   4 H :    0.305008
   5 H :    0.266050
   6 H :    0.270207
Sum of atomic charges:   -0.0000000

LOEWDIN ATOMIC CHARGES
----------------------
   0 C :    0.009043
   1 C :   -0.505695
   2 O :    0.049188
   3 F :    0.211309
   4 H :    0.069908
   5 H :    0.083518
   6 H :    0.082728

  Mayer bond orders larger than 0.100000
B(  0-C ,  1-C ) :   0.8847 B(  0-C ,  4-H ) :   0.9333 B(  0-C ,  5-H ) :   0.9256
B(  0-C ,  6-H ) :   0.9320 B(  1-C ,  2-O ) :   1.6942 B(  1-C ,  3-F ) :   1.0095

Dispersion correction           -0.000911729
FINAL SINGLE POINT ENERGY      -253.117499705926

DIPOLE MOMENT
-------------
                                X             Y             Z
Electronic contribution:      3.07313      -2.17784      -3.39005
Nuclear contribution   :     -3.12947       3.39716       3.55645
                        -----------------------------------------
Total Dipole Moment    :     -0.05633       1.21933       0.16640
                        -----------------------------------------
Magnitude (a.u.)       :      1.23192
Magnitude (Debye)      :      3.13129

Rotational constants in cm-1:     0.366922     0.321471     0.176896
Rotational constants in MHz : 11000.056350  9637.461211  5303.212706

                             ****ORCA TERMINATED NORMALLY****
TOTAL RUN TIME: 0 days 0 hours 0 minutes 11 seconds 605 msec
