                         Program Version 5.0.0 -  RELEASE  -
|  1> !wB97X-D3 RIJCOSX def2-TZVPD def2/J TightSCF
|  2> *xyz 0 1
|  3> C          2.48645       -2.67712       -2.56345
|  4> C          3.03764       -2.36672       -3.92351
|  5> N          2.28036       -2.45441       -4.96769
|  6> C          4.32174       -2.01793       -4.01664
|  7> H          4.87994       -1.91167       -3.17382
|  8> H          4.71015       -1.67088       -4.88356
|  9> H          1.27042       -2.41265       -4.86614
| 10> H          2.58183       -2.05528       -5.84688
| 11> H          1.45238       -2.93848       -2.64882
| 12> H          2.58636       -1.81799       -1.93352
| 13> H          3.02742       -3.49632       -2.13781
| 14> *
| 15>
| 16> %MaxCore 64000
| 17>
| 18> %pal nprocs 18
| 19> end
| 20>
| 21> %scf
| 22>   MaxIter 150
| 23> end
| 24>
| 25>
| 26>                          ****END OF INPUT****

CARTESIAN COORDINATES (ANGSTROEM)
---------------------------------
  C      2.486450   -2.677120   -2.563450
  C      3.037640   -2.366720   -3.923510
  N      2.280360   -2.454410   -4.967690
  C      4.321740   -2.017930   -4.016640
  H      4.879940   -1.911670   -3.173820
  H      4.710150   -1.670880   -4.883560
  H      1.270420   -2.412650   -4.866140
  H      2.581830   -2.055280   -5.846880
  H      1.452380   -2.938480   -2.648820
  H      2.586360   -1.817990   -1.933520
  H      3.027420   -3.496320   -2.137810

 Total Charge           Charge          ....    0
 Multiplicity           Mult            ....    1
 Number of Electrons    NEL             ....   32
 Basis Dimension        Dim             ....  211

ORBITAL ENERGIES
----------------

  NO   OCC          E(Eh)            E(eV)
   0   2.0000     -14.425832      -392.5468
   1   2.0000     -10.299811      -280.2721
   2   2.0000     -10.263623      -279.2874
   3   2.0000     -10.201911      -277.6081
   4   2.0000      -1.058055       -28.7911
   5   2.0000      -0.873227       -23.7617
   6   2.0000      -0.799694       -21.7608
   7   2.0000      -0.686141       -18.6708
   8   2.0000      -0.625600       -17.0234
   9   2.0000      -0.575343       -15.6559
  10   2.0000      -0.533448       -14.5159
  11   2.0000      -0.493798       -13.4369
  12   2.0000      -0.487112       -13.2550
  13   2.0000      -0.447052       -12.1649
  14   2.0000      -0.439836       -11.9685
  15   2.0000      -0.275450        -7.4954
  16   0.0000       0.068477         1.8634
  17   0.0000       0.096571         2.6278
  18   0.0000       0.100366         2.7311
  19   0.0000       0.112356         3.0574
  20   0.0000       0.133323         3.6279

MULLIKEN ATOMIC CHARGES
-----------------------
   0 C :   -1.112483
   1 C :    1.056716
   2 N :   -0.454907
   3 C :   -1.508682
   4 H :    0.341828
   5 H :    0.330224
   6 H :    0.222200
   7 H :    0.204111
   8 H :    0.340434
   9 H :    0.291418
  10 H :    0.289142
Sum of atomic charges:   -0.0000000

LOEWDIN ATOMIC CHARGES
----------------------
   0 C :   -0.040225
   1 C :   -0.534969
   2 N :    0.086906
   3 C :    0.001537
   4 H :    0.022223
   5 H :    0.015069
   6 H :    0.110549
   7 H :    0.115471
   8 H :    0.064928
   9 H :    0.079084
  10 H :    0.079427

  Mayer bond orders larger than 0.100000
B(  0-C ,  1-C ) :   0.5862 B(  0-C ,  3-C ) :   0.1019 B(  0-C ,  8-H ) :   0.9472
B(  0-C ,  9-H ) :   0.9414 B(  0-C , 10-H ) :   0.9713 B(  1-C ,  2-N ) :   1.1182
B(  1-C ,  3-C ) :   1.0357 B(  1-C ,  5-H ) :  -0.1105 B(  2-N ,  3-C ) :   0.1111
B(  2-N ,  6-H ) :   0.9648 B(  2-N ,  7-H ) :   0.9688 B(  3-C ,  4-H ) :   0.9346
B(  3-C ,  5-H ) :   0.9880

Dispersion correction           -0.001681278
FINAL SINGLE POINT ENERGY      -173.265251465728

DIPOLE MOMENT
-------------
                                X             Y             Z
Electronic contribution:     -0.39283      -0.12924      -1.72433
Nuclear contribution   :     -0.41717       0.30469       1.54910
                        -----------------------------------------
Total Dipole Moment    :     -0.81000       0.17544      -0.17523
                        -----------------------------------------
Magnitude (a.u.)       :      0.84711
Magnitude (Debye)      :      2.15318

Rotational constants in cm-1:     0.351587     0.304754     0.168726
Rotational constants in MHz : 10540.302868  9136.286689  5058.281984

                             ****ORCA TERMINATED NORMALLY****
TOTAL RUN TIME: 0 days 0 hours 0 minutes 15 seconds 435 msec
