                         Program Version 5.0.0 -  RELEASE  -
|  1> !wB97X-D3 RIJCOSX def2-TZVPD def2/J TightSCF xyzfile
|  2>
|  3> *xyzfile 0 1 D1.xyz
|  4>
|  5> %MaxCore 64000
|  6>
|  7> %pal nprocs 18
|  8> end
|  9>
| 10> %scf
| 11>   MaxIter 150
| 12> end
| 13>
| 14>
| 15>                          ****END OF INPUT****

CARTESIAN COORDINATES (ANGSTROEM)
---------------------------------
  C      2.486452   -2.677121   -2.563447
  C     -0.870963    0.248043   -2.662804
  C     -0.477492    0.608191   -4.101052
  H      0.206773    1.458299   -4.118748
  H     -1.368442    0.929419   -4.647855
  C      0.184673   -0.506640   -4.916760
  C      3.037640   -2.366715   -3.923509
  C      2.280360   -2.454408   -4.967692
  N      4.321736   -2.017932   -4.016641
  H      4.879940   -1.911668   -3.173823
  H      4.710148   -1.670882   -4.883561
  H      1.270423   -2.412650   -4.866143
  H      2.581829   -2.055282   -5.846878
  F     -0.158685   -1.701088   -4.657981
  O      1.055938   -0.174410   -5.740373
  C      2.497991   -1.469464   -1.610303
  C      1.582841   -0.321986   -2.042619
  H      2.193083   -1.833912   -0.625420
  H      3.523356   -1.103982   -1.490392
  C      0.100160   -0.673551   -1.915815
  H      1.822311   -0.040361   -3.072834
  H      1.813180    0.557019   -1.433266
  H     -0.063284   -1.679120   -2.301112
  H     -0.168820   -0.691680   -0.853831
  H     -1.001048    1.181040   -2.104071
  H     -1.844645   -0.246592   -2.663281
  H      1.472592   -3.051527   -2.694366
  H      3.083201   -3.490638   -2.141472

 Total Charge           Charge          ....    0
 Multiplicity           Mult            ....    1
 Number of Electrons    NEL             ....   94
 Basis Dimension        Dim             ....  594

ORBITAL ENERGIES
----------------

  NO   OCC          E(Eh)            E(eV)
   0   2.0000     -24.853035      -676.2855
   1   2.0000     -19.234702      -523.4029
   2   2.0000     -14.409086      -392.0912
   3   2.0000     -10.454270      -284.4751
   4   2.0000     -10.304523      -280.4003
   5   2.0000     -10.289384      -279.9884
   6   2.0000     -10.280994      -279.7601
   7   2.0000     -10.277292      -279.6593
   8   2.0000     -10.274669      -279.5880
   9   2.0000     -10.273027      -279.5433
  10   2.0000     -10.268482      -279.4196
  11   2.0000     -10.179982      -277.0114
  12   2.0000      -1.434520       -39.0353
  13   2.0000      -1.155143       -31.4330
  14   2.0000      -1.030370       -28.0378
  15   2.0000      -0.945344       -25.7241
  16   2.0000      -0.909428       -24.7468
  17   2.0000      -0.859342       -23.3839
  18   2.0000      -0.835696       -22.7404
  19   2.0000      -0.789610       -21.4864
  20   2.0000      -0.766373       -20.8541
  21   2.0000      -0.727776       -19.8038
  22   2.0000      -0.689080       -18.7508
  23   2.0000      -0.678859       -18.4727
  24   2.0000      -0.653727       -17.7888
  25   2.0000      -0.641328       -17.4514
  26   2.0000      -0.611409       -16.6373
  27   2.0000      -0.597956       -16.2712
  28   2.0000      -0.583020       -15.8648
  29   2.0000      -0.572388       -15.5755
  30   2.0000      -0.559010       -15.2114
  31   2.0000      -0.541667       -14.7395
  32   2.0000      -0.530660       -14.4400
  33   2.0000      -0.509661       -13.8686
  34   2.0000      -0.501627       -13.6500
  35   2.0000      -0.484570       -13.1858
  36   2.0000      -0.472010       -12.8440
  37   2.0000      -0.469436       -12.7740
  38   2.0000      -0.452491       -12.3129
  39   2.0000      -0.446435       -12.1481
  40   2.0000      -0.433474       -11.7954
  41   2.0000      -0.428640       -11.6639
  42   2.0000      -0.411616       -11.2006
  43   2.0000      -0.406884       -11.0719
  44   2.0000      -0.402119       -10.9422
  45   2.0000      -0.383047       -10.4233
  46   2.0000      -0.269450        -7.3321
  47   0.0000       0.054516         1.4835
  48   0.0000       0.063709         1.7336
  49   0.0000       0.072981         1.9859
  50   0.0000       0.077986         2.1221
  51   0.0000       0.082842         2.2542

MULLIKEN ATOMIC CHARGES
-----------------------
   0 C :   -0.506834
   1 C :   -0.665960
   2 C :   -0.418980
   3 H :    0.334739
   4 H :    0.303577
   5 C :    0.545230
   6 C :    0.531247
   7 C :   -1.340996
   8 N :   -0.483451
   9 H :    0.184808
  10 H :    0.181923
  11 H :    0.539886
  12 H :    0.360547
  13 F :   -0.307767
  14 O :   -0.610779
  15 C :   -0.570943
  16 C :   -0.377065
  17 H :    0.297385
  18 H :    0.336684
  19 C :   -0.562894
  20 H :    0.257738
  21 H :    0.282655
  22 H :    0.213922
  23 H :    0.362728
  24 H :    0.285939
  25 H :    0.330394
  26 H :    0.142815
  27 H :    0.353451
Sum of atomic charges:   -0.0000000

LOEWDIN ATOMIC CHARGES
----------------------
   0 C :   -0.141093
   1 C :   -0.193426
   2 C :   -0.096586
   3 H :    0.124882
   4 H :    0.126036
   5 C :   -0.468386
   6 C :   -0.470494
   7 C :    0.010015
   8 N :    0.102744
   9 H :    0.101913
  10 H :    0.112018
  11 H :    0.000839
  12 H :    0.040781
  13 F :    0.158923
  14 O :    0.089292
  15 C :   -0.194495
  16 C :   -0.194642
  17 H :    0.110870
  18 H :    0.102271
  19 C :   -0.208169
  20 H :    0.105824
  21 H :    0.117615
  22 H :    0.094458
  23 H :    0.118848
  24 H :    0.113659
  25 H :    0.110497
  26 H :    0.106477
  27 H :    0.119329

  Mayer bond orders larger than 0.100000
B(  0-C ,  6-C ) :   0.7643 B(  0-C ,  8-N ) :   0.1486 B(  0-C , 15-C ) :   0.8796
B(  0-C , 19-C ) :   0.1065 B(  0-C , 26-H ) :   1.0109 B(  0-C , 27-H ) :   0.8588
B(  1-C ,  2-C ) :   0.8832 B(  1-C , 16-C ) :   0.1785 B(  1-C , 19-C ) :   1.0468
B(  1-C , 24-H ) :   0.9282 B(  1-C , 25-H ) :   0.9197 B(  2-C ,  3-H ) :   0.9547
B(  2-C ,  4-H ) :   0.8750 B(  2-C ,  5-C ) :   0.8930 B(  5-C , 13-F ) :   0.9297
B(  5-C , 14-O ) :   1.6050 B(  6-C ,  7-C ) :   1.4615 B(  6-C ,  8-N ) :   0.9541
B(  6-C , 11-H ) :  -0.1557 B(  6-C , 12-H ) :  -0.1437 B(  6-C , 15-C ) :   0.1875
B(  7-C , 11-H ) :   0.7546 B(  7-C , 12-H ) :   1.0105 B(  8-N ,  9-H ) :   1.0116
B(  8-N , 10-H ) :   0.9871 B( 15-C , 16-C ) :   1.0751 B( 15-C , 17-H ) :   0.9185
B( 15-C , 18-H ) :   0.8399 B( 15-C , 19-C ) :   0.4449 B( 16-C , 19-C ) :   0.3786
B( 16-C , 20-H ) :   0.9566 B( 16-C , 21-H ) :   0.9199 B( 19-C , 21-H ) :  -0.1037
B( 19-C , 22-H ) :   1.0273 B( 19-C , 23-H ) :   0.8286

Dispersion correction           -0.013473738
FINAL SINGLE POINT ENERGY      -582.429021048204

DIPOLE MOMENT
-------------
                                X             Y             Z
Electronic contribution:     -3.71897      -1.62765     -10.23109
Nuclear contribution   :      3.32973       2.37270      11.37738
                        -----------------------------------------
Total Dipole Moment    :     -0.38924       0.74506       1.14629
                        -----------------------------------------
Magnitude (a.u.)       :      1.42148
Magnitude (Debye)      :      3.61310

Rotational constants in cm-1:     0.040902     0.025807     0.019036
Rotational constants in MHz :  1226.202138   773.670450   570.681201

                             ****ORCA TERMINATED NORMALLY****
TOTAL RUN TIME: 0 days 0 hours 2 minutes 2 seconds 765 msec
