                         Program Version 5.0.0 -  RELEASE  -
|  1> !wB97X-D3 RIJCOSX def2-TZVPD def2/J TightSCF xyzfile
|  2>
|  3> *xyzfile 0 1 D4.xyz
|  4>
|  5> %MaxCore 64000
|  6>
|  7> %pal nprocs 18
|  8> end
|  9>
| 10> %scf
| 11>   MaxIter 150
| 12> end
| 13>
| 14>
| 15>                          ****END OF INPUT****

CARTESIAN COORDINATES (ANGSTROEM)
---------------------------------
  C      2.486452   -2.677121   -2.563447
  C     -0.870963    0.248043   -2.662804
  C     -0.477492    0.608191   -4.101052
  H      0.206773    1.458299   -4.118748
  H     -1.368442    0.929419   -4.647855
  C      0.184673   -0.506640   -4.916760
  C      3.037640   -2.366715   -3.923509
  N      2.280360   -2.454408   -4.967692
  C      4.321736   -2.017932   -4.016641
  H      4.879940   -1.911668   -3.173823
  H      4.710148   -1.670882   -4.883561
  H      1.270423   -2.412650   -4.866143
  H      2.581829   -2.055282   -5.846878
  O     -0.158685   -1.701088   -4.657981
  F      1.055938   -0.174410   -5.740373
  C      2.497991   -1.469464   -1.610303
  C      1.582841   -0.321986   -2.042619
  H      2.193083   -1.833912   -0.625420
  H      3.523356   -1.103982   -1.490392
  C      0.100160   -0.673551   -1.915815
  H      1.822311   -0.040361   -3.072834
  H      1.813180    0.557019   -1.433266
  H     -0.063284   -1.679120   -2.301112
  H     -0.168820   -0.691680   -0.853831
  H     -1.001048    1.181040   -2.104071
  H     -1.844645   -0.246592   -2.663281
  H      1.472592   -3.051527   -2.694366
  H      3.083201   -3.490638   -2.141472

 Total Charge           Charge          ....    0
 Multiplicity           Mult            ....    1
 Number of Electrons    NEL             ....   94
 Basis Dimension        Dim             ....  594

ORBITAL ENERGIES
----------------

  NO   OCC          E(Eh)            E(eV)
   0   2.0000     -24.882458      -677.0861
   1   2.0000     -19.259861      -524.0875
   2   2.0000     -14.388855      -391.5406
   3   2.0000     -10.483230      -285.2632
   4   2.0000     -10.320180      -280.8264
   5   2.0000     -10.294865      -280.1375
   6   2.0000     -10.282150      -279.7915
   7   2.0000     -10.273973      -279.5690
   8   2.0000     -10.273764      -279.5633
   9   2.0000     -10.268797      -279.4282
  10   2.0000     -10.263480      -279.2835
  11   2.0000     -10.187298      -277.2105
  12   2.0000      -1.467515       -39.9331
  13   2.0000      -1.175893       -31.9977
  14   2.0000      -1.034901       -28.1611
  15   2.0000      -0.948923       -25.8215
  16   2.0000      -0.909846       -24.7582
  17   2.0000      -0.867714       -23.6117
  18   2.0000      -0.824967       -22.4485
  19   2.0000      -0.797117       -21.6907
  20   2.0000      -0.775557       -21.1040
  21   2.0000      -0.732680       -19.9372
  22   2.0000      -0.694020       -18.8852
  23   2.0000      -0.683759       -18.6060
  24   2.0000      -0.664465       -18.0810
  25   2.0000      -0.653796       -17.7907
  26   2.0000      -0.632950       -17.2234
  27   2.0000      -0.600401       -16.3377
  28   2.0000      -0.585259       -15.9257
  29   2.0000      -0.579112       -15.7584
  30   2.0000      -0.572984       -15.5917
  31   2.0000      -0.544774       -14.8241
  32   2.0000      -0.524444       -14.2708
  33   2.0000      -0.510685       -13.8964
  34   2.0000      -0.503980       -13.7140
  35   2.0000      -0.491401       -13.3717
  36   2.0000      -0.477502       -12.9935
  37   2.0000      -0.468630       -12.7521
  38   2.0000      -0.456727       -12.4282
  39   2.0000      -0.454623       -12.3709
  40   2.0000      -0.434366       -11.8197
  41   2.0000      -0.429974       -11.7002
  42   2.0000      -0.415688       -11.3115
  43   2.0000      -0.414159       -11.2698
  44   2.0000      -0.406904       -11.0724
  45   2.0000      -0.391869       -10.6633
  46   2.0000      -0.257161        -6.9977
  47   0.0000       0.029701         0.8082
  48   0.0000       0.056714         1.5433
  49   0.0000       0.073495         1.9999
  50   0.0000       0.078326         2.1314
  51   0.0000       0.081260         2.2112

MULLIKEN ATOMIC CHARGES
-----------------------
   0 C :   -0.383509
   1 C :   -0.663154
   2 C :   -0.503558
   3 H :    0.397843
   4 H :    0.299184
   5 C :    0.702656
   6 C :    0.589887
   7 N :   -0.447881
   8 C :   -1.674870
   9 H :    0.380536
  10 H :    0.335822
  11 H :    0.359118
  12 H :    0.189442
  13 O :   -0.672705
  14 F :   -0.300090
  15 C :   -0.552692
  16 C :   -0.441138
  17 H :    0.299937
  18 H :    0.347143
  19 C :   -0.545757
  20 H :    0.199662
  21 H :    0.277497
  22 H :    0.223215
  23 H :    0.371563
  24 H :    0.297313
  25 H :    0.346445
  26 H :    0.248269
  27 H :    0.319822
Sum of atomic charges:   -0.0000000

LOEWDIN ATOMIC CHARGES
----------------------
   0 C :   -0.138000
   1 C :   -0.184766
   2 C :   -0.098224
   3 H :    0.120415
   4 H :    0.128783
   5 C :   -0.442862
   6 C :   -0.486060
   7 N :    0.109624
   8 C :    0.012097
   9 H :    0.017970
  10 H :    0.015781
  11 H :    0.035493
  12 H :    0.115762
  13 O :    0.052901
  14 F :    0.231371
  15 C :   -0.190455
  16 C :   -0.195822
  17 H :    0.111661
  18 H :    0.107058
  19 C :   -0.209405
  20 H :    0.100941
  21 H :    0.117688
  22 H :    0.092152
  23 H :    0.119634
  24 H :    0.115454
  25 H :    0.114252
  26 H :    0.104124
  27 H :    0.122432

  Mayer bond orders larger than 0.100000
B(  0-C ,  6-C ) :   0.7028 B(  0-C , 15-C ) :   0.7612 B(  0-C , 19-C ) :   0.1289
B(  0-C , 26-H ) :   0.9986 B(  0-C , 27-H ) :   0.8803 B(  1-C ,  2-C ) :   0.9438
B(  1-C , 16-C ) :   0.1916 B(  1-C , 19-C ) :   1.0721 B(  1-C , 22-H ) :   0.1045
B(  1-C , 24-H ) :   0.9252 B(  1-C , 25-H ) :   0.8770 B(  2-C ,  3-H ) :   0.8774
B(  2-C ,  4-H ) :   0.8755 B(  2-C ,  5-C ) :   0.9459 B(  5-C , 13-O ) :   1.5372
B(  5-C , 14-F ) :   0.8481 B(  6-C ,  7-N ) :   1.1115 B(  6-C ,  8-C ) :   0.9874
B(  6-C , 15-C ) :   0.2933 B(  7-N ,  8-C ) :   0.1599 B(  7-N , 11-H ) :   0.6875
B(  7-N , 12-H ) :   0.9116 B(  8-C ,  9-H ) :   0.8977 B(  8-C , 10-H ) :   0.9819
B( 15-C , 16-C ) :   1.1030 B( 15-C , 17-H ) :   0.8967 B( 15-C , 18-H ) :   0.8629
B( 15-C , 19-C ) :   0.3953 B( 16-C , 19-C ) :   0.3889 B( 16-C , 20-H ) :   0.9762
B( 16-C , 21-H ) :   0.9197 B( 19-C , 21-H ) :  -0.1113 B( 19-C , 22-H ) :   1.0366
B( 19-C , 23-H ) :   0.8126

Dispersion correction           -0.013600414
FINAL SINGLE POINT ENERGY      -582.442497383604

DIPOLE MOMENT
-------------
                                X             Y             Z
Electronic contribution:     -3.45388       0.81259     -12.73915
Nuclear contribution   :      2.21030       0.63135      12.80988
                        -----------------------------------------
Total Dipole Moment    :     -1.24357       1.44394       0.07073
                        -----------------------------------------
Magnitude (a.u.)       :      1.90695
Magnitude (Debye)      :      4.84708

Rotational constants in cm-1:     0.039980     0.026547     0.019089
Rotational constants in MHz :  1198.568620   795.867393   572.288555

                             ****ORCA TERMINATED NORMALLY****
TOTAL RUN TIME: 0 days 0 hours 2 minutes 6 seconds 487 msec
