                         Program Version 5.0.0 -  RELEASE  -
|  1> !TPSS D3BJ RIJCOSX def2-SVPD def2/J TightSCF
|  2> *xyz -1 1
|  3> C          4.99986       -1.59613       -5.92488
|  4> C          3.76678       -2.26611       -6.51175
|  5> C          2.49670       -1.84416       -5.73570
|  6> H          1.62642       -2.21743       -6.30895
|  7> H          2.48182       -2.45607       -4.79341
|  8> O          2.45973       -0.50920       -5.50576
|  9> H          3.88619       -3.35708       -6.53360
| 10> H          3.68560       -1.92217       -7.54713
| 11> H          5.86637       -1.89999       -6.47418
| 12> H          5.10830       -1.88372       -4.89997
| 13> H          4.89230       -0.53341       -5.98765
| 14> *
| 15>
| 16> %MaxCore 64000
| 17>
| 18> %pal nprocs 4
| 19> end
| 20>
| 21> %scf
| 22>   MaxIter 150
| 23> end
| 24>
| 25>
| 26>                          ****END OF INPUT****

CARTESIAN COORDINATES (ANGSTROEM)
---------------------------------
  C      4.999860   -1.596130   -5.924880
  C      3.766780   -2.266110   -6.511750
  C      2.496700   -1.844160   -5.735700
  H      1.626420   -2.217430   -6.308950
  H      2.481820   -2.456070   -4.793410
  O      2.459730   -0.509200   -5.505760
  H      3.886190   -3.357080   -6.533600
  H      3.685600   -1.922170   -7.547130
  H      5.866370   -1.899990   -6.474180
  H      5.108300   -1.883720   -4.899970
  H      4.892300   -0.533410   -5.987650

 Total Charge           Charge          ....   -1
 Multiplicity           Mult            ....    1
 Number of Electrons    NEL             ....   34
 Basis Dimension        Dim             ....  139

ORBITAL ENERGIES
----------------

  NO   OCC          E(Eh)            E(eV)
   0   2.0000     -18.578225      -505.5392
   1   2.0000      -9.818648      -267.1790
   2   2.0000      -9.812343      -267.0074
   3   2.0000      -9.806713      -266.8542
   4   2.0000      -0.618988       -16.8435
   5   2.0000      -0.516669       -14.0593
   6   2.0000      -0.406245       -11.0545
   7   2.0000      -0.311930        -8.4880
   8   2.0000      -0.232077        -6.3151
   9   2.0000      -0.222140        -6.0447
  10   2.0000      -0.172073        -4.6823
  11   2.0000      -0.149598        -4.0708
  12   2.0000      -0.120508        -3.2792
  13   2.0000      -0.112561        -3.0629
  14   2.0000      -0.076632        -2.0853
  15   2.0000       0.061012         1.6602
  16   2.0000       0.064094         1.7441
  17   0.0000       0.159056         4.3281
  18   0.0000       0.182985         4.9793
  19   0.0000       0.198775         5.4089
  20   0.0000       0.220691         6.0053
  21   0.0000       0.241770         6.5789

MULLIKEN ATOMIC CHARGES
-----------------------
   0 C :    0.521216
   1 C :   -0.568339
   2 C :    0.437212
   3 H :   -0.184322
   4 H :   -0.091112
   5 O :   -0.872056
   6 H :   -0.072531
   7 H :   -0.016861
   8 H :   -0.103506
   9 H :   -0.060662
  10 H :    0.010962
Sum of atomic charges:   -1.0000000

LOEWDIN ATOMIC CHARGES
----------------------
   0 C :    0.081521
   1 C :   -0.108065
   2 C :   -0.210807
   3 H :   -0.044742
   4 H :   -0.035252
   5 O :   -0.522932
   6 H :   -0.020002
   7 H :   -0.008203
   8 H :   -0.055690
   9 H :   -0.035381
  10 H :   -0.040448

  Mayer bond orders larger than 0.100000
B(  0-C ,  1-C ) :   1.2734 B(  0-C ,  7-H ) :   0.1006 B(  0-C ,  8-H ) :   0.8277
B(  0-C ,  9-H ) :   0.8518 B(  0-C , 10-H ) :   0.8245 B(  1-C ,  2-C ) :   1.0118
B(  1-C ,  3-H ) :   0.1540 B(  1-C ,  4-H ) :   0.1497 B(  1-C ,  5-O ) :   0.1857
B(  1-C ,  6-H ) :   1.0477 B(  1-C ,  7-H ) :   0.9723 B(  1-C ,  8-H ) :   0.1954
B(  1-C ,  9-H ) :   0.1954 B(  1-C , 10-H ) :   0.2020 B(  2-C ,  3-H ) :   0.9787
B(  2-C ,  4-H ) :   0.9491 B(  2-C ,  5-O ) :   1.1206

Dispersion correction           -0.008162172
FINAL SINGLE POINT ENERGY      -193.648096859590

DIPOLE MOMENT
-------------
                                X             Y             Z
Electronic contribution:     -2.04648       2.11026       0.58395
Nuclear contribution   :      3.33375      -3.25054      -1.09297
                        -----------------------------------------
Total Dipole Moment    :      1.28727      -1.14028      -0.50902
                        -----------------------------------------
Magnitude (a.u.)       :      1.79344
Magnitude (Debye)      :      4.55856

Rotational constants in cm-1:     0.478390     0.193336     0.154822
Rotational constants in MHz : 14341.777399  5796.063993  4641.443060

                             ****ORCA TERMINATED NORMALLY****
TOTAL RUN TIME: 0 days 0 hours 0 minutes 6 seconds 983 msec
