                         Program Version 5.0.0 -  RELEASE  -
|  1> !TPSS D3BJ RIJCOSX def2-SVPD def2/J TightSCF
|  2> *xyz 1 1
|  3> C          4.99986       -1.59613       -5.92488
|  4> N          5.28156       -1.97413       -4.53576
|  5> C          3.76678       -2.26611       -6.51175
|  6> C          2.49670       -1.84416       -5.73570
|  7> C          4.79250       -1.36132       -3.45730
|  8> N          3.93990       -0.37492       -3.55736
|  9> N          5.25986       -1.75422       -2.23913
| 10> H          5.92282       -2.52145       -2.18672
| 11> H          4.65468       -1.64040       -1.44202
| 12> H          5.70914       -2.87560       -4.38702
| 13> H          3.33010       -0.31764       -4.36125
| 14> H          3.69849        0.11447       -2.70833
| 15> H          4.84333       -0.51793       -5.94302
| 16> H          5.90170       -1.82250       -6.49647
| 17> H          3.88619       -3.35708       -6.53360
| 18> H          3.68560       -1.92217       -7.54713
| 19> H          1.64155       -2.32499       -6.16281
| 20> H          2.37707       -0.78268       -5.79763
| 21> H          2.59306       -2.13299       -4.70994
| 22> *
| 23>
| 24> %MaxCore 64000
| 25>
| 26> %pal nprocs 4
| 27> end
| 28>
| 29> %scf
| 30>   MaxIter 150
| 31> end
| 32>
| 33>
| 34>                          ****END OF INPUT****

CARTESIAN COORDINATES (ANGSTROEM)
---------------------------------
  C      4.999860   -1.596130   -5.924880
  N      5.281560   -1.974130   -4.535760
  C      3.766780   -2.266110   -6.511750
  C      2.496700   -1.844160   -5.735700
  C      4.792500   -1.361320   -3.457300
  N      3.939900   -0.374920   -3.557360
  N      5.259860   -1.754220   -2.239130
  H      5.922820   -2.521450   -2.186720
  H      4.654680   -1.640400   -1.442020
  H      5.709140   -2.875600   -4.387020
  H      3.330100   -0.317640   -4.361250
  H      3.698490    0.114470   -2.708330
  H      4.843330   -0.517930   -5.943020
  H      5.901700   -1.822500   -6.496470
  H      3.886190   -3.357080   -6.533600
  H      3.685600   -1.922170   -7.547130
  H      1.641550   -2.324990   -6.162810
  H      2.377070   -0.782680   -5.797630
  H      2.593060   -2.132990   -4.709940

 Total Charge           Charge          ....    1
 Multiplicity           Mult            ....    1
 Number of Electrons    NEL             ....   56
 Basis Dimension        Dim             ....  236

ORBITAL ENERGIES
----------------

  NO   OCC          E(Eh)            E(eV)
   0   2.0000     -14.336558      -390.1176
   1   2.0000     -14.336355      -390.1121
   2   2.0000     -14.333120      -390.0240
   3   2.0000     -10.319553      -280.8093
   4   2.0000     -10.203109      -277.6407
   5   2.0000     -10.152161      -276.2543
   6   2.0000     -10.141544      -275.9654
   7   2.0000      -1.134275       -30.8652
   8   2.0000      -1.031397       -28.0657
   9   2.0000      -1.017972       -27.7004
  10   2.0000      -0.883238       -24.0341
  11   2.0000      -0.810066       -22.0430
  12   2.0000      -0.773728       -21.0542
  13   2.0000      -0.738344       -20.0914
  14   2.0000      -0.712430       -19.3862
  15   2.0000      -0.684087       -18.6149
  16   2.0000      -0.650521       -17.7016
  17   2.0000      -0.644312       -17.5326
  18   2.0000      -0.599189       -16.3048
  19   2.0000      -0.586744       -15.9661
  20   2.0000      -0.565862       -15.3979
  21   2.0000      -0.538809       -14.6618
  22   2.0000      -0.523637       -14.2489
  23   2.0000      -0.484276       -13.1778
  24   2.0000      -0.465303       -12.6615
  25   2.0000      -0.462951       -12.5975
  26   2.0000      -0.434051       -11.8111
  27   2.0000      -0.410782       -11.1779
  28   0.0000      -0.198886        -5.4120
  29   0.0000      -0.159666        -4.3447
  30   0.0000      -0.127641        -3.4733
  31   0.0000      -0.115990        -3.1562
  32   0.0000      -0.106363        -2.8943

MULLIKEN ATOMIC CHARGES
-----------------------
   0 C :    0.687660
   1 N :   -0.431506
   2 C :   -0.083852
   3 C :    0.437004
   4 C :    1.295130
   5 N :    0.167446
   6 N :   -0.121411
   7 H :   -0.028507
   8 H :   -0.019566
   9 H :   -0.241099
  10 H :   -0.332531
  11 H :   -0.078347
  12 H :    0.066428
  13 H :   -0.323940
  14 H :   -0.083674
  15 H :    0.050252
  16 H :   -0.332335
  17 H :    0.231821
  18 H :    0.141026
Sum of atomic charges:    1.0000000

LOEWDIN ATOMIC CHARGES
----------------------
   0 C :    0.083492
   1 N :    0.056529
   2 C :   -0.015825
   3 C :    0.147802
   4 C :   -0.042178
   5 N :    0.297177
   6 N :    0.264738
   7 H :    0.031359
   8 H :    0.025829
   9 H :    0.054221
  10 H :   -0.033877
  11 H :    0.047331
  12 H :    0.029749
  13 H :    0.037041
  14 H :    0.030286
  15 H :    0.035711
  16 H :   -0.001283
  17 H :   -0.015903
  18 H :   -0.032196

  Mayer bond orders larger than 0.100000
B(  0-C ,  1-N ) :   0.9439 B(  0-C ,  2-C ) :   1.1040 B(  0-C ,  9-H ) :  -0.2003
B(  0-C , 12-H ) :   0.7480 B(  0-C , 13-H ) :   0.9636 B(  0-C , 14-H ) :   0.1247
B(  0-C , 15-H ) :   0.1081 B(  1-N ,  4-C ) :   0.9758 B(  1-N ,  5-N ) :   0.1802
B(  1-N ,  6-N ) :   0.2218 B(  1-N ,  9-H ) :   1.3199 B(  1-N , 12-H ) :   0.1650
B(  1-N , 13-H ) :   0.1299 B(  2-C ,  3-C ) :   1.2826 B(  2-C , 12-H ) :   0.1048
B(  2-C , 14-H ) :   0.9658 B(  2-C , 15-H ) :   0.8754 B(  2-C , 16-H ) :   0.1713
B(  2-C , 17-H ) :   0.1190 B(  2-C , 18-H ) :   0.1372 B(  3-C , 10-H ) :   0.1761
B(  3-C , 16-H ) :   1.0252 B(  3-C , 17-H ) :   0.6828 B(  3-C , 18-H ) :   0.8143
B(  4-C ,  5-N ) :   1.0608 B(  4-C ,  6-N ) :   0.7824 B(  4-C ,  7-H ) :  -0.1045
B(  4-C ,  9-H ) :  -0.2167 B(  4-C , 10-H ) :  -0.1175 B(  4-C , 11-H ) :  -0.1262
B(  5-N ,  6-N ) :   0.1898 B(  5-N , 10-H ) :   1.1384 B(  5-N , 11-H ) :   1.2334
B(  5-N , 12-H ) :   0.1094 B(  6-N ,  7-H ) :   1.0878 B(  6-N ,  8-H ) :   1.1535
B(  7-H ,  8-H ) :  -0.1340 B( 10-H , 11-H ) :  -0.2161 B( 10-H , 17-H ) :   0.1656
B( 12-H , 13-H ) :  -0.1288 B( 16-H , 17-H ) :  -0.1195

Dispersion correction           -0.020594677
FINAL SINGLE POINT ENERGY      -323.563755316278

DIPOLE MOMENT
-------------
                                X             Y             Z
Electronic contribution:      3.87124       0.80220       4.81276
Nuclear contribution   :     -3.69451      -0.93313      -3.60402
                        -----------------------------------------
Total Dipole Moment    :      0.17673      -0.13093       1.20874
                        -----------------------------------------
Magnitude (a.u.)       :      1.22859
Magnitude (Debye)      :      3.12283

Rotational constants in cm-1:     0.152547     0.057272     0.048491
Rotational constants in MHz :  4573.230603  1716.968614  1453.721796

                             ****ORCA TERMINATED NORMALLY****
TOTAL RUN TIME: 0 days 0 hours 0 minutes 16 seconds 526 msec
