                         Program Version 5.0.0 -  RELEASE  -
|  1> !TPSS D3BJ RIJCOSX def2-SVPD def2/J TightSCF
|  2> *xyz 0 1
|  3> C          4.99986       -1.59613       -5.92488
|  4> C          3.76678       -2.26611       -6.51175
|  5> C          2.49670       -1.84416       -5.73570
|  6> H          1.62642       -2.21743       -6.30895
|  7> H          2.48182       -2.45607       -4.79341
|  8> F          2.45973       -0.50920       -5.50576
|  9> H          3.88619       -3.35708       -6.53360
| 10> H          3.68560       -1.92217       -7.54713
| 11> H          5.86637       -1.89999       -6.47418
| 12> H          5.10830       -1.88372       -4.89997
| 13> H          4.89230       -0.53341       -5.98765
| 14> *
| 15>
| 16> %MaxCore 64000
| 17>
| 18> %pal nprocs 4
| 19> end
| 20>
| 21> %scf
| 22>   MaxIter 150
| 23> end
| 24>
| 25>
| 26>                          ****END OF INPUT****

CARTESIAN COORDINATES (ANGSTROEM)
---------------------------------
  C      4.999860   -1.596130   -5.924880
  C      3.766780   -2.266110   -6.511750
  C      2.496700   -1.844160   -5.735700
  H      1.626420   -2.217430   -6.308950
  H      2.481820   -2.456070   -4.793410
  F      2.459730   -0.509200   -5.505760
  H      3.886190   -3.357080   -6.533600
  H      3.685600   -1.922170   -7.547130
  H      5.866370   -1.899990   -6.474180
  H      5.108300   -1.883720   -4.899970
  H      4.892300   -0.533410   -5.987650

 Total Charge           Charge          ....    0
 Multiplicity           Mult            ....    1
 Number of Electrons    NEL             ....   34
 Basis Dimension        Dim             ....  139

ORBITAL ENERGIES
----------------

  NO   OCC          E(Eh)            E(eV)
   0   2.0000     -24.420690      -664.5208
   1   2.0000     -10.078807      -274.2583
   2   2.0000     -10.005694      -272.2688
   3   2.0000      -9.986818      -271.7551
   4   2.0000      -1.115924       -30.3658
   5   2.0000      -0.724525       -19.7153
   6   2.0000      -0.630213       -17.1490
   7   2.0000      -0.542440       -14.7605
   8   2.0000      -0.465437       -12.6652
   9   2.0000      -0.448042       -12.1919
  10   2.0000      -0.429726       -11.6934
  11   2.0000      -0.394183       -10.7263
  12   2.0000      -0.352922        -9.6035
  13   2.0000      -0.332203        -9.0397
  14   2.0000      -0.319300        -8.6886
  15   2.0000      -0.285836        -7.7780
  16   2.0000      -0.283632        -7.7180
  17   0.0000       0.011188         0.3045
  18   0.0000       0.036091         0.9821
  19   0.0000       0.046571         1.2673
  20   0.0000       0.057393         1.5617
  21   0.0000       0.076627         2.0851

MULLIKEN ATOMIC CHARGES
-----------------------
   0 C :    0.530564
   1 C :   -0.510360
   2 C :    0.701860
   3 H :   -0.080492
   4 H :    0.008868
   5 F :   -0.442958
   6 H :   -0.066916
   7 H :   -0.022791
   8 H :   -0.079693
   9 H :   -0.049547
  10 H :    0.011466
Sum of atomic charges:    0.0000000

LOEWDIN ATOMIC CHARGES
----------------------
   0 C :    0.122060
   1 C :   -0.057101
   2 C :    0.098091
   3 H :    0.022250
   4 H :    0.034095
   5 F :   -0.195620
   6 H :    0.022970
   7 H :    0.015762
   8 H :   -0.022486
   9 H :   -0.018487
  10 H :   -0.021534

  Mayer bond orders larger than 0.100000
B(  0-C ,  1-C ) :   1.3217 B(  0-C ,  8-H ) :   0.8451 B(  0-C ,  9-H ) :   0.8435
B(  0-C , 10-H ) :   0.8309 B(  1-C ,  2-C ) :   1.1576 B(  1-C ,  3-H ) :   0.1118
B(  1-C ,  4-H ) :   0.1095 B(  1-C ,  6-H ) :   0.9886 B(  1-C ,  7-H ) :   0.9488
B(  1-C ,  8-H ) :   0.1802 B(  1-C ,  9-H ) :   0.1699 B(  1-C , 10-H ) :   0.1690
B(  2-C ,  3-H ) :   0.9326 B(  2-C ,  4-H ) :   0.8986 B(  2-C ,  5-F ) :   0.7149

Dispersion correction           -0.007688394
FINAL SINGLE POINT ENERGY      -218.255692918656

DIPOLE MOMENT
-------------
                                X             Y             Z
Electronic contribution:     -4.39719       3.89264       1.42500
Nuclear contribution   :      4.50596      -4.50325      -1.58424
                        -----------------------------------------
Total Dipole Moment    :      0.10877      -0.61061      -0.15924
                        -----------------------------------------
Magnitude (a.u.)       :      0.64034
Magnitude (Debye)      :      1.62761

Rotational constants in cm-1:     0.464063     0.182606     0.146573
Rotational constants in MHz : 13912.251583  5474.398056  4394.141907

                             ****ORCA TERMINATED NORMALLY****
TOTAL RUN TIME: 0 days 0 hours 0 minutes 5 seconds 658 msec
