                         Program Version 5.0.0 -  RELEASE  -
|  1> !TPSS D3BJ RIJCOSX def2-SVPD def2/J TightSCF
|  2> *xyz 0 1
|  3> C          4.99986       -1.59613       -5.92488
|  4> C          5.28156       -1.97413       -4.53576
|  5> C          3.76678       -2.26611       -6.51175
|  6> C          2.49670       -1.84416       -5.73570
|  7> C          4.79250       -1.36132       -3.45730
|  8> N          3.93990       -0.37492       -3.55736
|  9> N          5.25986       -1.75422       -2.23913
| 10> H          5.92282       -2.52145       -2.18672
| 11> H          4.65468       -1.64040       -1.44202
| 12> H          5.70914       -2.87560       -4.38702
| 13> H          3.33010       -0.31764       -4.36125
| 14> H          3.69849        0.11447       -2.70833
| 15> H          4.84333       -0.51793       -5.94302
| 16> H          5.90170       -1.82250       -6.49647
| 17> H          3.88619       -3.35708       -6.53360
| 18> H          3.68560       -1.92217       -7.54713
| 19> H          1.64155       -2.32499       -6.16281
| 20> H          2.37707       -0.78268       -5.79763
| 21> H          2.59306       -2.13299       -4.70994
| 22> *
| 23>
| 24> %MaxCore 64000
| 25>
| 26> %pal nprocs 4
| 27> end
| 28>
| 29> %scf
| 30>   MaxIter 150
| 31> end
| 32>
| 33>
| 34>                          ****END OF INPUT****

CARTESIAN COORDINATES (ANGSTROEM)
---------------------------------
  C      4.999860   -1.596130   -5.924880
  C      5.281560   -1.974130   -4.535760
  C      3.766780   -2.266110   -6.511750
  C      2.496700   -1.844160   -5.735700
  C      4.792500   -1.361320   -3.457300
  N      3.939900   -0.374920   -3.557360
  N      5.259860   -1.754220   -2.239130
  H      5.922820   -2.521450   -2.186720
  H      4.654680   -1.640400   -1.442020
  H      5.709140   -2.875600   -4.387020
  H      3.330100   -0.317640   -4.361250
  H      3.698490    0.114470   -2.708330
  H      4.843330   -0.517930   -5.943020
  H      5.901700   -1.822500   -6.496470
  H      3.886190   -3.357080   -6.533600
  H      3.685600   -1.922170   -7.547130
  H      1.641550   -2.324990   -6.162810
  H      2.377070   -0.782680   -5.797630
  H      2.593060   -2.132990   -4.709940

 Total Charge           Charge          ....    0
 Multiplicity           Mult            ....    1
 Number of Electrons    NEL             ....   56
 Basis Dimension        Dim             ....  236

ORBITAL ENERGIES
----------------

  NO   OCC          E(Eh)            E(eV)
   0   2.0000     -14.118640      -384.1877
   1   2.0000     -14.115174      -384.0934
   2   2.0000     -10.035128      -273.0697
   3   2.0000      -9.984608      -271.6950
   4   2.0000      -9.984057      -271.6800
   5   2.0000      -9.973644      -271.3967
   6   2.0000      -9.924228      -270.0520
   7   2.0000      -0.887263       -24.1437
   8   2.0000      -0.801906       -21.8210
   9   2.0000      -0.723510       -19.6877
  10   2.0000      -0.661536       -18.0013
  11   2.0000      -0.602225       -16.3874
  12   2.0000      -0.552846       -15.0437
  13   2.0000      -0.511884       -13.9291
  14   2.0000      -0.497174       -13.5288
  15   2.0000      -0.460999       -12.5444
  16   2.0000      -0.437267       -11.8986
  17   2.0000      -0.405763       -11.0414
  18   2.0000      -0.395409       -10.7596
  19   2.0000      -0.378161       -10.2903
  20   2.0000      -0.345985        -9.4147
  21   2.0000      -0.333609        -9.0780
  22   2.0000      -0.318197        -8.6586
  23   2.0000      -0.297503        -8.0955
  24   2.0000      -0.284163        -7.7325
  25   2.0000      -0.280385        -7.6297
  26   2.0000      -0.223321        -6.0769
  27   2.0000      -0.133845        -3.6421
  28   0.0000       0.004484         0.1220
  29   0.0000       0.027470         0.7475
  30   0.0000       0.036683         0.9982
  31   0.0000       0.046789         1.2732
  32   0.0000       0.050290         1.3685

MULLIKEN ATOMIC CHARGES
-----------------------
   0 C :    0.141995
   1 C :   -0.306982
   2 C :   -0.113506
   3 C :    0.453663
   4 C :    0.918603
   5 N :    0.260394
   6 N :   -0.143078
   7 H :   -0.040043
   8 H :   -0.091722
   9 H :   -0.249711
  10 H :   -0.371191
  11 H :   -0.211195
  12 H :    0.049111
  13 H :   -0.173801
  14 H :   -0.106256
  15 H :   -0.019384
  16 H :   -0.322950
  17 H :    0.219435
  18 H :    0.106617
Sum of atomic charges:    0.0000000

LOEWDIN ATOMIC CHARGES
----------------------
   0 C :   -0.058270
   1 C :   -0.014004
   2 C :   -0.048810
   3 C :    0.129266
   4 C :   -0.222664
   5 N :    0.216152
   6 N :    0.184168
   7 H :   -0.001481
   8 H :   -0.025748
   9 H :   -0.055177
  10 H :   -0.058303
  11 H :   -0.001024
  12 H :    0.007073
  13 H :    0.008277
  14 H :    0.017786
  15 H :    0.008006
  16 H :   -0.024547
  17 H :   -0.027178
  18 H :   -0.033523

  Mayer bond orders larger than 0.100000
B(  0-C ,  1-C ) :   1.1492 B(  0-C ,  2-C ) :   1.1076 B(  0-C ,  9-H ) :   0.2289
B(  0-C , 12-H ) :   0.7801 B(  0-C , 13-H ) :   0.9271 B(  0-C , 14-H ) :   0.1664
B(  0-C , 15-H ) :   0.1250 B(  1-C ,  4-C ) :   1.4825 B(  1-C ,  5-N ) :   0.2762
B(  1-C ,  6-N ) :   0.3335 B(  1-C ,  9-H ) :   0.9460 B(  1-C , 10-H ) :  -0.1079
B(  1-C , 12-H ) :   0.2535 B(  1-C , 13-H ) :   0.1448 B(  2-C ,  3-C ) :   1.2837
B(  2-C , 12-H ) :   0.1014 B(  2-C , 14-H ) :   0.9668 B(  2-C , 15-H ) :   0.8819
B(  2-C , 16-H ) :   0.1917 B(  2-C , 17-H ) :   0.1301 B(  2-C , 18-H ) :   0.1669
B(  3-C , 10-H ) :   0.1627 B(  3-C , 15-H ) :   0.1086 B(  3-C , 16-H ) :   0.9745
B(  3-C , 17-H ) :   0.6920 B(  3-C , 18-H ) :   0.8017 B(  4-C ,  5-N ) :   0.9968
B(  4-C ,  6-N ) :   0.6855 B(  4-C , 11-H ) :  -0.1501 B(  4-C , 12-H ) :  -0.1313
B(  5-N ,  6-N ) :   0.1328 B(  5-N , 10-H ) :   1.0825 B(  5-N , 11-H ) :   1.2910
B(  6-N ,  7-H ) :   1.1112 B(  6-N ,  8-H ) :   1.1486 B(  6-N ,  9-H ) :   0.1002
B(  7-H ,  8-H ) :  -0.1236 B( 10-H , 11-H ) :  -0.1984 B( 10-H , 17-H ) :   0.1606

Dispersion correction           -0.021307287
FINAL SINGLE POINT ENERGY      -307.088063532493

DIPOLE MOMENT
-------------
                                X             Y             Z
Electronic contribution:      2.90910       1.04034       4.32139
Nuclear contribution   :     -3.49027      -1.01686      -3.60427
                        -----------------------------------------
Total Dipole Moment    :     -0.58117       0.02348       0.71712
                        -----------------------------------------
Magnitude (a.u.)       :      0.92335
Magnitude (Debye)      :      2.34696

Rotational constants in cm-1:     0.155200     0.057307     0.048781
Rotational constants in MHz :  4652.781345  1718.017305  1462.410307

                             ****ORCA TERMINATED NORMALLY****
TOTAL RUN TIME: 0 days 0 hours 0 minutes 17 seconds 699 msec
