                         Program Version 5.0.0 -  RELEASE  -
|  1> !TPSS D3BJ RIJCOSX def2-SVPD def2/J TightSCF
|  2> *xyz 0 1
|  3> C          4.99986       -1.59613       -5.92488
|  4> N          5.28156       -1.97413       -4.53576
|  5> C          3.76678       -2.26611       -6.51175
|  6> C          2.49670       -1.84416       -5.73570
|  7> C          4.79250       -1.36132       -3.45730
|  8> C          3.93990       -0.37492       -3.55736
|  9> N          5.25986       -1.75422       -2.23913
| 10> H          5.92282       -2.52145       -2.18672
| 11> H          4.65468       -1.64040       -1.44202
| 12> H          5.70914       -2.87560       -4.38702
| 13> H          3.33010       -0.31764       -4.36125
| 14> H          3.69849        0.11447       -2.70833
| 15> H          4.84333       -0.51793       -5.94302
| 16> H          5.90170       -1.82250       -6.49647
| 17> H          3.88619       -3.35708       -6.53360
| 18> H          3.68560       -1.92217       -7.54713
| 19> H          1.64155       -2.32499       -6.16281
| 20> H          2.37707       -0.78268       -5.79763
| 21> H          2.59306       -2.13299       -4.70994
| 22> *
| 23>
| 24> %MaxCore 64000
| 25>
| 26> %pal nprocs 4
| 27> end
| 28>
| 29> %scf
| 30>   MaxIter 150
| 31> end
| 32>
| 33>
| 34>                          ****END OF INPUT****

CARTESIAN COORDINATES (ANGSTROEM)
---------------------------------
  C      4.999860   -1.596130   -5.924880
  N      5.281560   -1.974130   -4.535760
  C      3.766780   -2.266110   -6.511750
  C      2.496700   -1.844160   -5.735700
  C      4.792500   -1.361320   -3.457300
  C      3.939900   -0.374920   -3.557360
  N      5.259860   -1.754220   -2.239130
  H      5.922820   -2.521450   -2.186720
  H      4.654680   -1.640400   -1.442020
  H      5.709140   -2.875600   -4.387020
  H      3.330100   -0.317640   -4.361250
  H      3.698490    0.114470   -2.708330
  H      4.843330   -0.517930   -5.943020
  H      5.901700   -1.822500   -6.496470
  H      3.886190   -3.357080   -6.533600
  H      3.685600   -1.922170   -7.547130
  H      1.641550   -2.324990   -6.162810
  H      2.377070   -0.782680   -5.797630
  H      2.593060   -2.132990   -4.709940

 Total Charge           Charge          ....    0
 Multiplicity           Mult            ....    1
 Number of Electrons    NEL             ....   56
 Basis Dimension        Dim             ....  236

ORBITAL ENERGIES
----------------

  NO   OCC          E(Eh)            E(eV)
   0   2.0000     -14.118803      -384.1922
   1   2.0000     -14.115860      -384.1121
   2   2.0000     -10.036072      -273.0954
   3   2.0000     -10.029803      -272.9248
   4   2.0000      -9.998043      -272.0606
   5   2.0000      -9.979861      -271.5658
   6   2.0000      -9.912482      -269.7324
   7   2.0000      -0.887904       -24.1611
   8   2.0000      -0.810217       -22.0471
   9   2.0000      -0.712832       -19.3972
  10   2.0000      -0.661764       -18.0075
  11   2.0000      -0.622409       -16.9366
  12   2.0000      -0.553750       -15.0683
  13   2.0000      -0.513212       -13.9652
  14   2.0000      -0.490484       -13.3468
  15   2.0000      -0.468033       -12.7358
  16   2.0000      -0.424950       -11.5635
  17   2.0000      -0.413742       -11.2585
  18   2.0000      -0.391486       -10.6529
  19   2.0000      -0.363933        -9.9031
  20   2.0000      -0.354260        -9.6399
  21   2.0000      -0.337986        -9.1971
  22   2.0000      -0.332671        -9.0524
  23   2.0000      -0.309214        -8.4141
  24   2.0000      -0.303008        -8.2453
  25   2.0000      -0.292967        -7.9720
  26   2.0000      -0.211535        -5.7562
  27   2.0000      -0.141750        -3.8572
  28   0.0000       0.002473         0.0673
  29   0.0000       0.025560         0.6955
  30   0.0000       0.032683         0.8894
  31   0.0000       0.042079         1.1450
  32   0.0000       0.052785         1.4364

MULLIKEN ATOMIC CHARGES
-----------------------
   0 C :    0.665054
   1 N :   -0.456867
   2 C :   -0.143318
   3 C :    0.302630
   4 C :    0.801792
   5 C :    0.553610
   6 N :   -0.030805
   7 H :   -0.111084
   8 H :   -0.016057
   9 H :   -0.334376
  10 H :   -0.838936
  11 H :   -0.335096
  12 H :    0.131870
  13 H :   -0.352958
  14 H :   -0.103719
  15 H :    0.002530
  16 H :   -0.395158
  17 H :    0.418917
  18 H :    0.241970
Sum of atomic charges:   -0.0000000

LOEWDIN ATOMIC CHARGES
----------------------
   0 C :    0.056956
   1 N :   -0.008595
   2 C :   -0.040351
   3 C :    0.132122
   4 C :   -0.228313
   5 C :    0.167377
   6 N :    0.188670
   7 H :   -0.017869
   8 H :   -0.006860
   9 H :    0.014267
  10 H :   -0.146386
  11 H :   -0.088485
  12 H :    0.020706
  13 H :    0.011790
  14 H :    0.012958
  15 H :    0.012593
  16 H :   -0.026549
  17 H :   -0.022114
  18 H :   -0.031916

  Mayer bond orders larger than 0.100000
B(  0-C ,  1-N ) :   0.9429 B(  0-C ,  2-C ) :   1.0786 B(  0-C ,  4-C ) :  -0.1047
B(  0-C ,  5-C ) :   0.1235 B(  0-C ,  9-H ) :  -0.1880 B(  0-C , 12-H ) :   0.7244
B(  0-C , 13-H ) :   0.9827 B(  0-C , 14-H ) :   0.1180 B(  0-C , 15-H ) :   0.1162
B(  1-N ,  4-C ) :   0.8877 B(  1-N ,  5-C ) :   0.3095 B(  1-N ,  6-N ) :   0.1682
B(  1-N ,  9-H ) :   1.3998 B(  1-N , 12-H ) :   0.1467 B(  1-N , 13-H ) :   0.1316
B(  2-C ,  3-C ) :   1.3026 B(  2-C , 12-H ) :   0.1252 B(  2-C , 14-H ) :   0.9737
B(  2-C , 15-H ) :   0.8881 B(  2-C , 16-H ) :   0.1787 B(  2-C , 17-H ) :   0.1062
B(  2-C , 18-H ) :   0.1312 B(  3-C , 10-H ) :   0.3614 B(  3-C , 15-H ) :   0.1098
B(  3-C , 16-H ) :   1.0492 B(  3-C , 17-H ) :   0.5848 B(  3-C , 18-H ) :   0.7923
B(  4-C ,  5-C ) :   1.6527 B(  4-C ,  6-N ) :   0.8040 B(  4-C ,  9-H ) :  -0.2476
B(  4-C , 11-H ) :   0.3620 B(  5-C ,  6-N ) :   0.3423 B(  5-C , 10-H ) :   0.4771
B(  5-C , 11-H ) :   0.6466 B(  6-N ,  7-H ) :   1.0509 B(  6-N ,  8-H ) :   1.0863
B(  6-N , 11-H ) :   0.1847 B(  7-H ,  8-H ) :  -0.1266 B( 10-H , 12-H ) :   0.1010
B( 10-H , 17-H ) :   0.1438 B( 12-H , 13-H ) :  -0.1380 B( 16-H , 17-H ) :  -0.1695

Dispersion correction           -0.021268514
FINAL SINGLE POINT ENERGY      -307.077893375417

DIPOLE MOMENT
-------------
                                X             Y             Z
Electronic contribution:      4.04850      -0.33789       3.37877
Nuclear contribution   :     -3.78417      -0.66655      -3.38995
                        -----------------------------------------
Total Dipole Moment    :      0.26433      -1.00444      -0.01118
                        -----------------------------------------
Magnitude (a.u.)       :      1.03870
Magnitude (Debye)      :      2.64016

Rotational constants in cm-1:     0.157710     0.057795     0.049101
Rotational constants in MHz :  4728.033540  1732.635996  1472.015132

                             ****ORCA TERMINATED NORMALLY****
TOTAL RUN TIME: 0 days 0 hours 0 minutes 18 seconds 134 msec
