                         Program Version 5.0.0 -  RELEASE  -
|  1> !TPSS D3BJ RIJCOSX def2-SVPD def2/J TightSCF
|  2> *xyz 0 1
|  3> C          4.99986       -1.59613       -5.92488
|  4> N          5.28156       -1.97413       -4.53576
|  5> C          3.76678       -2.26611       -6.51175
|  6> C          2.49670       -1.84416       -5.73570
|  7> C          4.79250       -1.36132       -3.45730
|  8> N          3.93990       -0.37492       -3.55736
|  9> C          5.25986       -1.75422       -2.23913
| 10> H          5.92282       -2.52145       -2.18672
| 11> H          4.65468       -1.64040       -1.44202
| 12> H          5.70914       -2.87560       -4.38702
| 13> H          3.33010       -0.31764       -4.36125
| 14> H          3.69849        0.11447       -2.70833
| 15> H          4.84333       -0.51793       -5.94302
| 16> H          5.90170       -1.82250       -6.49647
| 17> H          3.88619       -3.35708       -6.53360
| 18> H          3.68560       -1.92217       -7.54713
| 19> H          1.64155       -2.32499       -6.16281
| 20> H          2.37707       -0.78268       -5.79763
| 21> H          2.59306       -2.13299       -4.70994
| 22> *
| 23>
| 24> %MaxCore 64000
| 25>
| 26> %pal nprocs 4
| 27> end
| 28>
| 29> %scf
| 30>   MaxIter 150
| 31> end
| 32>
| 33>
| 34>                          ****END OF INPUT****

CARTESIAN COORDINATES (ANGSTROEM)
---------------------------------
  C      4.999860   -1.596130   -5.924880
  N      5.281560   -1.974130   -4.535760
  C      3.766780   -2.266110   -6.511750
  C      2.496700   -1.844160   -5.735700
  C      4.792500   -1.361320   -3.457300
  N      3.939900   -0.374920   -3.557360
  C      5.259860   -1.754220   -2.239130
  H      5.922820   -2.521450   -2.186720
  H      4.654680   -1.640400   -1.442020
  H      5.709140   -2.875600   -4.387020
  H      3.330100   -0.317640   -4.361250
  H      3.698490    0.114470   -2.708330
  H      4.843330   -0.517930   -5.943020
  H      5.901700   -1.822500   -6.496470
  H      3.886190   -3.357080   -6.533600
  H      3.685600   -1.922170   -7.547130
  H      1.641550   -2.324990   -6.162810
  H      2.377070   -0.782680   -5.797630
  H      2.593060   -2.132990   -4.709940

 Total Charge           Charge          ....    0
 Multiplicity           Mult            ....    1
 Number of Electrons    NEL             ....   56
 Basis Dimension        Dim             ....  236

ORBITAL ENERGIES
----------------

  NO   OCC          E(Eh)            E(eV)
   0   2.0000     -14.117685      -384.1617
   1   2.0000     -14.117054      -384.1446
   2   2.0000     -10.038343      -273.1572
   3   2.0000     -10.038109      -273.1508
   4   2.0000     -10.009470      -272.3715
   5   2.0000     -10.002124      -272.1716
   6   2.0000      -9.909294      -269.6456
   7   2.0000      -0.896086       -24.3837
   8   2.0000      -0.818142       -22.2628
   9   2.0000      -0.731926       -19.9167
  10   2.0000      -0.657207       -17.8835
  11   2.0000      -0.617052       -16.7908
  12   2.0000      -0.552390       -15.0313
  13   2.0000      -0.548765       -14.9327
  14   2.0000      -0.498160       -13.5556
  15   2.0000      -0.457014       -12.4360
  16   2.0000      -0.437291       -11.8993
  17   2.0000      -0.419498       -11.4151
  18   2.0000      -0.411742       -11.2041
  19   2.0000      -0.370032       -10.0691
  20   2.0000      -0.352488        -9.5917
  21   2.0000      -0.344266        -9.3680
  22   2.0000      -0.337448        -9.1824
  23   2.0000      -0.319084        -8.6827
  24   2.0000      -0.314189        -8.5495
  25   2.0000      -0.305410        -8.3106
  26   2.0000      -0.215899        -5.8749
  27   2.0000      -0.128057        -3.4846
  28   0.0000       0.003193         0.0869
  29   0.0000       0.022800         0.6204
  30   0.0000       0.031859         0.8669
  31   0.0000       0.036839         1.0024
  32   0.0000       0.045894         1.2488

MULLIKEN ATOMIC CHARGES
-----------------------
   0 C :    0.668635
   1 N :   -0.242898
   2 C :   -0.103624
   3 C :    0.413571
   4 C :    0.376277
   5 N :    0.326395
   6 C :    0.284645
   7 H :   -0.240389
   8 H :   -0.262407
   9 H :   -0.307360
  10 H :   -0.435494
  11 H :   -0.086582
  12 H :    0.035830
  13 H :   -0.386477
  14 H :   -0.098634
  15 H :    0.020795
  16 H :   -0.360823
  17 H :    0.222021
  18 H :    0.176518
Sum of atomic charges:    0.0000000

LOEWDIN ATOMIC CHARGES
----------------------
   0 C :    0.051210
   1 N :    0.002143
   2 C :   -0.041738
   3 C :    0.133773
   4 C :   -0.241396
   5 N :    0.214539
   6 C :    0.146922
   7 H :   -0.112099
   8 H :   -0.117407
   9 H :    0.030079
  10 H :   -0.067413
  11 H :    0.016180
  12 H :    0.014295
  13 H :    0.012402
  14 H :    0.017650
  15 H :    0.014141
  16 H :   -0.020968
  17 H :   -0.024800
  18 H :   -0.027512

  Mayer bond orders larger than 0.100000
B(  0-C ,  1-N ) :   0.9644 B(  0-C ,  2-C ) :   1.0751 B(  0-C ,  9-H ) :  -0.2165
B(  0-C , 12-H ) :   0.7654 B(  0-C , 13-H ) :   0.9723 B(  0-C , 14-H ) :   0.1379
B(  0-C , 15-H ) :   0.1217 B(  1-N ,  4-C ) :   1.0560 B(  1-N ,  5-N ) :   0.1365
B(  1-N ,  6-C ) :   0.2158 B(  1-N ,  9-H ) :   1.2242 B(  1-N , 12-H ) :   0.1729
B(  1-N , 13-H ) :   0.1367 B(  2-C ,  3-C ) :   1.2765 B(  2-C , 12-H ) :   0.1052
B(  2-C , 14-H ) :   0.9620 B(  2-C , 15-H ) :   0.8784 B(  2-C , 16-H ) :   0.1767
B(  2-C , 17-H ) :   0.1233 B(  2-C , 18-H ) :   0.1457 B(  3-C , 10-H ) :   0.1664
B(  3-C , 16-H ) :   1.0081 B(  3-C , 17-H ) :   0.6917 B(  3-C , 18-H ) :   0.8035
B(  4-C ,  5-N ) :   1.0996 B(  4-C ,  6-C ) :   1.6548 B(  4-C ,  7-H ) :   0.1816
B(  4-C ,  8-H ) :   0.1868 B(  4-C ,  9-H ) :  -0.1564 B(  5-N ,  6-C ) :   0.1767
B(  5-N , 10-H ) :   1.0407 B(  5-N , 11-H ) :   1.2169 B(  5-N , 12-H ) :   0.1136
B(  6-C ,  7-H ) :   0.7636 B(  6-C ,  8-H ) :   0.8525 B(  7-H ,  8-H ) :   0.2022
B( 10-H , 11-H ) :  -0.2012 B( 10-H , 17-H ) :   0.1520 B( 12-H , 13-H ) :  -0.1350
B( 16-H , 17-H ) :  -0.1222

Dispersion correction           -0.021101092
FINAL SINGLE POINT ENERGY      -307.076655200445

DIPOLE MOMENT
-------------
                                X             Y             Z
Electronic contribution:      2.76543       0.91506       1.95868
Nuclear contribution   :     -3.49502      -0.96869      -3.10119
                        -----------------------------------------
Total Dipole Moment    :     -0.72960      -0.05363      -1.14250
                        -----------------------------------------
Magnitude (a.u.)       :      1.35665
Magnitude (Debye)      :      3.44833

Rotational constants in cm-1:     0.153385     0.059790     0.050215
Rotational constants in MHz :  4598.376479  1792.462869  1505.410199

                             ****ORCA TERMINATED NORMALLY****
TOTAL RUN TIME: 0 days 0 hours 0 minutes 17 seconds 778 msec
