                         Program Version 5.0.0 -  RELEASE  -
|  1> !TPSS D3BJ RIJCOSX def2-SVPD def2/J TightSCF xyzfile
|  2>
|  3> *xyzfile 0 1 D1.xyz
|  4>
|  5> %MaxCore 64000
|  6>
|  7> %pal nprocs 4
|  8> end
|  9>
| 10> %scf
| 11>   MaxIter 150
| 12> end
| 13>
| 14>
| 15>                          ****END OF INPUT****

CARTESIAN COORDINATES (ANGSTROEM)
---------------------------------
  C      4.999862   -1.596133   -5.924876
  C      5.281560   -1.974132   -4.535764
  C      3.766779   -2.266110   -6.511752
  C      2.496702   -1.844161   -5.735704
  H      1.626416   -2.217434   -6.308950
  H      2.481824   -2.456069   -4.793414
  F      2.459729   -0.509204   -5.505757
  C      4.792500   -1.361316   -3.457295
  N      3.939898   -0.374925   -3.557359
  N      5.259860   -1.754224   -2.239133
  H      5.922824   -2.521451   -2.186720
  H      4.654678   -1.640404   -1.442016
  H      5.709139   -2.875599   -4.387021
  H      3.330101   -0.317639   -4.361247
  H      3.698494    0.114468   -2.708333
  H      4.843333   -0.517930   -5.943019
  H      5.901695   -1.822503   -6.496467
  H      3.886191   -3.357076   -6.533604
  H      3.685602   -1.922168   -7.547128

 Total Charge           Charge          ....    0
 Multiplicity           Mult            ....    1
 Number of Electrons    NEL             ....   64
 Basis Dimension        Dim             ....  251

ORBITAL ENERGIES
----------------

  NO   OCC          E(Eh)            E(eV)
   0   2.0000     -24.451260      -665.3526
   1   2.0000     -14.110232      -383.9589
   2   2.0000     -14.095397      -383.5552
   3   2.0000     -10.084077      -274.4017
   4   2.0000     -10.029843      -272.9259
   5   2.0000      -9.996812      -272.0271
   6   2.0000      -9.977283      -271.4957
   7   2.0000      -9.920167      -269.9415
   8   2.0000      -1.153597       -31.3910
   9   2.0000      -0.877255       -23.8713
  10   2.0000      -0.792776       -21.5725
  11   2.0000      -0.729783       -19.8584
  12   2.0000      -0.661783       -18.0080
  13   2.0000      -0.613071       -16.6825
  14   2.0000      -0.547045       -14.8858
  15   2.0000      -0.536538       -14.6000
  16   2.0000      -0.495524       -13.4839
  17   2.0000      -0.481480       -13.1017
  18   2.0000      -0.467070       -12.7096
  19   2.0000      -0.452251       -12.3064
  20   2.0000      -0.440171       -11.9777
  21   2.0000      -0.412984       -11.2379
  22   2.0000      -0.380937       -10.3658
  23   2.0000      -0.361953        -9.8492
  24   2.0000      -0.353449        -9.6178
  25   2.0000      -0.330471        -8.9926
  26   2.0000      -0.310280        -8.4432
  27   2.0000      -0.298723        -8.1287
  28   2.0000      -0.289632        -7.8813
  29   2.0000      -0.279373        -7.6021
  30   2.0000      -0.214968        -5.8496
  31   2.0000      -0.129744        -3.5305
  32   0.0000       0.007456         0.2029
  33   0.0000       0.024328         0.6620
  34   0.0000       0.035520         0.9665
  35   0.0000       0.041121         1.1190
  36   0.0000       0.050210         1.3663

MULLIKEN ATOMIC CHARGES
-----------------------
   0 C :    0.122463
   1 C :   -0.296382
   2 C :   -0.049850
   3 C :    0.727894
   4 H :   -0.282367
   5 H :    0.195897
   6 F :   -0.430512
   7 C :    0.887093
   8 N :    0.373479
   9 N :   -0.149606
  10 H :   -0.051269
  11 H :   -0.084565
  12 H :   -0.250544
  13 H :   -0.310502
  14 H :   -0.238268
  15 H :    0.157420
  16 H :   -0.224542
  17 H :   -0.100972
  18 H :    0.005132
Sum of atomic charges:    0.0000000

LOEWDIN ATOMIC CHARGES
----------------------
   0 C :   -0.048810
   1 C :   -0.018380
   2 C :   -0.005093
   3 C :    0.139255
   4 H :    0.025427
   5 H :    0.039916
   6 F :   -0.172871
   7 C :   -0.216827
   8 N :    0.232521
   9 N :    0.182703
  10 H :   -0.003926
  11 H :   -0.026132
  12 H :   -0.059542
  13 H :   -0.124752
  14 H :   -0.002520
  15 H :    0.009702
  16 H :    0.010178
  17 H :    0.027326
  18 H :    0.011825

  Mayer bond orders larger than 0.100000
B(  0-C ,  1-C ) :   1.1548 B(  0-C ,  2-C ) :   1.1360 B(  0-C , 12-H ) :   0.2249
B(  0-C , 15-H ) :   0.7475 B(  0-C , 16-H ) :   0.9373 B(  0-C , 17-H ) :   0.1655
B(  0-C , 18-H ) :   0.1099 B(  1-C ,  7-C ) :   1.4729 B(  1-C ,  8-N ) :   0.2506
B(  1-C ,  9-N ) :   0.3455 B(  1-C , 12-H ) :   0.9295 B(  1-C , 13-H ) :  -0.1137
B(  1-C , 15-H ) :   0.2517 B(  1-C , 16-H ) :   0.1355 B(  2-C ,  3-C ) :   1.2014
B(  2-C ,  4-H ) :   0.1564 B(  2-C ,  5-H ) :   0.1153 B(  2-C ,  6-F ) :   0.1058
B(  2-C , 17-H ) :   0.9403 B(  2-C , 18-H ) :   0.8851 B(  3-C ,  4-H ) :   0.9785
B(  3-C ,  5-H ) :   0.8128 B(  3-C ,  6-F ) :   0.6180 B(  7-C ,  8-N ) :   1.0214
B(  7-C ,  9-N ) :   0.6647 B(  7-C , 10-H ) :  -0.1045 B(  7-C , 12-H ) :   0.1003
B(  7-C , 14-H ) :  -0.1442 B(  7-C , 15-H ) :  -0.1189 B(  8-N ,  9-N ) :   0.1315
B(  8-N , 13-H ) :   1.1305 B(  8-N , 14-H ) :   1.2436 B(  9-N , 10-H ) :   1.1361
B(  9-N , 11-H ) :   1.1292 B(  9-N , 12-H ) :   0.1141 B( 10-H , 11-H ) :  -0.1242
B( 13-H , 14-H ) :  -0.1954

Dispersion correction           -0.021743583
FINAL SINGLE POINT ENERGY      -406.250607766160

DIPOLE MOMENT
-------------
                                X             Y             Z
Electronic contribution:     -3.31569       4.01739       0.79181
Nuclear contribution   :      2.63975      -4.51113      -0.34926
                        -----------------------------------------
Total Dipole Moment    :     -0.67594      -0.49374       0.44255
                        -----------------------------------------
Magnitude (a.u.)       :      0.94685
Magnitude (Debye)      :      2.40669

Rotational constants in cm-1:     0.109429     0.049838     0.039337
Rotational constants in MHz :  3280.611039  1494.113088  1179.280063

                             ****ORCA TERMINATED NORMALLY****
TOTAL RUN TIME: 0 days 0 hours 0 minutes 26 seconds 324 msec
