                         Program Version 5.0.0 -  RELEASE  -
|  1> !TPSS D3BJ RIJCOSX def2-SVPD def2/J TightSCF xyzfile
|  2>
|  3> *xyzfile 0 1 D3.xyz
|  4>
|  5> %MaxCore 64000
|  6>
|  7> %pal nprocs 4
|  8> end
|  9>
| 10> %scf
| 11>   MaxIter 150
| 12> end
| 13>
| 14>
| 15>                          ****END OF INPUT****

CARTESIAN COORDINATES (ANGSTROEM)
---------------------------------
  C      4.999862   -1.596133   -5.924876
  N      5.281560   -1.974132   -4.535764
  C      3.766779   -2.266110   -6.511752
  C      2.496702   -1.844161   -5.735704
  H      1.626416   -2.217434   -6.308950
  H      2.481824   -2.456069   -4.793414
  F      2.459729   -0.509204   -5.505757
  C      4.792500   -1.361316   -3.457295
  N      3.939898   -0.374925   -3.557359
  C      5.259860   -1.754224   -2.239133
  H      5.922824   -2.521451   -2.186720
  H      4.654678   -1.640404   -1.442016
  H      5.709139   -2.875599   -4.387021
  H      3.330101   -0.317639   -4.361247
  H      3.698494    0.114468   -2.708333
  H      4.843333   -0.517930   -5.943019
  H      5.901695   -1.822503   -6.496467
  H      3.886191   -3.357076   -6.533604
  H      3.685602   -1.922168   -7.547128

 Total Charge           Charge          ....    0
 Multiplicity           Mult            ....    1
 Number of Electrons    NEL             ....   64
 Basis Dimension        Dim             ....  251

ORBITAL ENERGIES
----------------

  NO   OCC          E(Eh)            E(eV)
   0   2.0000     -24.465202      -665.7320
   1   2.0000     -14.116314      -384.1244
   2   2.0000     -14.092859      -383.4862
   3   2.0000     -10.102865      -274.9129
   4   2.0000     -10.042979      -273.2834
   5   2.0000     -10.030499      -272.9438
   6   2.0000     -10.023602      -272.7561
   7   2.0000      -9.901716      -269.4394
   8   2.0000      -1.167942       -31.7813
   9   2.0000      -0.888647       -24.1813
  10   2.0000      -0.811318       -22.0771
  11   2.0000      -0.735788       -20.0218
  12   2.0000      -0.667549       -18.1649
  13   2.0000      -0.612040       -16.6544
  14   2.0000      -0.567549       -15.4438
  15   2.0000      -0.546405       -14.8684
  16   2.0000      -0.522712       -14.2237
  17   2.0000      -0.497350       -13.5336
  18   2.0000      -0.468052       -12.7363
  19   2.0000      -0.457102       -12.4384
  20   2.0000      -0.430335       -11.7100
  21   2.0000      -0.426937       -11.6175
  22   2.0000      -0.392365       -10.6768
  23   2.0000      -0.382898       -10.4192
  24   2.0000      -0.347693        -9.4612
  25   2.0000      -0.340036        -9.2529
  26   2.0000      -0.333957        -9.0874
  27   2.0000      -0.317110        -8.6290
  28   2.0000      -0.306990        -8.3536
  29   2.0000      -0.300550        -8.1784
  30   2.0000      -0.209519        -5.7013
  31   2.0000      -0.121103        -3.2954
  32   0.0000      -0.002429        -0.0661
  33   0.0000       0.021505         0.5852
  34   0.0000       0.028387         0.7725
  35   0.0000       0.031177         0.8484
  36   0.0000       0.049586         1.3493

MULLIKEN ATOMIC CHARGES
-----------------------
   0 C :    0.687557
   1 N :   -0.251793
   2 C :   -0.059477
   3 C :    0.721682
   4 H :   -0.330480
   5 H :    0.242834
   6 F :   -0.401731
   7 C :    0.326727
   8 N :    0.471867
   9 C :    0.286235
  10 H :   -0.229908
  11 H :   -0.279818
  12 H :   -0.302234
  13 H :   -0.430757
  14 H :   -0.122660
  15 H :    0.140064
  16 H :   -0.421516
  17 H :   -0.087507
  18 H :    0.040915
Sum of atomic charges:    0.0000000

LOEWDIN ATOMIC CHARGES
----------------------
   0 C :    0.063026
   1 N :    0.000876
   2 C :    0.004246
   3 C :    0.143696
   4 H :    0.029044
   5 H :    0.045979
   6 F :   -0.172463
   7 C :   -0.239383
   8 N :    0.232988
   9 C :    0.140861
  10 H :   -0.117066
  11 H :   -0.119992
  12 H :    0.027662
  13 H :   -0.131979
  14 H :    0.014841
  15 H :    0.016514
  16 H :    0.015223
  17 H :    0.027363
  18 H :    0.018565

  Mayer bond orders larger than 0.100000
B(  0-C ,  1-N ) :   0.9685 B(  0-C ,  2-C ) :   1.1154 B(  0-C , 12-H ) :  -0.2121
B(  0-C , 15-H ) :   0.7283 B(  0-C , 16-H ) :   0.9505 B(  0-C , 17-H ) :   0.1326
B(  0-C , 18-H ) :   0.1075 B(  1-N ,  7-C ) :   1.0780 B(  1-N ,  8-N ) :   0.1368
B(  1-N ,  9-C ) :   0.2091 B(  1-N , 12-H ) :   1.2174 B(  1-N , 15-H ) :   0.1679
B(  1-N , 16-H ) :   0.1500 B(  2-C ,  3-C ) :   1.2057 B(  2-C ,  4-H ) :   0.1536
B(  2-C , 17-H ) :   0.9358 B(  2-C , 18-H ) :   0.8834 B(  3-C ,  4-H ) :   1.0119
B(  3-C ,  5-H ) :   0.7844 B(  3-C ,  6-F ) :   0.6144 B(  7-C ,  8-N ) :   1.1011
B(  7-C ,  9-C ) :   1.6245 B(  7-C , 10-H ) :   0.1849 B(  7-C , 11-H ) :   0.1702
B(  7-C , 12-H ) :  -0.1455 B(  8-N ,  9-C ) :   0.1405 B(  8-N , 13-H ) :   1.0643
B(  8-N , 14-H ) :   1.1631 B(  9-C , 10-H ) :   0.7670 B(  9-C , 11-H ) :   0.8685
B( 10-H , 11-H ) :   0.2129 B( 13-H , 14-H ) :  -0.2031 B( 15-H , 16-H ) :  -0.1476

Dispersion correction           -0.021536407
FINAL SINGLE POINT ENERGY      -406.235683006131

DIPOLE MOMENT
-------------
                                X             Y             Z
Electronic contribution:     -3.47176       3.89242      -1.47838
Nuclear contribution   :      2.63642      -4.47741       0.00296
                        -----------------------------------------
Total Dipole Moment    :     -0.83534      -0.58498      -1.47542
                        -----------------------------------------
Magnitude (a.u.)       :      1.79356
Magnitude (Debye)      :      4.55887

Rotational constants in cm-1:     0.108041     0.051979     0.040387
Rotational constants in MHz :  3238.993235  1558.297571  1210.782552

                             ****ORCA TERMINATED NORMALLY****
TOTAL RUN TIME: 0 days 0 hours 0 minutes 23 seconds 602 msec
