                         Program Version 5.0.0 -  RELEASE  -
|  1> !PBE D3BJ RIJCOSX def2-SVPD def2/J TightSCF
|  2> *xyz -1 1
|  3> C         -0.71189        0.84252       -4.21834
|  4> C         -0.39762       -0.20587       -5.28802
|  5> O          0.61717       -0.00535       -5.99827
|  6> O         -1.13317       -1.22138       -5.34147
|  7> H         -0.00939        1.64646       -4.28960
|  8> H         -0.64409        0.39449       -3.24902
|  9> H         -1.70192        1.21961       -4.36851
| 10> *
| 11>
| 12> %MaxCore 64000
| 13>
| 14> %pal nprocs 4
| 15> end
| 16>
| 17> %scf
| 18>   MaxIter 150
| 19> end
| 20>
| 21>
| 22>                          ****END OF INPUT****

CARTESIAN COORDINATES (ANGSTROEM)
---------------------------------
  C     -0.711890    0.842520   -4.218340
  C     -0.397620   -0.205870   -5.288020
  O      0.617170   -0.005350   -5.998270
  O     -1.133170   -1.221380   -5.341470
  H     -0.009390    1.646460   -4.289600
  H     -0.644090    0.394490   -3.249020
  H     -1.701920    1.219610   -4.368510

 Total Charge           Charge          ....   -1
 Multiplicity           Mult            ....    1
 Number of Electrons    NEL             ....   32
 Basis Dimension        Dim             ....  110

ORBITAL ENERGIES
----------------

  NO   OCC          E(Eh)            E(eV)
   0   2.0000     -18.501857      -503.4611
   1   2.0000     -18.501496      -503.4513
   2   2.0000      -9.770932      -265.8806
   3   2.0000      -9.706437      -264.1256
   4   2.0000      -0.722146       -19.6506
   5   2.0000      -0.633358       -17.2346
   6   2.0000      -0.467547       -12.7226
   7   2.0000      -0.245151        -6.6709
   8   2.0000      -0.211744        -5.7618
   9   2.0000      -0.195713        -5.3256
  10   2.0000      -0.170490        -4.6393
  11   2.0000      -0.134209        -3.6520
  12   2.0000      -0.121974        -3.3191
  13   2.0000      -0.011113        -0.3024
  14   2.0000       0.002701         0.0735
  15   2.0000       0.021214         0.5773
  16   0.0000       0.156613         4.2617
  17   0.0000       0.198061         5.3895
  18   0.0000       0.199883         5.4391
  19   0.0000       0.224817         6.1176
  20   0.0000       0.242219         6.5911

MULLIKEN ATOMIC CHARGES
-----------------------
   0 C :    0.465964
   1 C :   -0.046702
   2 O :   -0.602052
   3 O :   -0.623622
   4 H :   -0.076653
   5 H :   -0.059345
   6 H :   -0.057591
Sum of atomic charges:   -1.0000000

LOEWDIN ATOMIC CHARGES
----------------------
   0 C :    0.140030
   1 C :   -0.358301
   2 O :   -0.323755
   3 O :   -0.325518
   4 H :   -0.048895
   5 H :   -0.040691
   6 H :   -0.042870

  Mayer bond orders larger than 0.100000
B(  0-C ,  1-C ) :   1.2785 B(  0-C ,  4-H ) :   0.8762 B(  0-C ,  5-H ) :   0.8291
B(  0-C ,  6-H ) :   0.8207 B(  1-C ,  2-O ) :   1.4751 B(  1-C ,  3-O ) :   1.4988
B(  1-C ,  4-H ) :   0.2513 B(  1-C ,  5-H ) :   0.1681 B(  1-C ,  6-H ) :   0.1767

Dispersion correction           -0.003678812
FINAL SINGLE POINT ENERGY      -228.123688098021

DIPOLE MOMENT
-------------
                                X             Y             Z
Electronic contribution:      0.77801      -2.53318      -2.57087
Nuclear contribution   :     -1.06347       3.45957       3.47855
                        -----------------------------------------
Total Dipole Moment    :     -0.28546       0.92639       0.90768
                        -----------------------------------------
Magnitude (a.u.)       :      1.32800
Magnitude (Debye)      :      3.37551

Rotational constants in cm-1:     0.393276     0.333956     0.186777
Rotational constants in MHz : 11790.103634 10011.747201  5599.422324

                             ****ORCA TERMINATED NORMALLY****
TOTAL RUN TIME: 0 days 0 hours 0 minutes 3 seconds 326 msec
