                         Program Version 5.0.0 -  RELEASE  -
|  1> !PBE D3BJ RIJCOSX def2-SVPD def2/J TightSCF
|  2> *xyz 1 1
|  3> C          2.23447       -2.98975       -2.39762
|  4> N          2.75680       -2.94555       -3.76503
|  5> C          1.98721       -2.59045       -4.81898
|  6> N          0.74322       -3.01749       -4.91352
|  7> N          2.49964       -1.84860       -5.80324
|  8> H          3.30978       -1.29282       -5.55895
|  9> H          1.80103       -1.30430       -6.28913
| 10> H          3.71612       -2.62880       -3.82953
| 11> H          0.39583       -3.62775       -4.18502
| 12> H          0.03920       -2.45438       -5.37137
| 13> H          1.22098       -3.33251       -2.41386
| 14> H          2.27280       -2.00995       -1.96933
| 15> H          2.82798       -3.65908       -1.81056
| 16> *
| 17>
| 18> %MaxCore 64000
| 19>
| 20> %pal nprocs 4
| 21> end
| 22>
| 23> %scf
| 24>   MaxIter 150
| 25> end
| 26>
| 27>
| 28>                          ****END OF INPUT****

CARTESIAN COORDINATES (ANGSTROEM)
---------------------------------
  C      2.234470   -2.989750   -2.397620
  N      2.756800   -2.945550   -3.765030
  C      1.987210   -2.590450   -4.818980
  N      0.743220   -3.017490   -4.913520
  N      2.499640   -1.848600   -5.803240
  H      3.309780   -1.292820   -5.558950
  H      1.801030   -1.304300   -6.289130
  H      3.716120   -2.628800   -3.829530
  H      0.395830   -3.627750   -4.185020
  H      0.039200   -2.454380   -5.371370
  H      1.220980   -3.332510   -2.413860
  H      2.272800   -2.009950   -1.969330
  H      2.827980   -3.659080   -1.810560

 Total Charge           Charge          ....    1
 Multiplicity           Mult            ....    1
 Number of Electrons    NEL             ....   40
 Basis Dimension        Dim             ....  164

ORBITAL ENERGIES
----------------

  NO   OCC          E(Eh)            E(eV)
   0   2.0000     -14.233896      -387.3240
   1   2.0000     -14.232671      -387.2907
   2   2.0000     -14.229845      -387.2138
   3   2.0000     -10.228596      -278.3342
   4   2.0000     -10.103994      -274.9436
   5   2.0000      -1.134367       -30.8677
   6   2.0000      -1.027443       -27.9581
   7   2.0000      -1.022780       -27.8312
   8   2.0000      -0.837578       -22.7917
   9   2.0000      -0.774959       -21.0877
  10   2.0000      -0.737949       -20.0806
  11   2.0000      -0.703149       -19.1336
  12   2.0000      -0.657701       -17.8970
  13   2.0000      -0.643024       -17.4976
  14   2.0000      -0.602322       -16.3900
  15   2.0000      -0.597992       -16.2722
  16   2.0000      -0.551595       -15.0097
  17   2.0000      -0.539215       -14.6728
  18   2.0000      -0.453464       -12.3394
  19   2.0000      -0.423537       -11.5250
  20   0.0000      -0.233601        -6.3566
  21   0.0000      -0.183761        -5.0004
  22   0.0000      -0.148018        -4.0278
  23   0.0000      -0.137581        -3.7438
  24   0.0000      -0.117481        -3.1968

MULLIKEN ATOMIC CHARGES
-----------------------
   0 C :    1.228874
   1 N :   -0.569738
   2 C :    0.953907
   3 N :    0.100577
   4 N :    0.009280
   5 H :   -0.011391
   6 H :    0.035703
   7 H :   -0.185547
   8 H :   -0.031621
   9 H :   -0.038665
  10 H :   -0.215094
  11 H :   -0.085221
  12 H :   -0.191064
Sum of atomic charges:    1.0000000

LOEWDIN ATOMIC CHARGES
----------------------
   0 C :    0.259398
   1 N :    0.036725
   2 C :   -0.068285
   3 N :    0.293411
   4 N :    0.283400
   5 H :    0.034101
   6 H :    0.034033
   7 H :    0.048353
   8 H :    0.024247
   9 H :    0.046450
  10 H :   -0.014878
  11 H :    0.010708
  12 H :    0.012336

  Mayer bond orders larger than 0.100000
B(  0-C ,  1-N ) :   0.9156 B(  0-C , 10-H ) :   0.8129 B(  0-C , 11-H ) :   0.7977
B(  0-C , 12-H ) :   0.7768 B(  1-N ,  2-C ) :   1.0343 B(  1-N ,  3-N ) :   0.1347
B(  1-N ,  4-N ) :   0.1596 B(  1-N ,  7-H ) :   1.2078 B(  1-N , 10-H ) :   0.1539
B(  1-N , 11-H ) :   0.1389 B(  1-N , 12-H ) :   0.2097 B(  2-C ,  3-N ) :   1.0452
B(  2-C ,  4-N ) :   1.0158 B(  2-C ,  7-H ) :  -0.1653 B(  2-C ,  9-H ) :  -0.1119
B(  3-N ,  4-N ) :   0.1830 B(  3-N ,  8-H ) :   0.9946 B(  3-N ,  9-H ) :   1.2063
B(  4-N ,  5-H ) :   1.0141 B(  4-N ,  6-H ) :   1.0105 B(  8-H ,  9-H ) :  -0.1557

Dispersion correction           -0.009163378
FINAL SINGLE POINT ENERGY      -244.614644781287

DIPOLE MOMENT
-------------
                                X             Y             Z
Electronic contribution:      0.28439      -0.08487      -3.02018
Nuclear contribution   :     -0.61773       0.88991       3.03801
                        -----------------------------------------
Total Dipole Moment    :     -0.33334       0.80504       0.01784
                        -----------------------------------------
Magnitude (a.u.)       :      0.87150
Magnitude (Debye)      :      2.21519

Rotational constants in cm-1:     0.302561     0.133407     0.098295
Rotational constants in MHz :  9070.558660  3999.431512  2946.819102

                             ****ORCA TERMINATED NORMALLY****
TOTAL RUN TIME: 0 days 0 hours 0 minutes 6 seconds 56 msec
