                         Program Version 5.0.0 -  RELEASE  -
|  1> !PBE D3BJ RIJCOSX def2-SVPD def2/J TightSCF
|  2> *xyz 0 1
|  3> C         -0.71189        0.84252       -4.21834
|  4> C         -0.39762       -0.20587       -5.28802
|  5> F          0.61717       -0.00535       -5.99827
|  6> O         -1.13317       -1.22138       -5.34147
|  7> H         -0.00939        1.64646       -4.28960
|  8> H         -0.64409        0.39449       -3.24902
|  9> H         -1.70192        1.21961       -4.36851
| 10> *
| 11>
| 12> %MaxCore 64000
| 13>
| 14> %pal nprocs 4
| 15> end
| 16>
| 17> %scf
| 18>   MaxIter 150
| 19> end
| 20>
| 21>
| 22>                          ****END OF INPUT****

CARTESIAN COORDINATES (ANGSTROEM)
---------------------------------
  C     -0.711890    0.842520   -4.218340
  C     -0.397620   -0.205870   -5.288020
  F      0.617170   -0.005350   -5.998270
  O     -1.133170   -1.221380   -5.341470
  H     -0.009390    1.646460   -4.289600
  H     -0.644090    0.394490   -3.249020
  H     -1.701920    1.219610   -4.368510

 Total Charge           Charge          ....    0
 Multiplicity           Mult            ....    1
 Number of Electrons    NEL             ....   32
 Basis Dimension        Dim             ....  110

ORBITAL ENERGIES
----------------

  NO   OCC          E(Eh)            E(eV)
   0   2.0000     -24.347773      -662.5366
   1   2.0000     -18.774713      -510.8859
   2   2.0000     -10.072703      -274.0922
   3   2.0000      -9.922753      -270.0118
   4   2.0000      -1.208137       -32.8751
   5   2.0000      -0.941378       -25.6162
   6   2.0000      -0.697647       -18.9839
   7   2.0000      -0.596853       -16.2412
   8   2.0000      -0.494442       -13.4545
   9   2.0000      -0.487440       -13.2639
  10   2.0000      -0.447365       -12.1734
  11   2.0000      -0.400014       -10.8849
  12   2.0000      -0.387067       -10.5326
  13   2.0000      -0.353418        -9.6170
  14   2.0000      -0.317629        -8.6431
  15   2.0000      -0.250013        -6.8032
  16   0.0000      -0.073304        -1.9947
  17   0.0000      -0.005384        -0.1465
  18   0.0000       0.043386         1.1806
  19   0.0000       0.066930         1.8213
  20   0.0000       0.070814         1.9270

MULLIKEN ATOMIC CHARGES
-----------------------
   0 C :    0.427843
   1 C :    0.335565
   2 F :   -0.298665
   3 O :   -0.445826
   4 H :   -0.043168
   5 H :    0.013890
   6 H :    0.010361
Sum of atomic charges:    0.0000000

LOEWDIN ATOMIC CHARGES
----------------------
   0 C :    0.213573
   1 C :   -0.063874
   2 F :   -0.019083
   3 O :   -0.121273
   4 H :   -0.015933
   5 H :    0.003883
   6 H :    0.002707

  Mayer bond orders larger than 0.100000
B(  0-C ,  1-C ) :   1.2824 B(  0-C ,  4-H ) :   0.8783 B(  0-C ,  5-H ) :   0.8071
B(  0-C ,  6-H ) :   0.7988 B(  1-C ,  2-F ) :   0.8371 B(  1-C ,  3-O ) :   1.8062
B(  1-C ,  4-H ) :   0.1649 B(  1-C ,  5-H ) :   0.1417 B(  1-C ,  6-H ) :   0.1527

Dispersion correction           -0.003399969
FINAL SINGLE POINT ENERGY      -252.641511470675

DIPOLE MOMENT
-------------
                                X             Y             Z
Electronic contribution:      2.40904      -2.30806      -3.83355
Nuclear contribution   :     -2.12043       3.31297       4.29327
                        -----------------------------------------
Total Dipole Moment    :      0.28861       1.00491       0.45972
                        -----------------------------------------
Magnitude (a.u.)       :      1.14214
Magnitude (Debye)      :      2.90309

Rotational constants in cm-1:     0.368089     0.321934     0.177312
Rotational constants in MHz : 11035.034199  9651.332398  5315.666874

                             ****ORCA TERMINATED NORMALLY****
TOTAL RUN TIME: 0 days 0 hours 0 minutes 3 seconds 370 msec
