                         Program Version 5.0.0 -  RELEASE  -
|  1> !PBE D3BJ RIJCOSX def2-SVPD def2/J TightSCF
|  2> *xyz 0 1
|  3> C          2.23447       -2.98975       -2.39762
|  4> C          2.75680       -2.94555       -3.76503
|  5> C          1.98721       -2.59045       -4.81898
|  6> N          0.74322       -3.01749       -4.91352
|  7> N          2.49964       -1.84860       -5.80324
|  8> H          3.30978       -1.29282       -5.55895
|  9> H          1.80103       -1.30430       -6.28913
| 10> H          3.71612       -2.62880       -3.82953
| 11> H          0.39583       -3.62775       -4.18502
| 12> H          0.03920       -2.45438       -5.37137
| 13> H          1.22098       -3.33251       -2.41386
| 14> H          2.27280       -2.00995       -1.96933
| 15> H          2.82798       -3.65908       -1.81056
| 16> *
| 17>
| 18> %MaxCore 64000
| 19>
| 20> %pal nprocs 4
| 21> end
| 22>
| 23> %scf
| 24>   MaxIter 150
| 25> end
| 26>
| 27>
| 28>                          ****END OF INPUT****

CARTESIAN COORDINATES (ANGSTROEM)
---------------------------------
  C      2.234470   -2.989750   -2.397620
  C      2.756800   -2.945550   -3.765030
  C      1.987210   -2.590450   -4.818980
  N      0.743220   -3.017490   -4.913520
  N      2.499640   -1.848600   -5.803240
  H      3.309780   -1.292820   -5.558950
  H      1.801030   -1.304300   -6.289130
  H      3.716120   -2.628800   -3.829530
  H      0.395830   -3.627750   -4.185020
  H      0.039200   -2.454380   -5.371370
  H      1.220980   -3.332510   -2.413860
  H      2.272800   -2.009950   -1.969330
  H      2.827980   -3.659080   -1.810560

 Total Charge           Charge          ....    0
 Multiplicity           Mult            ....    1
 Number of Electrons    NEL             ....   40
 Basis Dimension        Dim             ....  164

ORBITAL ENERGIES
----------------

  NO   OCC          E(Eh)            E(eV)
   0   2.0000     -14.006421      -381.1341
   1   2.0000     -14.002238      -381.0203
   2   2.0000      -9.935707      -270.3643
   3   2.0000      -9.864067      -268.4149
   4   2.0000      -9.825588      -267.3678
   5   2.0000      -0.881300       -23.9814
   6   2.0000      -0.795640       -21.6505
   7   2.0000      -0.675479       -18.3807
   8   2.0000      -0.587534       -15.9876
   9   2.0000      -0.531677       -14.4677
  10   2.0000      -0.492004       -13.3881
  11   2.0000      -0.455024       -12.3818
  12   2.0000      -0.423777       -11.5316
  13   2.0000      -0.388496       -10.5715
  14   2.0000      -0.356256        -9.6942
  15   2.0000      -0.331052        -9.0084
  16   2.0000      -0.316089        -8.6012
  17   2.0000      -0.295791        -8.0489
  18   2.0000      -0.233087        -6.3426
  19   2.0000      -0.130419        -3.5489
  20   0.0000      -0.010837        -0.2949
  21   0.0000       0.012614         0.3432
  22   0.0000       0.029635         0.8064
  23   0.0000       0.038687         1.0527
  24   0.0000       0.061689         1.6786

MULLIKEN ATOMIC CHARGES
-----------------------
   0 C :    0.878035
   1 C :   -0.460106
   2 C :    0.344012
   3 N :    0.038972
   4 N :   -0.002988
   5 H :    0.021386
   6 H :   -0.036292
   7 H :   -0.245932
   8 H :   -0.035693
   9 H :   -0.137054
  10 H :   -0.256503
  11 H :   -0.104183
  12 H :   -0.003654
Sum of atomic charges:    0.0000000

LOEWDIN ATOMIC CHARGES
----------------------
   0 C :    0.089594
   1 C :   -0.051737
   2 C :   -0.256094
   3 N :    0.204459
   4 N :    0.198324
   5 H :   -0.001422
   6 H :   -0.016690
   7 H :   -0.060221
   8 H :   -0.007301
   9 H :   -0.008238
  10 H :   -0.045669
  11 H :   -0.020439
  12 H :   -0.024567

  Mayer bond orders larger than 0.100000
B(  0-C ,  1-C ) :   1.1755 B(  0-C ,  7-H ) :   0.2070 B(  0-C , 10-H ) :   0.7298
B(  0-C , 11-H ) :   0.8056 B(  0-C , 12-H ) :   0.6953 B(  1-C ,  2-C ) :   1.6915
B(  1-C ,  3-N ) :   0.2058 B(  1-C ,  4-N ) :   0.2410 B(  1-C ,  7-H ) :   0.8207
B(  1-C , 10-H ) :   0.3311 B(  1-C , 12-H ) :   0.2379 B(  2-C ,  3-N ) :   1.0574
B(  2-C ,  4-N ) :   1.0121 B(  2-C ,  7-H ) :   0.2610 B(  3-N ,  4-N ) :   0.1535
B(  3-N ,  8-H ) :   0.9878 B(  3-N ,  9-H ) :   1.2233 B(  4-N ,  5-H ) :   0.9535
B(  4-N ,  6-H ) :   0.9587 B(  8-H ,  9-H ) :  -0.1365 B( 10-H , 12-H ) :   0.1320

Dispersion correction           -0.009556159
FINAL SINGLE POINT ENERGY      -228.157202562358

DIPOLE MOMENT
-------------
                                X             Y             Z
Electronic contribution:     -0.26365       0.02160      -3.44834
Nuclear contribution   :     -0.47056       0.83150       3.15332
                        -----------------------------------------
Total Dipole Moment    :     -0.73421       0.85310      -0.29501
                        -----------------------------------------
Magnitude (a.u.)       :      1.16356
Magnitude (Debye)      :      2.95754

Rotational constants in cm-1:     0.307275     0.134774     0.099280
Rotational constants in MHz :  9211.860934  4040.421317  2976.324646

                             ****ORCA TERMINATED NORMALLY****
TOTAL RUN TIME: 0 days 0 hours 0 minutes 6 seconds 666 msec
