                         Program Version 5.0.0 -  RELEASE  -
|  1> !PBE D3BJ RIJCOSX def2-SVPD def2/J TightSCF
|  2> *xyz 0 1
|  3> C         -0.71189        0.84252       -4.21834
|  4> C         -0.39762       -0.20587       -5.28802
|  5> O          0.61717       -0.00535       -5.99827
|  6> F         -1.13317       -1.22138       -5.34147
|  7> H         -0.00939        1.64646       -4.28960
|  8> H         -0.64409        0.39449       -3.24902
|  9> H         -1.70192        1.21961       -4.36851
| 10> *
| 11>
| 12> %MaxCore 64000
| 13>
| 14> %pal nprocs 4
| 15> end
| 16>
| 17> %scf
| 18>   MaxIter 150
| 19> end
| 20>
| 21>
| 22>                          ****END OF INPUT****

CARTESIAN COORDINATES (ANGSTROEM)
---------------------------------
  C     -0.711890    0.842520   -4.218340
  C     -0.397620   -0.205870   -5.288020
  O      0.617170   -0.005350   -5.998270
  F     -1.133170   -1.221380   -5.341470
  H     -0.009390    1.646460   -4.289600
  H     -0.644090    0.394490   -3.249020
  H     -1.701920    1.219610   -4.368510

 Total Charge           Charge          ....    0
 Multiplicity           Mult            ....    1
 Number of Electrons    NEL             ....   32
 Basis Dimension        Dim             ....  110

ORBITAL ENERGIES
----------------

  NO   OCC          E(Eh)            E(eV)
   0   2.0000     -24.348271      -662.5501
   1   2.0000     -18.774285      -510.8743
   2   2.0000     -10.072430      -274.0848
   3   2.0000      -9.922527      -270.0057
   4   2.0000      -1.208080       -32.8735
   5   2.0000      -0.941571       -25.6214
   6   2.0000      -0.697294       -18.9743
   7   2.0000      -0.596824       -16.2404
   8   2.0000      -0.494885       -13.4665
   9   2.0000      -0.487107       -13.2549
  10   2.0000      -0.446630       -12.1534
  11   2.0000      -0.399202       -10.8629
  12   2.0000      -0.387731       -10.5507
  13   2.0000      -0.353473        -9.6185
  14   2.0000      -0.320415        -8.7189
  15   2.0000      -0.247543        -6.7360
  16   0.0000      -0.070765        -1.9256
  17   0.0000      -0.005332        -0.1451
  18   0.0000       0.043277         1.1776
  19   0.0000       0.066244         1.8026
  20   0.0000       0.073806         2.0084

MULLIKEN ATOMIC CHARGES
-----------------------
   0 C :    0.440972
   1 C :    0.354103
   2 O :   -0.429182
   3 F :   -0.321651
   4 H :   -0.061400
   5 H :    0.009906
   6 H :    0.007251
Sum of atomic charges:   -0.0000000

LOEWDIN ATOMIC CHARGES
----------------------
   0 C :    0.212874
   1 C :   -0.064883
   2 O :   -0.121655
   3 F :   -0.017181
   4 H :   -0.002233
   5 H :   -0.002244
   6 H :   -0.004679

  Mayer bond orders larger than 0.100000
B(  0-C ,  1-C ) :   1.2655 B(  0-C ,  4-H ) :   0.8823 B(  0-C ,  5-H ) :   0.8062
B(  0-C ,  6-H ) :   0.8014 B(  1-C ,  2-O ) :   1.8218 B(  1-C ,  3-F ) :   0.7979
B(  1-C ,  4-H ) :   0.2150 B(  1-C ,  5-H ) :   0.1317 B(  1-C ,  6-H ) :   0.1373

Dispersion correction           -0.003399972
FINAL SINGLE POINT ENERGY      -252.641523591193

DIPOLE MOMENT
-------------
                                X             Y             Z
Electronic contribution:     -0.41151      -4.26631      -2.77327
Nuclear contribution   :     -0.31181       4.56949       3.61460
                        -----------------------------------------
Total Dipole Moment    :     -0.72332       0.30318       0.84133
                        -----------------------------------------
Magnitude (a.u.)       :      1.15019
Magnitude (Debye)      :      2.92356

Rotational constants in cm-1:     0.370228     0.320104     0.177247
Rotational constants in MHz : 11099.151631  9596.483000  5313.726171

                             ****ORCA TERMINATED NORMALLY****
TOTAL RUN TIME: 0 days 0 hours 0 minutes 3 seconds 471 msec
