                         Program Version 5.0.0 -  RELEASE  -
|  1> !PBE D3BJ RIJCOSX def2-SVPD def2/J TightSCF
|  2> *xyz 0 1
|  3> C          2.23447       -2.98975       -2.39762
|  4> N          2.75680       -2.94555       -3.76503
|  5> C          1.98721       -2.59045       -4.81898
|  6> C          0.74322       -3.01749       -4.91352
|  7> N          2.49964       -1.84860       -5.80324
|  8> H          3.30978       -1.29282       -5.55895
|  9> H          1.80103       -1.30430       -6.28913
| 10> H          3.71612       -2.62880       -3.82953
| 11> H          0.39583       -3.62775       -4.18502
| 12> H          0.03920       -2.45438       -5.37137
| 13> H          1.22098       -3.33251       -2.41386
| 14> H          2.27280       -2.00995       -1.96933
| 15> H          2.82798       -3.65908       -1.81056
| 16> *
| 17>
| 18> %MaxCore 64000
| 19>
| 20> %pal nprocs 4
| 21> end
| 22>
| 23> %scf
| 24>   MaxIter 150
| 25> end
| 26>
| 27>
| 28>                          ****END OF INPUT****

CARTESIAN COORDINATES (ANGSTROEM)
---------------------------------
  C      2.234470   -2.989750   -2.397620
  N      2.756800   -2.945550   -3.765030
  C      1.987210   -2.590450   -4.818980
  C      0.743220   -3.017490   -4.913520
  N      2.499640   -1.848600   -5.803240
  H      3.309780   -1.292820   -5.558950
  H      1.801030   -1.304300   -6.289130
  H      3.716120   -2.628800   -3.829530
  H      0.395830   -3.627750   -4.185020
  H      0.039200   -2.454380   -5.371370
  H      1.220980   -3.332510   -2.413860
  H      2.272800   -2.009950   -1.969330
  H      2.827980   -3.659080   -1.810560

 Total Charge           Charge          ....    0
 Multiplicity           Mult            ....    1
 Number of Electrons    NEL             ....   40
 Basis Dimension        Dim             ....  164

ORBITAL ENERGIES
----------------

  NO   OCC          E(Eh)            E(eV)
   0   2.0000     -14.006832      -381.1453
   1   2.0000     -14.001698      -381.0056
   2   2.0000      -9.936030      -270.3731
   3   2.0000      -9.919551      -269.9247
   4   2.0000      -9.816298      -267.1150
   5   2.0000      -0.879560       -23.9341
   6   2.0000      -0.803781       -21.8720
   7   2.0000      -0.651336       -17.7238
   8   2.0000      -0.625927       -17.0323
   9   2.0000      -0.509800       -13.8724
  10   2.0000      -0.494344       -13.4518
  11   2.0000      -0.463187       -12.6040
  12   2.0000      -0.400933       -10.9100
  13   2.0000      -0.399240       -10.8639
  14   2.0000      -0.372793       -10.1442
  15   2.0000      -0.346014        -9.4155
  16   2.0000      -0.332312        -9.0427
  17   2.0000      -0.312702        -8.5091
  18   2.0000      -0.213610        -5.8126
  19   2.0000      -0.146882        -3.9969
  20   0.0000      -0.008116        -0.2208
  21   0.0000       0.013913         0.3786
  22   0.0000       0.030568         0.8318
  23   0.0000       0.036547         0.9945
  24   0.0000       0.060669         1.6509

MULLIKEN ATOMIC CHARGES
-----------------------
   0 C :    1.228490
   1 N :   -0.475728
   2 C :    0.405381
   3 C :    0.347500
   4 N :    0.034369
   5 H :   -0.095807
   6 H :    0.027473
   7 H :   -0.311396
   8 H :   -0.165026
   9 H :   -0.407955
  10 H :   -0.225789
  11 H :   -0.134152
  12 H :   -0.227361
Sum of atomic charges:    0.0000000

LOEWDIN ATOMIC CHARGES
----------------------
   0 C :    0.209807
   1 N :   -0.027447
   2 C :   -0.261719
   3 C :    0.159340
   4 N :    0.196484
   5 H :   -0.019390
   6 H :   -0.002534
   7 H :    0.006108
   8 H :   -0.104006
   9 H :   -0.093261
  10 H :   -0.029026
  11 H :   -0.017394
  12 H :   -0.016964

  Mayer bond orders larger than 0.100000
B(  0-C ,  1-N ) :   0.9017 B(  0-C , 10-H ) :   0.8308 B(  0-C , 11-H ) :   0.7803
B(  0-C , 12-H ) :   0.7497 B(  1-N ,  2-C ) :   1.0234 B(  1-N ,  3-C ) :   0.2612
B(  1-N ,  4-N ) :   0.1267 B(  1-N ,  7-H ) :   1.1603 B(  1-N , 10-H ) :   0.1407
B(  1-N , 11-H ) :   0.1772 B(  1-N , 12-H ) :   0.2104 B(  2-C ,  3-C ) :   1.6616
B(  2-C ,  4-N ) :   0.9597 B(  2-C ,  7-H ) :  -0.1022 B(  2-C ,  8-H ) :   0.2579
B(  2-C ,  9-H ) :   0.1133 B(  3-C ,  4-N ) :   0.2702 B(  3-C ,  8-H ) :   0.5412
B(  3-C ,  9-H ) :   0.9073 B(  4-N ,  5-H ) :   0.9700 B(  4-N ,  6-H ) :   0.9873
B(  8-H ,  9-H ) :   0.1644

Dispersion correction           -0.009528288
FINAL SINGLE POINT ENERGY      -228.147399728507

DIPOLE MOMENT
-------------
                                X             Y             Z
Electronic contribution:      1.54394       0.08091      -2.38497
Nuclear contribution   :     -0.87840       0.81693       2.92070
                        -----------------------------------------
Total Dipole Moment    :      0.66554       0.89784       0.53573
                        -----------------------------------------
Magnitude (a.u.)       :      1.23938
Magnitude (Debye)      :      3.15025

Rotational constants in cm-1:     0.323282     0.134248     0.100848
Rotational constants in MHz :  9691.753357  4024.663509  3023.338831

                             ****ORCA TERMINATED NORMALLY****
TOTAL RUN TIME: 0 days 0 hours 0 minutes 6 seconds 622 msec
