                         Program Version 5.0.0 -  RELEASE  -
|  1> !PBE D3BJ RIJCOSX def2-SVPD def2/J TightSCF
|  2> *xyz 0 1
|  3> C          2.23447       -2.98975       -2.39762
|  4> N          2.75680       -2.94555       -3.76503
|  5> C          1.98721       -2.59045       -4.81898
|  6> N          0.74322       -3.01749       -4.91352
|  7> C          2.49964       -1.84860       -5.80324
|  8> H          3.30978       -1.29282       -5.55895
|  9> H          1.80103       -1.30430       -6.28913
| 10> H          3.71612       -2.62880       -3.82953
| 11> H          0.39583       -3.62775       -4.18502
| 12> H          0.03920       -2.45438       -5.37137
| 13> H          1.22098       -3.33251       -2.41386
| 14> H          2.27280       -2.00995       -1.96933
| 15> H          2.82798       -3.65908       -1.81056
| 16> *
| 17>
| 18> %MaxCore 64000
| 19>
| 20> %pal nprocs 4
| 21> end
| 22>
| 23> %scf
| 24>   MaxIter 150
| 25> end
| 26>
| 27>
| 28>                          ****END OF INPUT****

CARTESIAN COORDINATES (ANGSTROEM)
---------------------------------
  C      2.234470   -2.989750   -2.397620
  N      2.756800   -2.945550   -3.765030
  C      1.987210   -2.590450   -4.818980
  N      0.743220   -3.017490   -4.913520
  C      2.499640   -1.848600   -5.803240
  H      3.309780   -1.292820   -5.558950
  H      1.801030   -1.304300   -6.289130
  H      3.716120   -2.628800   -3.829530
  H      0.395830   -3.627750   -4.185020
  H      0.039200   -2.454380   -5.371370
  H      1.220980   -3.332510   -2.413860
  H      2.272800   -2.009950   -1.969330
  H      2.827980   -3.659080   -1.810560

 Total Charge           Charge          ....    0
 Multiplicity           Mult            ....    1
 Number of Electrons    NEL             ....   40
 Basis Dimension        Dim             ....  164

ORBITAL ENERGIES
----------------

  NO   OCC          E(Eh)            E(eV)
   0   2.0000     -14.005610      -381.1120
   1   2.0000     -14.004966      -381.0945
   2   2.0000      -9.938794      -270.4483
   3   2.0000      -9.927960      -270.1535
   4   2.0000      -9.811858      -266.9942
   5   2.0000      -0.881276       -23.9807
   6   2.0000      -0.803795       -21.8724
   7   2.0000      -0.668831       -18.1998
   8   2.0000      -0.603623       -16.4254
   9   2.0000      -0.545433       -14.8420
  10   2.0000      -0.488140       -13.2830
  11   2.0000      -0.443337       -12.0638
  12   2.0000      -0.435659       -11.8549
  13   2.0000      -0.401663       -10.9298
  14   2.0000      -0.363075        -9.8798
  15   2.0000      -0.346162        -9.4195
  16   2.0000      -0.325343        -8.8530
  17   2.0000      -0.316459        -8.6113
  18   2.0000      -0.215831        -5.8730
  19   2.0000      -0.142577        -3.8797
  20   0.0000      -0.008829        -0.2403
  21   0.0000       0.012782         0.3478
  22   0.0000       0.025367         0.6903
  23   0.0000       0.037728         1.0266
  24   0.0000       0.059966         1.6318

MULLIKEN ATOMIC CHARGES
-----------------------
   0 C :    1.217996
   1 N :   -0.593342
   2 C :    0.299984
   3 N :    0.211307
   4 C :    0.463517
   5 H :   -0.153752
   6 H :   -0.420677
   7 H :   -0.179394
   8 H :   -0.143813
   9 H :   -0.108047
  10 H :   -0.234610
  11 H :   -0.112794
  12 H :   -0.246376
Sum of atomic charges:    0.0000000

LOEWDIN ATOMIC CHARGES
----------------------
   0 C :    0.203010
   1 N :   -0.024685
   2 C :   -0.257075
   3 N :    0.205973
   4 C :    0.144046
   5 H :   -0.105552
   6 H :   -0.105526
   7 H :    0.021020
   8 H :   -0.022375
   9 H :    0.009952
  10 H :   -0.034388
  11 H :   -0.017117
  12 H :   -0.017282

  Mayer bond orders larger than 0.100000
B(  0-C ,  1-N ) :   0.9074 B(  0-C , 10-H ) :   0.8042 B(  0-C , 11-H ) :   0.7874
B(  0-C , 12-H ) :   0.7627 B(  1-N ,  2-C ) :   1.0270 B(  1-N ,  4-C ) :   0.1874
B(  1-N ,  7-H ) :   1.1693 B(  1-N , 10-H ) :   0.1477 B(  1-N , 11-H ) :   0.1309
B(  1-N , 12-H ) :   0.2198 B(  2-C ,  3-N ) :   1.0709 B(  2-C ,  4-C ) :   1.8100
B(  2-C ,  5-H ) :   0.2217 B(  2-C ,  6-H ) :   0.2504 B(  2-C ,  7-H ) :  -0.1123
B(  3-N ,  4-C ) :   0.2424 B(  3-N ,  8-H ) :   1.0052 B(  3-N ,  9-H ) :   1.1697
B(  4-C ,  5-H ) :   0.7409 B(  4-C ,  6-H ) :   0.7090 B(  5-H ,  6-H ) :   0.2801
B(  8-H ,  9-H ) :  -0.1511

Dispersion correction           -0.009497398
FINAL SINGLE POINT ENERGY      -228.143189273286

DIPOLE MOMENT
-------------
                                X             Y             Z
Electronic contribution:     -0.06807      -1.05990      -1.52654
Nuclear contribution   :     -0.52265       1.05368       2.74049
                        -----------------------------------------
Total Dipole Moment    :     -0.59072      -0.00622       1.21395
                        -----------------------------------------
Magnitude (a.u.)       :      1.35006
Magnitude (Debye)      :      3.43158

Rotational constants in cm-1:     0.310125     0.138772     0.101978
Rotational constants in MHz :  9297.312912  4160.277024  3057.230514

                             ****ORCA TERMINATED NORMALLY****
TOTAL RUN TIME: 0 days 0 hours 0 minutes 6 seconds 778 msec
