                         Program Version 5.0.0 -  RELEASE  -
|  1> !PBE D3BJ RIJCOSX def2-SVPD def2/J TightSCF xyzfile
|  2>
|  3> *xyzfile 0 1 D2.xyz
|  4>
|  5> %MaxCore 64000
|  6>
|  7> %pal nprocs 4
|  8> end
|  9>
| 10> %scf
| 11>   MaxIter 150
| 12> end
| 13>
| 14>
| 15>                          ****END OF INPUT****

CARTESIAN COORDINATES (ANGSTROEM)
---------------------------------
  C      2.234473   -2.989754   -2.397622
  N      2.756799   -2.945553   -3.765029
  C     -1.104325    0.251374   -2.860056
  C     -0.711893    0.842517   -4.218344
  H      0.154626    1.499800   -4.130909
  H     -1.538134    1.459222   -4.582671
  C     -0.397624   -0.205875   -5.288018
  C      1.987208   -2.590451   -4.818975
  C      0.743221   -3.017493   -4.913524
  N      2.499636   -1.848598   -5.803241
  H      3.309780   -1.292818   -5.558947
  H      1.801025   -1.304298   -6.289129
  H      3.716116   -2.628797   -3.829533
  H      0.395828   -3.627747   -4.185024
  H      0.039201   -2.454383   -5.371367
  F      0.617165   -0.005348   -5.998273
  O     -1.133173   -1.221380   -5.341465
  C      2.191199   -1.619503   -1.715492
  H      2.872783   -3.666368   -1.828014
  H      1.246188   -3.447444   -2.407842
  C      1.298729   -0.554314   -2.359773
  H      1.872917   -1.787955   -0.681310
  H      3.216809   -1.238432   -1.654428
  C     -0.196255   -0.863365   -2.325763
  H      1.612531   -0.371346   -3.393065
  H      1.480944    0.388638   -1.834444
  H     -0.404105   -1.761825   -2.909448
  H     -0.490439   -1.087880   -1.294131
  H     -1.143842    1.066711   -2.129680
  H     -2.114401   -0.156834   -2.930323

 Total Charge           Charge          ....    0
 Multiplicity           Mult            ....    1
 Number of Electrons    NEL             ....  102
 Basis Dimension        Dim             ....  402

ORBITAL ENERGIES
----------------

  NO   OCC          E(Eh)            E(eV)
   0   2.0000     -24.363165      -662.9554
   1   2.0000     -18.780116      -511.0329
   2   2.0000     -13.997809      -380.8997
   3   2.0000     -13.988294      -380.6408
   4   2.0000     -10.074179      -274.1323
   5   2.0000      -9.930301      -270.2172
   6   2.0000      -9.923847      -270.0416
   7   2.0000      -9.923810      -270.0406
   8   2.0000      -9.910245      -269.6715
   9   2.0000      -9.899317      -269.3741
  10   2.0000      -9.898687      -269.3570
  11   2.0000      -9.892734      -269.1950
  12   2.0000      -9.796502      -266.5764
  13   2.0000      -1.223733       -33.2995
  14   2.0000      -0.951526       -25.8923
  15   2.0000      -0.871163       -23.7055
  16   2.0000      -0.798311       -21.7231
  17   2.0000      -0.744726       -20.2650
  18   2.0000      -0.709067       -19.2947
  19   2.0000      -0.662013       -18.0143
  20   2.0000      -0.637872       -17.3574
  21   2.0000      -0.622456       -16.9379
  22   2.0000      -0.597820       -16.2675
  23   2.0000      -0.556489       -15.1428
  24   2.0000      -0.528076       -14.3697
  25   2.0000      -0.510070       -13.8797
  26   2.0000      -0.492252       -13.3949
  27   2.0000      -0.483893       -13.1674
  28   2.0000      -0.482524       -13.1301
  29   2.0000      -0.468278       -12.7425
  30   2.0000      -0.444208       -12.0875
  31   2.0000      -0.432089       -11.7577
  32   2.0000      -0.422267       -11.4905
  33   2.0000      -0.403606       -10.9827
  34   2.0000      -0.396760       -10.7964
  35   2.0000      -0.382701       -10.4138
  36   2.0000      -0.371346       -10.1048
  37   2.0000      -0.363465        -9.8904
  38   2.0000      -0.351416        -9.5625
  39   2.0000      -0.340614        -9.2686
  40   2.0000      -0.333547        -9.0763
  41   2.0000      -0.325653        -8.8615
  42   2.0000      -0.317281        -8.6337
  43   2.0000      -0.314459        -8.5569
  44   2.0000      -0.303485        -8.2583
  45   2.0000      -0.291497        -7.9320
  46   2.0000      -0.283749        -7.7212
  47   2.0000      -0.280761        -7.6399
  48   2.0000      -0.242114        -6.5883
  49   2.0000      -0.204941        -5.5767
  50   2.0000      -0.135049        -3.6749
  51   0.0000      -0.080844        -2.1999
  52   0.0000      -0.012981        -0.3532
  53   0.0000       0.002929         0.0797
  54   0.0000       0.008848         0.2408
  55   0.0000       0.021032         0.5723

MULLIKEN ATOMIC CHARGES
-----------------------
   0 C :    0.840746
   1 N :   -0.393073
   2 C :    0.575487
   3 C :    0.131233
   4 H :    0.178580
   5 H :   -0.266767
   6 C :    0.560501
   7 C :    0.456978
   8 C :    0.748809
   9 N :    0.133883
  10 H :    0.025956
  11 H :   -0.153517
  12 H :   -0.237581
  13 H :   -0.026876
  14 H :   -0.738918
  15 F :   -0.387395
  16 O :   -0.619678
  17 C :    0.339539
  18 H :   -0.396060
  19 H :    0.011627
  20 C :   -0.051856
  21 H :    0.026205
  22 H :   -0.078187
  23 C :   -0.149781
  24 H :   -0.159160
  25 H :   -0.143157
  26 H :   -0.085938
  27 H :   -0.137710
  28 H :   -0.094955
  29 H :    0.091066
Sum of atomic charges:   -0.0000000

LOEWDIN ATOMIC CHARGES
----------------------
   0 C :    0.053470
   1 N :    0.012038
   2 C :   -0.013072
   3 C :    0.050173
   4 H :    0.022815
   5 H :    0.040815
   6 C :   -0.000212
   7 C :   -0.247661
   8 C :    0.185142
   9 N :    0.214401
  10 H :   -0.015602
  11 H :   -0.058568
  12 H :    0.007961
  13 H :   -0.084258
  14 H :   -0.160527
  15 F :   -0.015553
  16 O :   -0.099734
  17 C :   -0.019022
  18 H :    0.017848
  19 H :    0.007301
  20 C :   -0.028903
  21 H :    0.022488
  22 H :    0.018334
  23 C :   -0.021814
  24 H :    0.001383
  25 H :    0.025331
  26 H :   -0.000732
  27 H :    0.029490
  28 H :    0.026713
  29 H :    0.029957

  Mayer bond orders larger than 0.100000
B(  0-C ,  1-N ) :   0.9372 B(  0-C ,  8-C ) :   0.1204 B(  0-C , 17-C ) :   1.1020
B(  0-C , 18-H ) :   0.7596 B(  0-C , 19-H ) :   0.7279 B(  0-C , 21-H ) :   0.1697
B(  0-C , 22-H ) :   0.1257 B(  1-N ,  7-C ) :   0.9793 B(  1-N ,  8-C ) :   0.3479
B(  1-N ,  9-N ) :   0.1924 B(  1-N , 12-H ) :   1.0845 B(  1-N , 18-H ) :   0.2302
B(  1-N , 19-H ) :   0.1256 B(  2-C ,  3-C ) :   1.2002 B(  2-C ,  4-H ) :   0.1074
B(  2-C ,  5-H ) :   0.1851 B(  2-C , 23-C ) :   1.2850 B(  2-C , 28-H ) :   0.7413
B(  2-C , 29-H ) :   0.5946 B(  3-C ,  4-H ) :   0.7970 B(  3-C ,  5-H ) :   0.7443
B(  3-C ,  6-C ) :   1.2176 B(  3-C , 23-C ) :   0.1411 B(  3-C , 28-H ) :   0.1686
B(  3-C , 29-H ) :   0.1079 B(  4-H ,  6-C ) :   0.1619 B(  5-H ,  6-C ) :   0.2157
B(  6-C , 14-H ) :   0.1297 B(  6-C , 15-F ) :   0.6174 B(  6-C , 16-O ) :   1.7344
B(  7-C ,  8-C ) :   1.7068 B(  7-C ,  9-N ) :   0.7814 B(  7-C , 13-H ) :   0.3675
B(  7-C , 14-H ) :   0.1419 B(  8-C ,  9-N ) :   0.2739 B(  8-C , 13-H ) :   0.3222
B(  8-C , 14-H ) :   0.3042 B(  9-N , 10-H ) :   0.8570 B(  9-N , 11-H ) :   0.9180
B( 14-H , 16-O ) :   0.2710 B( 15-F , 16-O ) :   0.1062 B( 17-C , 18-H ) :   0.1209
B( 17-C , 19-H ) :   0.1321 B( 17-C , 20-C ) :   1.2490 B( 17-C , 21-H ) :   0.7562
B( 17-C , 22-H ) :   0.7042 B( 17-C , 24-H ) :   0.1354 B( 18-H , 19-H ) :  -0.1530
B( 20-C , 21-H ) :   0.1919 B( 20-C , 22-H ) :   0.2557 B( 20-C , 23-C ) :   1.3108
B( 20-C , 24-H ) :   0.9135 B( 20-C , 25-H ) :   0.7898 B( 20-C , 26-H ) :   0.1571
B( 20-C , 27-H ) :   0.2485 B( 21-H , 22-H ) :  -0.1084 B( 23-C , 24-H ) :   0.1703
B( 23-C , 25-H ) :   0.2285 B( 23-C , 26-H ) :   0.9408 B( 23-C , 27-H ) :   0.7278
B( 23-C , 28-H ) :   0.1828 B( 23-C , 29-H ) :   0.2672 B( 28-H , 29-H ) :  -0.1244

Dispersion correction           -0.035266291
FINAL SINGLE POINT ENERGY      -636.526404375215

DIPOLE MOMENT
-------------
                                X             Y             Z
Electronic contribution:     -1.48679       2.09550     -13.57687
Nuclear contribution   :      2.00823      -0.28769      14.57028
                        -----------------------------------------
Total Dipole Moment    :      0.52144       1.80781       0.99341
                        -----------------------------------------
Magnitude (a.u.)       :      2.12766
Magnitude (Debye)      :      5.40808

Rotational constants in cm-1:     0.033070     0.023715     0.016943
Rotational constants in MHz :   991.423248   710.957140   507.940500

                             ****ORCA TERMINATED NORMALLY****
TOTAL RUN TIME: 0 days 0 hours 0 minutes 42 seconds 469 msec
