                         Program Version 5.0.0 -  RELEASE  -
|  1> !PBE D3BJ RIJCOSX def2-SVPD def2/J TightSCF xyzfile
|  2>
|  3> *xyzfile 0 1 D4.xyz
|  4>
|  5> %MaxCore 64000
|  6>
|  7> %pal nprocs 4
|  8> end
|  9>
| 10> %scf
| 11>   MaxIter 150
| 12> end
| 13>
| 14>
| 15>                          ****END OF INPUT****

CARTESIAN COORDINATES (ANGSTROEM)
---------------------------------
  C      2.234473   -2.989754   -2.397622
  C      2.756799   -2.945553   -3.765029
  C     -1.104325    0.251374   -2.860056
  C     -0.711893    0.842517   -4.218344
  H      0.154626    1.499800   -4.130909
  H     -1.538134    1.459222   -4.582671
  C     -0.397624   -0.205875   -5.288018
  C      1.987208   -2.590451   -4.818975
  N      0.743221   -3.017493   -4.913524
  N      2.499636   -1.848598   -5.803241
  H      3.309780   -1.292818   -5.558947
  H      1.801025   -1.304298   -6.289129
  H      3.716116   -2.628797   -3.829533
  H      0.395828   -3.627747   -4.185024
  H      0.039201   -2.454383   -5.371367
  O      0.617165   -0.005348   -5.998273
  F     -1.133173   -1.221380   -5.341465
  C      2.191199   -1.619503   -1.715492
  H      2.872783   -3.666368   -1.828014
  H      1.246188   -3.447444   -2.407842
  C      1.298729   -0.554314   -2.359773
  H      1.872917   -1.787955   -0.681310
  H      3.216809   -1.238432   -1.654428
  C     -0.196255   -0.863365   -2.325763
  H      1.612531   -0.371346   -3.393065
  H      1.480944    0.388638   -1.834444
  H     -0.404105   -1.761825   -2.909448
  H     -0.490439   -1.087880   -1.294131
  H     -1.143842    1.066711   -2.129680
  H     -2.114401   -0.156834   -2.930323

 Total Charge           Charge          ....    0
 Multiplicity           Mult            ....    1
 Number of Electrons    NEL             ....  102
 Basis Dimension        Dim             ....  402

ORBITAL ENERGIES
----------------

  NO   OCC          E(Eh)            E(eV)
   0   2.0000     -24.376773      -663.3257
   1   2.0000     -18.799290      -511.5547
   2   2.0000     -13.994037      -380.7971
   3   2.0000     -13.979674      -380.4063
   4   2.0000     -10.086778      -274.4752
   5   2.0000      -9.936574      -270.3879
   6   2.0000      -9.928868      -270.1782
   7   2.0000      -9.918268      -269.8898
   8   2.0000      -9.901082      -269.4221
   9   2.0000      -9.891270      -269.1551
  10   2.0000      -9.881278      -268.8833
  11   2.0000      -9.872829      -268.6533
  12   2.0000      -9.817912      -267.1590
  13   2.0000      -1.237970       -33.6869
  14   2.0000      -0.968462       -26.3532
  15   2.0000      -0.869726       -23.6664
  16   2.0000      -0.782492       -21.2927
  17   2.0000      -0.753642       -20.5076
  18   2.0000      -0.713472       -19.4146
  19   2.0000      -0.678518       -18.4634
  20   2.0000      -0.635607       -17.2957
  21   2.0000      -0.621042       -16.8994
  22   2.0000      -0.590251       -16.0615
  23   2.0000      -0.552521       -15.0349
  24   2.0000      -0.535648       -14.5757
  25   2.0000      -0.524440       -14.2707
  26   2.0000      -0.510313       -13.8863
  27   2.0000      -0.504288       -13.7224
  28   2.0000      -0.471379       -12.8269
  29   2.0000      -0.463749       -12.6193
  30   2.0000      -0.439218       -11.9517
  31   2.0000      -0.434078       -11.8119
  32   2.0000      -0.426313       -11.6006
  33   2.0000      -0.408200       -11.1077
  34   2.0000      -0.393869       -10.7177
  35   2.0000      -0.390617       -10.6292
  36   2.0000      -0.382489       -10.4081
  37   2.0000      -0.359751        -9.7893
  38   2.0000      -0.354166        -9.6373
  39   2.0000      -0.349478        -9.5098
  40   2.0000      -0.343199        -9.3389
  41   2.0000      -0.321789        -8.7563
  42   2.0000      -0.319018        -8.6809
  43   2.0000      -0.306487        -8.3399
  44   2.0000      -0.298711        -8.1283
  45   2.0000      -0.286014        -7.7828
  46   2.0000      -0.276217        -7.5162
  47   2.0000      -0.268659        -7.3106
  48   2.0000      -0.265476        -7.2240
  49   2.0000      -0.219052        -5.9607
  50   2.0000      -0.125293        -3.4094
  51   0.0000      -0.092528        -2.5178
  52   0.0000      -0.015890        -0.4324
  53   0.0000       0.006627         0.1803
  54   0.0000       0.014237         0.3874
  55   0.0000       0.014953         0.4069

MULLIKEN ATOMIC CHARGES
-----------------------
   0 C :    0.277819
   1 C :   -0.143880
   2 C :    0.544204
   3 C :    0.168892
   4 H :    0.206294
   5 H :   -0.264243
   6 C :    0.570112
   7 C :    0.359433
   8 N :    0.261873
   9 N :    0.096329
  10 H :    0.098185
  11 H :   -0.156543
  12 H :   -0.150376
  13 H :    0.054061
  14 H :   -0.445628
  15 O :   -0.461814
  16 F :   -0.425165
  17 C :    0.443277
  18 H :   -0.183468
  19 H :   -0.135749
  20 C :   -0.056231
  21 H :   -0.010818
  22 H :   -0.086840
  23 C :   -0.045760
  24 H :   -0.071553
  25 H :   -0.123948
  26 H :   -0.142895
  27 H :   -0.119289
  28 H :   -0.104132
  29 H :    0.047854
Sum of atomic charges:    0.0000000

LOEWDIN ATOMIC CHARGES
----------------------
   0 C :   -0.064085
   1 C :   -0.009058
   2 C :   -0.024021
   3 C :    0.058352
   4 H :    0.036901
   5 H :    0.039880
   6 C :   -0.007990
   7 C :   -0.234079
   8 N :    0.242265
   9 N :    0.231368
  10 H :    0.007206
  11 H :   -0.094333
  12 H :   -0.055133
  13 H :   -0.000314
  14 H :   -0.073285
  15 O :   -0.108960
  16 F :   -0.012936
  17 C :   -0.024386
  18 H :    0.011072
  19 H :   -0.009131
  20 C :   -0.026080
  21 H :    0.017128
  22 H :    0.023819
  23 C :   -0.029670
  24 H :    0.006401
  25 H :    0.025881
  26 H :   -0.008877
  27 H :    0.030273
  28 H :    0.028293
  29 H :    0.023495

  Mayer bond orders larger than 0.100000
B(  0-C ,  1-C ) :   1.2251 B(  0-C ,  7-C ) :   0.1416 B(  0-C , 12-H ) :   0.3801
B(  0-C , 17-C ) :   1.1572 B(  0-C , 18-H ) :   0.7086 B(  0-C , 19-H ) :   0.7503
B(  0-C , 21-H ) :   0.2230 B(  0-C , 22-H ) :   0.2081 B(  1-C ,  7-C ) :   1.4252
B(  1-C ,  8-N ) :   0.1781 B(  1-C ,  9-N ) :   0.3507 B(  1-C , 12-H ) :   0.5030
B(  1-C , 18-H ) :   0.2269 B(  1-C , 19-H ) :   0.2243 B(  2-C ,  3-C ) :   1.1819
B(  2-C ,  4-H ) :   0.1001 B(  2-C ,  5-H ) :   0.1854 B(  2-C , 23-C ) :   1.2629
B(  2-C , 26-H ) :   0.1140 B(  2-C , 28-H ) :   0.7683 B(  2-C , 29-H ) :   0.6046
B(  3-C ,  4-H ) :   0.7841 B(  3-C ,  5-H ) :   0.7612 B(  3-C ,  6-C ) :   1.1933
B(  3-C , 23-C ) :   0.1182 B(  3-C , 28-H ) :   0.1525 B(  3-C , 29-H ) :   0.1082
B(  4-H ,  5-H ) :  -0.1059 B(  4-H ,  6-C ) :   0.1947 B(  5-H ,  6-C ) :   0.2020
B(  6-C , 15-O ) :   1.6261 B(  6-C , 16-F ) :   0.6027 B(  7-C ,  8-N ) :   1.0185
B(  7-C ,  9-N ) :   0.8705 B(  7-C , 11-H ) :   0.1318 B(  7-C , 12-H ) :   0.3588
B(  8-N ,  9-N ) :   0.1396 B(  8-N , 13-H ) :   0.8922 B(  8-N , 14-H ) :   1.1468
B(  9-N , 10-H ) :   0.8616 B(  9-N , 11-H ) :   0.7858 B( 11-H , 15-O ) :   0.1290
B( 13-H , 14-H ) :  -0.2232 B( 14-H , 16-F ) :   0.1037 B( 17-C , 18-H ) :   0.1202
B( 17-C , 19-H ) :   0.1343 B( 17-C , 20-C ) :   1.2583 B( 17-C , 21-H ) :   0.7307
B( 17-C , 22-H ) :   0.6501 B( 17-C , 24-H ) :   0.1306 B( 20-C , 21-H ) :   0.1732
B( 20-C , 22-H ) :   0.2931 B( 20-C , 23-C ) :   1.3240 B( 20-C , 24-H ) :   0.8899
B( 20-C , 25-H ) :   0.7556 B( 20-C , 26-H ) :   0.1537 B( 20-C , 27-H ) :   0.2241
B( 21-H , 22-H ) :  -0.1354 B( 23-C , 24-H ) :   0.1515 B( 23-C , 25-H ) :   0.2189
B( 23-C , 26-H ) :   0.8922 B( 23-C , 27-H ) :   0.7565 B( 23-C , 28-H ) :   0.1820
B( 23-C , 29-H ) :   0.2638 B( 28-H , 29-H ) :  -0.1252

Dispersion correction           -0.035199260
FINAL SINGLE POINT ENERGY      -636.549222977887

DIPOLE MOMENT
-------------
                                X             Y             Z
Electronic contribution:     -5.85268       0.06665     -13.43721
Nuclear contribution   :      4.38568       1.15960      13.97148
                        -----------------------------------------
Total Dipole Moment    :     -1.46700       1.22625       0.53427
                        -----------------------------------------
Magnitude (a.u.)       :      1.98525
Magnitude (Debye)      :      5.04611

Rotational constants in cm-1:     0.032892     0.023844     0.017123
Rotational constants in MHz :   986.091711   714.821905   513.334630

                             ****ORCA TERMINATED NORMALLY****
TOTAL RUN TIME: 0 days 0 hours 0 minutes 44 seconds 465 msec
