                         Program Version 5.0.0 -  RELEASE  -
|  1> !PBE D3BJ RIJCOSX def2-SVPD def2/J TightSCF xyzfile
|  2>
|  3> *xyzfile 0 1 D6.xyz
|  4>
|  5> %MaxCore 64000
|  6>
|  7> %pal nprocs 4
|  8> end
|  9>
| 10> %scf
| 11>   MaxIter 150
| 12> end
| 13>
| 14>
| 15>                          ****END OF INPUT****

CARTESIAN COORDINATES (ANGSTROEM)
---------------------------------
  C      2.234473   -2.989754   -2.397622
  N      2.756799   -2.945553   -3.765029
  C     -1.104325    0.251374   -2.860056
  C     -0.711893    0.842517   -4.218344
  H      0.154626    1.499800   -4.130909
  H     -1.538134    1.459222   -4.582671
  C     -0.397624   -0.205875   -5.288018
  C      1.987208   -2.590451   -4.818975
  N      0.743221   -3.017493   -4.913524
  C      2.499636   -1.848598   -5.803241
  H      3.309780   -1.292818   -5.558947
  H      1.801025   -1.304298   -6.289129
  H      3.716116   -2.628797   -3.829533
  H      0.395828   -3.627747   -4.185024
  H      0.039201   -2.454383   -5.371367
  O      0.617165   -0.005348   -5.998273
  F     -1.133173   -1.221380   -5.341465
  C      2.191199   -1.619503   -1.715492
  H      2.872783   -3.666368   -1.828014
  H      1.246188   -3.447444   -2.407842
  C      1.298729   -0.554314   -2.359773
  H      1.872917   -1.787955   -0.681310
  H      3.216809   -1.238432   -1.654428
  C     -0.196255   -0.863365   -2.325763
  H      1.612531   -0.371346   -3.393065
  H      1.480944    0.388638   -1.834444
  H     -0.404105   -1.761825   -2.909448
  H     -0.490439   -1.087880   -1.294131
  H     -1.143842    1.066711   -2.129680
  H     -2.114401   -0.156834   -2.930323

 Total Charge           Charge          ....    0
 Multiplicity           Mult            ....    1
 Number of Electrons    NEL             ....  102
 Basis Dimension        Dim             ....  402

ORBITAL ENERGIES
----------------

  NO   OCC          E(Eh)            E(eV)
   0   2.0000     -24.363992      -662.9779
   1   2.0000     -18.781127      -511.0605
   2   2.0000     -13.997163      -380.8822
   3   2.0000     -13.992155      -380.7459
   4   2.0000     -10.070962      -274.0448
   5   2.0000      -9.931497      -270.2498
   6   2.0000      -9.929909      -270.2066
   7   2.0000      -9.926642      -270.1177
   8   2.0000      -9.917183      -269.8603
   9   2.0000      -9.905575      -269.5444
  10   2.0000      -9.901447      -269.4321
  11   2.0000      -9.899559      -269.3807
  12   2.0000      -9.793318      -266.4897
  13   2.0000      -1.226025       -33.3618
  14   2.0000      -0.950031       -25.8517
  15   2.0000      -0.873529       -23.7699
  16   2.0000      -0.798775       -21.7358
  17   2.0000      -0.752070       -20.4649
  18   2.0000      -0.713637       -19.4191
  19   2.0000      -0.669567       -18.2198
  20   2.0000      -0.639346       -17.3975
  21   2.0000      -0.615299       -16.7431
  22   2.0000      -0.596062       -16.2197
  23   2.0000      -0.554263       -15.0823
  24   2.0000      -0.546966       -14.8837
  25   2.0000      -0.522139       -14.2081
  26   2.0000      -0.507733       -13.8161
  27   2.0000      -0.496664       -13.5149
  28   2.0000      -0.480592       -13.0776
  29   2.0000      -0.452521       -12.3137
  30   2.0000      -0.443465       -12.0673
  31   2.0000      -0.433009       -11.7828
  32   2.0000      -0.423820       -11.5327
  33   2.0000      -0.414391       -11.2762
  34   2.0000      -0.399523       -10.8716
  35   2.0000      -0.391686       -10.6583
  36   2.0000      -0.369606       -10.0575
  37   2.0000      -0.364406        -9.9160
  38   2.0000      -0.346100        -9.4179
  39   2.0000      -0.341869        -9.3027
  40   2.0000      -0.338435        -9.2093
  41   2.0000      -0.329695        -8.9715
  42   2.0000      -0.325156        -8.8479
  43   2.0000      -0.316328        -8.6077
  44   2.0000      -0.295792        -8.0489
  45   2.0000      -0.295051        -8.0288
  46   2.0000      -0.293608        -7.9895
  47   2.0000      -0.287004        -7.8098
  48   2.0000      -0.242193        -6.5904
  49   2.0000      -0.207619        -5.6496
  50   2.0000      -0.130432        -3.5492
  51   0.0000      -0.078139        -2.1263
  52   0.0000      -0.014331        -0.3900
  53   0.0000       0.001268         0.0345
  54   0.0000       0.003641         0.0991
  55   0.0000       0.017359         0.4724

MULLIKEN ATOMIC CHARGES
-----------------------
   0 C :    0.877737
   1 N :   -0.504407
   2 C :    0.558212
   3 C :    0.163542
   4 H :    0.191958
   5 H :   -0.261333
   6 C :    0.543344
   7 C :    0.286274
   8 N :    0.384430
   9 C :    0.721811
  10 H :   -0.083479
  11 H :   -0.575682
  12 H :   -0.150210
  13 H :   -0.051810
  14 H :   -0.334572
  15 O :   -0.460225
  16 F :   -0.426975
  17 C :    0.337211
  18 H :   -0.404642
  19 H :   -0.006681
  20 C :   -0.068112
  21 H :    0.022312
  22 H :   -0.109184
  23 C :   -0.066338
  24 H :   -0.019090
  25 H :   -0.233795
  26 H :   -0.134291
  27 H :   -0.141128
  28 H :   -0.106084
  29 H :    0.051204
Sum of atomic charges:    0.0000000

LOEWDIN ATOMIC CHARGES
----------------------
   0 C :    0.045360
   1 N :    0.016797
   2 C :   -0.024445
   3 C :    0.058135
   4 H :    0.036443
   5 H :    0.038560
   6 C :   -0.007363
   7 C :   -0.242402
   8 N :    0.243258
   9 C :    0.164900
  10 H :   -0.090678
  11 H :   -0.162746
  12 H :    0.023598
  13 H :   -0.013962
  14 H :   -0.061563
  15 O :   -0.100246
  16 F :   -0.018763
  17 C :   -0.018569
  18 H :    0.016285
  19 H :   -0.000237
  20 C :   -0.021479
  21 H :    0.020272
  22 H :    0.022898
  23 C :   -0.031988
  24 H :    0.011073
  25 H :    0.027717
  26 H :   -0.010152
  27 H :    0.028281
  28 H :    0.027252
  29 H :    0.023762

  Mayer bond orders larger than 0.100000
B(  0-C ,  1-N ) :   0.9414 B(  0-C , 12-H ) :  -0.1128 B(  0-C , 17-C ) :   1.1108
B(  0-C , 18-H ) :   0.7486 B(  0-C , 19-H ) :   0.7432 B(  0-C , 21-H ) :   0.1528
B(  0-C , 22-H ) :   0.1558 B(  1-N ,  7-C ) :   0.9997 B(  1-N ,  8-N ) :   0.1017
B(  1-N ,  9-C ) :   0.2381 B(  1-N , 12-H ) :   1.1268 B(  1-N , 18-H ) :   0.2592
B(  1-N , 19-H ) :   0.1304 B(  2-C ,  3-C ) :   1.1861 B(  2-C ,  5-H ) :   0.1794
B(  2-C , 23-C ) :   1.2636 B(  2-C , 28-H ) :   0.7722 B(  2-C , 29-H ) :   0.5994
B(  3-C ,  4-H ) :   0.7999 B(  3-C ,  5-H ) :   0.7578 B(  3-C ,  6-C ) :   1.1827
B(  3-C , 23-C ) :   0.1107 B(  3-C , 28-H ) :   0.1522 B(  3-C , 29-H ) :   0.1046
B(  4-H ,  6-C ) :   0.2064 B(  5-H ,  6-C ) :   0.1945 B(  6-C , 15-O ) :   1.7035
B(  6-C , 16-F ) :   0.5814 B(  7-C ,  8-N ) :   0.9601 B(  7-C ,  9-C ) :   1.8571
B(  7-C , 10-H ) :   0.3343 B(  7-C , 11-H ) :   0.3747 B(  7-C , 12-H ) :  -0.1322
B(  8-N ,  9-C ) :   0.2555 B(  8-N , 13-H ) :   0.9323 B(  8-N , 14-H ) :   1.0059
B(  9-C , 10-H ) :   0.4537 B(  9-C , 11-H ) :   0.2394 B( 10-H , 11-H ) :   0.3408
B( 11-H , 15-O ) :   0.2169 B( 13-H , 14-H ) :  -0.2164 B( 17-C , 18-H ) :   0.1279
B( 17-C , 19-H ) :   0.1374 B( 17-C , 20-C ) :   1.2577 B( 17-C , 21-H ) :   0.7881
B( 17-C , 22-H ) :   0.6754 B( 17-C , 24-H ) :   0.1279 B( 18-H , 19-H ) :  -0.1555
B( 20-C , 21-H ) :   0.1734 B( 20-C , 22-H ) :   0.2680 B( 20-C , 23-C ) :   1.3249
B( 20-C , 24-H ) :   0.8955 B( 20-C , 25-H ) :   0.8163 B( 20-C , 26-H ) :   0.1726
B( 20-C , 27-H ) :   0.2266 B( 21-H , 22-H ) :  -0.1114 B( 23-C , 24-H ) :   0.1466
B( 23-C , 25-H ) :   0.1958 B( 23-C , 26-H ) :   0.8919 B( 23-C , 27-H ) :   0.7502
B( 23-C , 28-H ) :   0.1859 B( 23-C , 29-H ) :   0.2627 B( 28-H , 29-H ) :  -0.1287

Dispersion correction           -0.035139198
FINAL SINGLE POINT ENERGY      -636.523110794361

DIPOLE MOMENT
-------------
                                X             Y             Z
Electronic contribution:     -5.59433      -0.81238     -11.75512
Nuclear contribution   :      4.34606       1.32859      13.65749
                        -----------------------------------------
Total Dipole Moment    :     -1.24826       0.51621       1.90237
                        -----------------------------------------
Magnitude (a.u.)       :      2.33316
Magnitude (Debye)      :      5.93042

Rotational constants in cm-1:     0.033551     0.023540     0.017085
Rotational constants in MHz :  1005.818710   705.725032   512.192443

                             ****ORCA TERMINATED NORMALLY****
TOTAL RUN TIME: 0 days 0 hours 0 minutes 41 seconds 951 msec
