                         Program Version 5.0.0 -  RELEASE  -
|  1> !LC-PBE RIJCOSX def2-SVPD def2/J TightSCF
|  2> *xyz -1 1
|  3> C          1.44442        5.26658       -0.97546
|  4> O          1.56525        4.23349       -1.86489
|  5> C         -1.07389        4.84473       -0.97990
|  6> C          0.14812        5.21087       -0.13809
|  7> H          1.47425        6.26464       -1.47692
|  8> H          2.28962        5.30327       -0.26445
|  9> H          0.26183        4.45094        0.64071
| 10> H         -0.00252        6.17103        0.37148
| 11> H         -1.20745        5.57445       -1.75098
| 12> H         -1.94291        4.82190       -0.35605
| 13> H         -0.92683        3.88150       -1.42201
| 14> *
| 15> %MaxCore 64000
| 16>
| 17> %pal nprocs 4
| 18> end
| 19>
| 20> %scf
| 21>   MaxIter 150
| 22> end
| 23>
| 24>
| 25>                          ****END OF INPUT****

CARTESIAN COORDINATES (ANGSTROEM)
---------------------------------
  C      1.444420    5.266580   -0.975460
  O      1.565250    4.233490   -1.864890
  C     -1.073890    4.844730   -0.979900
  C      0.148120    5.210870   -0.138090
  H      1.474250    6.264640   -1.476920
  H      2.289620    5.303270   -0.264450
  H      0.261830    4.450940    0.640710
  H     -0.002520    6.171030    0.371480
  H     -1.207450    5.574450   -1.750980
  H     -1.942910    4.821900   -0.356050
  H     -0.926830    3.881500   -1.422010

 Total Charge           Charge          ....   -1
 Multiplicity           Mult            ....    1
 Number of Electrons    NEL             ....   34
 Basis Dimension        Dim             ....  139

ORBITAL ENERGIES
----------------

  NO   OCC          E(Eh)            E(eV)
   0   2.0000     -18.651943      -507.5452
   1   2.0000      -9.941548      -270.5233
   2   2.0000      -9.938823      -270.4491
   3   2.0000      -9.936021      -270.3729
   4   2.0000      -0.840897       -22.8820
   5   2.0000      -0.746794       -20.3213
   6   2.0000      -0.625695       -17.0260
   7   2.0000      -0.511899       -13.9295
   8   2.0000      -0.420470       -11.4416
   9   2.0000      -0.408278       -11.1098
  10   2.0000      -0.350831        -9.5466
  11   2.0000      -0.321828        -8.7574
  12   2.0000      -0.292881        -7.9697
  13   2.0000      -0.278232        -7.5711
  14   2.0000      -0.242379        -6.5955
  15   2.0000      -0.097738        -2.6596
  16   2.0000      -0.092792        -2.5250
  17   0.0000       0.232418         6.3244
  18   0.0000       0.256419         6.9775
  19   0.0000       0.275236         7.4896
  20   0.0000       0.304782         8.2935
  21   0.0000       0.326216         8.8768

MULLIKEN ATOMIC CHARGES
-----------------------
   0 C :    0.239514
   1 O :   -0.849462
   2 C :    0.403791
   3 C :   -0.573103
   4 H :   -0.054850
   5 H :   -0.103738
   6 H :   -0.000837
   7 H :   -0.032969
   8 H :   -0.023786
   9 H :   -0.042774
  10 H :    0.038212
Sum of atomic charges:   -1.0000000

LOEWDIN ATOMIC CHARGES
----------------------
   0 C :   -0.246980
   1 O :   -0.569024
   2 C :    0.052191
   3 C :   -0.137676
   4 H :   -0.012248
   5 H :   -0.019510
   6 H :    0.009815
   7 H :    0.002644
   8 H :   -0.017432
   9 H :   -0.037803
  10 H :   -0.023977

  Mayer bond orders larger than 0.100000
B(  0-C ,  1-O ) :   1.3154 B(  0-C ,  3-C ) :   1.0681 B(  0-C ,  4-H ) :   0.9587
B(  0-C ,  5-H ) :   0.9788 B(  2-C ,  3-C ) :   1.2794 B(  2-C ,  8-H ) :   0.8592
B(  2-C ,  9-H ) :   0.8400 B(  2-C , 10-H ) :   0.8537 B(  3-C ,  4-H ) :   0.1069
B(  3-C ,  5-H ) :   0.1048 B(  3-C ,  6-H ) :   0.9733 B(  3-C ,  7-H ) :   1.0063
B(  3-C ,  8-H ) :   0.1646 B(  3-C ,  9-H ) :   0.1614 B(  3-C , 10-H ) :   0.1670

FINAL SINGLE POINT ENERGY      -192.998084573660

DIPOLE MOMENT
-------------
                                X             Y             Z
Electronic contribution:      2.01333      -1.23404      -1.34874
Nuclear contribution   :     -3.50495       2.13585       2.58010
                        -----------------------------------------
Total Dipole Moment    :     -1.49162       0.90181       1.23136
                        -----------------------------------------
Magnitude (a.u.)       :      2.13411
Magnitude (Debye)      :      5.42448

Rotational constants in cm-1:     0.478988     0.188199     0.150738
Rotational constants in MHz : 14359.706344  5642.078771  4519.011003

                             ****ORCA TERMINATED NORMALLY****
TOTAL RUN TIME: 0 days 0 hours 0 minutes 11 seconds 422 msec
