                         Program Version 5.0.0 -  RELEASE  -
|  1> !LC-PBE RIJCOSX def2-SVPD def2/J TightSCF
|  2> *xyz 1 1
|  3> C         -0.70169        4.07250       -4.00392
|  4> N          0.68053        4.61482       -4.04800
|  5> H          0.69993        5.58489       -4.38827
|  6> H          1.27804        4.05598       -4.66824
|  7> H          1.08573        4.53358       -3.10652
|  8> C         -1.70347        5.09320       -3.47740
|  9> H         -0.99590        3.74039       -5.00065
| 10> H         -0.64358        3.20191       -3.35153
| 11> C         -1.31400        5.78600       -2.16927
| 12> H         -1.87706        5.85010       -4.25115
| 13> H         -2.65326        4.56448       -3.35480
| 14> H         -0.38448        6.29945       -2.30062
| 15> H         -1.21111        5.05451       -1.39516
| 16> H         -2.07413        6.48833       -1.89758
| 17> *
| 18> %MaxCore 64000
| 19>
| 20> %pal nprocs 4
| 21> end
| 22>
| 23> %scf
| 24>   MaxIter 150
| 25> end
| 26>
| 27>
| 28>                          ****END OF INPUT****

CARTESIAN COORDINATES (ANGSTROEM)
---------------------------------
  C     -0.701690    4.072500   -4.003920
  N      0.680530    4.614820   -4.048000
  H      0.699930    5.584890   -4.388270
  H      1.278040    4.055980   -4.668240
  H      1.085730    4.533580   -3.106520
  C     -1.703470    5.093200   -3.477400
  H     -0.995900    3.740390   -5.000650
  H     -0.643580    3.201910   -3.351530
  C     -1.314000    5.786000   -2.169270
  H     -1.877060    5.850100   -4.251150
  H     -2.653260    4.564480   -3.354800
  H     -0.384480    6.299450   -2.300620
  H     -1.211110    5.054510   -1.395160
  H     -2.074130    6.488330   -1.897580

 Total Charge           Charge          ....    1
 Multiplicity           Mult            ....    1
 Number of Electrons    NEL             ....   34
 Basis Dimension        Dim             ....  160

ORBITAL ENERGIES
----------------

  NO   OCC          E(Eh)            E(eV)
   0   2.0000     -14.560572      -396.2133
   1   2.0000     -10.375307      -282.3265
   2   2.0000     -10.306350      -280.4501
   3   2.0000     -10.274487      -279.5830
   4   2.0000      -1.379066       -37.5263
   5   2.0000      -1.144225       -31.1360
   6   2.0000      -1.049169       -28.5493
   7   2.0000      -0.959533       -26.1102
   8   2.0000      -0.938892       -25.5486
   9   2.0000      -0.924615       -25.1600
  10   2.0000      -0.829928       -22.5835
  11   2.0000      -0.778439       -21.1824
  12   2.0000      -0.749133       -20.3849
  13   2.0000      -0.722705       -19.6658
  14   2.0000      -0.659971       -17.9587
  15   2.0000      -0.654472       -17.8091
  16   2.0000      -0.638313       -17.3694
  17   0.0000      -0.105558        -2.8724
  18   0.0000      -0.049931        -1.3587
  19   0.0000      -0.047816        -1.3011
  20   0.0000      -0.039484        -1.0744
  21   0.0000      -0.010774        -0.2932

MULLIKEN ATOMIC CHARGES
-----------------------
   0 C :    0.341754
   1 N :   -0.745179
   2 H :    0.408989
   3 H :    0.331071
   4 H :    0.441109
   5 C :   -0.511232
   6 H :    0.031655
   7 H :    0.050446
   8 C :    0.485889
   9 H :    0.045577
  10 H :    0.068114
  11 H :   -0.020969
  12 H :    0.050505
  13 H :    0.022272
Sum of atomic charges:    1.0000000

LOEWDIN ATOMIC CHARGES
----------------------
   0 C :    0.060059
   1 N :    0.316172
   2 H :    0.115258
   3 H :    0.114504
   4 H :    0.110928
   5 C :   -0.071935
   6 H :    0.064383
   7 H :    0.064296
   8 C :    0.113470
   9 H :    0.047382
  10 H :    0.057131
  11 H :   -0.016902
  12 H :    0.008655
  13 H :    0.016597

  Mayer bond orders larger than 0.100000
B(  0-C ,  1-N ) :   0.8379 B(  0-C ,  5-C ) :   1.1878 B(  0-C ,  6-H ) :   0.9566
B(  0-C ,  7-H ) :   0.8877 B(  0-C , 10-H ) :   0.1134 B(  1-N ,  2-H ) :   0.7348
B(  1-N ,  3-H ) :   0.8324 B(  1-N ,  4-H ) :   0.7398 B(  5-C ,  8-C ) :   1.3023
B(  5-C ,  9-H ) :   0.9670 B(  5-C , 10-H ) :   0.9524 B(  5-C , 11-H ) :   0.1418
B(  5-C , 12-H ) :   0.1514 B(  5-C , 13-H ) :   0.1654 B(  8-C , 11-H ) :   0.8650
B(  8-C , 12-H ) :   0.8407 B(  8-C , 13-H ) :   0.8506

FINAL SINGLE POINT ENERGY      -174.142543923529

DIPOLE MOMENT
-------------
                                X             Y             Z
Electronic contribution:      1.56448      -0.91737      -1.47283
Nuclear contribution   :      0.19992       0.44181       0.60618
                        -----------------------------------------
Total Dipole Moment    :      1.76439      -0.47555      -0.86665
                        -----------------------------------------
Magnitude (a.u.)       :      2.02245
Magnitude (Debye)      :      5.14066

Rotational constants in cm-1:     0.427003     0.166237     0.135950
Rotational constants in MHz : 12801.234133  4983.663157  4075.681698

                             ****ORCA TERMINATED NORMALLY****
TOTAL RUN TIME: 0 days 0 hours 0 minutes 13 seconds 902 msec
