                         Program Version 5.0.0 -  RELEASE  -
|  1> !LC-PBE RIJCOSX def2-SVPD def2/J TightSCF xyzfile
|  2>
|  3> *xyzfile 0 1 B.xyz
|  4>
|  5> %MaxCore 64000
|  6>
|  7> %pal nprocs 4
|  8> end
|  9>
| 10> %scf
| 11>   MaxIter 150
| 12> end
| 13>
| 14>
| 15>                          ****END OF INPUT****

CARTESIAN COORDINATES (ANGSTROEM)
---------------------------------
  C     -0.701686    4.072499   -4.003920
  N      0.680528    4.614820   -4.048005
  C      1.444422    5.266576   -0.975463
  O      1.565248    4.233493   -1.864885
  H      0.699926    5.584890   -4.388272
  H      1.278044    4.055977   -4.668235
  H      1.085729    4.533581   -3.106524
  C     -1.703475    5.093197   -3.477396
  H     -0.995895    3.740394   -5.000654
  H     -0.643580    3.201910   -3.351533
  C     -1.313997    5.785995   -2.169271
  H     -1.877057    5.850103   -4.251154
  H     -2.653264    4.564475   -3.354796
  H     -2.097137    6.509395   -1.929558
  H     -0.416875    6.387594   -2.339097
  C     -1.073895    4.844728   -0.979904
  H     -1.968893    4.809608   -0.352568
  C      0.148120    5.210874   -0.138092
  H     -0.909754    3.827531   -1.338975
  H      1.474250    6.264638   -1.476917
  H      2.289622    5.303267   -0.264450
  H      0.261827    4.450942    0.640711
  H     -0.002516    6.171031    0.371483

 Total Charge           Charge          ....    0
 Multiplicity           Mult            ....    1
 Number of Electrons    NEL             ....   66
 Basis Dimension        Dim             ....  283

ORBITAL ENERGIES
----------------

  NO   OCC          E(Eh)            E(eV)
   0   2.0000     -18.857395      -513.1358
   1   2.0000     -14.307961      -389.3394
   2   2.0000     -10.194202      -277.3983
   3   2.0000     -10.149500      -276.1819
   4   2.0000     -10.124578      -275.5038
   5   2.0000     -10.112154      -275.1657
   6   2.0000     -10.102465      -274.9020
   7   2.0000     -10.084078      -274.4017
   8   2.0000      -1.155811       -31.4512
   9   2.0000      -1.047704       -28.5095
  10   2.0000      -0.984251       -26.7828
  11   2.0000      -0.914925       -24.8964
  12   2.0000      -0.858895       -23.3717
  13   2.0000      -0.796017       -21.6607
  14   2.0000      -0.744942       -20.2709
  15   2.0000      -0.720533       -19.6067
  16   2.0000      -0.719006       -19.5651
  17   2.0000      -0.670378       -18.2419
  18   2.0000      -0.634432       -17.2638
  19   2.0000      -0.610147       -16.6030
  20   2.0000      -0.602882       -16.4053
  21   2.0000      -0.560305       -15.2467
  22   2.0000      -0.548908       -14.9365
  23   2.0000      -0.530451       -14.4343
  24   2.0000      -0.512350       -13.9418
  25   2.0000      -0.489308       -13.3148
  26   2.0000      -0.482654       -13.1337
  27   2.0000      -0.462696       -12.5906
  28   2.0000      -0.437859       -11.9148
  29   2.0000      -0.430312       -11.7094
  30   2.0000      -0.419656       -11.4194
  31   2.0000      -0.306154        -8.3309
  32   2.0000      -0.303780        -8.2663
  33   0.0000       0.063364         1.7242
  34   0.0000       0.093581         2.5465
  35   0.0000       0.098870         2.6904
  36   0.0000       0.114782         3.1234
  37   0.0000       0.134541         3.6610

MULLIKEN ATOMIC CHARGES
-----------------------
   0 C :    0.491025
   1 N :   -0.176490
   2 C :    0.312403
   3 O :   -0.604053
   4 H :    0.378220
   5 H :    0.334491
   6 H :   -0.482696
   7 C :   -0.024874
   8 H :   -0.171955
   9 H :    0.151165
  10 C :   -0.001223
  11 H :    0.082038
  12 H :   -0.031993
  13 H :   -0.132769
  14 H :    0.019351
  15 C :   -0.046108
  16 H :   -0.145833
  17 C :    0.033183
  18 H :    0.118503
  19 H :    0.189548
  20 H :   -0.305243
  21 H :    0.089582
  22 H :   -0.076270
Sum of atomic charges:    0.0000000

LOEWDIN ATOMIC CHARGES
----------------------
   0 C :    0.059082
   1 N :    0.304676
   2 C :   -0.103851
   3 O :   -0.391993
   4 H :    0.094858
   5 H :    0.098201
   6 H :   -0.203443
   7 C :   -0.044460
   8 H :    0.038826
   9 H :    0.045417
  10 C :   -0.038030
  11 H :    0.033778
  12 H :    0.043265
  13 H :    0.032762
  14 H :    0.004988
  15 C :   -0.046525
  16 H :    0.027196
  17 C :   -0.055633
  18 H :    0.011210
  19 H :    0.009901
  20 H :    0.019410
  21 H :    0.031193
  22 H :    0.029173

  Mayer bond orders larger than 0.100000
B(  0-C ,  1-N ) :   0.8491 B(  0-C ,  7-C ) :   1.2109 B(  0-C ,  8-H ) :   0.9813
B(  0-C ,  9-H ) :   0.7572 B(  0-C , 12-H ) :   0.1188 B(  1-N ,  4-H ) :   0.7535
B(  1-N ,  5-H ) :   0.8152 B(  1-N ,  6-H ) :   1.3396 B(  1-N ,  9-H ) :   0.1284
B(  2-C ,  3-O ) :   1.1147 B(  2-C , 17-C ) :   1.1433 B(  2-C , 19-H ) :   0.7705
B(  2-C , 20-H ) :   1.0916 B(  3-O ,  6-H ) :   0.5174 B(  7-C ,  9-H ) :   0.1058
B(  7-C , 10-C ) :   1.2399 B(  7-C , 11-H ) :   0.7855 B(  7-C , 12-H ) :   0.9461
B(  7-C , 13-H ) :   0.1056 B(  8-H ,  9-H ) :  -0.1084 B( 10-C , 11-H ) :   0.1557
B( 10-C , 13-H ) :   0.8661 B( 10-C , 14-H ) :   0.8964 B( 10-C , 15-C ) :   1.2122
B( 10-C , 16-H ) :   0.1785 B( 13-H , 15-C ) :   0.1339 B( 14-H , 15-C ) :   0.1029
B( 15-C , 16-H ) :   0.9213 B( 15-C , 17-C ) :   1.2715 B( 15-C , 18-H ) :   0.8415
B( 15-C , 21-H ) :   0.1669 B( 15-C , 22-H ) :   0.1080 B( 17-C , 20-H ) :   0.1163
B( 17-C , 21-H ) :   0.7704 B( 17-C , 22-H ) :   0.9561

FINAL SINGLE POINT ENERGY      -366.180373331770

DIPOLE MOMENT
-------------
                                X             Y             Z
Electronic contribution:      1.96557      -1.47086      -1.30072
Nuclear contribution   :     -3.16446       1.92310      -1.11926
                        -----------------------------------------
Total Dipole Moment    :     -1.19890       0.45225      -2.41998
                        -----------------------------------------
Magnitude (a.u.)       :      2.73828
Magnitude (Debye)      :      6.96015

Rotational constants in cm-1:     0.085554     0.055600     0.038553
Rotational constants in MHz :  2564.854379  1666.836664  1155.798427

                             ****ORCA TERMINATED NORMALLY****
TOTAL RUN TIME: 0 days 0 hours 1 minutes 7 seconds 408 msec
