                         Program Version 5.0.0 -  RELEASE  -
|  1> !LC-PBE RIJCOSX def2-SVPD def2/J TightSCF
|  2> *xyz 0 1
|  3> C          1.44442        5.26658       -0.97546
|  4> F          1.56525        4.23349       -1.86489
|  5> C         -1.07389        4.84473       -0.97990
|  6> C          0.14812        5.21087       -0.13809
|  7> H          1.47425        6.26464       -1.47692
|  8> H          2.28962        5.30327       -0.26445
|  9> H          0.26183        4.45094        0.64071
| 10> H         -0.00252        6.17103        0.37148
| 11> H         -1.20745        5.57445       -1.75098
| 12> H         -1.94291        4.82190       -0.35605
| 13> H         -0.92683        3.88150       -1.42201
| 14> *
| 15> %MaxCore 64000
| 16>
| 17> %pal nprocs 4
| 18> end
| 19>
| 20> %scf
| 21>   MaxIter 150
| 22> end
| 23>
| 24>
| 25>                          ****END OF INPUT****

CARTESIAN COORDINATES (ANGSTROEM)
---------------------------------
  C      1.444420    5.266580   -0.975460
  F      1.565250    4.233490   -1.864890
  C     -1.073890    4.844730   -0.979900
  C      0.148120    5.210870   -0.138090
  H      1.474250    6.264640   -1.476920
  H      2.289620    5.303270   -0.264450
  H      0.261830    4.450940    0.640710
  H     -0.002520    6.171030    0.371480
  H     -1.207450    5.574450   -1.750980
  H     -1.942910    4.821900   -0.356050
  H     -0.926830    3.881500   -1.422010

 Total Charge           Charge          ....    0
 Multiplicity           Mult            ....    1
 Number of Electrons    NEL             ....   34
 Basis Dimension        Dim             ....  139

ORBITAL ENERGIES
----------------

  NO   OCC          E(Eh)            E(eV)
   0   2.0000     -24.496228      -666.5762
   1   2.0000     -10.207485      -277.7598
   2   2.0000     -10.135433      -275.7991
   3   2.0000     -10.112091      -275.1640
   4   2.0000      -1.342140       -36.5215
   5   2.0000      -0.961263       -26.1573
   6   2.0000      -0.853888       -23.2355
   7   2.0000      -0.751052       -20.4372
   8   2.0000      -0.660530       -17.9739
   9   2.0000      -0.648282       -17.6406
  10   2.0000      -0.623301       -16.9609
  11   2.0000      -0.580518       -15.7967
  12   2.0000      -0.537869       -14.6362
  13   2.0000      -0.510706       -13.8970
  14   2.0000      -0.488459       -13.2916
  15   2.0000      -0.459362       -12.4999
  16   2.0000      -0.451609       -12.2889
  17   0.0000       0.090448         2.4612
  18   0.0000       0.115268         3.1366
  19   0.0000       0.125568         3.4169
  20   0.0000       0.147661         4.0181
  21   0.0000       0.170393         4.6366

MULLIKEN ATOMIC CHARGES
-----------------------
   0 C :    0.505922
   1 F :   -0.416716
   2 C :    0.380436
   3 C :   -0.608761
   4 H :    0.051934
   5 H :    0.002176
   6 H :    0.026324
   7 H :    0.013693
   8 H :    0.001694
   9 H :   -0.003373
  10 H :    0.046672
Sum of atomic charges:   -0.0000000

LOEWDIN ATOMIC CHARGES
----------------------
   0 C :    0.068724
   1 F :   -0.203346
   2 C :    0.086644
   3 C :   -0.090259
   4 H :    0.048415
   5 H :    0.039317
   6 H :    0.030798
   7 H :    0.037725
   8 H :   -0.003354
   9 H :   -0.007919
  10 H :   -0.006744

  Mayer bond orders larger than 0.100000
B(  0-C ,  1-F ) :   0.8041 B(  0-C ,  3-C ) :   1.1831 B(  0-C ,  4-H ) :   0.9204
B(  0-C ,  5-H ) :   0.9522 B(  2-C ,  3-C ) :   1.2943 B(  2-C ,  8-H ) :   0.8648
B(  2-C ,  9-H ) :   0.8669 B(  2-C , 10-H ) :   0.8596 B(  3-C ,  6-H ) :   0.9744
B(  3-C ,  7-H ) :   0.9910 B(  3-C ,  8-H ) :   0.1476 B(  3-C ,  9-H ) :   0.1488
B(  3-C , 10-H ) :   0.1358

FINAL SINGLE POINT ENERGY      -217.585668105346

DIPOLE MOMENT
-------------
                                X             Y             Z
Electronic contribution:      4.60287      -2.40078      -3.10919
Nuclear contribution   :     -4.76356       2.92420       3.62609
                        -----------------------------------------
Total Dipole Moment    :     -0.16069       0.52342       0.51690
                        -----------------------------------------
Magnitude (a.u.)       :      0.75298
Magnitude (Debye)      :      1.91392

Rotational constants in cm-1:     0.464485     0.177633     0.142630
Rotational constants in MHz : 13924.923489  5325.290206  4275.938589

                             ****ORCA TERMINATED NORMALLY****
TOTAL RUN TIME: 0 days 0 hours 0 minutes 9 seconds 565 msec
