                         Program Version 5.0.0 -  RELEASE  -
|  1> !LC-PBE RIJCOSX def2-SVPD def2/J TightSCF
|  2> *xyz 0 1
|  3> C         -0.70169        4.07250       -4.00392
|  4> C          0.68053        4.61482       -4.04800
|  5> H          0.69993        5.58489       -4.38827
|  6> H          1.27804        4.05598       -4.66824
|  7> H          1.08573        4.53358       -3.10652
|  8> C         -1.70347        5.09320       -3.47740
|  9> H         -0.99590        3.74039       -5.00065
| 10> H         -0.64358        3.20191       -3.35153
| 11> C         -1.31400        5.78600       -2.16927
| 12> H         -1.87706        5.85010       -4.25115
| 13> H         -2.65326        4.56448       -3.35480
| 14> H         -0.38448        6.29945       -2.30062
| 15> H         -1.21111        5.05451       -1.39516
| 16> H         -2.07413        6.48833       -1.89758
| 17> *
| 18> %MaxCore 64000
| 19>
| 20> %pal nprocs 4
| 21> end
| 22>
| 23> %scf
| 24>   MaxIter 150
| 25> end
| 26>
| 27>
| 28>                          ****END OF INPUT****

CARTESIAN COORDINATES (ANGSTROEM)
---------------------------------
  C     -0.701690    4.072500   -4.003920
  C      0.680530    4.614820   -4.048000
  H      0.699930    5.584890   -4.388270
  H      1.278040    4.055980   -4.668240
  H      1.085730    4.533580   -3.106520
  C     -1.703470    5.093200   -3.477400
  H     -0.995900    3.740390   -5.000650
  H     -0.643580    3.201910   -3.351530
  C     -1.314000    5.786000   -2.169270
  H     -1.877060    5.850100   -4.251150
  H     -2.653260    4.564480   -3.354800
  H     -0.384480    6.299450   -2.300620
  H     -1.211110    5.054510   -1.395160
  H     -2.074130    6.488330   -1.897580

 Total Charge           Charge          ....    0
 Multiplicity           Mult            ....    1
 Number of Electrons    NEL             ....   34
 Basis Dimension        Dim             ....  160

ORBITAL ENERGIES
----------------

  NO   OCC          E(Eh)            E(eV)
   0   2.0000     -10.116948      -275.2962
   1   2.0000     -10.112054      -275.1630
   2   2.0000     -10.105187      -274.9761
   3   2.0000     -10.086209      -274.4597
   4   2.0000      -0.978161       -26.6171
   5   2.0000      -0.895122       -24.3575
   6   2.0000      -0.807159       -21.9639
   7   2.0000      -0.715724       -19.4758
   8   2.0000      -0.616790       -16.7837
   9   2.0000      -0.609459       -16.5842
  10   2.0000      -0.566386       -15.4121
  11   2.0000      -0.524599       -14.2751
  12   2.0000      -0.519694       -14.1416
  13   2.0000      -0.496816       -13.5190
  14   2.0000      -0.450848       -12.2682
  15   2.0000      -0.448071       -12.1926
  16   2.0000      -0.442688       -12.0462
  17   0.0000       0.094260         2.5649
  18   0.0000       0.118882         3.2349
  19   0.0000       0.119459         3.2506
  20   0.0000       0.134611         3.6630
  21   0.0000       0.168464         4.5841

MULLIKEN ATOMIC CHARGES
-----------------------
   0 C :   -0.389918
   1 C :    0.699556
   2 H :   -0.125503
   3 H :   -0.263900
   4 H :    0.027658
   5 C :   -0.470368
   6 H :   -0.018203
   7 H :    0.024061
   8 C :    0.424555
   9 H :    0.071646
  10 H :   -0.022747
  11 H :    0.028156
  12 H :    0.019306
  13 H :   -0.004297
Sum of atomic charges:   -0.0000000

LOEWDIN ATOMIC CHARGES
----------------------
   0 C :   -0.106098
   1 C :    0.081055
   2 H :   -0.015831
   3 H :   -0.023993
   4 H :   -0.018539
   5 C :   -0.107755
   6 H :    0.033380
   7 H :    0.034530
   8 C :    0.091444
   9 H :    0.033667
  10 H :    0.026360
  11 H :   -0.016290
  12 H :   -0.003412
  13 H :   -0.008517

  Mayer bond orders larger than 0.100000
B(  0-C ,  1-C ) :   1.3013 B(  0-C ,  2-H ) :   0.1971 B(  0-C ,  3-H ) :   0.1882
B(  0-C ,  4-H ) :   0.2168 B(  0-C ,  5-C ) :   1.1888 B(  0-C ,  6-H ) :   0.9627
B(  0-C ,  7-H ) :   0.9029 B(  0-C , 10-H ) :   0.1198 B(  1-C ,  2-H ) :   0.7914
B(  1-C ,  3-H ) :   0.8262 B(  1-C ,  4-H ) :   0.7412 B(  1-C ,  7-H ) :   0.1125
B(  5-C ,  7-H ) :   0.1086 B(  5-C ,  8-C ) :   1.3184 B(  5-C ,  9-H ) :   0.9258
B(  5-C , 10-H ) :   0.9746 B(  5-C , 11-H ) :   0.1551 B(  5-C , 12-H ) :   0.1528
B(  5-C , 13-H ) :   0.1746 B(  8-C , 11-H ) :   0.8720 B(  8-C , 12-H ) :   0.8437
B(  8-C , 13-H ) :   0.8171

FINAL SINGLE POINT ENERGY      -157.761416353236

DIPOLE MOMENT
-------------
                                X             Y             Z
Electronic contribution:     -0.62909      -0.37751      -0.43179
Nuclear contribution   :      0.63648       0.35464       0.41252
                        -----------------------------------------
Total Dipole Moment    :      0.00739      -0.02287      -0.01927
                        -----------------------------------------
Magnitude (a.u.)       :      0.03080
Magnitude (Debye)      :      0.07830

Rotational constants in cm-1:     0.435124     0.173315     0.141457
Rotational constants in MHz : 13044.691962  5195.845291  4240.763698

                             ****ORCA TERMINATED NORMALLY****
TOTAL RUN TIME: 0 days 0 hours 0 minutes 13 seconds 69 msec
