                         Program Version 5.0.0 -  RELEASE  -
|  1> !TPSS D3BJ RIJCOSX def2-TZVPD def2/J TightSCF
|  2> *xyz -1 1
|  3> C          4.90646       -3.10282       -5.95484
|  4> C          3.51177       -2.80621       -6.49228
|  5> H          2.73604       -3.37345       -5.97374
|  6> H          3.44490       -3.04083       -7.55528
|  7> S          3.00462       -1.09621       -6.38926
|  8> O          4.12886       -0.32965       -6.95372
|  9> O          1.78128       -1.00078       -7.13640
| 10> O          2.85155       -0.78368       -4.95679
| 11> H          5.62703       -2.52424       -6.49422
| 12> H          5.12164       -4.14387       -6.07654
| 13> H          4.95004       -2.84862       -4.91639
| 14> *
| 15>
| 16> %MaxCore 64000
| 17>
| 18> %pal nprocs 4
| 19> end
| 20>
| 21> %scf
| 22>   MaxIter 150
| 23> end
| 24>
| 25>
| 26>                          ****END OF INPUT****

CARTESIAN COORDINATES (ANGSTROEM)
---------------------------------
  C      4.906460   -3.102820   -5.954840
  C      3.511770   -2.806210   -6.492280
  H      2.736040   -3.373450   -5.973740
  H      3.444900   -3.040830   -7.555280
  S      3.004620   -1.096210   -6.389260
  O      4.128860   -0.329650   -6.953720
  O      1.781280   -1.000780   -7.136400
  O      2.851550   -0.783680   -4.956790
  H      5.627030   -2.524240   -6.494220
  H      5.121640   -4.143870   -6.076540
  H      4.950040   -2.848620   -4.916390

 Total Charge           Charge          ....   -1
 Multiplicity           Mult            ....    1
 Number of Electrons    NEL             ....   58
 Basis Dimension        Dim             ....  285

ORBITAL ENERGIES
----------------

  NO   OCC          E(Eh)            E(eV)
   0   2.0000     -88.324954     -2403.4442
   1   2.0000     -18.664603      -507.8897
   2   2.0000     -18.653601      -507.5903
   3   2.0000     -18.653149      -507.5780
   4   2.0000      -9.845369      -267.9061
   5   2.0000      -9.839735      -267.7528
   6   2.0000      -7.673921      -208.8180
   7   2.0000      -5.653267      -153.8332
   8   2.0000      -5.652687      -153.8174
   9   2.0000      -5.652471      -153.8115
  10   2.0000      -0.844835       -22.9891
  11   2.0000      -0.720596       -19.6084
  12   2.0000      -0.701437       -19.0871
  13   2.0000      -0.576139       -15.6775
  14   2.0000      -0.457252       -12.4425
  15   2.0000      -0.330673        -8.9981
  16   2.0000      -0.276585        -7.5263
  17   2.0000      -0.265015        -7.2114
  18   2.0000      -0.228784        -6.2255
  19   2.0000      -0.212897        -5.7932
  20   2.0000      -0.208234        -5.6663
  21   2.0000      -0.187343        -5.0979
  22   2.0000      -0.175229        -4.7682
  23   2.0000      -0.103474        -2.8157
  24   2.0000      -0.102493        -2.7890
  25   2.0000      -0.072021        -1.9598
  26   2.0000      -0.065035        -1.7697
  27   2.0000      -0.057649        -1.5687
  28   2.0000      -0.019301        -0.5252
  29   0.0000       0.114835         3.1248
  30   0.0000       0.137239         3.7345
  31   0.0000       0.143147         3.8952
  32   0.0000       0.152322         4.1449
  33   0.0000       0.169145         4.6027

MULLIKEN ATOMIC CHARGES
-----------------------
   0 C :   -0.975292
   1 C :   -0.297878
   2 H :    0.214343
   3 H :    0.214782
   4 S :    1.348052
   5 O :   -0.782149
   6 O :   -0.730878
   7 O :   -0.779029
   8 H :    0.284571
   9 H :    0.227987
  10 H :    0.275492
Sum of atomic charges:   -1.0000000

LOEWDIN ATOMIC CHARGES
----------------------
   0 C :   -0.141196
   1 C :   -0.333633
   2 H :    0.079661
   3 H :    0.077406
   4 S :    0.325802
   5 O :   -0.395012
   6 O :   -0.372723
   7 O :   -0.398224
   8 H :    0.054900
   9 H :    0.044598
  10 H :    0.058420

  Mayer bond orders larger than 0.100000
B(  0-C ,  1-C ) :   0.9642 B(  0-C ,  8-H ) :   0.9420 B(  0-C ,  9-H ) :   0.9462
B(  0-C , 10-H ) :   0.9422 B(  1-C ,  2-H ) :   0.9265 B(  1-C ,  3-H ) :   0.9373
B(  1-C ,  4-S ) :   0.8529 B(  1-C ,  5-O ) :   0.1404 B(  1-C ,  6-O ) :   0.1782
B(  1-C ,  7-O ) :   0.1490 B(  4-S ,  5-O ) :   1.3696 B(  4-S ,  6-O ) :   1.4051
B(  4-S ,  7-O ) :   1.3715

Dispersion correction           -0.012123275
FINAL SINGLE POINT ENERGY      -703.379781858824

DIPOLE MOMENT
-------------
                                X             Y             Z
Electronic contribution:     -4.38792       6.48139      -0.65639
Nuclear contribution   :      5.05690      -8.21735       0.57889
                        -----------------------------------------
Total Dipole Moment    :      0.66899      -1.73596      -0.07750
                        -----------------------------------------
Magnitude (a.u.)       :      1.86202
Magnitude (Debye)      :      4.73288

Rotational constants in cm-1:     0.162547     0.083494     0.081672
Rotational constants in MHz :  4873.033504  2503.090885  2448.458543

                             ****ORCA TERMINATED NORMALLY****
TOTAL RUN TIME: 0 days 0 hours 0 minutes 18 seconds 472 msec
