                         Program Version 5.0.0 -  RELEASE  -
|  1> !TPSS D3BJ RIJCOSX def2-TZVPD def2/J TightSCF
|  2> *xyz 1 1
|  3> C          4.49059        1.15590       -2.46929
|  4> N          4.30539        1.22276       -3.90832
|  5> C          4.63192        2.24637       -4.67096
|  6> N          4.54169        2.14399       -5.98714
|  7> N          5.08409        3.39358       -4.11855
|  8> H          4.92067        3.57050       -3.13587
|  9> H          5.25465        4.19739       -4.70696
| 10> H          3.82453        0.44911       -4.35093
| 11> H          4.34337        1.24932       -6.41665
| 12> H          4.67671        2.95662       -6.57411
| 13> C          5.94213        0.93950       -2.03689
| 14> H          3.86431        0.32853       -2.13661
| 15> H          4.07623        2.04999       -1.98901
| 16> H          6.32982        0.06401       -2.51451
| 17> H          5.98308        0.81426       -0.97504
| 18> H          6.52865        1.78889       -2.31873
| 19> *
| 20>
| 21> %MaxCore 64000
| 22>
| 23> %pal nprocs 4
| 24> end
| 25>
| 26> %scf
| 27>   MaxIter 150
| 28> end
| 29>
| 30>
| 31>                          ****END OF INPUT****

CARTESIAN COORDINATES (ANGSTROEM)
---------------------------------
  C      4.490590    1.155900   -2.469290
  N      4.305390    1.222760   -3.908320
  C      4.631920    2.246370   -4.670960
  N      4.541690    2.143990   -5.987140
  N      5.084090    3.393580   -4.118550
  H      4.920670    3.570500   -3.135870
  H      5.254650    4.197390   -4.706960
  H      3.824530    0.449110   -4.350930
  H      4.343370    1.249320   -6.416650
  H      4.676710    2.956620   -6.574110
  C      5.942130    0.939500   -2.036890
  H      3.864310    0.328530   -2.136610
  H      4.076230    2.049990   -1.989010
  H      6.329820    0.064010   -2.514510
  H      5.983080    0.814260   -0.975040
  H      6.528650    1.788890   -2.318730

 Total Charge           Charge          ....    1
 Multiplicity           Mult            ....    1
 Number of Electrons    NEL             ....   48
 Basis Dimension        Dim             ....  312

ORBITAL ENERGIES
----------------

  NO   OCC          E(Eh)            E(eV)
   0   2.0000     -14.323729      -389.7685
   1   2.0000     -14.323323      -389.7574
   2   2.0000     -14.321583      -389.7101
   3   2.0000     -10.307702      -280.4868
   4   2.0000     -10.192810      -277.3605
   5   2.0000     -10.120453      -275.3915
   6   2.0000      -1.147169       -31.2161
   7   2.0000      -1.044094       -28.4113
   8   2.0000      -1.030209       -28.0334
   9   2.0000      -0.874769       -23.8037
  10   2.0000      -0.794374       -21.6160
  11   2.0000      -0.751588       -20.4517
  12   2.0000      -0.736916       -20.0525
  13   2.0000      -0.696872       -18.9628
  14   2.0000      -0.647910       -17.6305
  15   2.0000      -0.645130       -17.5549
  16   2.0000      -0.614856       -16.7311
  17   2.0000      -0.580811       -15.8047
  18   2.0000      -0.563438       -15.3319
  19   2.0000      -0.517971       -14.0947
  20   2.0000      -0.494669       -13.4606
  21   2.0000      -0.476797       -12.9743
  22   2.0000      -0.436660       -11.8821
  23   2.0000      -0.413901       -11.2628
  24   0.0000      -0.194259        -5.2861
  25   0.0000      -0.174956        -4.7608
  26   0.0000      -0.142067        -3.8658
  27   0.0000      -0.135919        -3.6985
  28   0.0000      -0.114701        -3.1212

MULLIKEN ATOMIC CHARGES
-----------------------
   0 C :   -0.424015
   1 N :   -0.197228
   2 C :    0.893665
   3 N :   -0.368348
   4 N :   -0.352976
   5 H :    0.201835
   6 H :    0.164190
   7 H :    0.202382
   8 H :    0.177400
   9 H :    0.178461
  10 C :   -0.778121
  11 H :    0.204378
  12 H :    0.282662
  13 H :    0.260600
  14 H :    0.248825
  15 H :    0.306291
Sum of atomic charges:    1.0000000

LOEWDIN ATOMIC CHARGES
----------------------
   0 C :   -0.200877
   1 N :    0.087384
   2 C :   -0.441887
   3 N :    0.211884
   4 N :    0.219027
   5 H :    0.122626
   6 H :    0.135277
   7 H :    0.169210
   8 H :    0.140804
   9 H :    0.139048
  10 C :   -0.049876
  11 H :    0.127982
  12 H :    0.118747
  13 H :    0.077216
  14 H :    0.080507
  15 H :    0.062927

  Mayer bond orders larger than 0.100000
B(  0-C ,  1-N ) :   0.9487 B(  0-C , 10-C ) :   0.9382 B(  0-C , 11-H ) :   0.9356
B(  0-C , 12-H ) :   0.8624 B(  1-N ,  2-C ) :   1.1568 B(  1-N ,  3-N ) :   0.1270
B(  1-N ,  7-H ) :   1.0074 B(  2-C ,  3-N ) :   0.9746 B(  2-C ,  4-N ) :   1.0654
B(  3-N ,  8-H ) :   1.0208 B(  3-N ,  9-H ) :   1.0398 B(  4-N ,  5-H ) :   0.9417
B(  4-N ,  6-H ) :   1.0482 B( 10-C , 13-H ) :   0.9639 B( 10-C , 14-H ) :   0.9680
B( 10-C , 15-H ) :   0.9236

Dispersion correction           -0.015291452
FINAL SINGLE POINT ENERGY      -284.560952632146

DIPOLE MOMENT
-------------
                                X             Y             Z
Electronic contribution:     -1.78974       1.56734      -4.43724
Nuclear contribution   :      1.34333      -1.11039       3.43667
                        -----------------------------------------
Total Dipole Moment    :     -0.44642       0.45695      -1.00057
                        -----------------------------------------
Magnitude (a.u.)       :      1.18711
Magnitude (Debye)      :      3.01740

Rotational constants in cm-1:     0.227161     0.075356     0.065003
Rotational constants in MHz :  6810.114531  2259.122204  1948.738523

                             ****ORCA TERMINATED NORMALLY****
TOTAL RUN TIME: 0 days 0 hours 0 minutes 21 seconds 36 msec
