                         Program Version 5.0.0 -  RELEASE  -
|  1> !TPSS D3BJ RIJCOSX def2-TZVPD def2/J TightSCF xyzfile
|  2>
|  3> *xyzfile 0 1 B.xyz
|  4>
|  5> %MaxCore 64000
|  6>
|  7> %pal nprocs 4
|  8> end
|  9>
| 10> %scf
| 11>   MaxIter 150
| 12> end
| 13>
| 14>
| 15>                          ****END OF INPUT****

CARTESIAN COORDINATES (ANGSTROEM)
---------------------------------
  C      4.490588    1.155899   -2.469290
  N      4.305394    1.222762   -3.908317
  C      4.906458   -3.102816   -5.954844
  C      3.511771   -2.806215   -6.492283
  H      2.736044   -3.373445   -5.973736
  H      3.444904   -3.040831   -7.555281
  S      3.004618   -1.096206   -6.389259
  C      4.631918    2.246365   -4.670958
  N      4.541686    2.143990   -5.987139
  N      5.084086    3.393584   -4.118545
  H      4.920675    3.570501   -3.135870
  H      5.254652    4.197390   -4.706956
  H      3.824530    0.449113   -4.350926
  H      4.343373    1.249318   -6.416646
  H      4.676712    2.956624   -6.574113
  O      4.128856   -0.329647   -6.953717
  O      1.781285   -1.000779   -7.136399
  C      5.942129    0.939500   -2.036893
  H      3.864305    0.328532   -2.136611
  H      4.076233    2.049994   -1.989010
  C      6.462677   -3.117775   -3.944671
  C      5.024977   -3.025679   -4.437625
  H      4.423321   -3.818693   -3.977648
  H      4.579350   -2.087131   -4.108727
  H      5.201533   -4.100207   -6.296905
  H      5.605922   -2.397822   -6.413368
  C      6.559957   -0.356290   -2.559086
  H      5.967976    0.952567   -0.942444
  H      6.547184    1.788331   -2.368849
  C      6.006283   -1.615917   -1.899301
  H      7.642360   -0.318000   -2.402059
  H      6.414855   -0.403433   -3.642587
  C      6.608718   -2.917014   -2.435655
  H      6.190324   -1.561115   -0.820948
  H      4.919250   -1.651245   -2.016586
  H      7.066975   -2.374258   -4.475514
  H      6.887808   -4.089747   -4.215332
  H      6.135197   -3.755573   -1.915159
  H      7.671142   -2.955503   -2.172291
  O      2.851546   -0.783683   -4.956789

 Total Charge           Charge          ....    0
 Multiplicity           Mult            ....    1
 Number of Electrons    NEL             ....  144
 Basis Dimension        Dim             ....  854

ORBITAL ENERGIES
----------------

  NO   OCC          E(Eh)            E(eV)
   0   2.0000     -88.481999     -2407.7176
   1   2.0000     -18.822347      -512.1821
   2   2.0000     -18.822026      -512.1734
   3   2.0000     -18.809159      -511.8232
   4   2.0000     -14.175495      -385.7348
   5   2.0000     -14.144104      -384.8806
   6   2.0000     -14.142477      -384.8364
   7   2.0000     -10.143707      -276.0243
   8   2.0000     -10.051135      -273.5053
   9   2.0000     -10.005657      -272.2678
  10   2.0000      -9.989363      -271.8244
  11   2.0000      -9.982468      -271.6368
  12   2.0000      -9.977201      -271.4934
  13   2.0000      -9.974465      -271.4190
  14   2.0000      -9.970132      -271.3011
  15   2.0000      -9.967523      -271.2301
  16   2.0000      -9.960740      -271.0455
  17   2.0000      -7.831648      -213.1100
  18   2.0000      -5.811439      -158.1373
  19   2.0000      -5.810343      -158.1075
  20   2.0000      -5.809638      -158.0883
  21   2.0000      -1.006859       -27.3980
  22   2.0000      -0.983584       -26.7647
  23   2.0000      -0.884292       -24.0628
  24   2.0000      -0.879067       -23.9206
  25   2.0000      -0.873972       -23.7820
  26   2.0000      -0.865956       -23.5639
  27   2.0000      -0.765553       -20.8317
  28   2.0000      -0.740248       -20.1432
  29   2.0000      -0.714533       -19.4434
  30   2.0000      -0.680285       -18.5115
  31   2.0000      -0.646602       -17.5949
  32   2.0000      -0.624300       -16.9881
  33   2.0000      -0.596879       -16.2419
  34   2.0000      -0.577565       -15.7163
  35   2.0000      -0.567049       -15.4302
  36   2.0000      -0.545293       -14.8382
  37   2.0000      -0.530655       -14.4399
  38   2.0000      -0.506002       -13.7690
  39   2.0000      -0.496262       -13.5040
  40   2.0000      -0.492938       -13.4135
  41   2.0000      -0.468903       -12.7595
  42   2.0000      -0.458667       -12.4810
  43   2.0000      -0.442323       -12.0362
  44   2.0000      -0.434936       -11.8352
  45   2.0000      -0.420415       -11.4401
  46   2.0000      -0.413801       -11.2601
  47   2.0000      -0.405993       -11.0476
  48   2.0000      -0.392247       -10.6736
  49   2.0000      -0.387830       -10.5534
  50   2.0000      -0.379184       -10.3181
  51   2.0000      -0.375282       -10.2119
  52   2.0000      -0.361669        -9.8415
  53   2.0000      -0.358171        -9.7463
  54   2.0000      -0.348396        -9.4803
  55   2.0000      -0.341168        -9.2836
  56   2.0000      -0.328698        -8.9443
  57   2.0000      -0.320620        -8.7245
  58   2.0000      -0.310765        -8.4563
  59   2.0000      -0.299393        -8.1469
  60   2.0000      -0.289310        -7.8725
  61   2.0000      -0.283594        -7.7170
  62   2.0000      -0.278083        -7.5670
  63   2.0000      -0.275082        -7.4854
  64   2.0000      -0.272958        -7.4276
  65   2.0000      -0.266734        -7.2582
  66   2.0000      -0.259798        -7.0695
  67   2.0000      -0.250419        -6.8143
  68   2.0000      -0.228688        -6.2229
  69   2.0000      -0.221473        -6.0266
  70   2.0000      -0.215343        -5.8598
  71   2.0000      -0.185635        -5.0514
  72   0.0000      -0.045238        -1.2310
  73   0.0000      -0.036510        -0.9935
  74   0.0000      -0.015992        -0.4352
  75   0.0000       0.000679         0.0185
  76   0.0000       0.004607         0.1254

MULLIKEN ATOMIC CHARGES
-----------------------
   0 C :   -0.867127
   1 N :   -0.130579
   2 C :   -0.475046
   3 C :   -0.596648
   4 H :    0.232084
   5 H :    0.209705
   6 S :    1.608897
   7 C :    0.902670
   8 N :   -0.245683
   9 N :   -0.402359
  10 H :    0.191098
  11 H :    0.142817
  12 H :    0.344587
  13 H :    0.213753
  14 H :    0.153999
  15 O :   -1.041786
  16 O :   -0.766572
  17 C :   -0.077134
  18 H :    0.272168
  19 H :    0.262554
  20 C :   -0.356461
  21 C :   -0.472038
  22 H :    0.198282
  23 H :    0.449899
  24 H :    0.134807
  25 H :    0.274280
  26 C :   -0.273075
  27 H :    0.149933
  28 H :    0.247617
  29 C :   -0.531284
  30 H :    0.064065
  31 H :    0.282732
  32 C :   -0.404874
  33 H :    0.121608
  34 H :    0.394857
  35 H :    0.318887
  36 H :    0.132745
  37 H :    0.159152
  38 H :    0.137420
  39 O :   -0.959951
Sum of atomic charges:    0.0000000

LOEWDIN ATOMIC CHARGES
----------------------
   0 C :   -0.159610
   1 N :    0.107417
   2 C :   -0.224813
   3 C :   -0.245547
   4 H :    0.101709
   5 H :    0.096552
   6 S :    0.431701
   7 C :   -0.442383
   8 N :    0.214261
   9 N :    0.185127
  10 H :    0.106222
  11 H :    0.117417
  12 H :    0.070565
  13 H :    0.044330
  14 H :    0.127185
  15 O :   -0.359848
  16 O :   -0.306844
  17 C :   -0.181199
  18 H :    0.123355
  19 H :    0.112024
  20 C :   -0.212237
  21 C :   -0.214573
  22 H :    0.124469
  23 H :    0.079297
  24 H :    0.110413
  25 H :    0.105658
  26 C :   -0.201028
  27 H :    0.112309
  28 H :    0.098357
  29 C :   -0.211088
  30 H :    0.115670
  31 H :    0.104390
  32 C :   -0.203969
  33 H :    0.110409
  34 H :    0.100529
  35 H :    0.104708
  36 H :    0.109587
  37 H :    0.106726
  38 H :    0.104767
  39 O :   -0.362014

  Mayer bond orders larger than 0.100000
B(  0-C ,  1-N ) :   1.1765 B(  0-C ,  7-C ) :  -0.1799 B(  0-C ,  9-N ) :   0.1133
B(  0-C , 12-H ) :  -0.1395 B(  0-C , 17-C ) :   0.8429 B(  0-C , 18-H ) :   0.7697
B(  0-C , 19-H ) :   0.7847 B(  0-C , 29-C ) :   0.2039 B(  1-N ,  7-C ) :   1.1386
B(  1-N ,  8-N ) :   0.1136 B(  1-N , 12-H ) :   0.8063 B(  1-N , 17-C ) :   0.1055
B(  1-N , 39-O ) :  -0.1478 B(  2-C ,  3-C ) :   1.2387 B(  2-C , 20-C ) :   0.4451
B(  2-C , 21-C ) :   0.7036 B(  2-C , 22-H ) :  -0.1214 B(  2-C , 24-H ) :   0.9576
B(  2-C , 25-H ) :   0.7533 B(  3-C ,  4-H ) :   0.8678 B(  3-C ,  5-H ) :   0.9224
B(  3-C ,  6-S ) :   0.8728 B(  3-C , 15-O ) :   0.1332 B(  3-C , 16-O ) :   0.2245
B(  3-C , 21-C ) :   0.2676 B(  3-C , 39-O ) :   0.1077 B(  6-S , 15-O ) :   0.9849
B(  6-S , 16-O ) :   1.1271 B(  6-S , 21-C ) :   0.1076 B(  6-S , 39-O ) :   1.3649
B(  7-C ,  8-N ) :   1.0404 B(  7-C ,  9-N ) :   0.9913 B(  7-C , 12-H ) :  -0.1891
B(  8-N , 13-H ) :   0.8633 B(  8-N , 14-H ) :   1.0518 B(  8-N , 15-O ) :  -0.1244
B(  9-N , 10-H ) :   0.9656 B(  9-N , 11-H ) :   1.0589 B( 15-O , 39-O ) :   0.1187
B( 17-C , 26-C ) :   1.2599 B( 17-C , 27-H ) :   0.9328 B( 17-C , 28-H ) :   0.8158
B( 17-C , 29-C ) :   0.1529 B( 20-C , 21-C ) :   0.6096 B( 20-C , 26-C ) :   0.1597
B( 20-C , 32-C ) :   1.1312 B( 20-C , 35-H ) :   0.7855 B( 20-C , 36-H ) :   0.9057
B( 21-C , 22-H ) :   0.6906 B( 21-C , 23-H ) :   1.3153 B( 21-C , 29-C ) :   0.1711
B( 21-C , 32-C ) :   0.1893 B( 21-C , 39-O ) :   0.1828 B( 22-H , 23-H ) :   0.1986
B( 23-H , 39-O ) :  -0.2362 B( 26-C , 29-C ) :   0.5328 B( 26-C , 30-H ) :   0.9088
B( 26-C , 31-H ) :   0.8848 B( 26-C , 32-C ) :   0.1683 B( 26-C , 34-H ) :  -0.1009
B( 29-C , 32-C ) :   1.2041 B( 29-C , 33-H ) :   0.9158 B( 29-C , 34-H ) :   0.8040
B( 32-C , 37-H ) :   0.8775 B( 32-C , 38-H ) :   0.9080

Dispersion correction           -0.060896835
FINAL SINGLE POINT ENERGY     -1183.596632109485

DIPOLE MOMENT
-------------
                                X             Y             Z
Electronic contribution:    -14.57097       8.31834     -15.35494
Nuclear contribution   :     16.79156      -5.47215      17.54258
                        -----------------------------------------
Total Dipole Moment    :      2.22059       2.84619       2.18764
                        -----------------------------------------
Magnitude (a.u.)       :      4.22109
Magnitude (Debye)      :     10.72916

Rotational constants in cm-1:     0.014207     0.012373     0.007472
Rotational constants in MHz :   425.900436   370.942493   224.006604

                             ****ORCA TERMINATED NORMALLY****
TOTAL RUN TIME: 0 days 0 hours 3 minutes 40 seconds 644 msec
