                         Program Version 5.0.0 -  RELEASE  -
|  1> !TPSS D3BJ RIJCOSX def2-TZVPD def2/J TightSCF
|  2> *xyz 0 1
|  3> C          4.90646       -3.10282       -5.95484
|  4> C          3.51177       -2.80621       -6.49228
|  5> H          2.73604       -3.37345       -5.97374
|  6> H          3.44490       -3.04083       -7.55528
|  7> S          3.00462       -1.09621       -6.38926
|  8> F          4.12886       -0.32965       -6.95372
|  9> O          1.78128       -1.00078       -7.13640
| 10> O          2.85155       -0.78368       -4.95679
| 11> H          5.62703       -2.52424       -6.49422
| 12> H          5.12164       -4.14387       -6.07654
| 13> H          4.95004       -2.84862       -4.91639
| 14> *
| 15>
| 16> %MaxCore 64000
| 17>
| 18> %pal nprocs 4
| 19> end
| 20>
| 21> %scf
| 22>   MaxIter 150
| 23> end
| 24>
| 25>
| 26>                          ****END OF INPUT****

CARTESIAN COORDINATES (ANGSTROEM)
---------------------------------
  C      4.906460   -3.102820   -5.954840
  C      3.511770   -2.806210   -6.492280
  H      2.736040   -3.373450   -5.973740
  H      3.444900   -3.040830   -7.555280
  S      3.004620   -1.096210   -6.389260
  F      4.128860   -0.329650   -6.953720
  O      1.781280   -1.000780   -7.136400
  O      2.851550   -0.783680   -4.956790
  H      5.627030   -2.524240   -6.494220
  H      5.121640   -4.143870   -6.076540
  H      4.950040   -2.848620   -4.916390

 Total Charge           Charge          ....    0
 Multiplicity           Mult            ....    1
 Number of Electrons    NEL             ....   58
 Basis Dimension        Dim             ....  285

ORBITAL ENERGIES
----------------

  NO   OCC          E(Eh)            E(eV)
   0   2.0000     -88.582150     -2410.4429
   1   2.0000     -24.511261      -666.9853
   2   2.0000     -18.897498      -514.2271
   3   2.0000     -18.886236      -513.9206
   4   2.0000     -10.046426      -273.3771
   5   2.0000     -10.008461      -272.3441
   6   2.0000      -7.931875      -215.8373
   7   2.0000      -5.915255      -160.9623
   8   2.0000      -5.908299      -160.7730
   9   2.0000      -5.908046      -160.7661
  10   2.0000      -1.275560       -34.7097
  11   2.0000      -1.034891       -28.1608
  12   2.0000      -0.942452       -25.6454
  13   2.0000      -0.770053       -20.9542
  14   2.0000      -0.668367       -18.1872
  15   2.0000      -0.622265       -16.9327
  16   2.0000      -0.528762       -14.3884
  17   2.0000      -0.508257       -13.8304
  18   2.0000      -0.494399       -13.4533
  19   2.0000      -0.453679       -12.3452
  20   2.0000      -0.429370       -11.6838
  21   2.0000      -0.408060       -11.1039
  22   2.0000      -0.393175       -10.6988
  23   2.0000      -0.373223       -10.1559
  24   2.0000      -0.362097        -9.8531
  25   2.0000      -0.339114        -9.2278
  26   2.0000      -0.296404        -8.0655
  27   2.0000      -0.285458        -7.7677
  28   2.0000      -0.268311        -7.3011
  29   0.0000      -0.026848        -0.7306
  30   0.0000       0.003882         0.1056
  31   0.0000       0.012748         0.3469
  32   0.0000       0.013974         0.3802
  33   0.0000       0.025786         0.7017

MULLIKEN ATOMIC CHARGES
-----------------------
   0 C :   -0.975139
   1 C :   -0.180871
   2 H :    0.233612
   3 H :    0.252998
   4 S :    1.184005
   5 F :   -0.164334
   6 O :   -0.569846
   7 O :   -0.610690
   8 H :    0.313756
   9 H :    0.212332
  10 H :    0.304177
Sum of atomic charges:   -0.0000000

LOEWDIN ATOMIC CHARGES
----------------------
   0 C :   -0.105199
   1 C :   -0.279811
   2 H :    0.109835
   3 H :    0.097211
   4 S :    0.568620
   5 F :   -0.066303
   6 O :   -0.255287
   7 O :   -0.278526
   8 H :    0.066226
   9 H :    0.070875
  10 H :    0.072359

  Mayer bond orders larger than 0.100000
B(  0-C ,  1-C ) :   0.9714 B(  0-C ,  8-H ) :   0.8938 B(  0-C ,  9-H ) :   0.9738
B(  0-C , 10-H ) :   0.9359 B(  1-C ,  2-H ) :   0.9056 B(  1-C ,  3-H ) :   0.9100
B(  1-C ,  4-S ) :   0.8331 B(  1-C ,  6-O ) :   0.1340 B(  4-S ,  5-F ) :   0.9768
B(  4-S ,  6-O ) :   1.6481 B(  4-S ,  7-O ) :   1.6058 B(  6-O ,  7-O ) :   0.1141

Dispersion correction           -0.011527403
FINAL SINGLE POINT ENERGY      -727.914866817102

DIPOLE MOMENT
-------------
                                X             Y             Z
Electronic contribution:     -3.03387       8.23507      -1.72084
Nuclear contribution   :      4.18919      -9.36357       1.23251
                        -----------------------------------------
Total Dipole Moment    :      1.15532      -1.12850      -0.48833
                        -----------------------------------------
Magnitude (a.u.)       :      1.68723
Magnitude (Debye)      :      4.28860

Rotational constants in cm-1:     0.153152     0.082513     0.079874
Rotational constants in MHz :  4591.373714  2473.673397  2394.575279

                             ****ORCA TERMINATED NORMALLY****
TOTAL RUN TIME: 0 days 0 hours 0 minutes 15 seconds 242 msec
