                         Program Version 5.0.0 -  RELEASE  -
|  1> !TPSS D3BJ RIJCOSX def2-TZVPD def2/J TightSCF
|  2> *xyz 0 1
|  3> C          4.49059        1.15590       -2.46929
|  4> C          4.30539        1.22276       -3.90832
|  5> C          4.63192        2.24637       -4.67096
|  6> N          4.54169        2.14399       -5.98714
|  7> N          5.08409        3.39358       -4.11855
|  8> H          4.92067        3.57050       -3.13587
|  9> H          5.25465        4.19739       -4.70696
| 10> H          3.82453        0.44911       -4.35093
| 11> H          4.34337        1.24932       -6.41665
| 12> H          4.67671        2.95662       -6.57411
| 13> C          5.94213        0.93950       -2.03689
| 14> H          3.86431        0.32853       -2.13661
| 15> H          4.07623        2.04999       -1.98901
| 16> H          6.32982        0.06401       -2.51451
| 17> H          5.98308        0.81426       -0.97504
| 18> H          6.52865        1.78889       -2.31873
| 19> *
| 20>
| 21> %MaxCore 64000
| 22>
| 23> %pal nprocs 4
| 24> end
| 25>
| 26> %scf
| 27>   MaxIter 150
| 28> end
| 29>
| 30>
| 31>                          ****END OF INPUT****

CARTESIAN COORDINATES (ANGSTROEM)
---------------------------------
  C      4.490590    1.155900   -2.469290
  C      4.305390    1.222760   -3.908320
  C      4.631920    2.246370   -4.670960
  N      4.541690    2.143990   -5.987140
  N      5.084090    3.393580   -4.118550
  H      4.920670    3.570500   -3.135870
  H      5.254650    4.197390   -4.706960
  H      3.824530    0.449110   -4.350930
  H      4.343370    1.249320   -6.416650
  H      4.676710    2.956620   -6.574110
  C      5.942130    0.939500   -2.036890
  H      3.864310    0.328530   -2.136610
  H      4.076230    2.049990   -1.989010
  H      6.329820    0.064010   -2.514510
  H      5.983080    0.814260   -0.975040
  H      6.528650    1.788890   -2.318730

 Total Charge           Charge          ....    0
 Multiplicity           Mult            ....    1
 Number of Electrons    NEL             ....   48
 Basis Dimension        Dim             ....  312

ORBITAL ENERGIES
----------------

  NO   OCC          E(Eh)            E(eV)
   0   2.0000     -14.103419      -383.7736
   1   2.0000     -14.101539      -383.7224
   2   2.0000     -10.020654      -272.6759
   3   2.0000      -9.958860      -270.9943
   4   2.0000      -9.947292      -270.6796
   5   2.0000      -9.904671      -269.5198
   6   2.0000      -0.895095       -24.3568
   7   2.0000      -0.811572       -22.0840
   8   2.0000      -0.714043       -19.4301
   9   2.0000      -0.639994       -17.4151
  10   2.0000      -0.568315       -15.4646
  11   2.0000      -0.529213       -14.4006
  12   2.0000      -0.495360       -13.4794
  13   2.0000      -0.464539       -12.6407
  14   2.0000      -0.432476       -11.7683
  15   2.0000      -0.395497       -10.7620
  16   2.0000      -0.378079       -10.2881
  17   2.0000      -0.350105        -9.5269
  18   2.0000      -0.341025        -9.2798
  19   2.0000      -0.310440        -8.4475
  20   2.0000      -0.290615        -7.9080
  21   2.0000      -0.281876        -7.6702
  22   2.0000      -0.224989        -6.1223
  23   2.0000      -0.130901        -3.5620
  24   0.0000      -0.013268        -0.3611
  25   0.0000       0.012869         0.3502
  26   0.0000       0.021383         0.5819
  27   0.0000       0.031030         0.8444
  28   0.0000       0.047240         1.2855

MULLIKEN ATOMIC CHARGES
-----------------------
   0 C :   -0.443031
   1 C :   -0.775630
   2 C :    1.008631
   3 N :   -0.500589
   4 N :   -0.448507
   5 H :    0.168638
   6 H :    0.123509
   7 H :    0.307336
   8 H :    0.147440
   9 H :    0.136048
  10 C :   -0.911379
  11 H :    0.129757
  12 H :    0.258775
  13 H :    0.287032
  14 H :    0.219515
  15 H :    0.292456
Sum of atomic charges:    0.0000000

LOEWDIN ATOMIC CHARGES
----------------------
   0 C :   -0.282192
   1 C :   -0.147100
   2 C :   -0.542519
   3 N :    0.112160
   4 N :    0.133496
   5 H :    0.096099
   6 H :    0.095038
   7 H :    0.064596
   8 H :    0.111509
   9 H :    0.096802
  10 C :   -0.100215
  11 H :    0.099639
  12 H :    0.092677
  13 H :    0.063555
  14 H :    0.053367
  15 H :    0.053090

  Mayer bond orders larger than 0.100000
B(  0-C ,  1-C ) :   1.1260 B(  0-C ,  2-C ) :   0.1599 B(  0-C , 10-C ) :   0.8211
B(  0-C , 11-H ) :   1.0416 B(  0-C , 12-H ) :   0.8370 B(  1-C ,  2-C ) :   1.1303
B(  1-C ,  3-N ) :   0.1489 B(  1-C ,  7-H ) :   0.9128 B(  1-C , 10-C ) :   0.1829
B(  2-C ,  3-N ) :   0.7844 B(  2-C ,  4-N ) :   0.8628 B(  2-C ,  7-H ) :  -0.1310
B(  3-N ,  8-H ) :   1.0515 B(  3-N ,  9-H ) :   1.0876 B(  4-N ,  5-H ) :   0.9733
B(  4-N ,  6-H ) :   1.0860 B( 10-C , 13-H ) :   0.9587 B( 10-C , 14-H ) :   0.9728
B( 10-C , 15-H ) :   0.9391

Dispersion correction           -0.015909588
FINAL SINGLE POINT ENERGY      -268.069878811366

DIPOLE MOMENT
-------------
                                X             Y             Z
Electronic contribution:     -1.26293       1.96145      -4.13637
Nuclear contribution   :      1.23062      -1.24683       3.43056
                        -----------------------------------------
Total Dipole Moment    :     -0.03231       0.71462      -0.70580
                        -----------------------------------------
Magnitude (a.u.)       :      1.00493
Magnitude (Debye)      :      2.55433

Rotational constants in cm-1:     0.231477     0.075416     0.065327
Rotational constants in MHz :  6939.497385  2260.912204  1958.442932

                             ****ORCA TERMINATED NORMALLY****
TOTAL RUN TIME: 0 days 0 hours 0 minutes 25 seconds 295 msec
