                         Program Version 5.0.0 -  RELEASE  -
|  1> !TPSS D3BJ RIJCOSX def2-TZVPD def2/J TightSCF
|  2> *xyz 0 1
|  3> C          4.90646       -3.10282       -5.95484
|  4> C          3.51177       -2.80621       -6.49228
|  5> H          2.73604       -3.37345       -5.97374
|  6> H          3.44490       -3.04083       -7.55528
|  7> S          3.00462       -1.09621       -6.38926
|  8> O          4.12886       -0.32965       -6.95372
|  9> F          1.78128       -1.00078       -7.13640
| 10> O          2.85155       -0.78368       -4.95679
| 11> H          5.62703       -2.52424       -6.49422
| 12> H          5.12164       -4.14387       -6.07654
| 13> H          4.95004       -2.84862       -4.91639
| 14> *
| 15>
| 16> %MaxCore 64000
| 17>
| 18> %pal nprocs 4
| 19> end
| 20>
| 21> %scf
| 22>   MaxIter 150
| 23> end
| 24>
| 25>
| 26>                          ****END OF INPUT****

CARTESIAN COORDINATES (ANGSTROEM)
---------------------------------
  C      4.906460   -3.102820   -5.954840
  C      3.511770   -2.806210   -6.492280
  H      2.736040   -3.373450   -5.973740
  H      3.444900   -3.040830   -7.555280
  S      3.004620   -1.096210   -6.389260
  O      4.128860   -0.329650   -6.953720
  F      1.781280   -1.000780   -7.136400
  O      2.851550   -0.783680   -4.956790
  H      5.627030   -2.524240   -6.494220
  H      5.121640   -4.143870   -6.076540
  H      4.950040   -2.848620   -4.916390

 Total Charge           Charge          ....    0
 Multiplicity           Mult            ....    1
 Number of Electrons    NEL             ....   58
 Basis Dimension        Dim             ....  285

ORBITAL ENERGIES
----------------

  NO   OCC          E(Eh)            E(eV)
   0   2.0000     -88.584211     -2410.4989
   1   2.0000     -24.529341      -667.4773
   2   2.0000     -18.886316      -513.9228
   3   2.0000     -18.886281      -513.9218
   4   2.0000     -10.047163      -273.3972
   5   2.0000     -10.004870      -272.2464
   6   2.0000      -7.933827      -215.8904
   7   2.0000      -5.917083      -161.0120
   8   2.0000      -5.910311      -160.8277
   9   2.0000      -5.909957      -160.8181
  10   2.0000      -1.305239       -35.5173
  11   2.0000      -1.021603       -27.7992
  12   2.0000      -0.929674       -25.2977
  13   2.0000      -0.767251       -20.8780
  14   2.0000      -0.681270       -18.5383
  15   2.0000      -0.623885       -16.9768
  16   2.0000      -0.532626       -14.4935
  17   2.0000      -0.529527       -14.4092
  18   2.0000      -0.504998       -13.7417
  19   2.0000      -0.454585       -12.3699
  20   2.0000      -0.432207       -11.7609
  21   2.0000      -0.393639       -10.7114
  22   2.0000      -0.389662       -10.6032
  23   2.0000      -0.371273       -10.1028
  24   2.0000      -0.354224        -9.6389
  25   2.0000      -0.334194        -9.0939
  26   2.0000      -0.285643        -7.7727
  27   2.0000      -0.282689        -7.6924
  28   2.0000      -0.257391        -7.0040
  29   0.0000      -0.022145        -0.6026
  30   0.0000      -0.006824        -0.1857
  31   0.0000       0.013139         0.3575
  32   0.0000       0.017231         0.4689
  33   0.0000       0.028433         0.7737

MULLIKEN ATOMIC CHARGES
-----------------------
   0 C :   -0.959780
   1 C :   -0.225518
   2 H :    0.248177
   3 H :    0.251747
   4 S :    1.178491
   5 O :   -0.609011
   6 F :   -0.108548
   7 O :   -0.603015
   8 H :    0.310332
   9 H :    0.216758
  10 H :    0.300367
Sum of atomic charges:   -0.0000000

LOEWDIN ATOMIC CHARGES
----------------------
   0 C :   -0.093408
   1 C :   -0.289857
   2 H :    0.098306
   3 H :    0.095003
   4 S :    0.569257
   5 O :   -0.279367
   6 F :   -0.039943
   7 O :   -0.279541
   8 H :    0.071503
   9 H :    0.072806
  10 H :    0.075241

  Mayer bond orders larger than 0.100000
B(  0-C ,  1-C ) :   1.0366 B(  0-C ,  8-H ) :   0.9118 B(  0-C ,  9-H ) :   0.9587
B(  0-C , 10-H ) :   0.9152 B(  1-C ,  2-H ) :   0.8875 B(  1-C ,  3-H ) :   0.8795
B(  1-C ,  4-S ) :   0.8470 B(  1-C ,  5-O ) :   0.1107 B(  1-C ,  7-O ) :   0.1124
B(  4-S ,  5-O ) :   1.6071 B(  4-S ,  6-F ) :   1.0151 B(  4-S ,  7-O ) :   1.6080
B(  5-O ,  7-O ) :   0.1222

Dispersion correction           -0.011596351
FINAL SINGLE POINT ENERGY      -727.900223810040

DIPOLE MOMENT
-------------
                                X             Y             Z
Electronic contribution:     -6.92989       7.13381      -2.02118
Nuclear contribution   :      6.63544      -8.66423       1.42287
                        -----------------------------------------
Total Dipole Moment    :     -0.29445      -1.53042      -0.59831
                        -----------------------------------------
Magnitude (a.u.)       :      1.66939
Magnitude (Debye)      :      4.24326

Rotational constants in cm-1:     0.158118     0.080978     0.078216
Rotational constants in MHz :  4740.271775  2427.649826  2344.849020

                             ****ORCA TERMINATED NORMALLY****
TOTAL RUN TIME: 0 days 0 hours 0 minutes 17 seconds 233 msec
