                         Program Version 5.0.0 -  RELEASE  -
|  1> !TPSS D3BJ RIJCOSX def2-TZVPD def2/J TightSCF
|  2> *xyz 0 1
|  3> C          4.49059        1.15590       -2.46929
|  4> N          4.30539        1.22276       -3.90832
|  5> C          4.63192        2.24637       -4.67096
|  6> C          4.54169        2.14399       -5.98714
|  7> N          5.08409        3.39358       -4.11855
|  8> H          4.92067        3.57050       -3.13587
|  9> H          5.25465        4.19739       -4.70696
| 10> H          3.82453        0.44911       -4.35093
| 11> H          4.34337        1.24932       -6.41665
| 12> H          4.67671        2.95662       -6.57411
| 13> C          5.94213        0.93950       -2.03689
| 14> H          3.86431        0.32853       -2.13661
| 15> H          4.07623        2.04999       -1.98901
| 16> H          6.32982        0.06401       -2.51451
| 17> H          5.98308        0.81426       -0.97504
| 18> H          6.52865        1.78889       -2.31873
| 19> *
| 20>
| 21> %MaxCore 64000
| 22>
| 23> %pal nprocs 4
| 24> end
| 25>
| 26> %scf
| 27>   MaxIter 150
| 28> end
| 29>
| 30>
| 31>                          ****END OF INPUT****

CARTESIAN COORDINATES (ANGSTROEM)
---------------------------------
  C      4.490590    1.155900   -2.469290
  N      4.305390    1.222760   -3.908320
  C      4.631920    2.246370   -4.670960
  C      4.541690    2.143990   -5.987140
  N      5.084090    3.393580   -4.118550
  H      4.920670    3.570500   -3.135870
  H      5.254650    4.197390   -4.706960
  H      3.824530    0.449110   -4.350930
  H      4.343370    1.249320   -6.416650
  H      4.676710    2.956620   -6.574110
  C      5.942130    0.939500   -2.036890
  H      3.864310    0.328530   -2.136610
  H      4.076230    2.049990   -1.989010
  H      6.329820    0.064010   -2.514510
  H      5.983080    0.814260   -0.975040
  H      6.528650    1.788890   -2.318730

 Total Charge           Charge          ....    0
 Multiplicity           Mult            ....    1
 Number of Electrons    NEL             ....   48
 Basis Dimension        Dim             ....  312

ORBITAL ENERGIES
----------------

  NO   OCC          E(Eh)            E(eV)
   0   2.0000     -14.101356      -383.7174
   1   2.0000     -14.100711      -383.6999
   2   2.0000     -10.025682      -272.8127
   3   2.0000     -10.021402      -272.6962
   4   2.0000      -9.973237      -271.3856
   5   2.0000      -9.895145      -269.2606
   6   2.0000      -0.902072       -24.5466
   7   2.0000      -0.821311       -22.3490
   8   2.0000      -0.714168       -19.4335
   9   2.0000      -0.647524       -17.6200
  10   2.0000      -0.580963       -15.8088
  11   2.0000      -0.549331       -14.9481
  12   2.0000      -0.488936       -13.3046
  13   2.0000      -0.453778       -12.3479
  14   2.0000      -0.437655       -11.9092
  15   2.0000      -0.406620       -11.0647
  16   2.0000      -0.381761       -10.3882
  17   2.0000      -0.361102        -9.8261
  18   2.0000      -0.342884        -9.3303
  19   2.0000      -0.335421        -9.1273
  20   2.0000      -0.322266        -8.7693
  21   2.0000      -0.315090        -8.5740
  22   2.0000      -0.215630        -5.8676
  23   2.0000      -0.131881        -3.5887
  24   0.0000      -0.012225        -0.3327
  25   0.0000       0.012608         0.3431
  26   0.0000       0.017057         0.4642
  27   0.0000       0.023852         0.6490
  28   0.0000       0.049917         1.3583

MULLIKEN ATOMIC CHARGES
-----------------------
   0 C :   -0.352385
   1 N :   -0.258077
   2 C :    1.012120
   3 C :   -1.301698
   4 N :   -0.459207
   5 H :    0.165909
   6 H :    0.124743
   7 H :    0.155398
   8 H :    0.292303
   9 H :    0.223920
  10 C :   -0.833444
  11 H :    0.179758
  12 H :    0.263973
  13 H :    0.235350
  14 H :    0.249323
  15 H :    0.302013
Sum of atomic charges:   -0.0000000

LOEWDIN ATOMIC CHARGES
----------------------
   0 C :   -0.240596
   1 N :    0.018794
   2 C :   -0.565244
   3 C :   -0.000902
   4 N :    0.125786
   5 H :    0.086222
   6 H :    0.107070
   7 H :    0.146207
   8 H :    0.006924
   9 H :    0.003647
  10 C :   -0.078631
  11 H :    0.109214
  12 H :    0.100673
  13 H :    0.065876
  14 H :    0.059443
  15 H :    0.055517

  Mayer bond orders larger than 0.100000
B(  0-C ,  1-N ) :   0.8865 B(  0-C , 10-C ) :   0.9008 B(  0-C , 11-H ) :   0.9716
B(  0-C , 12-H ) :   0.8735 B(  1-N ,  2-C ) :   1.0111 B(  1-N ,  3-C ) :   0.1318
B(  1-N ,  7-H ) :   1.0221 B(  1-N , 10-C ) :   0.1302 B(  2-C ,  3-C ) :   1.0437
B(  2-C ,  4-N ) :   0.8491 B(  3-C ,  8-H ) :   0.9409 B(  3-C ,  9-H ) :   1.1058
B(  4-N ,  5-H ) :   0.9954 B(  4-N ,  6-H ) :   1.0645 B( 10-C , 13-H ) :   0.9838
B( 10-C , 14-H ) :   0.9658 B( 10-C , 15-H ) :   0.9491

Dispersion correction           -0.015764985
FINAL SINGLE POINT ENERGY      -268.063995945094

DIPOLE MOMENT
-------------
                                X             Y             Z
Electronic contribution:     -1.41335       1.07155      -1.95502
Nuclear contribution   :      1.28075      -1.05140       2.98955
                        -----------------------------------------
Total Dipole Moment    :     -0.13261       0.02015       1.03453
                        -----------------------------------------
Magnitude (a.u.)       :      1.04319
Magnitude (Debye)      :      2.65158

Rotational constants in cm-1:     0.229858     0.078444     0.067377
Rotational constants in MHz :  6890.979812  2351.691803  2019.910665

                             ****ORCA TERMINATED NORMALLY****
TOTAL RUN TIME: 0 days 0 hours 0 minutes 22 seconds 692 msec
