                         Program Version 5.0.0 -  RELEASE  -
|  1> !TPSS D3BJ RIJCOSX def2-TZVPD def2/J TightSCF
|  2> *xyz 0 1
|  3> C          4.90646       -3.10282       -5.95484
|  4> C          3.51177       -2.80621       -6.49228
|  5> H          2.73604       -3.37345       -5.97374
|  6> H          3.44490       -3.04083       -7.55528
|  7> S          3.00462       -1.09621       -6.38926
|  8> O          4.12886       -0.32965       -6.95372
|  9> O          1.78128       -1.00078       -7.13640
| 10> F          2.85155       -0.78368       -4.95679
| 11> H          5.62703       -2.52424       -6.49422
| 12> H          5.12164       -4.14387       -6.07654
| 13> H          4.95004       -2.84862       -4.91639
| 14> *
| 15>
| 16> %MaxCore 64000
| 17>
| 18> %pal nprocs 4
| 19> end
| 20>
| 21> %scf
| 22>   MaxIter 150
| 23> end
| 24>
| 25>
| 26>                          ****END OF INPUT****

CARTESIAN COORDINATES (ANGSTROEM)
---------------------------------
  C      4.906460   -3.102820   -5.954840
  C      3.511770   -2.806210   -6.492280
  H      2.736040   -3.373450   -5.973740
  H      3.444900   -3.040830   -7.555280
  S      3.004620   -1.096210   -6.389260
  O      4.128860   -0.329650   -6.953720
  O      1.781280   -1.000780   -7.136400
  F      2.851550   -0.783680   -4.956790
  H      5.627030   -2.524240   -6.494220
  H      5.121640   -4.143870   -6.076540
  H      4.950040   -2.848620   -4.916390

 Total Charge           Charge          ....    0
 Multiplicity           Mult            ....    1
 Number of Electrons    NEL             ....   58
 Basis Dimension        Dim             ....  285

ORBITAL ENERGIES
----------------

  NO   OCC          E(Eh)            E(eV)
   0   2.0000     -88.582192     -2410.4440
   1   2.0000     -24.510924      -666.9762
   2   2.0000     -18.897704      -514.2327
   3   2.0000     -18.886619      -513.9310
   4   2.0000     -10.046314      -273.3741
   5   2.0000     -10.005606      -272.2664
   6   2.0000      -7.931916      -215.8384
   7   2.0000      -5.915265      -160.9626
   8   2.0000      -5.908349      -160.7743
   9   2.0000      -5.908110      -160.7678
  10   2.0000      -1.274658       -34.6852
  11   2.0000      -1.035070       -28.1657
  12   2.0000      -0.944019       -25.6881
  13   2.0000      -0.767902       -20.8957
  14   2.0000      -0.667738       -18.1701
  15   2.0000      -0.621119       -16.9015
  16   2.0000      -0.526256       -14.3201
  17   2.0000      -0.507071       -13.7981
  18   2.0000      -0.496114       -13.5000
  19   2.0000      -0.452369       -12.3096
  20   2.0000      -0.431931       -11.7534
  21   2.0000      -0.408243       -11.1089
  22   2.0000      -0.389957       -10.6113
  23   2.0000      -0.369173       -10.0457
  24   2.0000      -0.362403        -9.8615
  25   2.0000      -0.337529        -9.1846
  26   2.0000      -0.296407        -8.0656
  27   2.0000      -0.286074        -7.7845
  28   2.0000      -0.269935        -7.3453
  29   0.0000      -0.026290        -0.7154
  30   0.0000       0.001703         0.0463
  31   0.0000       0.011766         0.3202
  32   0.0000       0.013969         0.3801
  33   0.0000       0.025354         0.6899

MULLIKEN ATOMIC CHARGES
-----------------------
   0 C :   -0.953979
   1 C :   -0.207153
   2 H :    0.260866
   3 H :    0.230990
   4 S :    1.185307
   5 O :   -0.613164
   6 O :   -0.571323
   7 F :   -0.159885
   8 H :    0.309650
   9 H :    0.214473
  10 H :    0.304219
Sum of atomic charges:   -0.0000000

LOEWDIN ATOMIC CHARGES
----------------------
   0 C :   -0.105001
   1 C :   -0.281162
   2 H :    0.098404
   3 H :    0.107076
   4 S :    0.570362
   5 O :   -0.277216
   6 O :   -0.255537
   7 F :   -0.066454
   8 H :    0.069687
   9 H :    0.070554
  10 H :    0.069288

  Mayer bond orders larger than 0.100000
B(  0-C ,  1-C ) :   0.9903 B(  0-C ,  8-H ) :   0.9358 B(  0-C ,  9-H ) :   0.9714
B(  0-C , 10-H ) :   0.8954 B(  1-C ,  2-H ) :   0.8882 B(  1-C ,  3-H ) :   0.9117
B(  1-C ,  4-S ) :   0.8436 B(  1-C ,  6-O ) :   0.1372 B(  4-S ,  5-O ) :   1.6044
B(  4-S ,  6-O ) :   1.6452 B(  4-S ,  7-F ) :   0.9699 B(  5-O ,  6-O ) :   0.1171

Dispersion correction           -0.011546626
FINAL SINGLE POINT ENERGY      -727.915265689266

DIPOLE MOMENT
-------------
                                X             Y             Z
Electronic contribution:     -5.16289       7.49146       1.60806
Nuclear contribution   :      5.52019      -8.89046      -0.84835
                        -----------------------------------------
Total Dipole Moment    :      0.35730      -1.39899       0.75971
                        -----------------------------------------
Magnitude (a.u.)       :      1.63156
Magnitude (Debye)      :      4.14711

Rotational constants in cm-1:     0.153332     0.082132     0.079755
Rotational constants in MHz :  4596.775407  2462.251277  2391.008596

                             ****ORCA TERMINATED NORMALLY****
TOTAL RUN TIME: 0 days 0 hours 0 minutes 17 seconds 130 msec
