                         Program Version 5.0.0 -  RELEASE  -
|  1> !TPSS D3BJ RIJCOSX def2-TZVPD def2/J TightSCF
|  2> *xyz 0 1
|  3> C          4.49059        1.15590       -2.46929
|  4> N          4.30539        1.22276       -3.90832
|  5> C          4.63192        2.24637       -4.67096
|  6> N          4.54169        2.14399       -5.98714
|  7> C          5.08409        3.39358       -4.11855
|  8> H          4.92067        3.57050       -3.13587
|  9> H          5.25465        4.19739       -4.70696
| 10> H          3.82453        0.44911       -4.35093
| 11> H          4.34337        1.24932       -6.41665
| 12> H          4.67671        2.95662       -6.57411
| 13> C          5.94213        0.93950       -2.03689
| 14> H          3.86431        0.32853       -2.13661
| 15> H          4.07623        2.04999       -1.98901
| 16> H          6.32982        0.06401       -2.51451
| 17> H          5.98308        0.81426       -0.97504
| 18> H          6.52865        1.78889       -2.31873
| 19> *
| 20>
| 21> %MaxCore 64000
| 22>
| 23> %pal nprocs 4
| 24> end
| 25>
| 26> %scf
| 27>   MaxIter 150
| 28> end
| 29>
| 30>
| 31>                          ****END OF INPUT****

CARTESIAN COORDINATES (ANGSTROEM)
---------------------------------
  C      4.490590    1.155900   -2.469290
  N      4.305390    1.222760   -3.908320
  C      4.631920    2.246370   -4.670960
  N      4.541690    2.143990   -5.987140
  C      5.084090    3.393580   -4.118550
  H      4.920670    3.570500   -3.135870
  H      5.254650    4.197390   -4.706960
  H      3.824530    0.449110   -4.350930
  H      4.343370    1.249320   -6.416650
  H      4.676710    2.956620   -6.574110
  C      5.942130    0.939500   -2.036890
  H      3.864310    0.328530   -2.136610
  H      4.076230    2.049990   -1.989010
  H      6.329820    0.064010   -2.514510
  H      5.983080    0.814260   -0.975040
  H      6.528650    1.788890   -2.318730

 Total Charge           Charge          ....    0
 Multiplicity           Mult            ....    1
 Number of Electrons    NEL             ....   48
 Basis Dimension        Dim             ....  312

ORBITAL ENERGIES
----------------

  NO   OCC          E(Eh)            E(eV)
   0   2.0000     -14.104965      -383.8156
   1   2.0000     -14.103166      -383.7667
   2   2.0000     -10.024051      -272.7683
   3   2.0000     -10.018044      -272.6048
   4   2.0000      -9.963477      -271.1200
   5   2.0000      -9.896710      -269.3032
   6   2.0000      -0.905812       -24.6484
   7   2.0000      -0.827630       -22.5210
   8   2.0000      -0.696910       -18.9639
   9   2.0000      -0.651619       -17.7315
  10   2.0000      -0.589700       -16.0466
  11   2.0000      -0.516025       -14.0418
  12   2.0000      -0.504672       -13.7328
  13   2.0000      -0.477881       -13.0038
  14   2.0000      -0.426623       -11.6090
  15   2.0000      -0.398017       -10.8306
  16   2.0000      -0.369805       -10.0629
  17   2.0000      -0.354533        -9.6473
  18   2.0000      -0.342681        -9.3248
  19   2.0000      -0.327695        -8.9170
  20   2.0000      -0.320325        -8.7165
  21   2.0000      -0.310096        -8.4381
  22   2.0000      -0.212022        -5.7694
  23   2.0000      -0.133872        -3.6428
  24   0.0000      -0.011757        -0.3199
  25   0.0000       0.010444         0.2842
  26   0.0000       0.019305         0.5253
  27   0.0000       0.028449         0.7741
  28   0.0000       0.050032         1.3614

MULLIKEN ATOMIC CHARGES
-----------------------
   0 C :   -0.327430
   1 N :   -0.302766
   2 C :    1.119037
   3 N :   -0.454598
   4 C :   -1.424577
   5 H :    0.260770
   6 H :    0.254409
   7 H :    0.190483
   8 H :    0.145628
   9 H :    0.143852
  10 C :   -0.884444
  11 H :    0.196419
  12 H :    0.257321
  13 H :    0.233920
  14 H :    0.256489
  15 H :    0.335487
Sum of atomic charges:   -0.0000000

LOEWDIN ATOMIC CHARGES
----------------------
   0 C :   -0.236539
   1 N :    0.012964
   2 C :   -0.567172
   3 N :    0.117377
   4 C :    0.008055
   5 H :   -0.001735
   6 H :    0.002559
   7 H :    0.136639
   8 H :    0.099537
   9 H :    0.110945
  10 C :   -0.077142
  11 H :    0.107959
  12 H :    0.106908
  13 H :    0.063241
  14 H :    0.060713
  15 H :    0.055690

  Mayer bond orders larger than 0.100000
B(  0-C ,  1-N ) :   0.9001 B(  0-C ,  4-C ) :   0.1562 B(  0-C , 10-C ) :   0.9077
B(  0-C , 11-H ) :   0.9112 B(  0-C , 12-H ) :   0.8846 B(  1-N ,  2-C ) :   1.0000
B(  1-N ,  7-H ) :   1.0223 B(  1-N , 10-C ) :   0.1378 B(  2-C ,  3-N ) :   0.7887
B(  2-C ,  4-C ) :   0.9425 B(  3-N ,  4-C ) :   0.1191 B(  3-N ,  8-H ) :   1.0701
B(  3-N ,  9-H ) :   1.0527 B(  4-C ,  5-H ) :   0.9921 B(  4-C ,  6-H ) :   1.0294
B( 10-C , 13-H ) :   0.9759 B( 10-C , 14-H ) :   0.9360 B( 10-C , 15-H ) :   0.9605

Dispersion correction           -0.015869460
FINAL SINGLE POINT ENERGY      -268.063842582092

DIPOLE MOMENT
-------------
                                X             Y             Z
Electronic contribution:     -1.88156      -0.11839      -3.81939
Nuclear contribution   :      1.39581      -0.78630       3.38596
                        -----------------------------------------
Total Dipole Moment    :     -0.48575      -0.90469      -0.43342
                        -----------------------------------------
Magnitude (a.u.)       :      1.11457
Magnitude (Debye)      :      2.83302

Rotational constants in cm-1:     0.239249     0.075811     0.066261
Rotational constants in MHz :  7172.504830  2272.756282  1986.457543

                             ****ORCA TERMINATED NORMALLY****
TOTAL RUN TIME: 0 days 0 hours 0 minutes 24 seconds 444 msec
