                         Program Version 5.0.0 -  RELEASE  -
|  1> !TPSS D3BJ RIJCOSX def2-TZVPD def2/J TightSCF xyzfile
|  2>
|  3> *xyzfile 0 1 D1.xyz
|  4>
|  5> %MaxCore 64000
|  6>
|  7> %pal nprocs 4
|  8> end
|  9>
| 10> %scf
| 11>   MaxIter 150
| 12> end
| 13>
| 14>
| 15>                          ****END OF INPUT****

CARTESIAN COORDINATES (ANGSTROEM)
---------------------------------
  C      4.490588    1.155899   -2.469290
  C      4.305394    1.222762   -3.908317
  C      4.906458   -3.102816   -5.954844
  C      3.511771   -2.806215   -6.492283
  H      2.736044   -3.373445   -5.973736
  H      3.444904   -3.040831   -7.555281
  S      3.004618   -1.096206   -6.389259
  C      4.631918    2.246365   -4.670958
  N      4.541686    2.143990   -5.987139
  N      5.084086    3.393584   -4.118545
  H      4.920675    3.570501   -3.135870
  H      5.254652    4.197390   -4.706956
  H      3.824530    0.449113   -4.350926
  H      4.343373    1.249318   -6.416646
  H      4.676712    2.956624   -6.574113
  F      4.128856   -0.329647   -6.953717
  O      1.781285   -1.000779   -7.136399
  C      5.942129    0.939500   -2.036893
  H      3.864305    0.328532   -2.136611
  H      4.076233    2.049994   -1.989010
  C      6.462677   -3.117775   -3.944671
  C      5.024977   -3.025679   -4.437625
  H      4.423321   -3.818693   -3.977648
  H      4.579350   -2.087131   -4.108727
  H      5.201533   -4.100207   -6.296905
  H      5.605922   -2.397822   -6.413368
  C      6.559957   -0.356290   -2.559086
  H      5.967976    0.952567   -0.942444
  H      6.547184    1.788331   -2.368849
  C      6.006283   -1.615917   -1.899301
  H      7.642360   -0.318000   -2.402059
  H      6.414855   -0.403433   -3.642587
  C      6.608718   -2.917014   -2.435655
  H      6.190324   -1.561115   -0.820948
  H      4.919250   -1.651245   -2.016586
  H      7.066975   -2.374258   -4.475514
  H      6.887808   -4.089747   -4.215332
  H      6.135197   -3.755573   -1.915159
  H      7.671142   -2.955503   -2.172291
  O      2.851546   -0.783683   -4.956789

 Total Charge           Charge          ....    0
 Multiplicity           Mult            ....    1
 Number of Electrons    NEL             ....  144
 Basis Dimension        Dim             ....  854

ORBITAL ENERGIES
----------------

  NO   OCC          E(Eh)            E(eV)
   0   2.0000     -88.590598     -2410.6727
   1   2.0000     -24.530251      -667.5021
   2   2.0000     -18.905229      -514.4374
   3   2.0000     -18.893006      -514.1048
   4   2.0000     -14.091944      -383.4613
   5   2.0000     -14.088044      -383.3552
   6   2.0000     -10.047594      -273.4089
   7   2.0000     -10.013725      -272.4873
   8   2.0000     -10.006428      -272.2888
   9   2.0000      -9.984465      -271.6911
  10   2.0000      -9.980192      -271.5748
  11   2.0000      -9.973958      -271.4052
  12   2.0000      -9.965190      -271.1666
  13   2.0000      -9.958552      -270.9860
  14   2.0000      -9.953483      -270.8480
  15   2.0000      -9.947578      -270.6873
  16   2.0000      -9.880027      -268.8492
  17   2.0000      -7.940820      -216.0807
  18   2.0000      -5.924351      -161.2098
  19   2.0000      -5.917189      -161.0149
  20   2.0000      -5.916711      -161.0019
  21   2.0000      -1.297232       -35.2995
  22   2.0000      -1.044870       -28.4324
  23   2.0000      -0.953927       -25.9577
  24   2.0000      -0.883698       -24.0466
  25   2.0000      -0.801605       -21.8128
  26   2.0000      -0.783772       -21.3275
  27   2.0000      -0.747272       -20.3343
  28   2.0000      -0.720314       -19.6008
  29   2.0000      -0.695588       -18.9279
  30   2.0000      -0.670192       -18.2368
  31   2.0000      -0.647639       -17.6231
  32   2.0000      -0.619240       -16.8504
  33   2.0000      -0.589811       -16.0496
  34   2.0000      -0.567070       -15.4308
  35   2.0000      -0.553184       -15.0529
  36   2.0000      -0.535413       -14.5693
  37   2.0000      -0.532743       -14.4967
  38   2.0000      -0.512247       -13.9390
  39   2.0000      -0.511383       -13.9154
  40   2.0000      -0.496717       -13.5164
  41   2.0000      -0.482318       -13.1246
  42   2.0000      -0.453990       -12.3537
  43   2.0000      -0.448948       -12.2165
  44   2.0000      -0.443279       -12.0622
  45   2.0000      -0.428460       -11.6590
  46   2.0000      -0.418536       -11.3889
  47   2.0000      -0.410656       -11.1745
  48   2.0000      -0.408429       -11.1139
  49   2.0000      -0.405151       -11.0247
  50   2.0000      -0.385908       -10.5011
  51   2.0000      -0.379550       -10.3281
  52   2.0000      -0.376234       -10.2379
  53   2.0000      -0.362683        -9.8691
  54   2.0000      -0.351032        -9.5521
  55   2.0000      -0.342021        -9.3069
  56   2.0000      -0.339740        -9.2448
  57   2.0000      -0.332575        -9.0498
  58   2.0000      -0.324960        -8.8426
  59   2.0000      -0.315507        -8.5854
  60   2.0000      -0.310388        -8.4461
  61   2.0000      -0.303390        -8.2557
  62   2.0000      -0.300129        -8.1669
  63   2.0000      -0.288406        -7.8479
  64   2.0000      -0.285168        -7.7598
  65   2.0000      -0.274908        -7.4806
  66   2.0000      -0.272826        -7.4240
  67   2.0000      -0.265238        -7.2175
  68   2.0000      -0.258795        -7.0422
  69   2.0000      -0.242288        -6.5930
  70   2.0000      -0.214446        -5.8354
  71   2.0000      -0.117974        -3.2102
  72   0.0000      -0.032107        -0.8737
  73   0.0000      -0.007270        -0.1978
  74   0.0000      -0.002432        -0.0662
  75   0.0000       0.002044         0.0556
  76   0.0000       0.005882         0.1600

MULLIKEN ATOMIC CHARGES
-----------------------
   0 C :   -0.896264
   1 C :   -2.503443
   2 C :   -0.511941
   3 C :   -0.437139
   4 H :    0.253788
   5 H :    0.198165
   6 S :    1.348883
   7 C :    1.414212
   8 N :   -0.470747
   9 N :   -0.495693
  10 H :    0.177358
  11 H :    0.104762
  12 H :    1.860314
  13 H :    0.211590
  14 H :    0.104083
  15 F :   -0.286064
  16 O :   -0.640118
  17 C :   -0.298751
  18 H :    0.175457
  19 H :    0.234965
  20 C :   -0.444308
  21 C :   -0.361428
  22 H :    0.173918
  23 H :    0.460089
  24 H :    0.147575
  25 H :    0.261172
  26 C :   -0.396752
  27 H :    0.099755
  28 H :    0.297172
  29 C :   -0.452018
  30 H :    0.071850
  31 H :    0.384186
  32 C :   -0.408851
  33 H :    0.128475
  34 H :    0.327395
  35 H :    0.373174
  36 H :    0.138475
  37 H :    0.155303
  38 H :    0.141411
  39 O :   -0.640011
Sum of atomic charges:    0.0000000

LOEWDIN ATOMIC CHARGES
----------------------
   0 C :   -0.215404
   1 C :   -0.137993
   2 C :   -0.217449
   3 C :   -0.217753
   4 H :    0.118521
   5 H :    0.101946
   6 S :    0.614201
   7 C :   -0.518040
   8 N :    0.125191
   9 N :    0.133481
  10 H :    0.094587
  11 H :    0.092025
  12 H :    0.004625
  13 H :    0.056352
  14 H :    0.100844
  15 F :   -0.078162
  16 O :   -0.235057
  17 C :   -0.199902
  18 H :    0.103020
  19 H :    0.098256
  20 C :   -0.210542
  21 C :   -0.210208
  22 H :    0.127122
  23 H :    0.085688
  24 H :    0.118401
  25 H :    0.109888
  26 C :   -0.206702
  27 H :    0.101551
  28 H :    0.098926
  29 C :   -0.210222
  30 H :    0.110698
  31 H :    0.098604
  32 C :   -0.204576
  33 H :    0.110680
  34 H :    0.099723
  35 H :    0.105978
  36 H :    0.108767
  37 H :    0.104728
  38 H :    0.105715
  39 O :   -0.267508

  Mayer bond orders larger than 0.100000
B(  0-C ,  1-C ) :   1.8162 B(  0-C ,  7-C ) :  -0.3179 B(  0-C , 12-H ) :  -0.2825
B(  0-C , 17-C ) :   0.8326 B(  0-C , 18-H ) :   0.9143 B(  0-C , 19-H ) :   0.8080
B(  0-C , 29-C ) :   0.1657 B(  1-C ,  6-S ) :  -0.1356 B(  1-C ,  7-C ) :  -0.4228
B(  1-C ,  9-N ) :   0.1466 B(  1-C , 12-H ) :  -2.8173 B(  1-C , 17-C ) :   0.2534
B(  1-C , 26-C ) :   0.2120 B(  1-C , 31-H ) :  -0.1027 B(  1-C , 39-O ) :   0.5456
B(  2-C ,  3-C ) :   1.1747 B(  2-C , 20-C ) :   0.4428 B(  2-C , 21-C ) :   0.6028
B(  2-C , 22-H ) :  -0.1327 B(  2-C , 24-H ) :   0.9611 B(  2-C , 25-H ) :   0.8056
B(  3-C ,  4-H ) :   0.8398 B(  3-C ,  5-H ) :   0.9492 B(  3-C ,  6-S ) :   0.8680
B(  3-C , 16-O ) :   0.1706 B(  3-C , 21-C ) :   0.2058 B(  6-S , 15-F ) :   0.8512
B(  6-S , 16-O ) :   1.3612 B(  6-S , 21-C ) :   0.1005 B(  6-S , 39-O ) :   1.5824
B(  7-C ,  8-N ) :   0.7661 B(  7-C ,  9-N ) :   0.7836 B(  7-C , 12-H ) :   1.1761
B(  8-N , 13-H ) :   0.9039 B(  8-N , 14-H ) :   1.1243 B(  9-N , 10-H ) :   0.9988
B(  9-N , 11-H ) :   1.0982 B(  9-N , 17-C ) :   0.1478 B( 12-H , 39-O ) :  -0.7383
B( 17-C , 26-C ) :   1.3501 B( 17-C , 27-H ) :   0.9495 B( 17-C , 28-H ) :   0.7806
B( 17-C , 29-C ) :   0.2056 B( 20-C , 21-C ) :   0.6648 B( 20-C , 26-C ) :   0.1956
B( 20-C , 32-C ) :   1.1604 B( 20-C , 35-H ) :   0.7576 B( 20-C , 36-H ) :   0.9049
B( 21-C , 22-H ) :   0.7018 B( 21-C , 23-H ) :   1.2459 B( 21-C , 29-C ) :   0.1691
B( 21-C , 32-C ) :   0.1785 B( 21-C , 39-O ) :   0.1749 B( 22-H , 23-H ) :   0.2230
B( 23-H , 39-O ) :  -0.1950 B( 26-C , 29-C ) :   0.5015 B( 26-C , 30-H ) :   0.9257
B( 26-C , 31-H ) :   0.8408 B( 26-C , 32-C ) :   0.1392 B( 26-C , 34-H ) :  -0.1052
B( 29-C , 32-C ) :   1.1473 B( 29-C , 33-H ) :   0.9021 B( 29-C , 34-H ) :   0.8723
B( 32-C , 37-H ) :   0.8807 B( 32-C , 38-H ) :   0.9090

Dispersion correction           -0.060934295
FINAL SINGLE POINT ENERGY     -1191.443392550669

DIPOLE MOMENT
-------------
                                X             Y             Z
Electronic contribution:    -16.38016       4.89012     -21.40354
Nuclear contribution   :     17.24138      -5.45913      20.34076
                        -----------------------------------------
Total Dipole Moment    :      0.86122      -0.56901      -1.06278
                        -----------------------------------------
Magnitude (a.u.)       :      1.48155
Magnitude (Debye)      :      3.76579

Rotational constants in cm-1:     0.014201     0.012275     0.007453
Rotational constants in MHz :   425.728191   368.008875   223.435232

                             ****ORCA TERMINATED NORMALLY****
TOTAL RUN TIME: 0 days 0 hours 3 minutes 48 seconds 517 msec
