                         Program Version 5.0.0 -  RELEASE  -
|  1> !TPSS D3BJ RIJCOSX def2-TZVPD def2/J TightSCF xyzfile
|  2>
|  3> *xyzfile 0 1 D2.xyz
|  4>
|  5> %MaxCore 64000
|  6>
|  7> %pal nprocs 4
|  8> end
|  9>
| 10> %scf
| 11>   MaxIter 150
| 12> end
| 13>
| 14>
| 15>                          ****END OF INPUT****

CARTESIAN COORDINATES (ANGSTROEM)
---------------------------------
  C      4.490588    1.155899   -2.469290
  N      4.305394    1.222762   -3.908317
  C      4.906458   -3.102816   -5.954844
  C      3.511771   -2.806215   -6.492283
  H      2.736044   -3.373445   -5.973736
  H      3.444904   -3.040831   -7.555281
  S      3.004618   -1.096206   -6.389259
  C      4.631918    2.246365   -4.670958
  C      4.541686    2.143990   -5.987139
  N      5.084086    3.393584   -4.118545
  H      4.920675    3.570501   -3.135870
  H      5.254652    4.197390   -4.706956
  H      3.824530    0.449113   -4.350926
  H      4.343373    1.249318   -6.416646
  H      4.676712    2.956624   -6.574113
  F      4.128856   -0.329647   -6.953717
  O      1.781285   -1.000779   -7.136399
  C      5.942129    0.939500   -2.036893
  H      3.864305    0.328532   -2.136611
  H      4.076233    2.049994   -1.989010
  C      6.462677   -3.117775   -3.944671
  C      5.024977   -3.025679   -4.437625
  H      4.423321   -3.818693   -3.977648
  H      4.579350   -2.087131   -4.108727
  H      5.201533   -4.100207   -6.296905
  H      5.605922   -2.397822   -6.413368
  C      6.559957   -0.356290   -2.559086
  H      5.967976    0.952567   -0.942444
  H      6.547184    1.788331   -2.368849
  C      6.006283   -1.615917   -1.899301
  H      7.642360   -0.318000   -2.402059
  H      6.414855   -0.403433   -3.642587
  C      6.608718   -2.917014   -2.435655
  H      6.190324   -1.561115   -0.820948
  H      4.919250   -1.651245   -2.016586
  H      7.066975   -2.374258   -4.475514
  H      6.887808   -4.089747   -4.215332
  H      6.135197   -3.755573   -1.915159
  H      7.671142   -2.955503   -2.172291
  O      2.851546   -0.783683   -4.956789

 Total Charge           Charge          ....    0
 Multiplicity           Mult            ....    1
 Number of Electrons    NEL             ....  144
 Basis Dimension        Dim             ....  854

ORBITAL ENERGIES
----------------

  NO   OCC          E(Eh)            E(eV)
   0   2.0000     -88.593697     -2410.7570
   1   2.0000     -24.516589      -667.1303
   2   2.0000     -18.905475      -514.4441
   3   2.0000     -18.903294      -514.3848
   4   2.0000     -14.089059      -383.3828
   5   2.0000     -14.073532      -382.9603
   6   2.0000     -10.049162      -273.4516
   7   2.0000     -10.016818      -272.5715
   8   2.0000     -10.009507      -272.3725
   9   2.0000     -10.008466      -272.3442
  10   2.0000      -9.991524      -271.8832
  11   2.0000      -9.987325      -271.7689
  12   2.0000      -9.983369      -271.6613
  13   2.0000      -9.978699      -271.5342
  14   2.0000      -9.975001      -271.4336
  15   2.0000      -9.974690      -271.4251
  16   2.0000      -9.880484      -268.8616
  17   2.0000      -7.943509      -216.1539
  18   2.0000      -5.926808      -161.2767
  19   2.0000      -5.920228      -161.0976
  20   2.0000      -5.919478      -161.0772
  21   2.0000      -1.284819       -34.9617
  22   2.0000      -1.047468       -28.5031
  23   2.0000      -0.960235       -26.1293
  24   2.0000      -0.885565       -24.0975
  25   2.0000      -0.807021       -21.9602
  26   2.0000      -0.787351       -21.4249
  27   2.0000      -0.755232       -20.5509
  28   2.0000      -0.727157       -19.7869
  29   2.0000      -0.693705       -18.8767
  30   2.0000      -0.671074       -18.2609
  31   2.0000      -0.645588       -17.5673
  32   2.0000      -0.626591       -17.0504
  33   2.0000      -0.596945       -16.2437
  34   2.0000      -0.575481       -15.6596
  35   2.0000      -0.551179       -14.9983
  36   2.0000      -0.538348       -14.6492
  37   2.0000      -0.530385       -14.4325
  38   2.0000      -0.524380       -14.2691
  39   2.0000      -0.511003       -13.9051
  40   2.0000      -0.504826       -13.7370
  41   2.0000      -0.472395       -12.8545
  42   2.0000      -0.455528       -12.3956
  43   2.0000      -0.447482       -12.1766
  44   2.0000      -0.438109       -11.9215
  45   2.0000      -0.436490       -11.8775
  46   2.0000      -0.426138       -11.5958
  47   2.0000      -0.420078       -11.4309
  48   2.0000      -0.415145       -11.2967
  49   2.0000      -0.399197       -10.8627
  50   2.0000      -0.396139       -10.7795
  51   2.0000      -0.391697       -10.6586
  52   2.0000      -0.380336       -10.3495
  53   2.0000      -0.357512        -9.7284
  54   2.0000      -0.355217        -9.6659
  55   2.0000      -0.353026        -9.6063
  56   2.0000      -0.343464        -9.3461
  57   2.0000      -0.332568        -9.0496
  58   2.0000      -0.331596        -9.0232
  59   2.0000      -0.325153        -8.8479
  60   2.0000      -0.319394        -8.6911
  61   2.0000      -0.311612        -8.4794
  62   2.0000      -0.308867        -8.4047
  63   2.0000      -0.302253        -8.2247
  64   2.0000      -0.296535        -8.0691
  65   2.0000      -0.289347        -7.8735
  66   2.0000      -0.286264        -7.7896
  67   2.0000      -0.279772        -7.6130
  68   2.0000      -0.277599        -7.5539
  69   2.0000      -0.274117        -7.4591
  70   2.0000      -0.200290        -5.4502
  71   2.0000      -0.120477        -3.2784
  72   0.0000      -0.028024        -0.7626
  73   0.0000      -0.004531        -0.1233
  74   0.0000      -0.002869        -0.0781
  75   0.0000      -0.000372        -0.0101
  76   0.0000       0.004949         0.1347

MULLIKEN ATOMIC CHARGES
-----------------------
   0 C :   -0.806226
   1 N :   -0.254759
   2 C :   -0.502275
   3 C :   -0.456528
   4 H :    0.251361
   5 H :    0.208336
   6 S :    1.303913
   7 C :    1.585151
   8 C :   -2.595778
   9 N :   -0.491374
  10 H :    0.170088
  11 H :    0.122436
  12 H :    0.280684
  13 H :    1.102449
  14 H :    0.192576
  15 F :   -0.132338
  16 O :   -0.640053
  17 C :   -0.176751
  18 H :    0.230919
  19 H :    0.257632
  20 C :   -0.407004
  21 C :   -0.440174
  22 H :    0.204619
  23 H :    0.451453
  24 H :    0.152519
  25 H :    0.266828
  26 C :   -0.302478
  27 H :    0.150300
  28 H :    0.289723
  29 C :   -0.487142
  30 H :    0.063132
  31 H :    0.316524
  32 C :   -0.408656
  33 H :    0.124773
  34 H :    0.346457
  35 H :    0.352910
  36 H :    0.133755
  37 H :    0.158040
  38 H :    0.141432
  39 O :   -0.756473
Sum of atomic charges:    0.0000000

LOEWDIN ATOMIC CHARGES
----------------------
   0 C :   -0.182934
   1 N :    0.037663
   2 C :   -0.216141
   3 C :   -0.217267
   4 H :    0.117637
   5 H :    0.103828
   6 S :    0.618957
   7 C :   -0.539293
   8 C :    0.008569
   9 N :    0.127962
  10 H :    0.085644
  11 H :    0.104906
  12 H :    0.060668
  13 H :   -0.030586
  14 H :    0.010258
  15 F :   -0.081878
  16 O :   -0.229661
  17 C :   -0.185107
  18 H :    0.111740
  19 H :    0.105321
  20 C :   -0.209214
  21 C :   -0.211798
  22 H :    0.127324
  23 H :    0.082191
  24 H :    0.119069
  25 H :    0.111790
  26 C :   -0.203670
  27 H :    0.106262
  28 H :    0.100007
  29 C :   -0.212198
  30 H :    0.113400
  31 H :    0.101522
  32 C :   -0.202866
  33 H :    0.111322
  34 H :    0.098101
  35 H :    0.107022
  36 H :    0.110251
  37 H :    0.105937
  38 H :    0.106977
  39 O :   -0.271715

  Mayer bond orders larger than 0.100000
B(  0-C ,  1-N ) :   1.1394 B(  0-C ,  7-C ) :  -0.1564 B(  0-C ,  9-N ) :   0.1327
B(  0-C , 12-H ) :  -0.1098 B(  0-C , 17-C ) :   0.8337 B(  0-C , 18-H ) :   0.8288
B(  0-C , 19-H ) :   0.7778 B(  0-C , 29-C ) :   0.1870 B(  1-N ,  7-C ) :   0.9859
B(  1-N ,  8-C ) :   0.1275 B(  1-N , 12-H ) :   0.8187 B(  1-N , 17-C ) :   0.1549
B(  1-N , 39-O ) :  -0.1034 B(  2-C ,  3-C ) :   1.1912 B(  2-C , 20-C ) :   0.4356
B(  2-C , 21-C ) :   0.6282 B(  2-C , 22-H ) :  -0.1186 B(  2-C , 24-H ) :   0.9513
B(  2-C , 25-H ) :   0.8060 B(  3-C ,  4-H ) :   0.8408 B(  3-C ,  5-H ) :   0.9468
B(  3-C ,  6-S ) :   0.8772 B(  3-C , 16-O ) :   0.1677 B(  3-C , 21-C ) :   0.2332
B(  6-S , 15-F ) :   0.9109 B(  6-S , 16-O ) :   1.3651 B(  6-S , 21-C ) :   0.1212
B(  6-S , 39-O ) :   1.5846 B(  7-C ,  8-C ) :   0.1086 B(  7-C ,  9-N ) :   0.7685
B(  7-C , 12-H ) :  -0.2313 B(  7-C , 13-H ) :   0.1944 B(  7-C , 14-H ) :  -0.1861
B(  8-C ,  9-N ) :   0.1043 B(  8-C , 13-H ) :  -0.4164 B(  8-C , 14-H ) :   1.1619
B(  9-N , 10-H ) :   1.0176 B(  9-N , 11-H ) :   1.0706 B( 13-H , 14-H ) :   0.1474
B( 13-H , 15-F ) :  -0.2199 B( 17-C , 26-C ) :   1.2908 B( 17-C , 27-H ) :   0.9461
B( 17-C , 28-H ) :   0.8180 B( 17-C , 29-C ) :   0.1791 B( 20-C , 21-C ) :   0.6445
B( 20-C , 26-C ) :   0.1684 B( 20-C , 32-C ) :   1.1729 B( 20-C , 35-H ) :   0.7667
B( 20-C , 36-H ) :   0.8990 B( 21-C , 22-H ) :   0.6986 B( 21-C , 23-H ) :   1.2745
B( 21-C , 29-C ) :   0.1472 B( 21-C , 32-C ) :   0.2058 B( 21-C , 39-O ) :   0.1754
B( 22-H , 23-H ) :   0.1972 B( 23-H , 39-O ) :  -0.2229 B( 26-C , 29-C ) :   0.4707
B( 26-C , 30-H ) :   0.9110 B( 26-C , 31-H ) :   0.8719 B( 26-C , 32-C ) :   0.1806
B( 26-C , 34-H ) :  -0.1101 B( 29-C , 32-C ) :   1.1677 B( 29-C , 33-H ) :   0.9060
B( 29-C , 34-H ) :   0.8504 B( 32-C , 37-H ) :   0.8766 B( 32-C , 38-H ) :   0.9033

Dispersion correction           -0.060628595
FINAL SINGLE POINT ENERGY     -1191.449757342096

DIPOLE MOMENT
-------------
                                X             Y             Z
Electronic contribution:    -16.43429       3.99277     -19.60103
Nuclear contribution   :     17.27667      -5.32157      20.03034
                        -----------------------------------------
Total Dipole Moment    :      0.84238      -1.32879       0.42930
                        -----------------------------------------
Magnitude (a.u.)       :      1.63083
Magnitude (Debye)      :      4.14524

Rotational constants in cm-1:     0.014355     0.012269     0.007481
Rotational constants in MHz :   430.360270   367.823451   224.273399

                             ****ORCA TERMINATED NORMALLY****
TOTAL RUN TIME: 0 days 0 hours 4 minutes 0 seconds 899 msec
