                         Program Version 5.0.0 -  RELEASE  -
|  1> !TPSS D3BJ RIJCOSX def2-TZVPD def2/J TightSCF xyzfile
|  2>
|  3> *xyzfile 0 1 D3.xyz
|  4>
|  5> %MaxCore 64000
|  6>
|  7> %pal nprocs 4
|  8> end
|  9>
| 10> %scf
| 11>   MaxIter 150
| 12> end
| 13>
| 14>
| 15>                          ****END OF INPUT****

CARTESIAN COORDINATES (ANGSTROEM)
---------------------------------
  C      4.490588    1.155899   -2.469290
  N      4.305394    1.222762   -3.908317
  C      4.906458   -3.102816   -5.954844
  C      3.511771   -2.806215   -6.492283
  H      2.736044   -3.373445   -5.973736
  H      3.444904   -3.040831   -7.555281
  S      3.004618   -1.096206   -6.389259
  C      4.631918    2.246365   -4.670958
  N      4.541686    2.143990   -5.987139
  C      5.084086    3.393584   -4.118545
  H      4.920675    3.570501   -3.135870
  H      5.254652    4.197390   -4.706956
  H      3.824530    0.449113   -4.350926
  H      4.343373    1.249318   -6.416646
  H      4.676712    2.956624   -6.574113
  F      4.128856   -0.329647   -6.953717
  O      1.781285   -1.000779   -7.136399
  C      5.942129    0.939500   -2.036893
  H      3.864305    0.328532   -2.136611
  H      4.076233    2.049994   -1.989010
  C      6.462677   -3.117775   -3.944671
  C      5.024977   -3.025679   -4.437625
  H      4.423321   -3.818693   -3.977648
  H      4.579350   -2.087131   -4.108727
  H      5.201533   -4.100207   -6.296905
  H      5.605922   -2.397822   -6.413368
  C      6.559957   -0.356290   -2.559086
  H      5.967976    0.952567   -0.942444
  H      6.547184    1.788331   -2.368849
  C      6.006283   -1.615917   -1.899301
  H      7.642360   -0.318000   -2.402059
  H      6.414855   -0.403433   -3.642587
  C      6.608718   -2.917014   -2.435655
  H      6.190324   -1.561115   -0.820948
  H      4.919250   -1.651245   -2.016586
  H      7.066975   -2.374258   -4.475514
  H      6.887808   -4.089747   -4.215332
  H      6.135197   -3.755573   -1.915159
  H      7.671142   -2.955503   -2.172291
  O      2.851546   -0.783683   -4.956789

 Total Charge           Charge          ....    0
 Multiplicity           Mult            ....    1
 Number of Electrons    NEL             ....  144
 Basis Dimension        Dim             ....  854

ORBITAL ENERGIES
----------------

  NO   OCC          E(Eh)            E(eV)
   0   2.0000     -88.608914     -2411.1711
   1   2.0000     -24.544277      -667.8837
   2   2.0000     -18.921070      -514.8685
   3   2.0000     -18.917490      -514.7711
   4   2.0000     -14.087409      -383.3379
   5   2.0000     -14.075000      -383.0002
   6   2.0000     -10.061027      -273.7745
   7   2.0000     -10.025239      -272.8006
   8   2.0000     -10.007940      -272.3299
   9   2.0000     -10.001580      -272.1568
  10   2.0000      -9.996776      -272.0261
  11   2.0000      -9.990237      -271.8482
  12   2.0000      -9.983650      -271.6689
  13   2.0000      -9.976635      -271.4781
  14   2.0000      -9.970768      -271.3184
  15   2.0000      -9.965185      -271.1665
  16   2.0000      -9.882356      -268.9126
  17   2.0000      -7.959094      -216.5779
  18   2.0000      -5.942650      -161.7077
  19   2.0000      -5.935631      -161.5167
  20   2.0000      -5.934832      -161.4950
  21   2.0000      -1.311534       -35.6886
  22   2.0000      -1.063200       -28.9311
  23   2.0000      -0.974836       -26.5266
  24   2.0000      -0.888179       -24.1686
  25   2.0000      -0.812229       -22.1019
  26   2.0000      -0.796891       -21.6845
  27   2.0000      -0.757365       -20.6090
  28   2.0000      -0.725269       -19.7356
  29   2.0000      -0.699179       -19.0256
  30   2.0000      -0.672286       -18.2938
  31   2.0000      -0.646780       -17.5998
  32   2.0000      -0.633887       -17.2489
  33   2.0000      -0.606746       -16.5104
  34   2.0000      -0.581123       -15.8132
  35   2.0000      -0.560281       -15.2460
  36   2.0000      -0.549574       -14.9547
  37   2.0000      -0.545163       -14.8346
  38   2.0000      -0.529094       -14.3974
  39   2.0000      -0.516299       -14.0492
  40   2.0000      -0.495122       -13.4730
  41   2.0000      -0.479956       -13.0603
  42   2.0000      -0.473364       -12.8809
  43   2.0000      -0.458034       -12.4637
  44   2.0000      -0.453366       -12.3367
  45   2.0000      -0.436889       -11.8884
  46   2.0000      -0.430677       -11.7193
  47   2.0000      -0.423844       -11.5334
  48   2.0000      -0.413504       -11.2520
  49   2.0000      -0.404663       -11.0114
  50   2.0000      -0.396135       -10.7794
  51   2.0000      -0.392623       -10.6838
  52   2.0000      -0.378534       -10.3004
  53   2.0000      -0.367554       -10.0017
  54   2.0000      -0.356347        -9.6967
  55   2.0000      -0.350992        -9.5510
  56   2.0000      -0.345956        -9.4140
  57   2.0000      -0.338379        -9.2078
  58   2.0000      -0.329782        -8.9738
  59   2.0000      -0.328299        -8.9335
  60   2.0000      -0.319714        -8.6999
  61   2.0000      -0.315625        -8.5886
  62   2.0000      -0.312106        -8.4928
  63   2.0000      -0.309496        -8.4218
  64   2.0000      -0.299401        -8.1471
  65   2.0000      -0.293289        -7.9808
  66   2.0000      -0.292671        -7.9640
  67   2.0000      -0.279152        -7.5961
  68   2.0000      -0.278709        -7.5840
  69   2.0000      -0.269596        -7.3361
  70   2.0000      -0.195501        -5.3198
  71   2.0000      -0.119446        -3.2503
  72   0.0000      -0.043188        -1.1752
  73   0.0000      -0.014117        -0.3842
  74   0.0000      -0.007662        -0.2085
  75   0.0000      -0.002693        -0.0733
  76   0.0000       0.001437         0.0391

MULLIKEN ATOMIC CHARGES
-----------------------
   0 C :   -0.828377
   1 N :   -0.297414
   2 C :   -0.496985
   3 C :   -0.424700
   4 H :    0.255790
   5 H :    0.208838
   6 S :    1.271412
   7 C :    1.231084
   8 N :   -0.405208
   9 C :   -1.573186
  10 H :    0.299275
  11 H :    0.283522
  12 H :    0.411509
  13 H :    0.241805
  14 H :    0.096158
  15 F :   -0.299424
  16 O :   -0.626454
  17 C :   -0.236513
  18 H :    0.286236
  19 H :    0.221271
  20 C :   -0.414642
  21 C :   -0.469490
  22 H :    0.202026
  23 H :    0.480934
  24 H :    0.148203
  25 H :    0.266690
  26 C :   -0.286112
  27 H :    0.171367
  28 H :    0.317460
  29 C :   -0.467318
  30 H :    0.071022
  31 H :    0.260262
  32 C :   -0.422382
  33 H :    0.124111
  34 H :    0.335440
  35 H :    0.363024
  36 H :    0.138467
  37 H :    0.159898
  38 H :    0.143466
  39 O :   -0.741064
Sum of atomic charges:    0.0000000

LOEWDIN ATOMIC CHARGES
----------------------
   0 C :   -0.178832
   1 N :    0.033616
   2 C :   -0.216131
   3 C :   -0.214912
   4 H :    0.119803
   5 H :    0.104520
   6 S :    0.619480
   7 C :   -0.550220
   8 N :    0.131271
   9 C :    0.007829
  10 H :   -0.003742
  11 H :   -0.001029
  12 H :    0.055693
  13 H :    0.048826
  14 H :    0.114823
  15 F :   -0.078402
  16 O :   -0.225683
  17 C :   -0.180306
  18 H :    0.110543
  19 H :    0.111252
  20 C :   -0.209317
  21 C :   -0.211675
  22 H :    0.127937
  23 H :    0.082298
  24 H :    0.120263
  25 H :    0.110826
  26 C :   -0.205029
  27 H :    0.108402
  28 H :    0.100208
  29 C :   -0.212645
  30 H :    0.113293
  31 H :    0.098393
  32 C :   -0.203008
  33 H :    0.111824
  34 H :    0.097484
  35 H :    0.106650
  36 H :    0.110229
  37 H :    0.105694
  38 H :    0.107311
  39 O :   -0.267536

  Mayer bond orders larger than 0.100000
B(  0-C ,  1-N ) :   1.1892 B(  0-C ,  7-C ) :  -0.1202 B(  0-C ,  9-C ) :   0.1513
B(  0-C , 12-H ) :  -0.1847 B(  0-C , 17-C ) :   0.8743 B(  0-C , 18-H ) :   0.6825
B(  0-C , 19-H ) :   0.8222 B(  0-C , 29-C ) :   0.1933 B(  1-N ,  7-C ) :   0.9859
B(  1-N , 12-H ) :   0.7597 B(  1-N , 17-C ) :   0.1972 B(  2-C ,  3-C ) :   1.1842
B(  2-C , 20-C ) :   0.4376 B(  2-C , 21-C ) :   0.6235 B(  2-C , 22-H ) :  -0.1231
B(  2-C , 24-H ) :   0.9539 B(  2-C , 25-H ) :   0.8052 B(  3-C ,  4-H ) :   0.8387
B(  3-C ,  5-H ) :   0.9425 B(  3-C ,  6-S ) :   0.8584 B(  3-C , 16-O ) :   0.1665
B(  3-C , 21-C ) :   0.2284 B(  6-S , 15-F ) :   0.8639 B(  6-S , 16-O ) :   1.3990
B(  6-S , 21-C ) :   0.1214 B(  6-S , 39-O ) :   1.6218 B(  7-C ,  8-N ) :   0.7772
B(  7-C ,  9-C ) :   0.7391 B(  7-C , 12-H ) :  -0.2495 B(  8-N , 13-H ) :   0.8683
B(  8-N , 14-H ) :   1.1029 B(  9-C , 10-H ) :   1.0102 B(  9-C , 11-H ) :   1.0049
B( 16-O , 39-O ) :   0.1036 B( 17-C , 26-C ) :   1.2998 B( 17-C , 27-H ) :   0.8896
B( 17-C , 28-H ) :   0.8490 B( 17-C , 29-C ) :   0.1727 B( 20-C , 21-C ) :   0.6585
B( 20-C , 26-C ) :   0.1671 B( 20-C , 32-C ) :   1.1811 B( 20-C , 35-H ) :   0.7613
B( 20-C , 36-H ) :   0.8957 B( 21-C , 22-H ) :   0.6999 B( 21-C , 23-H ) :   1.2386
B( 21-C , 29-C ) :   0.1499 B( 21-C , 32-C ) :   0.2093 B( 21-C , 39-O ) :   0.1767
B( 22-H , 23-H ) :   0.2071 B( 23-H , 39-O ) :  -0.2271 B( 26-C , 29-C ) :   0.4800
B( 26-C , 30-H ) :   0.9009 B( 26-C , 31-H ) :   0.9103 B( 26-C , 32-C ) :   0.1831
B( 26-C , 34-H ) :  -0.1084 B( 29-C , 32-C ) :   1.1596 B( 29-C , 33-H ) :   0.9041
B( 29-C , 34-H ) :   0.8498 B( 32-C , 37-H ) :   0.8742 B( 32-C , 38-H ) :   0.9048

Dispersion correction           -0.060538107
FINAL SINGLE POINT ENERGY     -1191.451614345720

DIPOLE MOMENT
-------------
                                X             Y             Z
Electronic contribution:    -16.92992       2.74083     -21.28385
Nuclear contribution   :     17.35766      -5.13497      20.30937
                        -----------------------------------------
Total Dipole Moment    :      0.42774      -2.39414      -0.97448
                        -----------------------------------------
Magnitude (a.u.)       :      2.62001
Magnitude (Debye)      :      6.65954

Rotational constants in cm-1:     0.014431     0.012329     0.007535
Rotational constants in MHz :   432.628327   369.619539   225.898827

                             ****ORCA TERMINATED NORMALLY****
TOTAL RUN TIME: 0 days 0 hours 4 minutes 14 seconds 580 msec
