                         Program Version 5.0.0 -  RELEASE  -
|  1> !TPSS D3BJ RIJCOSX def2-TZVPD def2/J TightSCF xyzfile
|  2>
|  3> *xyzfile 0 1 D4.xyz
|  4>
|  5> %MaxCore 64000
|  6>
|  7> %pal nprocs 4
|  8> end
|  9>
| 10> %scf
| 11>   MaxIter 150
| 12> end
| 13>
| 14>
| 15>                          ****END OF INPUT****

CARTESIAN COORDINATES (ANGSTROEM)
---------------------------------
  C      4.490588    1.155899   -2.469290
  C      4.305394    1.222762   -3.908317
  C      4.906458   -3.102816   -5.954844
  C      3.511771   -2.806215   -6.492283
  H      2.736044   -3.373445   -5.973736
  H      3.444904   -3.040831   -7.555281
  S      3.004618   -1.096206   -6.389259
  C      4.631918    2.246365   -4.670958
  N      4.541686    2.143990   -5.987139
  N      5.084086    3.393584   -4.118545
  H      4.920675    3.570501   -3.135870
  H      5.254652    4.197390   -4.706956
  H      3.824530    0.449113   -4.350926
  H      4.343373    1.249318   -6.416646
  H      4.676712    2.956624   -6.574113
  O      4.128856   -0.329647   -6.953717
  F      1.781285   -1.000779   -7.136399
  C      5.942129    0.939500   -2.036893
  H      3.864305    0.328532   -2.136611
  H      4.076233    2.049994   -1.989010
  C      6.462677   -3.117775   -3.944671
  C      5.024977   -3.025679   -4.437625
  H      4.423321   -3.818693   -3.977648
  H      4.579350   -2.087131   -4.108727
  H      5.201533   -4.100207   -6.296905
  H      5.605922   -2.397822   -6.413368
  C      6.559957   -0.356290   -2.559086
  H      5.967976    0.952567   -0.942444
  H      6.547184    1.788331   -2.368849
  C      6.006283   -1.615917   -1.899301
  H      7.642360   -0.318000   -2.402059
  H      6.414855   -0.403433   -3.642587
  C      6.608718   -2.917014   -2.435655
  H      6.190324   -1.561115   -0.820948
  H      4.919250   -1.651245   -2.016586
  H      7.066975   -2.374258   -4.475514
  H      6.887808   -4.089747   -4.215332
  H      6.135197   -3.755573   -1.915159
  H      7.671142   -2.955503   -2.172291
  O      2.851546   -0.783683   -4.956789

 Total Charge           Charge          ....    0
 Multiplicity           Mult            ....    1
 Number of Electrons    NEL             ....  144
 Basis Dimension        Dim             ....  854

ORBITAL ENERGIES
----------------

  NO   OCC          E(Eh)            E(eV)
   0   2.0000     -88.598880     -2410.8981
   1   2.0000     -24.540155      -667.7716
   2   2.0000     -18.906684      -514.4770
   3   2.0000     -18.897972      -514.2400
   4   2.0000     -14.080409      -383.1474
   5   2.0000     -14.062037      -382.6475
   6   2.0000     -10.051267      -273.5089
   7   2.0000     -10.012437      -272.4523
   8   2.0000      -9.992680      -271.9146
   9   2.0000      -9.981538      -271.6114
  10   2.0000      -9.976217      -271.4667
  11   2.0000      -9.969970      -271.2967
  12   2.0000      -9.960282      -271.0331
  13   2.0000      -9.951595      -270.7967
  14   2.0000      -9.946013      -270.6448
  15   2.0000      -9.939511      -270.4679
  16   2.0000      -9.868354      -268.5316
  17   2.0000      -7.948763      -216.2968
  18   2.0000      -5.931970      -161.4171
  19   2.0000      -5.925480      -161.2405
  20   2.0000      -5.924687      -161.2189
  21   2.0000      -1.316359       -35.8200
  22   2.0000      -1.041948       -28.3528
  23   2.0000      -0.950753       -25.8713
  24   2.0000      -0.866909       -23.5898
  25   2.0000      -0.785077       -21.3630
  26   2.0000      -0.781165       -21.2566
  27   2.0000      -0.744192       -20.2505
  28   2.0000      -0.716283       -19.4911
  29   2.0000      -0.695941       -18.9375
  30   2.0000      -0.667550       -18.1650
  31   2.0000      -0.643513       -17.5109
  32   2.0000      -0.611917       -16.6511
  33   2.0000      -0.584724       -15.9112
  34   2.0000      -0.563203       -15.3255
  35   2.0000      -0.543530       -14.7902
  36   2.0000      -0.536520       -14.5994
  37   2.0000      -0.533806       -14.5256
  38   2.0000      -0.521335       -14.1863
  39   2.0000      -0.503547       -13.7022
  40   2.0000      -0.489649       -13.3240
  41   2.0000      -0.472203       -12.8493
  42   2.0000      -0.455905       -12.4058
  43   2.0000      -0.450709       -12.2644
  44   2.0000      -0.436623       -11.8811
  45   2.0000      -0.422890       -11.5074
  46   2.0000      -0.421711       -11.4753
  47   2.0000      -0.410044       -11.1579
  48   2.0000      -0.402911       -10.9638
  49   2.0000      -0.389507       -10.5990
  50   2.0000      -0.383199       -10.4274
  51   2.0000      -0.372696       -10.1416
  52   2.0000      -0.370581       -10.0840
  53   2.0000      -0.361101        -9.8260
  54   2.0000      -0.343370        -9.3436
  55   2.0000      -0.337469        -9.1830
  56   2.0000      -0.335138        -9.1196
  57   2.0000      -0.327727        -8.9179
  58   2.0000      -0.313019        -8.5177
  59   2.0000      -0.308994        -8.4082
  60   2.0000      -0.305656        -8.3173
  61   2.0000      -0.297982        -8.1085
  62   2.0000      -0.291177        -7.9233
  63   2.0000      -0.283757        -7.7214
  64   2.0000      -0.279996        -7.6191
  65   2.0000      -0.278812        -7.5869
  66   2.0000      -0.267340        -7.2747
  67   2.0000      -0.259652        -7.0655
  68   2.0000      -0.252053        -6.8587
  69   2.0000      -0.237193        -6.4543
  70   2.0000      -0.197967        -5.3870
  71   2.0000      -0.104757        -2.8506
  72   0.0000      -0.028748        -0.7823
  73   0.0000      -0.014533        -0.3955
  74   0.0000       0.001279         0.0348
  75   0.0000       0.005315         0.1446
  76   0.0000       0.008783         0.2390

MULLIKEN ATOMIC CHARGES
-----------------------
   0 C :   -0.859776
   1 C :   -2.373527
   2 C :   -0.472301
   3 C :   -0.555408
   4 H :    0.272196
   5 H :    0.260422
   6 S :    1.388796
   7 C :    1.253511
   8 N :   -0.439496
   9 N :   -0.494052
  10 H :    0.176295
  11 H :    0.105490
  12 H :    1.852729
  13 H :    0.225811
  14 H :    0.104333
  15 O :   -0.831967
  16 F :   -0.123072
  17 C :   -0.306069
  18 H :    0.171385
  19 H :    0.229096
  20 C :   -0.461182
  21 C :   -0.377764
  22 H :    0.179155
  23 H :    0.424164
  24 H :    0.143139
  25 H :    0.272316
  26 C :   -0.404107
  27 H :    0.101075
  28 H :    0.296994
  29 C :   -0.443910
  30 H :    0.069354
  31 H :    0.399025
  32 C :   -0.404705
  33 H :    0.129876
  34 H :    0.324637
  35 H :    0.380909
  36 H :    0.139707
  37 H :    0.154981
  38 H :    0.141354
  39 O :   -0.649413
Sum of atomic charges:   -0.0000000

LOEWDIN ATOMIC CHARGES
----------------------
   0 C :   -0.219869
   1 C :   -0.137938
   2 C :   -0.206526
   3 C :   -0.226001
   4 H :    0.108172
   5 H :    0.100076
   6 S :    0.638835
   7 C :   -0.519193
   8 N :    0.123886
   9 N :    0.130318
  10 H :    0.091872
  11 H :    0.090324
  12 H :    0.007401
  13 H :    0.031344
  14 H :    0.096288
  15 O :   -0.268710
  16 F :   -0.022377
  17 C :   -0.201006
  18 H :    0.101019
  19 H :    0.095930
  20 C :   -0.208924
  21 C :   -0.207104
  22 H :    0.125511
  23 H :    0.087633
  24 H :    0.120975
  25 H :    0.114838
  26 C :   -0.206143
  27 H :    0.100129
  28 H :    0.098915
  29 C :   -0.211089
  30 H :    0.110224
  31 H :    0.100956
  32 C :   -0.205142
  33 H :    0.110019
  34 H :    0.099005
  35 H :    0.107941
  36 H :    0.108417
  37 H :    0.103865
  38 H :    0.105547
  39 O :   -0.269417

  Mayer bond orders larger than 0.100000
B(  0-C ,  1-C ) :   1.6607 B(  0-C ,  7-C ) :  -0.2575 B(  0-C , 12-H ) :  -0.2542
B(  0-C , 17-C ) :   0.8275 B(  0-C , 18-H ) :   0.9150 B(  0-C , 19-H ) :   0.8177
B(  0-C , 29-C ) :   0.1705 B(  1-C ,  6-S ) :  -0.1454 B(  1-C ,  9-N ) :   0.1511
B(  1-C , 12-H ) :  -2.5797 B(  1-C , 17-C ) :   0.2366 B(  1-C , 26-C ) :   0.2020
B(  1-C , 39-O ) :   0.4932 B(  2-C ,  3-C ) :   1.2522 B(  2-C , 20-C ) :   0.4540
B(  2-C , 21-C ) :   0.6539 B(  2-C , 22-H ) :  -0.1368 B(  2-C , 24-H ) :   0.9496
B(  2-C , 25-H ) :   0.7692 B(  3-C ,  4-H ) :   0.8395 B(  3-C ,  5-H ) :   0.8450
B(  3-C ,  6-S ) :   0.8632 B(  3-C , 15-O ) :   0.1293 B(  3-C , 16-F ) :   0.1314
B(  3-C , 21-C ) :   0.2341 B(  3-C , 39-O ) :   0.1170 B(  6-S , 15-O ) :   1.3689
B(  6-S , 16-F ) :   0.8471 B(  6-S , 39-O ) :   1.6238 B(  7-C ,  8-N ) :   0.8009
B(  7-C ,  9-N ) :   0.7872 B(  7-C , 12-H ) :   1.0111 B(  8-N , 13-H ) :   0.8904
B(  8-N , 14-H ) :   1.1185 B(  9-N , 10-H ) :   0.9979 B(  9-N , 11-H ) :   1.0974
B(  9-N , 17-C ) :   0.1492 B( 12-H , 39-O ) :  -0.7613 B( 15-O , 39-O ) :   0.1514
B( 17-C , 26-C ) :   1.3525 B( 17-C , 27-H ) :   0.9531 B( 17-C , 28-H ) :   0.7785
B( 17-C , 29-C ) :   0.2110 B( 20-C , 21-C ) :   0.6777 B( 20-C , 26-C ) :   0.1978
B( 20-C , 32-C ) :   1.1602 B( 20-C , 35-H ) :   0.7512 B( 20-C , 36-H ) :   0.9037
B( 21-C , 22-H ) :   0.7040 B( 21-C , 23-H ) :   1.2595 B( 21-C , 29-C ) :   0.1639
B( 21-C , 32-C ) :   0.1745 B( 21-C , 39-O ) :   0.1907 B( 22-H , 23-H ) :   0.2104
B( 23-H , 39-O ) :  -0.1859 B( 26-C , 29-C ) :   0.4884 B( 26-C , 30-H ) :   0.9230
B( 26-C , 31-H ) :   0.8329 B( 26-C , 32-C ) :   0.1392 B( 26-C , 34-H ) :  -0.1056
B( 29-C , 32-C ) :   1.1423 B( 29-C , 33-H ) :   0.9035 B( 29-C , 34-H ) :   0.8724
B( 32-C , 37-H ) :   0.8814 B( 32-C , 38-H ) :   0.9084

Dispersion correction           -0.061321178
FINAL SINGLE POINT ENERGY     -1191.440195760921

DIPOLE MOMENT
-------------
                                X             Y             Z
Electronic contribution:    -20.56420       3.56881     -21.96008
Nuclear contribution   :     19.99734      -4.67125      20.55522
                        -----------------------------------------
Total Dipole Moment    :     -0.56686      -1.10244      -1.40486
                        -----------------------------------------
Magnitude (a.u.)       :      1.87359
Magnitude (Debye)      :      4.76228

Rotational constants in cm-1:     0.014213     0.012058     0.007367
Rotational constants in MHz :   426.102180   361.491761   220.844824

                             ****ORCA TERMINATED NORMALLY****
TOTAL RUN TIME: 0 days 0 hours 3 minutes 50 seconds 567 msec
