                         Program Version 5.0.0 -  RELEASE  -
|  1> !TPSS D3BJ RIJCOSX def2-TZVPD def2/J TightSCF xyzfile
|  2>
|  3> *xyzfile 0 1 D5.xyz
|  4>
|  5> %MaxCore 64000
|  6>
|  7> %pal nprocs 4
|  8> end
|  9>
| 10> %scf
| 11>   MaxIter 150
| 12> end
| 13>
| 14>
| 15>                          ****END OF INPUT****

CARTESIAN COORDINATES (ANGSTROEM)
---------------------------------
  C      4.490588    1.155899   -2.469290
  N      4.305394    1.222762   -3.908317
  C      4.906458   -3.102816   -5.954844
  C      3.511771   -2.806215   -6.492283
  H      2.736044   -3.373445   -5.973736
  H      3.444904   -3.040831   -7.555281
  S      3.004618   -1.096206   -6.389259
  C      4.631918    2.246365   -4.670958
  C      4.541686    2.143990   -5.987139
  N      5.084086    3.393584   -4.118545
  H      4.920675    3.570501   -3.135870
  H      5.254652    4.197390   -4.706956
  H      3.824530    0.449113   -4.350926
  H      4.343373    1.249318   -6.416646
  H      4.676712    2.956624   -6.574113
  O      4.128856   -0.329647   -6.953717
  F      1.781285   -1.000779   -7.136399
  C      5.942129    0.939500   -2.036893
  H      3.864305    0.328532   -2.136611
  H      4.076233    2.049994   -1.989010
  C      6.462677   -3.117775   -3.944671
  C      5.024977   -3.025679   -4.437625
  H      4.423321   -3.818693   -3.977648
  H      4.579350   -2.087131   -4.108727
  H      5.201533   -4.100207   -6.296905
  H      5.605922   -2.397822   -6.413368
  C      6.559957   -0.356290   -2.559086
  H      5.967976    0.952567   -0.942444
  H      6.547184    1.788331   -2.368849
  C      6.006283   -1.615917   -1.899301
  H      7.642360   -0.318000   -2.402059
  H      6.414855   -0.403433   -3.642587
  C      6.608718   -2.917014   -2.435655
  H      6.190324   -1.561115   -0.820948
  H      4.919250   -1.651245   -2.016586
  H      7.066975   -2.374258   -4.475514
  H      6.887808   -4.089747   -4.215332
  H      6.135197   -3.755573   -1.915159
  H      7.671142   -2.955503   -2.172291
  O      2.851546   -0.783683   -4.956789

 Total Charge           Charge          ....    0
 Multiplicity           Mult            ....    1
 Number of Electrons    NEL             ....  144
 Basis Dimension        Dim             ....  854

ORBITAL ENERGIES
----------------

  NO   OCC          E(Eh)            E(eV)
   0   2.0000     -88.598137     -2410.8779
   1   2.0000     -24.539026      -667.7409
   2   2.0000     -18.905548      -514.4461
   3   2.0000     -18.895750      -514.1795
   4   2.0000     -14.076500      -383.0410
   5   2.0000     -14.062578      -382.6622
   6   2.0000     -10.051595      -273.5178
   7   2.0000     -10.014899      -272.5192
   8   2.0000     -10.001726      -272.1608
   9   2.0000      -9.992258      -271.9032
  10   2.0000      -9.988150      -271.7914
  11   2.0000      -9.983126      -271.6547
  12   2.0000      -9.979278      -271.5500
  13   2.0000      -9.973804      -271.4010
  14   2.0000      -9.968174      -271.2478
  15   2.0000      -9.967452      -271.2281
  16   2.0000      -9.858048      -268.2511
  17   2.0000      -7.947958      -216.2749
  18   2.0000      -5.931168      -161.3953
  19   2.0000      -5.924678      -161.2187
  20   2.0000      -5.923880      -161.1970
  21   2.0000      -1.314971       -35.7822
  22   2.0000      -1.040733       -28.3198
  23   2.0000      -0.949359       -25.8334
  24   2.0000      -0.873251       -23.7624
  25   2.0000      -0.795522       -21.6472
  26   2.0000      -0.784947       -21.3595
  27   2.0000      -0.751454       -20.4481
  28   2.0000      -0.723782       -19.6951
  29   2.0000      -0.694725       -18.9044
  30   2.0000      -0.670319       -18.2403
  31   2.0000      -0.644765       -17.5449
  32   2.0000      -0.617313       -16.7980
  33   2.0000      -0.592010       -16.1094
  34   2.0000      -0.571372       -15.5478
  35   2.0000      -0.544515       -14.8170
  36   2.0000      -0.540782       -14.7154
  37   2.0000      -0.535167       -14.5626
  38   2.0000      -0.528377       -14.3779
  39   2.0000      -0.512072       -13.9342
  40   2.0000      -0.502668       -13.6783
  41   2.0000      -0.467155       -12.7119
  42   2.0000      -0.458406       -12.4739
  43   2.0000      -0.446706       -12.1555
  44   2.0000      -0.434177       -11.8146
  45   2.0000      -0.428317       -11.6551
  46   2.0000      -0.421042       -11.4571
  47   2.0000      -0.418502       -11.3880
  48   2.0000      -0.404946       -11.0192
  49   2.0000      -0.401199       -10.9172
  50   2.0000      -0.390296       -10.6205
  51   2.0000      -0.384725       -10.4689
  52   2.0000      -0.372799       -10.1444
  53   2.0000      -0.355824        -9.6825
  54   2.0000      -0.348881        -9.4935
  55   2.0000      -0.346816        -9.4374
  56   2.0000      -0.337985        -9.1970
  57   2.0000      -0.332151        -9.0383
  58   2.0000      -0.320890        -8.7319
  59   2.0000      -0.317666        -8.6441
  60   2.0000      -0.316318        -8.6074
  61   2.0000      -0.305484        -8.3126
  62   2.0000      -0.301745        -8.2109
  63   2.0000      -0.294643        -8.0176
  64   2.0000      -0.287782        -7.8310
  65   2.0000      -0.279341        -7.6013
  66   2.0000      -0.275684        -7.5018
  67   2.0000      -0.274308        -7.4643
  68   2.0000      -0.268821        -7.3150
  69   2.0000      -0.253643        -6.9020
  70   2.0000      -0.188823        -5.1381
  71   2.0000      -0.104114        -2.8331
  72   0.0000      -0.027725        -0.7544
  73   0.0000      -0.015763        -0.4289
  74   0.0000       0.000613         0.0167
  75   0.0000       0.003755         0.1022
  76   0.0000       0.007297         0.1986

MULLIKEN ATOMIC CHARGES
-----------------------
   0 C :   -0.800986
   1 N :   -0.280600
   2 C :   -0.482002
   3 C :   -0.568112
   4 H :    0.272530
   5 H :    0.266353
   6 S :    1.314932
   7 C :    1.492433
   8 C :   -2.513260
   9 N :   -0.496758
  10 H :    0.167435
  11 H :    0.121723
  12 H :    0.346185
  13 H :    1.161553
  14 H :    0.184213
  15 O :   -0.672775
  16 F :   -0.118324
  17 C :   -0.191155
  18 H :    0.225840
  19 H :    0.257431
  20 C :   -0.418277
  21 C :   -0.455269
  22 H :    0.206578
  23 H :    0.418623
  24 H :    0.147582
  25 H :    0.279118
  26 C :   -0.318747
  27 H :    0.152932
  28 H :    0.295580
  29 C :   -0.479537
  30 H :    0.061697
  31 H :    0.330499
  32 C :   -0.405071
  33 H :    0.127096
  34 H :    0.343039
  35 H :    0.357941
  36 H :    0.135399
  37 H :    0.157722
  38 H :    0.141299
  39 O :   -0.764861
Sum of atomic charges:   -0.0000000

LOEWDIN ATOMIC CHARGES
----------------------
   0 C :   -0.186208
   1 N :    0.038970
   2 C :   -0.205688
   3 C :   -0.227317
   4 H :    0.106358
   5 H :    0.101637
   6 S :    0.638115
   7 C :   -0.542066
   8 C :    0.008410
   9 N :    0.121483
  10 H :    0.082082
  11 H :    0.102655
  12 H :    0.064129
  13 H :   -0.048251
  14 H :    0.008158
  15 O :   -0.266835
  16 F :   -0.019040
  17 C :   -0.185860
  18 H :    0.109963
  19 H :    0.103588
  20 C :   -0.207729
  21 C :   -0.208700
  22 H :    0.125709
  23 H :    0.084245
  24 H :    0.121546
  25 H :    0.116267
  26 C :   -0.203084
  27 H :    0.104950
  28 H :    0.099978
  29 C :   -0.213040
  30 H :    0.112964
  31 H :    0.103711
  32 C :   -0.203459
  33 H :    0.110662
  34 H :    0.097418
  35 H :    0.108842
  36 H :    0.109878
  37 H :    0.105094
  38 H :    0.106773
  39 O :   -0.276309

  Mayer bond orders larger than 0.100000
B(  0-C ,  1-N ) :   1.1364 B(  0-C ,  7-C ) :  -0.1597 B(  0-C ,  9-N ) :   0.1359
B(  0-C , 12-H ) :  -0.1141 B(  0-C , 17-C ) :   0.8347 B(  0-C , 18-H ) :   0.8308
B(  0-C , 19-H ) :   0.7821 B(  0-C , 29-C ) :   0.1876 B(  1-N ,  7-C ) :   1.0033
B(  1-N ,  8-C ) :   0.1300 B(  1-N , 12-H ) :   0.7890 B(  1-N , 17-C ) :   0.1568
B(  2-C ,  3-C ) :   1.2642 B(  2-C , 20-C ) :   0.4467 B(  2-C , 21-C ) :   0.6901
B(  2-C , 22-H ) :  -0.1249 B(  2-C , 24-H ) :   0.9427 B(  2-C , 25-H ) :   0.7686
B(  3-C ,  4-H ) :   0.8352 B(  3-C ,  5-H ) :   0.8510 B(  3-C ,  6-S ) :   0.8612
B(  3-C , 15-O ) :   0.1269 B(  3-C , 16-F ) :   0.1214 B(  3-C , 21-C ) :   0.2581
B(  3-C , 39-O ) :   0.1261 B(  6-S , 15-O ) :   1.4771 B(  6-S , 16-F ) :   0.8591
B(  6-S , 39-O ) :   1.6090 B(  7-C ,  8-C ) :   0.1895 B(  7-C ,  9-N ) :   0.7586
B(  7-C , 12-H ) :  -0.2099 B(  7-C , 13-H ) :   0.1831 B(  7-C , 14-H ) :  -0.2255
B(  8-C ,  9-N ) :   0.1059 B(  8-C , 13-H ) :  -0.3241 B(  8-C , 14-H ) :   1.2113
B(  8-C , 15-O ) :   0.1535 B(  9-N , 10-H ) :   1.0214 B(  9-N , 11-H ) :   1.0735
B( 13-H , 14-H ) :   0.1498 B( 13-H , 15-O ) :  -0.3511 B( 15-O , 39-O ) :   0.1727
B( 17-C , 26-C ) :   1.2954 B( 17-C , 27-H ) :   0.9508 B( 17-C , 28-H ) :   0.8182
B( 17-C , 29-C ) :   0.1845 B( 20-C , 21-C ) :   0.6528 B( 20-C , 26-C ) :   0.1708
B( 20-C , 32-C ) :   1.1724 B( 20-C , 35-H ) :   0.7638 B( 20-C , 36-H ) :   0.8958
B( 21-C , 22-H ) :   0.7031 B( 21-C , 23-H ) :   1.2869 B( 21-C , 29-C ) :   0.1435
B( 21-C , 32-C ) :   0.2023 B( 21-C , 39-O ) :   0.2008 B( 22-H , 23-H ) :   0.1817
B( 23-H , 39-O ) :  -0.2199 B( 26-C , 29-C ) :   0.4605 B( 26-C , 30-H ) :   0.9082
B( 26-C , 31-H ) :   0.8607 B( 26-C , 32-C ) :   0.1815 B( 26-C , 34-H ) :  -0.1099
B( 29-C , 32-C ) :   1.1641 B( 29-C , 33-H ) :   0.9064 B( 29-C , 34-H ) :   0.8507
B( 32-C , 37-H ) :   0.8780 B( 32-C , 38-H ) :   0.9027

Dispersion correction           -0.061016835
FINAL SINGLE POINT ENERGY     -1191.433117202230

DIPOLE MOMENT
-------------
                                X             Y             Z
Electronic contribution:    -20.58776       2.70696     -20.17245
Nuclear contribution   :     20.03262      -4.53368      20.24480
                        -----------------------------------------
Total Dipole Moment    :     -0.55513      -1.82672       0.07235
                        -----------------------------------------
Magnitude (a.u.)       :      1.91058
Magnitude (Debye)      :      4.85631

Rotational constants in cm-1:     0.014367     0.012055     0.007393
Rotational constants in MHz :   430.711297   361.391195   221.649333

                             ****ORCA TERMINATED NORMALLY****
TOTAL RUN TIME: 0 days 0 hours 3 minutes 50 seconds 179 msec
