                         Program Version 5.0.0 -  RELEASE  -
|  1> !TPSS D3BJ RIJCOSX def2-TZVPD def2/J TightSCF xyzfile
|  2>
|  3> *xyzfile 0 1 D6.xyz
|  4>
|  5> %MaxCore 64000
|  6>
|  7> %pal nprocs 4
|  8> end
|  9>
| 10> %scf
| 11>   MaxIter 150
| 12> end
| 13>
| 14>
| 15>                          ****END OF INPUT****

CARTESIAN COORDINATES (ANGSTROEM)
---------------------------------
  C      4.490588    1.155899   -2.469290
  N      4.305394    1.222762   -3.908317
  C      4.906458   -3.102816   -5.954844
  C      3.511771   -2.806215   -6.492283
  H      2.736044   -3.373445   -5.973736
  H      3.444904   -3.040831   -7.555281
  S      3.004618   -1.096206   -6.389259
  C      4.631918    2.246365   -4.670958
  N      4.541686    2.143990   -5.987139
  C      5.084086    3.393584   -4.118545
  H      4.920675    3.570501   -3.135870
  H      5.254652    4.197390   -4.706956
  H      3.824530    0.449113   -4.350926
  H      4.343373    1.249318   -6.416646
  H      4.676712    2.956624   -6.574113
  O      4.128856   -0.329647   -6.953717
  F      1.781285   -1.000779   -7.136399
  C      5.942129    0.939500   -2.036893
  H      3.864305    0.328532   -2.136611
  H      4.076233    2.049994   -1.989010
  C      6.462677   -3.117775   -3.944671
  C      5.024977   -3.025679   -4.437625
  H      4.423321   -3.818693   -3.977648
  H      4.579350   -2.087131   -4.108727
  H      5.201533   -4.100207   -6.296905
  H      5.605922   -2.397822   -6.413368
  C      6.559957   -0.356290   -2.559086
  H      5.967976    0.952567   -0.942444
  H      6.547184    1.788331   -2.368849
  C      6.006283   -1.615917   -1.899301
  H      7.642360   -0.318000   -2.402059
  H      6.414855   -0.403433   -3.642587
  C      6.608718   -2.917014   -2.435655
  H      6.190324   -1.561115   -0.820948
  H      4.919250   -1.651245   -2.016586
  H      7.066975   -2.374258   -4.475514
  H      6.887808   -4.089747   -4.215332
  H      6.135197   -3.755573   -1.915159
  H      7.671142   -2.955503   -2.172291
  O      2.851546   -0.783683   -4.956789

 Total Charge           Charge          ....    0
 Multiplicity           Mult            ....    1
 Number of Electrons    NEL             ....  144
 Basis Dimension        Dim             ....  854

ORBITAL ENERGIES
----------------

  NO   OCC          E(Eh)            E(eV)
   0   2.0000     -88.617148     -2411.3952
   1   2.0000     -24.555505      -668.1893
   2   2.0000     -18.921457      -514.8790
   3   2.0000     -18.921206      -514.8722
   4   2.0000     -14.064491      -382.7143
   5   2.0000     -14.060708      -382.6113
   6   2.0000     -10.065216      -273.8885
   7   2.0000     -10.024414      -272.7782
   8   2.0000      -9.994187      -271.9556
   9   2.0000      -9.993958      -271.9494
  10   2.0000      -9.993485      -271.9365
  11   2.0000      -9.986554      -271.7480
  12   2.0000      -9.979933      -271.5678
  13   2.0000      -9.972029      -271.3527
  14   2.0000      -9.964137      -271.1379
  15   2.0000      -9.958049      -270.9723
  16   2.0000      -9.869151      -268.5532
  17   2.0000      -7.967017      -216.7935
  18   2.0000      -5.950156      -161.9120
  19   2.0000      -5.943943      -161.7429
  20   2.0000      -5.942812      -161.7121
  21   2.0000      -1.331584       -36.2342
  22   2.0000      -1.060711       -28.8634
  23   2.0000      -0.970076       -26.3971
  24   2.0000      -0.872262       -23.7355
  25   2.0000      -0.796794       -21.6819
  26   2.0000      -0.794230       -21.6121
  27   2.0000      -0.754918       -20.5424
  28   2.0000      -0.724652       -19.7188
  29   2.0000      -0.698647       -19.0111
  30   2.0000      -0.671840       -18.2817
  31   2.0000      -0.638760       -17.3816
  32   2.0000      -0.623463       -16.9653
  33   2.0000      -0.603103       -16.4113
  34   2.0000      -0.578544       -15.7430
  35   2.0000      -0.559179       -15.2160
  36   2.0000      -0.549358       -14.9488
  37   2.0000      -0.541058       -14.7229
  38   2.0000      -0.538593       -14.6559
  39   2.0000      -0.510298       -13.8859
  40   2.0000      -0.486444       -13.2368
  41   2.0000      -0.478458       -13.0195
  42   2.0000      -0.468964       -12.7612
  43   2.0000      -0.458884       -12.4869
  44   2.0000      -0.449797       -12.2396
  45   2.0000      -0.435098       -11.8396
  46   2.0000      -0.428599       -11.6628
  47   2.0000      -0.418495       -11.3878
  48   2.0000      -0.409527       -11.1438
  49   2.0000      -0.396183       -10.7807
  50   2.0000      -0.390646       -10.6300
  51   2.0000      -0.386730       -10.5235
  52   2.0000      -0.373755       -10.1704
  53   2.0000      -0.364727        -9.9247
  54   2.0000      -0.351694        -9.5701
  55   2.0000      -0.345914        -9.4128
  56   2.0000      -0.343206        -9.3391
  57   2.0000      -0.331236        -9.0134
  58   2.0000      -0.326108        -8.8738
  59   2.0000      -0.319176        -8.6852
  60   2.0000      -0.312071        -8.4919
  61   2.0000      -0.309344        -8.4177
  62   2.0000      -0.305575        -8.3151
  63   2.0000      -0.300115        -8.1665
  64   2.0000      -0.293409        -7.9841
  65   2.0000      -0.291103        -7.9213
  66   2.0000      -0.285523        -7.7695
  67   2.0000      -0.273688        -7.4474
  68   2.0000      -0.272492        -7.4149
  69   2.0000      -0.263570        -7.1721
  70   2.0000      -0.179526        -4.8852
  71   2.0000      -0.106022        -2.8850
  72   0.0000      -0.041349        -1.1252
  73   0.0000      -0.025301        -0.6885
  74   0.0000      -0.004270        -0.1162
  75   0.0000      -0.001898        -0.0517
  76   0.0000       0.002979         0.0811

MULLIKEN ATOMIC CHARGES
-----------------------
   0 C :   -0.824501
   1 N :   -0.312306
   2 C :   -0.462797
   3 C :   -0.545237
   4 H :    0.275709
   5 H :    0.267051
   6 S :    1.330888
   7 C :    1.182434
   8 N :   -0.385763
   9 C :   -1.598487
  10 H :    0.303446
  11 H :    0.288238
  12 H :    0.471247
  13 H :    0.260287
  14 H :    0.096234
  15 O :   -0.823001
  16 F :   -0.122328
  17 C :   -0.248733
  18 H :    0.277940
  19 H :    0.223500
  20 C :   -0.431379
  21 C :   -0.490944
  22 H :    0.211016
  23 H :    0.446353
  24 H :    0.143671
  25 H :    0.279015
  26 C :   -0.295217
  27 H :    0.171737
  28 H :    0.324533
  29 C :   -0.460229
  30 H :    0.067892
  31 H :    0.269433
  32 C :   -0.417065
  33 H :    0.125724
  34 H :    0.330690
  35 H :    0.370804
  36 H :    0.138236
  37 H :    0.159158
  38 H :    0.143634
  39 O :   -0.740887
Sum of atomic charges:   -0.0000000

LOEWDIN ATOMIC CHARGES
----------------------
   0 C :   -0.181841
   1 N :    0.036368
   2 C :   -0.204831
   3 C :   -0.222872
   4 H :    0.109434
   5 H :    0.102711
   6 S :    0.644231
   7 C :   -0.551998
   8 N :    0.129493
   9 C :    0.000718
  10 H :   -0.008036
  11 H :   -0.003785
  12 H :    0.059180
  13 H :    0.024821
  14 H :    0.110652
  15 O :   -0.266865
  16 F :   -0.015717
  17 C :   -0.181005
  18 H :    0.108680
  19 H :    0.109631
  20 C :   -0.207680
  21 C :   -0.208419
  22 H :    0.126386
  23 H :    0.084413
  24 H :    0.123016
  25 H :    0.115841
  26 C :   -0.204232
  27 H :    0.107250
  28 H :    0.100054
  29 C :   -0.213495
  30 H :    0.112945
  31 H :    0.100859
  32 C :   -0.203521
  33 H :    0.111222
  34 H :    0.096765
  35 H :    0.108620
  36 H :    0.109911
  37 H :    0.104865
  38 H :    0.107187
  39 O :   -0.270955

  Mayer bond orders larger than 0.100000
B(  0-C ,  1-N ) :   1.1764 B(  0-C ,  7-C ) :  -0.1130 B(  0-C ,  9-C ) :   0.1625
B(  0-C , 12-H ) :  -0.1918 B(  0-C , 17-C ) :   0.8773 B(  0-C , 18-H ) :   0.6854
B(  0-C , 19-H ) :   0.8235 B(  0-C , 29-C ) :   0.1917 B(  1-N ,  7-C ) :   1.0009
B(  1-N , 12-H ) :   0.7306 B(  1-N , 17-C ) :   0.2042 B(  2-C ,  3-C ) :   1.2643
B(  2-C , 20-C ) :   0.4454 B(  2-C , 21-C ) :   0.6790 B(  2-C , 22-H ) :  -0.1254
B(  2-C , 24-H ) :   0.9429 B(  2-C , 25-H ) :   0.7706 B(  3-C ,  4-H ) :   0.8366
B(  3-C ,  5-H ) :   0.8448 B(  3-C ,  6-S ) :   0.8548 B(  3-C , 15-O ) :   0.1321
B(  3-C , 16-F ) :   0.1274 B(  3-C , 21-C ) :   0.2588 B(  3-C , 39-O ) :   0.1250
B(  6-S , 15-O ) :   1.3894 B(  6-S , 16-F ) :   0.8688 B(  6-S , 39-O ) :   1.6441
B(  7-C ,  8-N ) :   0.8137 B(  7-C ,  9-C ) :   0.7237 B(  7-C , 12-H ) :  -0.2221
B(  8-N , 13-H ) :   0.8538 B(  8-N , 14-H ) :   1.1026 B(  9-C , 10-H ) :   1.0151
B(  9-C , 11-H ) :   0.9995 B( 15-O , 39-O ) :   0.1436 B( 17-C , 26-C ) :   1.3042
B( 17-C , 27-H ) :   0.8924 B( 17-C , 28-H ) :   0.8523 B( 17-C , 29-C ) :   0.1789
B( 20-C , 21-C ) :   0.6715 B( 20-C , 26-C ) :   0.1675 B( 20-C , 32-C ) :   1.1794
B( 20-C , 35-H ) :   0.7562 B( 20-C , 36-H ) :   0.8954 B( 21-C , 22-H ) :   0.7001
B( 21-C , 23-H ) :   1.2556 B( 21-C , 29-C ) :   0.1464 B( 21-C , 32-C ) :   0.2058
B( 21-C , 39-O ) :   0.1958 B( 22-H , 23-H ) :   0.1910 B( 23-H , 39-O ) :  -0.2167
B( 26-C , 29-C ) :   0.4660 B( 26-C , 30-H ) :   0.8992 B( 26-C , 31-H ) :   0.9055
B( 26-C , 32-C ) :   0.1846 B( 26-C , 34-H ) :  -0.1074 B( 29-C , 32-C ) :   1.1561
B( 29-C , 33-H ) :   0.9057 B( 29-C , 34-H ) :   0.8521 B( 32-C , 37-H ) :   0.8757
B( 32-C , 38-H ) :   0.9035

Dispersion correction           -0.060918387
FINAL SINGLE POINT ENERGY     -1191.447049372313

DIPOLE MOMENT
-------------
                                X             Y             Z
Electronic contribution:    -21.10883       1.37819     -21.83572
Nuclear contribution   :     20.11362      -4.34709      20.52383
                        -----------------------------------------
Total Dipole Moment    :     -0.99521      -2.96890      -1.31189
                        -----------------------------------------
Magnitude (a.u.)       :      3.39498
Magnitude (Debye)      :      8.62935

Rotational constants in cm-1:     0.014449     0.012108     0.007447
Rotational constants in MHz :   433.168496   362.988632   223.260798

                             ****ORCA TERMINATED NORMALLY****
TOTAL RUN TIME: 0 days 0 hours 3 minutes 39 seconds 244 msec
