                         Program Version 5.0.0 -  RELEASE  -
|  1> !TPSS D3BJ RIJCOSX def2-TZVPD def2/J TightSCF xyzfile
|  2>
|  3> *xyzfile 0 1 D7.xyz
|  4>
|  5> %MaxCore 64000
|  6>
|  7> %pal nprocs 4
|  8> end
|  9>
| 10> %scf
| 11>   MaxIter 150
| 12> end
| 13>
| 14>
| 15>                          ****END OF INPUT****

CARTESIAN COORDINATES (ANGSTROEM)
---------------------------------
  C      4.490588    1.155899   -2.469290
  C      4.305394    1.222762   -3.908317
  C      4.906458   -3.102816   -5.954844
  C      3.511771   -2.806215   -6.492283
  H      2.736044   -3.373445   -5.973736
  H      3.444904   -3.040831   -7.555281
  S      3.004618   -1.096206   -6.389259
  C      4.631918    2.246365   -4.670958
  N      4.541686    2.143990   -5.987139
  N      5.084086    3.393584   -4.118545
  H      4.920675    3.570501   -3.135870
  H      5.254652    4.197390   -4.706956
  H      3.824530    0.449113   -4.350926
  H      4.343373    1.249318   -6.416646
  H      4.676712    2.956624   -6.574113
  O      4.128856   -0.329647   -6.953717
  O      1.781285   -1.000779   -7.136399
  C      5.942129    0.939500   -2.036893
  H      3.864305    0.328532   -2.136611
  H      4.076233    2.049994   -1.989010
  C      6.462677   -3.117775   -3.944671
  C      5.024977   -3.025679   -4.437625
  H      4.423321   -3.818693   -3.977648
  H      4.579350   -2.087131   -4.108727
  H      5.201533   -4.100207   -6.296905
  H      5.605922   -2.397822   -6.413368
  C      6.559957   -0.356290   -2.559086
  H      5.967976    0.952567   -0.942444
  H      6.547184    1.788331   -2.368849
  C      6.006283   -1.615917   -1.899301
  H      7.642360   -0.318000   -2.402059
  H      6.414855   -0.403433   -3.642587
  C      6.608718   -2.917014   -2.435655
  H      6.190324   -1.561115   -0.820948
  H      4.919250   -1.651245   -2.016586
  H      7.066975   -2.374258   -4.475514
  H      6.887808   -4.089747   -4.215332
  H      6.135197   -3.755573   -1.915159
  H      7.671142   -2.955503   -2.172291
  F      2.851546   -0.783683   -4.956789

 Total Charge           Charge          ....    0
 Multiplicity           Mult            ....    1
 Number of Electrons    NEL             ....  144
 Basis Dimension        Dim             ....  854

ORBITAL ENERGIES
----------------

  NO   OCC          E(Eh)            E(eV)
   0   2.0000     -88.593519     -2410.7522
   1   2.0000     -24.516405      -667.1253
   2   2.0000     -18.906549      -514.4734
   3   2.0000     -18.903298      -514.3849
   4   2.0000     -14.092397      -383.4736
   5   2.0000     -14.071302      -382.8996
   6   2.0000     -10.048198      -273.4254
   7   2.0000     -10.011009      -272.4134
   8   2.0000     -10.008227      -272.3377
   9   2.0000      -9.992963      -271.9223
  10   2.0000      -9.983837      -271.6740
  11   2.0000      -9.977682      -271.5065
  12   2.0000      -9.969989      -271.2972
  13   2.0000      -9.961452      -271.0649
  14   2.0000      -9.956758      -270.9372
  15   2.0000      -9.953948      -270.8607
  16   2.0000      -9.889457      -269.1058
  17   2.0000      -7.943439      -216.1520
  18   2.0000      -5.926735      -161.2747
  19   2.0000      -5.920126      -161.0948
  20   2.0000      -5.919402      -161.0751
  21   2.0000      -1.284548       -34.9543
  22   2.0000      -1.048048       -28.5188
  23   2.0000      -0.961135       -26.1538
  24   2.0000      -0.878808       -23.9136
  25   2.0000      -0.794443       -21.6179
  26   2.0000      -0.784166       -21.3382
  27   2.0000      -0.750510       -20.4224
  28   2.0000      -0.723676       -19.6922
  29   2.0000      -0.698749       -19.0139
  30   2.0000      -0.664574       -18.0840
  31   2.0000      -0.651395       -17.7254
  32   2.0000      -0.617598       -16.8057
  33   2.0000      -0.592416       -16.1205
  34   2.0000      -0.572282       -15.5726
  35   2.0000      -0.542232       -14.7549
  36   2.0000      -0.531331       -14.4582
  37   2.0000      -0.527342       -14.3497
  38   2.0000      -0.521872       -14.2009
  39   2.0000      -0.503612       -13.7040
  40   2.0000      -0.499697       -13.5974
  41   2.0000      -0.479587       -13.0502
  42   2.0000      -0.453363       -12.3366
  43   2.0000      -0.445069       -12.1109
  44   2.0000      -0.441508       -12.0140
  45   2.0000      -0.431933       -11.7535
  46   2.0000      -0.429130       -11.6772
  47   2.0000      -0.416312       -11.3284
  48   2.0000      -0.408004       -11.1024
  49   2.0000      -0.398727       -10.8499
  50   2.0000      -0.387988       -10.5577
  51   2.0000      -0.383640       -10.4394
  52   2.0000      -0.379729       -10.3330
  53   2.0000      -0.361885        -9.8474
  54   2.0000      -0.353189        -9.6108
  55   2.0000      -0.343663        -9.3516
  56   2.0000      -0.337565        -9.1856
  57   2.0000      -0.333898        -9.0858
  58   2.0000      -0.324402        -8.8274
  59   2.0000      -0.317707        -8.6452
  60   2.0000      -0.308560        -8.3964
  61   2.0000      -0.305343        -8.3088
  62   2.0000      -0.298881        -8.1330
  63   2.0000      -0.293598        -7.9892
  64   2.0000      -0.292622        -7.9627
  65   2.0000      -0.285007        -7.7554
  66   2.0000      -0.283112        -7.7039
  67   2.0000      -0.270189        -7.3522
  68   2.0000      -0.264628        -7.2009
  69   2.0000      -0.259995        -7.0748
  70   2.0000      -0.208379        -5.6703
  71   2.0000      -0.120147        -3.2694
  72   0.0000      -0.025687        -0.6990
  73   0.0000      -0.006081        -0.1655
  74   0.0000      -0.003140        -0.0854
  75   0.0000       0.000279         0.0076
  76   0.0000       0.007902         0.2150

MULLIKEN ATOMIC CHARGES
-----------------------
   0 C :   -0.870772
   1 C :   -2.293780
   2 C :   -0.400751
   3 C :   -0.490297
   4 H :    0.249361
   5 H :    0.214699
   6 S :    1.478933
   7 C :    1.344254
   8 N :   -0.433576
   9 N :   -0.481930
  10 H :    0.177578
  11 H :    0.111077
  12 H :    1.569642
  13 H :    0.232296
  14 H :    0.109643
  15 O :   -0.843419
  16 O :   -0.641808
  17 C :   -0.301890
  18 H :    0.202778
  19 H :    0.227945
  20 C :   -0.483064
  21 C :   -0.399701
  22 H :    0.189778
  23 H :    0.385007
  24 H :    0.154923
  25 H :    0.271572
  26 C :   -0.399765
  27 H :    0.103450
  28 H :    0.301109
  29 C :   -0.438710
  30 H :    0.069267
  31 H :    0.401324
  32 C :   -0.399732
  33 H :    0.123240
  34 H :    0.323613
  35 H :    0.374537
  36 H :    0.139222
  37 H :    0.155730
  38 H :    0.141612
  39 F :   -0.173394
Sum of atomic charges:   -0.0000000

LOEWDIN ATOMIC CHARGES
----------------------
   0 C :   -0.222833
   1 C :   -0.141344
   2 C :   -0.216798
   3 C :   -0.218472
   4 H :    0.108569
   5 H :    0.111951
   6 S :    0.619817
   7 C :   -0.515925
   8 N :    0.129058
   9 N :    0.136056
  10 H :    0.094064
  11 H :    0.094551
  12 H :    0.022994
  13 H :    0.032470
  14 H :    0.101073
  15 O :   -0.267716
  16 O :   -0.233548
  17 C :   -0.199835
  18 H :    0.099454
  19 H :    0.097613
  20 C :   -0.207233
  21 C :   -0.211588
  22 H :    0.125555
  23 H :    0.085296
  24 H :    0.119524
  25 H :    0.113265
  26 C :   -0.206163
  27 H :    0.101622
  28 H :    0.100116
  29 C :   -0.212176
  30 H :    0.111664
  31 H :    0.100460
  32 C :   -0.204434
  33 H :    0.110891
  34 H :    0.096418
  35 H :    0.108746
  36 H :    0.110642
  37 H :    0.104580
  38 H :    0.106584
  39 F :   -0.084968

  Mayer bond orders larger than 0.100000
B(  0-C ,  1-C ) :   1.4496 B(  0-C ,  7-C ) :  -0.1946 B(  0-C , 12-H ) :  -0.2047
B(  0-C , 17-C ) :   0.8428 B(  0-C , 18-H ) :   0.8962 B(  0-C , 19-H ) :   0.8455
B(  0-C , 29-C ) :   0.1705 B(  1-C ,  6-S ) :  -0.1115 B(  1-C ,  8-N ) :   0.1030
B(  1-C ,  9-N ) :   0.1188 B(  1-C , 12-H ) :  -2.1613 B(  1-C , 17-C ) :   0.2531
B(  1-C , 26-C ) :   0.1804 B(  1-C , 39-F ) :   0.4662 B(  2-C ,  3-C ) :   1.1825
B(  2-C , 20-C ) :   0.4632 B(  2-C , 21-C ) :   0.6006 B(  2-C , 22-H ) :  -0.1415
B(  2-C , 24-H ) :   0.9402 B(  2-C , 25-H ) :   0.7922 B(  3-C ,  4-H ) :   0.8658
B(  3-C ,  5-H ) :   0.8885 B(  3-C ,  6-S ) :   0.8772 B(  3-C , 16-O ) :   0.1866
B(  3-C , 21-C ) :   0.2556 B(  6-S , 15-O ) :   1.2862 B(  6-S , 16-O ) :   1.2789
B(  6-S , 21-C ) :   0.1095 B(  6-S , 39-F ) :   1.0115 B(  7-C ,  8-N ) :   0.7550
B(  7-C ,  9-N ) :   0.8264 B(  7-C , 12-H ) :   0.9954 B(  8-N , 12-H ) :   0.1034
B(  8-N , 13-H ) :   0.8981 B(  8-N , 14-H ) :   1.1036 B(  9-N , 10-H ) :   0.9951
B(  9-N , 11-H ) :   1.0903 B(  9-N , 17-C ) :   0.1438 B( 12-H , 15-O ) :   0.1710
B( 12-H , 39-F ) :  -0.6425 B( 17-C , 26-C ) :   1.3652 B( 17-C , 27-H ) :   0.9479
B( 17-C , 28-H ) :   0.7748 B( 17-C , 29-C ) :   0.2041 B( 20-C , 21-C ) :   0.7412
B( 20-C , 26-C ) :   0.1912 B( 20-C , 32-C ) :   1.1602 B( 20-C , 35-H ) :   0.7540
B( 20-C , 36-H ) :   0.9011 B( 21-C , 22-H ) :   0.7153 B( 21-C , 23-H ) :   1.2332
B( 21-C , 29-C ) :   0.1619 B( 21-C , 32-C ) :   0.1761 B( 21-C , 39-F ) :   0.1563
B( 22-H , 23-H ) :   0.1935 B( 23-H , 39-F ) :  -0.1364 B( 26-C , 29-C ) :   0.4622
B( 26-C , 30-H ) :   0.9168 B( 26-C , 31-H ) :   0.8433 B( 26-C , 32-C ) :   0.1430
B( 26-C , 34-H ) :  -0.1102 B( 29-C , 32-C ) :   1.1502 B( 29-C , 33-H ) :   0.9085
B( 29-C , 34-H ) :   0.8725 B( 32-C , 37-H ) :   0.8830 B( 32-C , 38-H ) :   0.9056

Dispersion correction           -0.060802082
FINAL SINGLE POINT ENERGY     -1191.456925121948

DIPOLE MOMENT
-------------
                                X             Y             Z
Electronic contribution:    -18.44345       4.08796     -18.06718
Nuclear contribution   :     18.74089      -4.92611      17.99644
                        -----------------------------------------
Total Dipole Moment    :      0.29744      -0.83815      -0.07073
                        -----------------------------------------
Magnitude (a.u.)       :      0.89217
Magnitude (Debye)      :      2.26771

Rotational constants in cm-1:     0.014210     0.012324     0.007480
Rotational constants in MHz :   425.991442   369.455467   224.259162

                             ****ORCA TERMINATED NORMALLY****
TOTAL RUN TIME: 0 days 0 hours 5 minutes 34 seconds 834 msec
