                         Program Version 5.0.0 -  RELEASE  -
|  1> !TPSS D3BJ RIJCOSX def2-TZVPD def2/J TightSCF xyzfile
|  2>
|  3> *xyzfile 0 1 D8.xyz
|  4>
|  5> %MaxCore 64000
|  6>
|  7> %pal nprocs 4
|  8> end
|  9>
| 10> %scf
| 11>   MaxIter 150
| 12> end
| 13>
| 14>
| 15>                          ****END OF INPUT****

CARTESIAN COORDINATES (ANGSTROEM)
---------------------------------
  C      4.490588    1.155899   -2.469290
  N      4.305394    1.222762   -3.908317
  C      4.906458   -3.102816   -5.954844
  C      3.511771   -2.806215   -6.492283
  H      2.736044   -3.373445   -5.973736
  H      3.444904   -3.040831   -7.555281
  S      3.004618   -1.096206   -6.389259
  C      4.631918    2.246365   -4.670958
  C      4.541686    2.143990   -5.987139
  N      5.084086    3.393584   -4.118545
  H      4.920675    3.570501   -3.135870
  H      5.254652    4.197390   -4.706956
  H      3.824530    0.449113   -4.350926
  H      4.343373    1.249318   -6.416646
  H      4.676712    2.956624   -6.574113
  O      4.128856   -0.329647   -6.953717
  O      1.781285   -1.000779   -7.136399
  C      5.942129    0.939500   -2.036893
  H      3.864305    0.328532   -2.136611
  H      4.076233    2.049994   -1.989010
  C      6.462677   -3.117775   -3.944671
  C      5.024977   -3.025679   -4.437625
  H      4.423321   -3.818693   -3.977648
  H      4.579350   -2.087131   -4.108727
  H      5.201533   -4.100207   -6.296905
  H      5.605922   -2.397822   -6.413368
  C      6.559957   -0.356290   -2.559086
  H      5.967976    0.952567   -0.942444
  H      6.547184    1.788331   -2.368849
  C      6.006283   -1.615917   -1.899301
  H      7.642360   -0.318000   -2.402059
  H      6.414855   -0.403433   -3.642587
  C      6.608718   -2.917014   -2.435655
  H      6.190324   -1.561115   -0.820948
  H      4.919250   -1.651245   -2.016586
  H      7.066975   -2.374258   -4.475514
  H      6.887808   -4.089747   -4.215332
  H      6.135197   -3.755573   -1.915159
  H      7.671142   -2.955503   -2.172291
  F      2.851546   -0.783683   -4.956789

 Total Charge           Charge          ....    0
 Multiplicity           Mult            ....    1
 Number of Electrons    NEL             ....  144
 Basis Dimension        Dim             ....  854

ORBITAL ENERGIES
----------------

  NO   OCC          E(Eh)            E(eV)
   0   2.0000     -88.588209     -2410.6077
   1   2.0000     -24.527392      -667.4243
   2   2.0000     -18.902891      -514.3738
   3   2.0000     -18.890900      -514.0475
   4   2.0000     -14.086828      -383.3221
   5   2.0000     -14.086446      -383.3117
   6   2.0000     -10.047201      -273.3982
   7   2.0000     -10.017726      -272.5962
   8   2.0000     -10.012878      -272.4643
   9   2.0000     -10.004206      -272.2283
  10   2.0000      -9.999901      -272.1111
  11   2.0000      -9.991002      -271.8690
  12   2.0000      -9.987346      -271.7695
  13   2.0000      -9.984091      -271.6809
  14   2.0000      -9.979148      -271.5464
  15   2.0000      -9.978706      -271.5344
  16   2.0000      -9.867910      -268.5195
  17   2.0000      -7.938459      -216.0164
  18   2.0000      -5.922004      -161.1459
  19   2.0000      -5.914756      -160.9487
  20   2.0000      -5.914388      -160.9387
  21   2.0000      -1.294399       -35.2224
  22   2.0000      -1.042362       -28.3641
  23   2.0000      -0.952273       -25.9127
  24   2.0000      -0.889767       -24.2118
  25   2.0000      -0.810042       -22.0424
  26   2.0000      -0.786767       -21.4090
  27   2.0000      -0.758134       -20.6299
  28   2.0000      -0.730824       -19.8867
  29   2.0000      -0.697044       -18.9675
  30   2.0000      -0.673486       -18.3265
  31   2.0000      -0.653538       -17.7837
  32   2.0000      -0.623505       -16.9664
  33   2.0000      -0.601145       -16.3580
  34   2.0000      -0.580353       -15.7922
  35   2.0000      -0.556239       -15.1360
  36   2.0000      -0.545898       -14.8546
  37   2.0000      -0.533226       -14.5098
  38   2.0000      -0.522174       -14.2091
  39   2.0000      -0.511540       -13.9197
  40   2.0000      -0.507520       -13.8103
  41   2.0000      -0.472420       -12.8552
  42   2.0000      -0.456980       -12.4350
  43   2.0000      -0.446672       -12.1546
  44   2.0000      -0.439508       -11.9596
  45   2.0000      -0.436658       -11.8821
  46   2.0000      -0.429739       -11.6938
  47   2.0000      -0.422040       -11.4843
  48   2.0000      -0.417898       -11.3716
  49   2.0000      -0.402579       -10.9547
  50   2.0000      -0.399935       -10.8828
  51   2.0000      -0.392036       -10.6678
  52   2.0000      -0.377486       -10.2719
  53   2.0000      -0.361712        -9.8427
  54   2.0000      -0.354062        -9.6345
  55   2.0000      -0.351095        -9.5538
  56   2.0000      -0.344937        -9.3862
  57   2.0000      -0.337895        -9.1946
  58   2.0000      -0.331882        -9.0310
  59   2.0000      -0.326168        -8.8755
  60   2.0000      -0.325097        -8.8463
  61   2.0000      -0.312212        -8.4957
  62   2.0000      -0.307892        -8.3782
  63   2.0000      -0.304806        -8.2942
  64   2.0000      -0.298045        -8.1102
  65   2.0000      -0.286846        -7.8055
  66   2.0000      -0.286001        -7.7825
  67   2.0000      -0.279570        -7.6075
  68   2.0000      -0.277753        -7.5580
  69   2.0000      -0.257346        -7.0027
  70   2.0000      -0.203901        -5.5484
  71   2.0000      -0.115678        -3.1478
  72   0.0000      -0.028484        -0.7751
  73   0.0000      -0.009188        -0.2500
  74   0.0000      -0.007448        -0.2027
  75   0.0000      -0.001253        -0.0341
  76   0.0000       0.005261         0.1432

MULLIKEN ATOMIC CHARGES
-----------------------
   0 C :   -0.798056
   1 N :   -0.310217
   2 C :   -0.383245
   3 C :   -0.503007
   4 H :    0.249240
   5 H :    0.214430
   6 S :    1.352527
   7 C :    1.503288
   8 C :   -2.551162
   9 N :   -0.495856
  10 H :    0.167376
  11 H :    0.125119
  12 H :    0.305063
  13 H :    1.216026
  14 H :    0.174636
  15 O :   -0.676819
  16 O :   -0.635849
  17 C :   -0.194617
  18 H :    0.245135
  19 H :    0.253175
  20 C :   -0.447082
  21 C :   -0.466751
  22 H :    0.221647
  23 H :    0.337745
  24 H :    0.157631
  25 H :    0.278057
  26 C :   -0.308843
  27 H :    0.153321
  28 H :    0.298539
  29 C :   -0.470856
  30 H :    0.060791
  31 H :    0.337338
  32 C :   -0.398843
  33 H :    0.121064
  34 H :    0.338108
  35 H :    0.354519
  36 H :    0.136295
  37 H :    0.160690
  38 H :    0.140901
  39 F :   -0.261461
Sum of atomic charges:    0.0000000

LOEWDIN ATOMIC CHARGES
----------------------
   0 C :   -0.186660
   1 N :    0.035656
   2 C :   -0.216425
   3 C :   -0.220942
   4 H :    0.106399
   5 H :    0.112810
   6 S :    0.612499
   7 C :   -0.541085
   8 C :    0.016369
   9 N :    0.123296
  10 H :    0.083063
  11 H :    0.105384
  12 H :    0.085103
  13 H :   -0.045657
  14 H :    0.013767
  15 O :   -0.267161
  16 O :   -0.232403
  17 C :   -0.184218
  18 H :    0.108595
  19 H :    0.105706
  20 C :   -0.205958
  21 C :   -0.213107
  22 H :    0.125818
  23 H :    0.081823
  24 H :    0.119918
  25 H :    0.114549
  26 C :   -0.203004
  27 H :    0.106650
  28 H :    0.101483
  29 C :   -0.214250
  30 H :    0.114555
  31 H :    0.103207
  32 C :   -0.202707
  33 H :    0.111582
  34 H :    0.094627
  35 H :    0.109670
  36 H :    0.112215
  37 H :    0.105861
  38 H :    0.107862
  39 F :   -0.084890

  Mayer bond orders larger than 0.100000
B(  0-C ,  1-N ) :   1.1203 B(  0-C ,  7-C ) :  -0.1620 B(  0-C ,  9-N ) :   0.1431
B(  0-C , 12-H ) :  -0.1048 B(  0-C , 17-C ) :   0.8558 B(  0-C , 18-H ) :   0.8026
B(  0-C , 19-H ) :   0.7929 B(  0-C , 29-C ) :   0.1897 B(  1-N ,  7-C ) :   1.0422
B(  1-N ,  8-C ) :   0.1298 B(  1-N , 12-H ) :   0.8009 B(  1-N , 17-C ) :   0.1577
B(  2-C ,  3-C ) :   1.1779 B(  2-C , 20-C ) :   0.4609 B(  2-C , 21-C ) :   0.6266
B(  2-C , 22-H ) :  -0.1256 B(  2-C , 24-H ) :   0.9313 B(  2-C , 25-H ) :   0.7877
B(  3-C ,  4-H ) :   0.8648 B(  3-C ,  5-H ) :   0.8946 B(  3-C ,  6-S ) :   0.8896
B(  3-C , 16-O ) :   0.1706 B(  3-C , 21-C ) :   0.2870 B(  6-S , 15-O ) :   1.4076
B(  6-S , 16-O ) :   1.3121 B(  6-S , 21-C ) :   0.1344 B(  6-S , 39-F ) :   1.0197
B(  7-C ,  9-N ) :   0.7559 B(  7-C , 12-H ) :  -0.1963 B(  7-C , 13-H ) :   0.2012
B(  7-C , 14-H ) :  -0.2384 B(  8-C ,  9-N ) :   0.1129 B(  8-C , 13-H ) :  -0.3915
B(  8-C , 14-H ) :   1.2162 B(  8-C , 15-O ) :   0.1822 B(  9-N , 10-H ) :   1.0215
B(  9-N , 11-H ) :   1.0697 B( 13-H , 14-H ) :   0.1768 B( 13-H , 15-O ) :  -0.3953
B( 15-O , 16-O ) :   0.1058 B( 17-C , 26-C ) :   1.3046 B( 17-C , 27-H ) :   0.9504
B( 17-C , 28-H ) :   0.8170 B( 17-C , 29-C ) :   0.1816 B( 20-C , 21-C ) :   0.7158
B( 20-C , 26-C ) :   0.1666 B( 20-C , 32-C ) :   1.1750 B( 20-C , 35-H ) :   0.7628
B( 20-C , 36-H ) :   0.8925 B( 21-C , 22-H ) :   0.7148 B( 21-C , 23-H ) :   1.2730
B( 21-C , 29-C ) :   0.1411 B( 21-C , 32-C ) :   0.2071 B( 21-C , 39-F ) :   0.1455
B( 22-H , 23-H ) :   0.1597 B( 23-H , 39-F ) :  -0.1380 B( 26-C , 29-C ) :   0.4287
B( 26-C , 30-H ) :   0.9018 B( 26-C , 31-H ) :   0.8725 B( 26-C , 32-C ) :   0.1847
B( 26-C , 34-H ) :  -0.1169 B( 29-C , 32-C ) :   1.1719 B( 29-C , 33-H ) :   0.9117
B( 29-C , 34-H ) :   0.8559 B( 32-C , 37-H ) :   0.8776 B( 32-C , 38-H ) :   0.8998

Dispersion correction           -0.060503308
FINAL SINGLE POINT ENERGY     -1191.436452347228

DIPOLE MOMENT
-------------
                                X             Y             Z
Electronic contribution:    -18.46058       3.23409     -16.24544
Nuclear contribution   :     18.77618      -4.78855      17.68602
                        -----------------------------------------
Total Dipole Moment    :      0.31559      -1.55446       1.44058
                        -----------------------------------------
Magnitude (a.u.)       :      2.14271
Magnitude (Debye)      :      5.44633

Rotational constants in cm-1:     0.014368     0.012319     0.007509
Rotational constants in MHz :   430.738566   369.302170   225.105103

                             ****ORCA TERMINATED NORMALLY****
TOTAL RUN TIME: 0 days 0 hours 4 minutes 15 seconds 851 msec
