                         Program Version 5.0.0 -  RELEASE  -
|  1> !TPSS D3BJ RIJCOSX def2-TZVPD def2/J TightSCF xyzfile
|  2>
|  3> *xyzfile 0 1 D9.xyz
|  4>
|  5> %MaxCore 64000
|  6>
|  7> %pal nprocs 4
|  8> end
|  9>
| 10> %scf
| 11>   MaxIter 150
| 12> end
| 13>
| 14>
| 15>                          ****END OF INPUT****

CARTESIAN COORDINATES (ANGSTROEM)
---------------------------------
  C      4.490588    1.155899   -2.469290
  N      4.305394    1.222762   -3.908317
  C      4.906458   -3.102816   -5.954844
  C      3.511771   -2.806215   -6.492283
  H      2.736044   -3.373445   -5.973736
  H      3.444904   -3.040831   -7.555281
  S      3.004618   -1.096206   -6.389259
  C      4.631918    2.246365   -4.670958
  N      4.541686    2.143990   -5.987139
  C      5.084086    3.393584   -4.118545
  H      4.920675    3.570501   -3.135870
  H      5.254652    4.197390   -4.706956
  H      3.824530    0.449113   -4.350926
  H      4.343373    1.249318   -6.416646
  H      4.676712    2.956624   -6.574113
  O      4.128856   -0.329647   -6.953717
  O      1.781285   -1.000779   -7.136399
  C      5.942129    0.939500   -2.036893
  H      3.864305    0.328532   -2.136611
  H      4.076233    2.049994   -1.989010
  C      6.462677   -3.117775   -3.944671
  C      5.024977   -3.025679   -4.437625
  H      4.423321   -3.818693   -3.977648
  H      4.579350   -2.087131   -4.108727
  H      5.201533   -4.100207   -6.296905
  H      5.605922   -2.397822   -6.413368
  C      6.559957   -0.356290   -2.559086
  H      5.967976    0.952567   -0.942444
  H      6.547184    1.788331   -2.368849
  C      6.006283   -1.615917   -1.899301
  H      7.642360   -0.318000   -2.402059
  H      6.414855   -0.403433   -3.642587
  C      6.608718   -2.917014   -2.435655
  H      6.190324   -1.561115   -0.820948
  H      4.919250   -1.651245   -2.016586
  H      7.066975   -2.374258   -4.475514
  H      6.887808   -4.089747   -4.215332
  H      6.135197   -3.755573   -1.915159
  H      7.671142   -2.955503   -2.172291
  F      2.851546   -0.783683   -4.956789

 Total Charge           Charge          ....    0
 Multiplicity           Mult            ....    1
 Number of Electrons    NEL             ....  144
 Basis Dimension        Dim             ....  854

ORBITAL ENERGIES
----------------

  NO   OCC          E(Eh)            E(eV)
   0   2.0000     -88.607790     -2411.1405
   1   2.0000     -24.541733      -667.8145
   2   2.0000     -18.920188      -514.8445
   3   2.0000     -18.916989      -514.7574
   4   2.0000     -14.089134      -383.3848
   5   2.0000     -14.068958      -382.8358
   6   2.0000     -10.060515      -273.7605
   7   2.0000     -10.022215      -272.7183
   8   2.0000     -10.010351      -272.3955
   9   2.0000     -10.006658      -272.2950
  10   2.0000     -10.005711      -272.2692
  11   2.0000      -9.994325      -271.9594
  12   2.0000      -9.987979      -271.7867
  13   2.0000      -9.982367      -271.6340
  14   2.0000      -9.974867      -271.4299
  15   2.0000      -9.970108      -271.3004
  16   2.0000      -9.881226      -268.8818
  17   2.0000      -7.958001      -216.5482
  18   2.0000      -5.941519      -161.6770
  19   2.0000      -5.934529      -161.4867
  20   2.0000      -5.933770      -161.4661
  21   2.0000      -1.308991       -35.6194
  22   2.0000      -1.062311       -28.9069
  23   2.0000      -0.974709       -26.5232
  24   2.0000      -0.889106       -24.1938
  25   2.0000      -0.808391       -21.9974
  26   2.0000      -0.796633       -21.6775
  27   2.0000      -0.760722       -20.7003
  28   2.0000      -0.729444       -19.8492
  29   2.0000      -0.698884       -19.0176
  30   2.0000      -0.677216       -18.4280
  31   2.0000      -0.647540       -17.6205
  32   2.0000      -0.633588       -17.2408
  33   2.0000      -0.611346       -16.6356
  34   2.0000      -0.587946       -15.9988
  35   2.0000      -0.554601       -15.0915
  36   2.0000      -0.551794       -15.0151
  37   2.0000      -0.545510       -14.8441
  38   2.0000      -0.528515       -14.3816
  39   2.0000      -0.518776       -14.1166
  40   2.0000      -0.492295       -13.3960
  41   2.0000      -0.479224       -13.0403
  42   2.0000      -0.468143       -12.7388
  43   2.0000      -0.463180       -12.6038
  44   2.0000      -0.451500       -12.2859
  45   2.0000      -0.444712       -12.1012
  46   2.0000      -0.429954       -11.6997
  47   2.0000      -0.429577       -11.6894
  48   2.0000      -0.411303       -11.1921
  49   2.0000      -0.409061       -11.1311
  50   2.0000      -0.397642       -10.8204
  51   2.0000      -0.396600       -10.7920
  52   2.0000      -0.376763       -10.2523
  53   2.0000      -0.368721       -10.0334
  54   2.0000      -0.358537        -9.7563
  55   2.0000      -0.354304        -9.6411
  56   2.0000      -0.345912        -9.4127
  57   2.0000      -0.338669        -9.2156
  58   2.0000      -0.331860        -9.0304
  59   2.0000      -0.326387        -8.8814
  60   2.0000      -0.320876        -8.7315
  61   2.0000      -0.317665        -8.6441
  62   2.0000      -0.314646        -8.5619
  63   2.0000      -0.308279        -8.3887
  64   2.0000      -0.305212        -8.3052
  65   2.0000      -0.296916        -8.0795
  66   2.0000      -0.296230        -8.0608
  67   2.0000      -0.285065        -7.7570
  68   2.0000      -0.283890        -7.7250
  69   2.0000      -0.275080        -7.4853
  70   2.0000      -0.194267        -5.2863
  71   2.0000      -0.118441        -3.2230
  72   0.0000      -0.039926        -1.0865
  73   0.0000      -0.016556        -0.4505
  74   0.0000      -0.009554        -0.2600
  75   0.0000      -0.001667        -0.0454
  76   0.0000       0.003273         0.0891

MULLIKEN ATOMIC CHARGES
-----------------------
   0 C :   -0.807429
   1 N :   -0.333215
   2 C :   -0.380568
   3 C :   -0.481933
   4 H :    0.254306
   5 H :    0.220452
   6 S :    1.368692
   7 C :    1.183402
   8 N :   -0.372051
   9 C :   -1.575186
  10 H :    0.302468
  11 H :    0.280567
  12 H :    0.420880
  13 H :    0.259064
  14 H :    0.103136
  15 O :   -0.838011
  16 O :   -0.626085
  17 C :   -0.248592
  18 H :    0.286798
  19 H :    0.221291
  20 C :   -0.459067
  21 C :   -0.492685
  22 H :    0.223037
  23 H :    0.365434
  24 H :    0.154564
  25 H :    0.279868
  26 C :   -0.288546
  27 H :    0.171431
  28 H :    0.323666
  29 C :   -0.452413
  30 H :    0.068096
  31 H :    0.277275
  32 C :   -0.409340
  33 H :    0.120039
  34 H :    0.326683
  35 H :    0.366753
  36 H :    0.138999
  37 H :    0.161889
  38 H :    0.143532
  39 F :   -0.257200
Sum of atomic charges:   -0.0000000

LOEWDIN ATOMIC CHARGES
----------------------
   0 C :   -0.182150
   1 N :    0.033506
   2 C :   -0.215670
   3 C :   -0.216718
   4 H :    0.109405
   5 H :    0.114039
   6 S :    0.619294
   7 C :   -0.550689
   8 N :    0.132840
   9 C :    0.006745
  10 H :   -0.005623
  11 H :    0.000764
  12 H :    0.079446
  13 H :    0.025750
  14 H :    0.114163
  15 O :   -0.266684
  16 O :   -0.226452
  17 C :   -0.179310
  18 H :    0.107433
  19 H :    0.111679
  20 C :   -0.205955
  21 C :   -0.212919
  22 H :    0.126480
  23 H :    0.081851
  24 H :    0.121301
  25 H :    0.114119
  26 C :   -0.204011
  27 H :    0.108906
  28 H :    0.101671
  29 C :   -0.214637
  30 H :    0.114545
  31 H :    0.100437
  32 C :   -0.202757
  33 H :    0.112129
  34 H :    0.094059
  35 H :    0.109428
  36 H :    0.112231
  37 H :    0.105645
  38 H :    0.108253
  39 F :   -0.082541

  Mayer bond orders larger than 0.100000
B(  0-C ,  1-N ) :   1.1562 B(  0-C ,  7-C ) :  -0.1150 B(  0-C ,  9-C ) :   0.1661
B(  0-C , 12-H ) :  -0.1724 B(  0-C , 17-C ) :   0.9051 B(  0-C , 18-H ) :   0.6667
B(  0-C , 19-H ) :   0.8312 B(  0-C , 29-C ) :   0.1945 B(  1-N ,  7-C ) :   1.0272
B(  1-N ,  8-N ) :   0.1038 B(  1-N , 12-H ) :   0.7510 B(  1-N , 17-C ) :   0.2011
B(  2-C ,  3-C ) :   1.1896 B(  2-C , 20-C ) :   0.4587 B(  2-C , 21-C ) :   0.6152
B(  2-C , 22-H ) :  -0.1278 B(  2-C , 24-H ) :   0.9328 B(  2-C , 25-H ) :   0.7876
B(  3-C ,  4-H ) :   0.8639 B(  3-C ,  5-H ) :   0.8875 B(  3-C ,  6-S ) :   0.8723
B(  3-C , 16-O ) :   0.1755 B(  3-C , 21-C ) :   0.2829 B(  6-S , 15-O ) :   1.3395
B(  6-S , 16-O ) :   1.3398 B(  6-S , 21-C ) :   0.1347 B(  6-S , 39-F ) :   1.0416
B(  7-C ,  8-N ) :   0.7994 B(  7-C ,  9-C ) :   0.7503 B(  7-C , 12-H ) :  -0.2189
B(  8-N , 13-H ) :   0.8631 B(  8-N , 14-H ) :   1.0889 B(  9-C , 10-H ) :   1.0128
B(  9-C , 11-H ) :   0.9992 B( 17-C , 26-C ) :   1.3115 B( 17-C , 27-H ) :   0.8899
B( 17-C , 28-H ) :   0.8540 B( 17-C , 29-C ) :   0.1763 B( 20-C , 21-C ) :   0.7367
B( 20-C , 26-C ) :   0.1621 B( 20-C , 32-C ) :   1.1831 B( 20-C , 35-H ) :   0.7551
B( 20-C , 36-H ) :   0.8923 B( 21-C , 22-H ) :   0.7127 B( 21-C , 23-H ) :   1.2429
B( 21-C , 29-C ) :   0.1441 B( 21-C , 32-C ) :   0.2080 B( 21-C , 39-F ) :   0.1365
B( 22-H , 23-H ) :   0.1699 B( 23-H , 39-F ) :  -0.1358 B( 26-C , 29-C ) :   0.4370
B( 26-C , 30-H ) :   0.8939 B( 26-C , 31-H ) :   0.9157 B( 26-C , 32-C ) :   0.1881
B( 26-C , 34-H ) :  -0.1141 B( 29-C , 32-C ) :   1.1615 B( 29-C , 33-H ) :   0.9106
B( 29-C , 34-H ) :   0.8551 B( 32-C , 37-H ) :   0.8758 B( 32-C , 38-H ) :   0.9005

Dispersion correction           -0.060409056
FINAL SINGLE POINT ENERGY     -1191.452618834486

DIPOLE MOMENT
-------------
                                X             Y             Z
Electronic contribution:    -18.97049       1.92427     -17.87921
Nuclear contribution   :     18.85717      -4.60195      17.96505
                        -----------------------------------------
Total Dipole Moment    :     -0.11331      -2.67768       0.08585
                        -----------------------------------------
Magnitude (a.u.)       :      2.68145
Magnitude (Debye)      :      6.81571

Rotational constants in cm-1:     0.014436     0.012382     0.007563
Rotational constants in MHz :   432.785702   371.214592   226.743759

                             ****ORCA TERMINATED NORMALLY****
TOTAL RUN TIME: 0 days 0 hours 4 minutes 2 seconds 985 msec
