                         Program Version 5.0.0 -  RELEASE  -
|  1> !LC-BLYP RIJCOSX def2-SVPD def2/J TightSCF
|  2> *xyz -1 1
|  3> C         -5.57236       -5.80780       -0.81644
|  4> S         -6.90318       -4.61903       -0.52846
|  5> O         -8.11485       -5.25093       -0.95701
|  6> O         -6.53271       -3.42684       -1.31485
|  7> O         -6.86563       -4.29496        0.91412
|  8> C         -3.82708       -4.66110        0.78617
|  9> C         -4.45780       -5.94187        0.22919
| 10> H         -5.17735       -5.54257       -1.79771
| 11> H         -6.07420       -6.76889       -0.92127
| 12> H         -3.68106       -6.56224       -0.22988
| 13> H         -4.84394       -6.51273        1.07581
| 14> H         -3.43706       -4.07576       -0.02016
| 15> H         -3.03403       -4.91680        1.45744
| 16> H         -4.56975       -4.09647        1.31013
| 17> *
| 18> %MaxCore 64000
| 19>
| 20> %pal nprocs 4
| 21> end
| 22>
| 23> %scf
| 24>   MaxIter 150
| 25> end
| 26>
| 27>                          ****END OF INPUT****

CARTESIAN COORDINATES (ANGSTROEM)
---------------------------------
  C     -5.572360   -5.807800   -0.816440
  S     -6.903180   -4.619030   -0.528460
  O     -8.114850   -5.250930   -0.957010
  O     -6.532710   -3.426840   -1.314850
  O     -6.865630   -4.294960    0.914120
  C     -3.827080   -4.661100    0.786170
  C     -4.457800   -5.941870    0.229190
  H     -5.177350   -5.542570   -1.797710
  H     -6.074200   -6.768890   -0.921270
  H     -3.681060   -6.562240   -0.229880
  H     -4.843940   -6.512730    1.075810
  H     -3.437060   -4.075760   -0.020160
  H     -3.034030   -4.916800    1.457440
  H     -4.569750   -4.096470    1.310130

 Total Charge           Charge          ....   -1
 Multiplicity           Mult            ....    1
 Number of Electrons    NEL             ....   66
 Basis Dimension        Dim             ....  212

ORBITAL ENERGIES
----------------

  NO   OCC          E(Eh)            E(eV)
   0   2.0000     -88.313239     -2403.1254
   1   2.0000     -18.746666      -510.1227
   2   2.0000     -18.733595      -509.7670
   3   2.0000     -18.732281      -509.7313
   4   2.0000      -9.961697      -271.0716
   5   2.0000      -9.953395      -270.8457
   6   2.0000      -9.936470      -270.3851
   7   2.0000      -7.861844      -213.9317
   8   2.0000      -5.896182      -160.4433
   9   2.0000      -5.896093      -160.4408
  10   2.0000      -5.895631      -160.4283
  11   2.0000      -1.033193       -28.1146
  12   2.0000      -0.887246       -24.1432
  13   2.0000      -0.863907       -23.5081
  14   2.0000      -0.763446       -20.7744
  15   2.0000      -0.676005       -18.3950
  16   2.0000      -0.581101       -15.8126
  17   2.0000      -0.487429       -13.2636
  18   2.0000      -0.443112       -12.0577
  19   2.0000      -0.427209       -11.6250
  20   2.0000      -0.403995       -10.9933
  21   2.0000      -0.387704       -10.5500
  22   2.0000      -0.369229       -10.0472
  23   2.0000      -0.357192        -9.7197
  24   2.0000      -0.325457        -8.8561
  25   2.0000      -0.320606        -8.7241
  26   2.0000      -0.304427        -8.2839
  27   2.0000      -0.257559        -7.0085
  28   2.0000      -0.255242        -6.9455
  29   2.0000      -0.219843        -5.9822
  30   2.0000      -0.206484        -5.6187
  31   2.0000      -0.204417        -5.5625
  32   2.0000      -0.166124        -4.5205
  33   0.0000       0.184279         5.0145
  34   0.0000       0.206548         5.6204
  35   0.0000       0.210396         5.7252
  36   0.0000       0.217358         5.9146
  37   0.0000       0.237103         6.4519

MULLIKEN ATOMIC CHARGES
-----------------------
   0 C :    0.200414
   1 S :    1.094488
   2 O :   -0.711119
   3 O :   -0.735438
   4 O :   -0.778469
   5 C :    1.054157
   6 C :   -0.129191
   7 H :   -0.069362
   8 H :   -0.109828
   9 H :   -0.193125
  10 H :   -0.113257
  11 H :   -0.136392
  12 H :   -0.129288
  13 H :   -0.243591
Sum of atomic charges:   -1.0000000

LOEWDIN ATOMIC CHARGES
----------------------
   0 C :   -0.091756
   1 S :    0.818910
   2 O :   -0.552224
   3 O :   -0.579588
   4 O :   -0.565442
   5 C :    0.111597
   6 C :   -0.099977
   7 H :    0.007732
   8 H :    0.001157
   9 H :    0.010902
  10 H :    0.020973
  11 H :   -0.013503
  12 H :   -0.029230
  13 H :   -0.039552

  Mayer bond orders larger than 0.100000
B(  0-C ,  1-S ) :   0.8702 B(  0-C ,  6-C ) :   1.2816 B(  0-C ,  7-H ) :   0.8684
B(  0-C ,  8-H ) :   0.8551 B(  0-C ,  9-H ) :   0.1888 B(  0-C , 10-H ) :   0.1554
B(  1-S ,  2-O ) :   1.4345 B(  1-S ,  3-O ) :   1.3124 B(  1-S ,  4-O ) :   1.2991
B(  5-C ,  6-C ) :   1.2609 B(  5-C , 11-H ) :   0.6928 B(  5-C , 12-H ) :   0.6512
B(  5-C , 13-H ) :   0.7462 B(  6-C ,  7-H ) :   0.1494 B(  6-C ,  8-H ) :   0.1658
B(  6-C ,  9-H ) :   0.8031 B(  6-C , 10-H ) :   0.8617 B(  6-C , 11-H ) :   0.2459
B(  6-C , 12-H ) :   0.2625 B(  6-C , 13-H ) :   0.2468 B( 11-H , 13-H ) :   0.1048

FINAL SINGLE POINT ENERGY      -741.108713875700

DIPOLE MOMENT
-------------
                                X             Y             Z
Electronic contribution:     -9.78908       3.16090      -2.58404
Nuclear contribution   :     11.75544      -4.53524       2.70749
                        -----------------------------------------
Total Dipole Moment    :      1.96636      -1.37434       0.12346
                        -----------------------------------------
Magnitude (a.u.)       :      2.40221
Magnitude (Debye)      :      6.10593

Rotational constants in cm-1:     0.134586     0.054907     0.051455
Rotational constants in MHz :  4034.798577  1646.069534  1542.570153

                             ****ORCA TERMINATED NORMALLY****
TOTAL RUN TIME: 0 days 0 hours 0 minutes 31 seconds 361 msec
