                         Program Version 5.0.0 -  RELEASE  -
|  1> !LC-BLYP RIJCOSX def2-SVPD def2/J TightSCF
|  2> *xyz 1 1
|  3> C         -4.38262       -1.67089        1.21620
|  4> N         -5.76354       -1.91517        0.70501
|  5> C         -3.28173       -2.19127        0.29436
|  6> H         -5.84081       -2.11520       -0.30065
|  7> H         -6.40882       -1.14866        0.93612
|  8> H         -6.17478       -2.79061        1.05143
|  9> H         -4.32862       -2.13922        2.19810
| 10> H         -4.26158       -0.59740        1.35725
| 11> C         -3.47464       -3.60590       -0.25961
| 12> H         -2.35455       -2.12760        0.87143
| 13> H         -3.16661       -1.49969       -0.54504
| 14> H         -2.64612       -3.85908       -0.88759
| 15> H         -4.37934       -3.64545       -0.82956
| 16> H         -3.53324       -4.30157        0.55126
| 17> *
| 18> %MaxCore 64000
| 19>
| 20> %pal nprocs 4
| 21> end
| 22>
| 23> %scf
| 24>   MaxIter 150
| 25> end
| 26>
| 27>                          ****END OF INPUT****

CARTESIAN COORDINATES (ANGSTROEM)
---------------------------------
  C     -4.382620   -1.670890    1.216200
  N     -5.763540   -1.915170    0.705010
  C     -3.281730   -2.191270    0.294360
  H     -5.840810   -2.115200   -0.300650
  H     -6.408820   -1.148660    0.936120
  H     -6.174780   -2.790610    1.051430
  H     -4.328620   -2.139220    2.198100
  H     -4.261580   -0.597400    1.357250
  C     -3.474640   -3.605900   -0.259610
  H     -2.354550   -2.127600    0.871430
  H     -3.166610   -1.499690   -0.545040
  H     -2.646120   -3.859080   -0.887590
  H     -4.379340   -3.645450   -0.829560
  H     -3.533240   -4.301570    0.551260

 Total Charge           Charge          ....    1
 Multiplicity           Mult            ....    1
 Number of Electrons    NEL             ....   34
 Basis Dimension        Dim             ....  160

ORBITAL ENERGIES
----------------

  NO   OCC          E(Eh)            E(eV)
   0   2.0000     -14.516286      -395.0082
   1   2.0000     -10.332044      -281.1492
   2   2.0000     -10.262264      -279.2504
   3   2.0000     -10.234299      -278.4894
   4   2.0000      -1.303573       -35.4720
   5   2.0000      -1.077245       -29.3133
   6   2.0000      -0.993881       -27.0449
   7   2.0000      -0.902444       -24.5567
   8   2.0000      -0.893754       -24.3203
   9   2.0000      -0.871450       -23.7134
  10   2.0000      -0.792246       -21.5581
  11   2.0000      -0.740134       -20.1401
  12   2.0000      -0.710776       -19.3412
  13   2.0000      -0.685568       -18.6553
  14   2.0000      -0.628911       -17.1135
  15   2.0000      -0.623518       -16.9668
  16   2.0000      -0.604625       -16.4527
  17   0.0000      -0.128843        -3.5060
  18   0.0000      -0.074917        -2.0386
  19   0.0000      -0.069440        -1.8895
  20   0.0000      -0.057365        -1.5610
  21   0.0000      -0.031036        -0.8445

MULLIKEN ATOMIC CHARGES
-----------------------
   0 C :    0.758216
   1 N :   -0.729960
   2 C :   -0.227301
   3 H :    0.329442
   4 H :    0.332968
   5 H :    0.417989
   6 H :   -0.131766
   7 H :   -0.120872
   8 C :    1.027110
   9 H :   -0.102275
  10 H :   -0.125864
  11 H :   -0.140899
  12 H :   -0.197660
  13 H :   -0.089128
Sum of atomic charges:    1.0000000

LOEWDIN ATOMIC CHARGES
----------------------
   0 C :    0.081485
   1 N :    0.332219
   2 C :   -0.055846
   3 H :    0.092057
   4 H :    0.112251
   5 H :    0.108857
   6 H :    0.056671
   7 H :    0.055292
   8 C :    0.137806
   9 H :    0.051407
  10 H :    0.040467
  11 H :    0.011817
  12 H :   -0.025974
  13 H :    0.001490

  Mayer bond orders larger than 0.100000
B(  0-C ,  1-N ) :   0.7168 B(  0-C ,  2-C ) :   1.2272 B(  0-C ,  6-H ) :   0.7579
B(  0-C ,  7-H ) :   0.8515 B(  0-C ,  9-H ) :   0.1641 B(  0-C , 10-H ) :   0.1381
B(  1-N ,  3-H ) :   0.7253 B(  1-N ,  4-H ) :   0.7899 B(  1-N ,  5-H ) :   0.7474
B(  1-N ,  6-H ) :   0.1538 B(  2-C ,  6-H ) :   0.1529 B(  2-C ,  8-C ) :   1.3091
B(  2-C ,  9-H ) :   0.8846 B(  2-C , 10-H ) :   0.8858 B(  2-C , 11-H ) :   0.2637
B(  2-C , 12-H ) :   0.2077 B(  2-C , 13-H ) :   0.2222 B(  8-C , 11-H ) :   0.6993
B(  8-C , 12-H ) :   0.7617 B(  8-C , 13-H ) :   0.7282 B( 12-H , 13-H ) :   0.1040

FINAL SINGLE POINT ENERGY      -174.210129518205

DIPOLE MOMENT
-------------
                                X             Y             Z
Electronic contribution:     -1.73623       1.31741       0.78786
Nuclear contribution   :     -0.18358      -0.73024      -0.44649
                        -----------------------------------------
Total Dipole Moment    :     -1.91980       0.58717       0.34136
                        -----------------------------------------
Magnitude (a.u.)       :      2.03640
Magnitude (Debye)      :      5.17613

Rotational constants in cm-1:     0.423641     0.164544     0.133152
Rotational constants in MHz : 12700.438743  4932.897948  3991.802402

                             ****ORCA TERMINATED NORMALLY****
TOTAL RUN TIME: 0 days 0 hours 0 minutes 14 seconds 191 msec
