                         Program Version 5.0.0 -  RELEASE  -
|  1> !LC-BLYP RIJCOSX def2-SVPD def2/J TightSCF xyzfile
|  2>
|  3> *xyzfile 0 1 B.xyz
|  4>
|  5> %MaxCore 64000
|  6>
|  7> %pal nprocs 4
|  8> end
|  9>
| 10> %scf
| 11>   MaxIter 150
| 12> end
| 13>
| 14>
| 15>                          ****END OF INPUT****

CARTESIAN COORDINATES (ANGSTROEM)
---------------------------------
  C     -4.382623   -1.670889    1.216201
  N     -5.763539   -1.915170    0.705012
  C     -3.281728   -2.191272    0.294361
  C     -5.572364   -5.807798   -0.816445
  S     -6.903179   -4.619033   -0.528458
  H     -5.840812   -2.115205   -0.300646
  H     -6.408823   -1.148656    0.936124
  H     -6.174781   -2.790606    1.051433
  O     -8.114853   -5.250932   -0.957007
  O     -6.532715   -3.426838   -1.314848
  H     -4.328618   -2.139223    2.198103
  H     -4.261583   -0.597399    1.357248
  O     -6.865632   -4.294957    0.914118
  C     -3.474641   -3.605898   -0.259608
  H     -2.354548   -2.127602    0.871433
  H     -3.166611   -1.499693   -0.545037
  C     -3.827078   -4.661097    0.786174
  H     -2.560559   -3.889391   -0.788050
  H     -4.255932   -3.570040   -1.019300
  C     -4.457800   -5.941875    0.229195
  H     -5.177347   -5.542575   -1.797714
  H     -6.074202   -6.768894   -0.921272
  H     -4.530506   -4.253640    1.511979
  H     -2.933400   -4.932302    1.356825
  H     -3.681064   -6.562236   -0.229885
  H     -4.843942   -6.512728    1.075805

 Total Charge           Charge          ....    0
 Multiplicity           Mult            ....    1
 Number of Electrons    NEL             ....   98
 Basis Dimension        Dim             ....  356

ORBITAL ENERGIES
----------------

  NO   OCC          E(Eh)            E(eV)
   0   2.0000     -88.481475     -2407.7033
   1   2.0000     -18.915719      -514.7229
   2   2.0000     -18.912025      -514.6224
   3   2.0000     -18.899738      -514.2880
   4   2.0000     -14.293099      -388.9350
   5   2.0000     -10.173564      -276.8368
   6   2.0000     -10.120715      -275.3987
   7   2.0000     -10.095373      -274.7091
   8   2.0000     -10.095031      -274.6998
   9   2.0000     -10.092135      -274.6209
  10   2.0000     -10.089832      -274.5583
  11   2.0000      -8.029383      -218.4906
  12   2.0000      -6.064630      -165.0270
  13   2.0000      -6.063617      -164.9994
  14   2.0000      -6.062284      -164.9631
  15   2.0000      -1.205146       -32.7937
  16   2.0000      -1.102203       -29.9925
  17   2.0000      -1.052842       -28.6493
  18   2.0000      -1.048124       -28.5209
  19   2.0000      -0.938524       -25.5385
  20   2.0000      -0.899242       -24.4696
  21   2.0000      -0.849734       -23.1224
  22   2.0000      -0.798974       -21.7412
  23   2.0000      -0.745878       -20.2964
  24   2.0000      -0.709882       -19.3169
  25   2.0000      -0.694678       -18.9032
  26   2.0000      -0.684353       -18.6222
  27   2.0000      -0.644345       -17.5335
  28   2.0000      -0.617046       -16.7907
  29   2.0000      -0.601568       -16.3695
  30   2.0000      -0.594330       -16.1725
  31   2.0000      -0.580711       -15.8020
  32   2.0000      -0.556888       -15.1537
  33   2.0000      -0.548675       -14.9302
  34   2.0000      -0.539258       -14.6740
  35   2.0000      -0.525794       -14.3076
  36   2.0000      -0.524328       -14.2677
  37   2.0000      -0.490473       -13.3465
  38   2.0000      -0.478984       -13.0338
  39   2.0000      -0.475196       -12.9307
  40   2.0000      -0.448528       -12.2051
  41   2.0000      -0.439590       -11.9619
  42   2.0000      -0.433750       -11.8029
  43   2.0000      -0.423991       -11.5374
  44   2.0000      -0.421483       -11.4691
  45   2.0000      -0.383533       -10.4365
  46   2.0000      -0.376739       -10.2516
  47   2.0000      -0.367801       -10.0084
  48   2.0000      -0.344961        -9.3869
  49   0.0000       0.034753         0.9457
  50   0.0000       0.067134         1.8268
  51   0.0000       0.072676         1.9776
  52   0.0000       0.076732         2.0880
  53   0.0000       0.095177         2.5899

MULLIKEN ATOMIC CHARGES
-----------------------
   0 C :    0.889861
   1 N :   -0.251938
   2 C :    0.453896
   3 C :    0.388170
   4 S :    1.131955
   5 H :    0.207487
   6 H :    0.272070
   7 H :   -0.028485
   8 O :   -0.650556
   9 O :   -0.699760
  10 H :    0.089098
  11 H :   -0.503715
  12 O :   -0.753901
  13 C :    0.473177
  14 H :   -0.117267
  15 H :   -0.100357
  16 C :    0.215878
  17 H :   -0.382659
  18 H :   -0.252286
  19 C :    0.660421
  20 H :    0.035502
  21 H :   -0.401835
  22 H :   -0.109815
  23 H :   -0.354004
  24 H :   -0.111666
  25 H :   -0.099269
Sum of atomic charges:    0.0000000

LOEWDIN ATOMIC CHARGES
----------------------
   0 C :    0.077644
   1 N :    0.342484
   2 C :   -0.016818
   3 C :   -0.059503
   4 S :    0.922601
   5 H :   -0.015443
   6 H :    0.104188
   7 H :   -0.069365
   8 O :   -0.479175
   9 O :   -0.522142
  10 H :    0.039635
  11 H :    0.034539
  12 O :   -0.500905
  13 C :   -0.016831
  14 H :    0.036213
  15 H :    0.034952
  16 C :   -0.029296
  17 H :    0.037193
  18 H :   -0.014468
  19 C :   -0.032390
  20 H :    0.019848
  21 H :    0.017783
  22 H :   -0.011998
  23 H :    0.033383
  24 H :    0.032168
  25 H :    0.035704

  Mayer bond orders larger than 0.100000
B(  0-C ,  1-N ) :   0.7692 B(  0-C ,  2-C ) :   1.1646 B(  0-C ,  7-H ) :  -0.1033
B(  0-C , 10-H ) :   0.6854 B(  0-C , 11-H ) :   0.8652 B(  0-C , 13-C ) :   0.1320
B(  0-C , 14-H ) :   0.1508 B(  0-C , 15-H ) :   0.1576 B(  1-N ,  5-H ) :   0.7735
B(  1-N ,  6-H ) :   0.8561 B(  1-N ,  7-H ) :   1.2199 B(  1-N , 12-O ) :   0.1029
B(  1-N , 18-H ) :   0.1207 B(  1-N , 22-H ) :   0.1072 B(  2-C , 10-H ) :   0.1191
B(  2-C , 11-H ) :   0.1742 B(  2-C , 13-C ) :   1.2328 B(  2-C , 14-H ) :   0.7693
B(  2-C , 15-H ) :   0.6344 B(  2-C , 17-H ) :   0.1001 B(  2-C , 18-H ) :   0.1214
B(  3-C ,  4-S ) :   0.8980 B(  3-C ,  8-O ) :   0.1078 B(  3-C , 16-C ) :   0.1111
B(  3-C , 19-C ) :   1.1706 B(  3-C , 20-H ) :   0.8306 B(  3-C , 21-H ) :   0.8204
B(  3-C , 24-H ) :   0.1634 B(  3-C , 25-H ) :   0.1467 B(  4-S ,  8-O ) :   1.6199
B(  4-S ,  9-O ) :   1.1875 B(  4-S , 12-O ) :   1.1497 B(  5-H ,  9-O ) :   0.2267
B(  6-H ,  7-H ) :  -0.1072 B(  7-H , 12-O ) :   0.2573 B(  9-O , 12-O ) :   0.1587
B( 10-H , 11-H ) :  -0.1816 B( 10-H , 22-H ) :   0.1135 B( 11-H , 22-H ) :  -0.1026
B( 13-C , 14-H ) :   0.1320 B( 13-C , 15-H ) :   0.2668 B( 13-C , 16-C ) :   1.1416
B( 13-C , 17-H ) :   0.6996 B( 13-C , 18-H ) :   0.7719 B( 13-C , 22-H ) :   0.1052
B( 13-C , 23-H ) :   0.1750 B( 16-C , 17-H ) :   0.1840 B( 16-C , 18-H ) :   0.2081
B( 16-C , 19-C ) :   1.2605 B( 16-C , 22-H ) :   0.8292 B( 16-C , 23-H ) :   0.7674
B( 16-C , 24-H ) :   0.1453 B( 16-C , 25-H ) :   0.3126 B( 19-C , 20-H ) :   0.1005
B( 19-C , 21-H ) :   0.2117 B( 19-C , 24-H ) :   0.6951 B( 19-C , 25-H ) :   0.5726
B( 24-H , 25-H ) :  -0.1193

FINAL SINGLE POINT ENERGY      -914.343877137991

DIPOLE MOMENT
-------------
                                X             Y             Z
Electronic contribution:    -13.44662      -2.96128      -3.67213
Nuclear contribution   :     16.18863       5.15617       4.97370
                        -----------------------------------------
Total Dipole Moment    :      2.74201       2.19489       1.30157
                        -----------------------------------------
Magnitude (a.u.)       :      3.74570
Magnitude (Debye)      :      9.52081

Rotational constants in cm-1:     0.048546     0.025588     0.020102
Rotational constants in MHz :  1455.374030   767.095631   602.645620

                             ****ORCA TERMINATED NORMALLY****
TOTAL RUN TIME: 0 days 0 hours 2 minutes 3 seconds 781 msec
