                         Program Version 5.0.0 -  RELEASE  -
|  1> !LC-BLYP RIJCOSX def2-SVPD def2/J TightSCF
|  2> *xyz 0 1
|  3> C         -5.57236       -5.80780       -0.81644
|  4> S         -6.90318       -4.61903       -0.52846
|  5> F         -8.11485       -5.25093       -0.95701
|  6> O         -6.53271       -3.42684       -1.31485
|  7> O         -6.86563       -4.29496        0.91412
|  8> C         -3.82708       -4.66110        0.78617
|  9> C         -4.45780       -5.94187        0.22919
| 10> H         -5.17735       -5.54257       -1.79771
| 11> H         -6.07420       -6.76889       -0.92127
| 12> H         -3.68106       -6.56224       -0.22988
| 13> H         -4.84394       -6.51273        1.07581
| 14> H         -3.43706       -4.07576       -0.02016
| 15> H         -3.03403       -4.91680        1.45744
| 16> H         -4.56975       -4.09647        1.31013
| 17> *
| 18> %MaxCore 64000
| 19>
| 20> %pal nprocs 4
| 21> end
| 22>
| 23> %scf
| 24>   MaxIter 150
| 25> end
| 26>
| 27>                          ****END OF INPUT****

CARTESIAN COORDINATES (ANGSTROEM)
---------------------------------
  C     -5.572360   -5.807800   -0.816440
  S     -6.903180   -4.619030   -0.528460
  F     -8.114850   -5.250930   -0.957010
  O     -6.532710   -3.426840   -1.314850
  O     -6.865630   -4.294960    0.914120
  C     -3.827080   -4.661100    0.786170
  C     -4.457800   -5.941870    0.229190
  H     -5.177350   -5.542570   -1.797710
  H     -6.074200   -6.768890   -0.921270
  H     -3.681060   -6.562240   -0.229880
  H     -4.843940   -6.512730    1.075810
  H     -3.437060   -4.075760   -0.020160
  H     -3.034030   -4.916800    1.457440
  H     -4.569750   -4.096470    1.310130

 Total Charge           Charge          ....    0
 Multiplicity           Mult            ....    1
 Number of Electrons    NEL             ....   66
 Basis Dimension        Dim             ....  212

ORBITAL ENERGIES
----------------

  NO   OCC          E(Eh)            E(eV)
   0   2.0000     -88.568455     -2410.0702
   1   2.0000     -24.601215      -669.4331
   2   2.0000     -18.963761      -516.0302
   3   2.0000     -18.963393      -516.0202
   4   2.0000     -10.152168      -276.2545
   5   2.0000     -10.117335      -275.3067
   6   2.0000     -10.075652      -274.1724
   7   2.0000      -8.118052      -220.9034
   8   2.0000      -6.156938      -167.5388
   9   2.0000      -6.149944      -167.3485
  10   2.0000      -6.148579      -167.3113
  11   2.0000      -1.470664       -40.0188
  12   2.0000      -1.196993       -32.5718
  13   2.0000      -1.091477       -29.7006
  14   2.0000      -0.938595       -25.5405
  15   2.0000      -0.866403       -23.5760
  16   2.0000      -0.817736       -22.2517
  17   2.0000      -0.749159       -20.3857
  18   2.0000      -0.701837       -19.0980
  19   2.0000      -0.690097       -18.7785
  20   2.0000      -0.658177       -17.9099
  21   2.0000      -0.603319       -16.4171
  22   2.0000      -0.590829       -16.0773
  23   2.0000      -0.564881       -15.3712
  24   2.0000      -0.549392       -14.9497
  25   2.0000      -0.523280       -14.2392
  26   2.0000      -0.492713       -13.4074
  27   2.0000      -0.479131       -13.0378
  28   2.0000      -0.470921       -12.8144
  29   2.0000      -0.456234       -12.4148
  30   2.0000      -0.423887       -11.5345
  31   2.0000      -0.421747       -11.4763
  32   2.0000      -0.402874       -10.9628
  33   0.0000       0.045041         1.2256
  34   0.0000       0.067497         1.8367
  35   0.0000       0.076838         2.0909
  36   0.0000       0.083036         2.2595
  37   0.0000       0.102718         2.7951

MULLIKEN ATOMIC CHARGES
-----------------------
   0 C :    0.170753
   1 S :    1.299299
   2 F :   -0.366545
   3 O :   -0.585682
   4 O :   -0.641802
   5 C :    1.077275
   6 C :   -0.105382
   7 H :   -0.025085
   8 H :   -0.069448
   9 H :   -0.165491
  10 H :   -0.091692
  11 H :   -0.125724
  12 H :   -0.112127
  13 H :   -0.258349
Sum of atomic charges:    0.0000000

LOEWDIN ATOMIC CHARGES
----------------------
   0 C :   -0.057497
   1 S :    1.083754
   2 F :   -0.236106
   3 O :   -0.464141
   4 O :   -0.460961
   5 C :    0.132915
   6 C :   -0.072473
   7 H :    0.028992
   8 H :    0.018109
   9 H :    0.036335
  10 H :    0.034182
  11 H :   -0.003136
  12 H :   -0.007691
  13 H :   -0.032280

  Mayer bond orders larger than 0.100000
B(  0-C ,  1-S ) :   0.9098 B(  0-C ,  6-C ) :   1.3210 B(  0-C ,  7-H ) :   0.8824
B(  0-C ,  8-H ) :   0.8228 B(  0-C ,  9-H ) :   0.1918 B(  0-C , 10-H ) :   0.1557
B(  1-S ,  2-F ) :   0.7794 B(  1-S ,  3-O ) :   1.5236 B(  1-S ,  4-O ) :   1.4888
B(  5-C ,  6-C ) :   1.2788 B(  5-C , 11-H ) :   0.6915 B(  5-C , 12-H ) :   0.6546
B(  5-C , 13-H ) :   0.7439 B(  6-C ,  7-H ) :   0.1371 B(  6-C ,  8-H ) :   0.1730
B(  6-C ,  9-H ) :   0.7927 B(  6-C , 10-H ) :   0.8579 B(  6-C , 11-H ) :   0.2413
B(  6-C , 12-H ) :   0.2560 B(  6-C , 13-H ) :   0.2371 B( 11-H , 13-H ) :   0.1091

FINAL SINGLE POINT ENERGY      -765.572659186883

DIPOLE MOMENT
-------------
                                X             Y             Z
Electronic contribution:    -13.35569       2.38736      -3.89793
Nuclear contribution   :     13.81909      -4.05404       3.42760
                        -----------------------------------------
Total Dipole Moment    :      0.46340      -1.66668      -0.47033
                        -----------------------------------------
Magnitude (a.u.)       :      1.79270
Magnitude (Debye)      :      4.55668

Rotational constants in cm-1:     0.132500     0.053014     0.049575
Rotational constants in MHz :  3972.256497  1589.318970  1486.215991

                             ****ORCA TERMINATED NORMALLY****
TOTAL RUN TIME: 0 days 0 hours 0 minutes 29 seconds 491 msec
