                         Program Version 5.0.0 -  RELEASE  -
|  1> !LC-BLYP RIJCOSX def2-SVPD def2/J TightSCF
|  2> *xyz 0 1
|  3> C         -4.38262       -1.67089        1.21620
|  4> C         -5.76354       -1.91517        0.70501
|  5> C         -3.28173       -2.19127        0.29436
|  6> H         -5.84081       -2.11520       -0.30065
|  7> H         -6.40882       -1.14866        0.93612
|  8> H         -6.17478       -2.79061        1.05143
|  9> H         -4.32862       -2.13922        2.19810
| 10> H         -4.26158       -0.59740        1.35725
| 11> C         -3.47464       -3.60590       -0.25961
| 12> H         -2.35455       -2.12760        0.87143
| 13> H         -3.16661       -1.49969       -0.54504
| 14> H         -2.64612       -3.85908       -0.88759
| 15> H         -4.37934       -3.64545       -0.82956
| 16> H         -3.53324       -4.30157        0.55126
| 17> *
| 18> %MaxCore 64000
| 19>
| 20> %pal nprocs 4
| 21> end
| 22>
| 23> %scf
| 24>   MaxIter 150
| 25> end
| 26>
| 27>                          ****END OF INPUT****

CARTESIAN COORDINATES (ANGSTROEM)
---------------------------------
  C     -4.382620   -1.670890    1.216200
  C     -5.763540   -1.915170    0.705010
  C     -3.281730   -2.191270    0.294360
  H     -5.840810   -2.115200   -0.300650
  H     -6.408820   -1.148660    0.936120
  H     -6.174780   -2.790610    1.051430
  H     -4.328620   -2.139220    2.198100
  H     -4.261580   -0.597400    1.357250
  C     -3.474640   -3.605900   -0.259610
  H     -2.354550   -2.127600    0.871430
  H     -3.166610   -1.499690   -0.545040
  H     -2.646120   -3.859080   -0.887590
  H     -4.379340   -3.645450   -0.829560
  H     -3.533240   -4.301570    0.551260

 Total Charge           Charge          ....    0
 Multiplicity           Mult            ....    1
 Number of Electrons    NEL             ....   34
 Basis Dimension        Dim             ....  160

ORBITAL ENERGIES
----------------

  NO   OCC          E(Eh)            E(eV)
   0   2.0000     -10.074618      -274.1443
   1   2.0000     -10.071307      -274.0542
   2   2.0000     -10.065087      -273.8849
   3   2.0000     -10.046809      -273.3876
   4   2.0000      -0.904412       -24.6103
   5   2.0000      -0.830718       -22.6050
   6   2.0000      -0.754348       -20.5268
   7   2.0000      -0.668405       -18.1882
   8   2.0000      -0.573376       -15.6024
   9   2.0000      -0.568722       -15.4757
  10   2.0000      -0.521697       -14.1961
  11   2.0000      -0.498806       -13.5732
  12   2.0000      -0.484160       -13.1747
  13   2.0000      -0.459139       -12.4938
  14   2.0000      -0.426079       -11.5942
  15   2.0000      -0.419160       -11.4059
  16   2.0000      -0.408023       -11.1029
  17   0.0000       0.076658         2.0860
  18   0.0000       0.101356         2.7580
  19   0.0000       0.103809         2.8248
  20   0.0000       0.119507         3.2519
  21   0.0000       0.148607         4.0438

MULLIKEN ATOMIC CHARGES
-----------------------
   0 C :   -0.002033
   1 C :    1.267386
   2 C :   -0.165189
   3 H :   -0.444962
   4 H :   -0.448750
   5 H :   -0.156127
   6 H :   -0.177529
   7 H :   -0.140460
   8 C :    0.941435
   9 H :   -0.151114
  10 H :   -0.098198
  11 H :   -0.139897
  12 H :   -0.148163
  13 H :   -0.136397
Sum of atomic charges:   -0.0000000

LOEWDIN ATOMIC CHARGES
----------------------
   0 C :   -0.075857
   1 C :    0.108398
   2 C :   -0.090923
   3 H :   -0.041971
   4 H :   -0.029515
   5 H :   -0.027194
   6 H :    0.025487
   7 H :    0.024165
   8 C :    0.114643
   9 H :    0.020227
  10 H :    0.025421
  11 H :   -0.015013
  12 H :   -0.026930
  13 H :   -0.010936

  Mayer bond orders larger than 0.100000
B(  0-C ,  1-C ) :   1.2320 B(  0-C ,  2-C ) :   1.2567 B(  0-C ,  3-H ) :   0.2784
B(  0-C ,  4-H ) :   0.2114 B(  0-C ,  5-H ) :   0.2651 B(  0-C ,  6-H ) :   0.7838
B(  0-C ,  7-H ) :   0.8376 B(  0-C ,  9-H ) :   0.2075 B(  0-C , 10-H ) :   0.1556
B(  1-C ,  2-C ) :   0.1132 B(  1-C ,  3-H ) :   0.4887 B(  1-C ,  4-H ) :   0.6291
B(  1-C ,  5-H ) :   0.4898 B(  1-C ,  6-H ) :   0.1473 B(  2-C ,  6-H ) :   0.1576
B(  2-C ,  8-C ) :   1.3227 B(  2-C ,  9-H ) :   0.8353 B(  2-C , 10-H ) :   0.8477
B(  2-C , 11-H ) :   0.2597 B(  2-C , 12-H ) :   0.2202 B(  2-C , 13-H ) :   0.2166
B(  3-H ,  5-H ) :   0.3384 B(  8-C , 10-H ) :   0.1013 B(  8-C , 11-H ) :   0.6661
B(  8-C , 12-H ) :   0.7819 B(  8-C , 13-H ) :   0.7382 B( 12-H , 13-H ) :   0.1068

FINAL SINGLE POINT ENERGY      -157.814621624578

DIPOLE MOMENT
-------------
                                X             Y             Z
Electronic contribution:      0.63794       0.59638       0.37973
Nuclear contribution   :     -0.64996      -0.59433      -0.37777
                        -----------------------------------------
Total Dipole Moment    :     -0.01202       0.00206       0.00196
                        -----------------------------------------
Magnitude (a.u.)       :      0.01235
Magnitude (Debye)      :      0.03140

Rotational constants in cm-1:     0.431358     0.171688     0.138554
Rotational constants in MHz : 12931.797515  5147.084397  4153.759343

                             ****ORCA TERMINATED NORMALLY****
TOTAL RUN TIME: 0 days 0 hours 0 minutes 12 seconds 249 msec
