                         Program Version 5.0.0 -  RELEASE  -
|  1> !LC-BLYP RIJCOSX def2-SVPD def2/J TightSCF
|  2> *xyz 0 1
|  3> C         -5.57236       -5.80780       -0.81644
|  4> S         -6.90318       -4.61903       -0.52846
|  5> O         -8.11485       -5.25093       -0.95701
|  6> F         -6.53271       -3.42684       -1.31485
|  7> O         -6.86563       -4.29496        0.91412
|  8> C         -3.82708       -4.66110        0.78617
|  9> C         -4.45780       -5.94187        0.22919
| 10> H         -5.17735       -5.54257       -1.79771
| 11> H         -6.07420       -6.76889       -0.92127
| 12> H         -3.68106       -6.56224       -0.22988
| 13> H         -4.84394       -6.51273        1.07581
| 14> H         -3.43706       -4.07576       -0.02016
| 15> H         -3.03403       -4.91680        1.45744
| 16> H         -4.56975       -4.09647        1.31013
| 17> *
| 18> %MaxCore 64000
| 19>
| 20> %pal nprocs 4
| 21> end
| 22>
| 23> %scf
| 24>   MaxIter 150
| 25> end
| 26>
| 27>                          ****END OF INPUT****

CARTESIAN COORDINATES (ANGSTROEM)
---------------------------------
  C     -5.572360   -5.807800   -0.816440
  S     -6.903180   -4.619030   -0.528460
  O     -8.114850   -5.250930   -0.957010
  F     -6.532710   -3.426840   -1.314850
  O     -6.865630   -4.294960    0.914120
  C     -3.827080   -4.661100    0.786170
  C     -4.457800   -5.941870    0.229190
  H     -5.177350   -5.542570   -1.797710
  H     -6.074200   -6.768890   -0.921270
  H     -3.681060   -6.562240   -0.229880
  H     -4.843940   -6.512730    1.075810
  H     -3.437060   -4.075760   -0.020160
  H     -3.034030   -4.916800    1.457440
  H     -4.569750   -4.096470    1.310130

 Total Charge           Charge          ....    0
 Multiplicity           Mult            ....    1
 Number of Electrons    NEL             ....   66
 Basis Dimension        Dim             ....  212

ORBITAL ENERGIES
----------------

  NO   OCC          E(Eh)            E(eV)
   0   2.0000     -88.566502     -2410.0170
   1   2.0000     -24.579675      -668.8470
   2   2.0000     -18.977662      -516.4084
   3   2.0000     -18.962910      -516.0070
   4   2.0000     -10.151543      -276.2375
   5   2.0000     -10.117088      -275.3000
   6   2.0000     -10.081904      -274.3425
   7   2.0000      -8.115965      -220.8466
   8   2.0000      -6.154721      -167.4785
   9   2.0000      -6.148046      -167.2968
  10   2.0000      -6.146676      -167.2595
  11   2.0000      -1.434428       -39.0328
  12   2.0000      -1.212076       -32.9823
  13   2.0000      -1.107296       -30.1310
  14   2.0000      -0.939507       -25.5653
  15   2.0000      -0.860787       -23.4232
  16   2.0000      -0.808150       -21.9909
  17   2.0000      -0.745319       -20.2811
  18   2.0000      -0.678666       -18.4674
  19   2.0000      -0.673427       -18.3249
  20   2.0000      -0.658305       -17.9134
  21   2.0000      -0.608184       -16.5495
  22   2.0000      -0.588572       -16.0159
  23   2.0000      -0.561923       -15.2907
  24   2.0000      -0.552212       -15.0264
  25   2.0000      -0.539734       -14.6869
  26   2.0000      -0.499572       -13.5940
  27   2.0000      -0.482168       -13.1205
  28   2.0000      -0.478506       -13.0208
  29   2.0000      -0.459022       -12.4906
  30   2.0000      -0.437211       -11.8971
  31   2.0000      -0.425860       -11.5882
  32   2.0000      -0.411753       -11.2044
  33   0.0000       0.048353         1.3158
  34   0.0000       0.069895         1.9019
  35   0.0000       0.078607         2.1390
  36   0.0000       0.080202         2.1824
  37   0.0000       0.103373         2.8129

MULLIKEN ATOMIC CHARGES
-----------------------
   0 C :    0.166460
   1 S :    1.249597
   2 O :   -0.564296
   3 F :   -0.341939
   4 O :   -0.641765
   5 C :    1.073739
   6 C :   -0.076993
   7 H :   -0.030767
   8 H :   -0.072474
   9 H :   -0.163710
  10 H :   -0.092920
  11 H :   -0.137845
  12 H :   -0.106935
  13 H :   -0.260151
Sum of atomic charges:   -0.0000000

LOEWDIN ATOMIC CHARGES
----------------------
   0 C :   -0.051411
   1 S :    1.079197
   2 O :   -0.439016
   3 F :   -0.255643
   4 O :   -0.457217
   5 C :    0.127317
   6 C :   -0.076916
   7 H :    0.024614
   8 H :    0.029995
   9 H :    0.034573
  10 H :    0.036455
  11 H :   -0.008155
  12 H :   -0.006872
  13 H :   -0.036922

  Mayer bond orders larger than 0.100000
B(  0-C ,  1-S ) :   0.9231 B(  0-C ,  6-C ) :   1.3134 B(  0-C ,  7-H ) :   0.8527
B(  0-C ,  8-H ) :   0.8645 B(  0-C ,  9-H ) :   0.1865 B(  0-C , 10-H ) :   0.1618
B(  1-S ,  2-O ) :   1.6495 B(  1-S ,  3-F ) :   0.6963 B(  1-S ,  4-O ) :   1.5220
B(  5-C ,  6-C ) :   1.2764 B(  5-C , 11-H ) :   0.6888 B(  5-C , 12-H ) :   0.6643
B(  5-C , 13-H ) :   0.7436 B(  6-C ,  7-H ) :   0.1455 B(  6-C ,  8-H ) :   0.1531
B(  6-C ,  9-H ) :   0.7940 B(  6-C , 10-H ) :   0.8575 B(  6-C , 11-H ) :   0.2363
B(  6-C , 12-H ) :   0.2540 B(  6-C , 13-H ) :   0.2339 B( 11-H , 13-H ) :   0.1041

FINAL SINGLE POINT ENERGY      -765.591268704967

DIPOLE MOMENT
-------------
                                X             Y             Z
Electronic contribution:    -10.61083       5.54041      -4.51629
Nuclear contribution   :     12.11759      -6.01574       3.81244
                        -----------------------------------------
Total Dipole Moment    :      1.50676      -0.47533      -0.70385
                        -----------------------------------------
Magnitude (a.u.)       :      1.72964
Magnitude (Debye)      :      4.39640

Rotational constants in cm-1:     0.128152     0.053825     0.050608
Rotational constants in MHz :  3841.897096  1613.621976  1517.196867

                             ****ORCA TERMINATED NORMALLY****
TOTAL RUN TIME: 0 days 0 hours 0 minutes 29 seconds 246 msec
