                         Program Version 5.0.0 -  RELEASE  -
|  1> !LC-BLYP RIJCOSX def2-SVPD def2/J TightSCF
|  2> *xyz 0 1
|  3> C         -5.57236       -5.80780       -0.81644
|  4> S         -6.90318       -4.61903       -0.52846
|  5> O         -8.11485       -5.25093       -0.95701
|  6> O         -6.53271       -3.42684       -1.31485
|  7> F         -6.86563       -4.29496        0.91412
|  8> C         -3.82708       -4.66110        0.78617
|  9> C         -4.45780       -5.94187        0.22919
| 10> H         -5.17735       -5.54257       -1.79771
| 11> H         -6.07420       -6.76889       -0.92127
| 12> H         -3.68106       -6.56224       -0.22988
| 13> H         -4.84394       -6.51273        1.07581
| 14> H         -3.43706       -4.07576       -0.02016
| 15> H         -3.03403       -4.91680        1.45744
| 16> H         -4.56975       -4.09647        1.31013
| 17> *
| 18> %MaxCore 64000
| 19>
| 20> %pal nprocs 4
| 21> end
| 22>
| 23> %scf
| 24>   MaxIter 150
| 25> end
| 26>
| 27>                          ****END OF INPUT****

CARTESIAN COORDINATES (ANGSTROEM)
---------------------------------
  C     -5.572360   -5.807800   -0.816440
  S     -6.903180   -4.619030   -0.528460
  O     -8.114850   -5.250930   -0.957010
  O     -6.532710   -3.426840   -1.314850
  F     -6.865630   -4.294960    0.914120
  C     -3.827080   -4.661100    0.786170
  C     -4.457800   -5.941870    0.229190
  H     -5.177350   -5.542570   -1.797710
  H     -6.074200   -6.768890   -0.921270
  H     -3.681060   -6.562240   -0.229880
  H     -4.843940   -6.512730    1.075810
  H     -3.437060   -4.075760   -0.020160
  H     -3.034030   -4.916800    1.457440
  H     -4.569750   -4.096470    1.310130

 Total Charge           Charge          ....    0
 Multiplicity           Mult            ....    1
 Number of Electrons    NEL             ....   66
 Basis Dimension        Dim             ....  212

ORBITAL ENERGIES
----------------

  NO   OCC          E(Eh)            E(eV)
   0   2.0000     -88.565200     -2409.9816
   1   2.0000     -24.578553      -668.8164
   2   2.0000     -18.976793      -516.3848
   3   2.0000     -18.961462      -515.9676
   4   2.0000     -10.150273      -276.2030
   5   2.0000     -10.123869      -275.4845
   6   2.0000     -10.092523      -274.6315
   7   2.0000      -8.114694      -220.8120
   8   2.0000      -6.153533      -167.4461
   9   2.0000      -6.146789      -167.2626
  10   2.0000      -6.145325      -167.2228
  11   2.0000      -1.431822       -38.9619
  12   2.0000      -1.211955       -32.9790
  13   2.0000      -1.106579       -30.1115
  14   2.0000      -0.943727       -25.6801
  15   2.0000      -0.861904       -23.4536
  16   2.0000      -0.809142       -22.0179
  17   2.0000      -0.752049       -20.4643
  18   2.0000      -0.687036       -18.6952
  19   2.0000      -0.674894       -18.3648
  20   2.0000      -0.646127       -17.5820
  21   2.0000      -0.606887       -16.5142
  22   2.0000      -0.583505       -15.8780
  23   2.0000      -0.576560       -15.6890
  24   2.0000      -0.554564       -15.0904
  25   2.0000      -0.538441       -14.6517
  26   2.0000      -0.501999       -13.6601
  27   2.0000      -0.490521       -13.3478
  28   2.0000      -0.484230       -13.1766
  29   2.0000      -0.465380       -12.6636
  30   2.0000      -0.435655       -11.8548
  31   2.0000      -0.424273       -11.5451
  32   2.0000      -0.413446       -11.2504
  33   0.0000       0.045495         1.2380
  34   0.0000       0.073202         1.9919
  35   0.0000       0.078032         2.1234
  36   0.0000       0.079653         2.1675
  37   0.0000       0.101660         2.7663

MULLIKEN ATOMIC CHARGES
-----------------------
   0 C :    0.193772
   1 S :    1.221133
   2 O :   -0.564844
   3 O :   -0.593581
   4 F :   -0.377351
   5 C :    1.082774
   6 C :   -0.088717
   7 H :   -0.031033
   8 H :   -0.066989
   9 H :   -0.151144
  10 H :   -0.117913
  11 H :   -0.127258
  12 H :   -0.102389
  13 H :   -0.276458
Sum of atomic charges:   -0.0000000

LOEWDIN ATOMIC CHARGES
----------------------
   0 C :   -0.046794
   1 S :    1.071532
   2 O :   -0.439343
   3 O :   -0.466094
   4 F :   -0.256655
   5 C :    0.129212
   6 C :   -0.083707
   7 H :    0.036872
   8 H :    0.024801
   9 H :    0.036011
  10 H :    0.031022
  11 H :   -0.000463
  12 H :   -0.005619
  13 H :   -0.030774

  Mayer bond orders larger than 0.100000
B(  0-C ,  1-S ) :   0.9369 B(  0-C ,  6-C ) :   1.2849 B(  0-C ,  7-H ) :   0.8669
B(  0-C ,  8-H ) :   0.8651 B(  0-C ,  9-H ) :   0.1892 B(  0-C , 10-H ) :   0.1503
B(  1-S ,  2-O ) :   1.6348 B(  1-S ,  3-O ) :   1.5359 B(  1-S ,  4-F ) :   0.7024
B(  5-C ,  6-C ) :   1.2778 B(  5-C , 11-H ) :   0.6965 B(  5-C , 12-H ) :   0.6573
B(  5-C , 13-H ) :   0.7323 B(  6-C ,  7-H ) :   0.1475 B(  6-C ,  8-H ) :   0.1606
B(  6-C ,  9-H ) :   0.7883 B(  6-C , 10-H ) :   0.8709 B(  6-C , 11-H ) :   0.2453
B(  6-C , 12-H ) :   0.2549 B(  6-C , 13-H ) :   0.2330 B( 11-H , 13-H ) :   0.1190

FINAL SINGLE POINT ENERGY      -765.591250544160

DIPOLE MOMENT
-------------
                                X             Y             Z
Electronic contribution:    -11.11154       4.00676      -0.67519
Nuclear contribution   :     12.47562      -5.08213       1.41531
                        -----------------------------------------
Total Dipole Moment    :      1.36408      -1.07537       0.74012
                        -----------------------------------------
Magnitude (a.u.)       :      1.88810
Magnitude (Debye)      :      4.79917

Rotational constants in cm-1:     0.128398     0.054249     0.051014
Rotational constants in MHz :  3849.278549  1626.338413  1529.351405

                             ****ORCA TERMINATED NORMALLY****
TOTAL RUN TIME: 0 days 0 hours 0 minutes 29 seconds 116 msec
