                         Program Version 5.0.0 -  RELEASE  -
|  1> !LC-BLYP RIJCOSX def2-SVPD def2/J TightSCF xyzfile
|  2>
|  3> *xyzfile 0 1 D1.xyz
|  4>
|  5> %MaxCore 64000
|  6>
|  7> %pal nprocs 4
|  8> end
|  9>
| 10> %scf
| 11>   MaxIter 150
| 12> end
| 13>
| 14>
| 15>                          ****END OF INPUT****

CARTESIAN COORDINATES (ANGSTROEM)
---------------------------------
  C     -4.382623   -1.670889    1.216201
  C     -5.763539   -1.915170    0.705012
  C     -3.281728   -2.191272    0.294361
  C     -5.572364   -5.807798   -0.816445
  S     -6.903179   -4.619033   -0.528458
  H     -5.840812   -2.115205   -0.300646
  H     -6.408823   -1.148656    0.936124
  H     -6.174781   -2.790606    1.051433
  F     -8.114853   -5.250932   -0.957007
  O     -6.532715   -3.426838   -1.314848
  H     -4.328618   -2.139223    2.198103
  H     -4.261583   -0.597399    1.357248
  O     -6.865632   -4.294957    0.914118
  C     -3.474641   -3.605898   -0.259608
  H     -2.354548   -2.127602    0.871433
  H     -3.166611   -1.499693   -0.545037
  C     -3.827078   -4.661097    0.786174
  H     -2.560559   -3.889391   -0.788050
  H     -4.255932   -3.570040   -1.019300
  C     -4.457800   -5.941875    0.229195
  H     -5.177347   -5.542575   -1.797714
  H     -6.074202   -6.768894   -0.921272
  H     -4.530506   -4.253640    1.511979
  H     -2.933400   -4.932302    1.356825
  H     -3.681064   -6.562236   -0.229885
  H     -4.843942   -6.512728    1.075805

 Total Charge           Charge          ....    0
 Multiplicity           Mult            ....    1
 Number of Electrons    NEL             ....   98
 Basis Dimension        Dim             ....  356

ORBITAL ENERGIES
----------------

  NO   OCC          E(Eh)            E(eV)
   0   2.0000     -88.578096     -2410.3325
   1   2.0000     -24.607146      -669.5945
   2   2.0000     -18.971943      -516.2528
   3   2.0000     -18.970979      -516.2266
   4   2.0000     -10.155293      -276.3396
   5   2.0000     -10.115784      -275.2645
   6   2.0000     -10.081905      -274.3426
   7   2.0000     -10.071040      -274.0469
   8   2.0000     -10.062047      -273.8022
   9   2.0000     -10.048042      -273.4211
  10   2.0000      -9.992129      -271.8997
  11   2.0000      -8.126371      -221.1298
  12   2.0000      -6.165273      -167.7656
  13   2.0000      -6.158387      -167.5782
  14   2.0000      -6.157033      -167.5414
  15   2.0000      -1.476031       -40.1649
  16   2.0000      -1.209507       -32.9124
  17   2.0000      -1.103909       -30.0389
  18   2.0000      -0.946050       -25.7433
  19   2.0000      -0.903099       -24.5746
  20   2.0000      -0.861513       -23.4430
  21   2.0000      -0.834227       -22.7005
  22   2.0000      -0.799028       -21.7427
  23   2.0000      -0.753874       -20.5140
  24   2.0000      -0.721473       -19.6323
  25   2.0000      -0.709726       -19.3126
  26   2.0000      -0.691954       -18.8290
  27   2.0000      -0.661911       -18.0115
  28   2.0000      -0.644216       -17.5300
  29   2.0000      -0.607372       -16.5274
  30   2.0000      -0.603906       -16.4331
  31   2.0000      -0.580357       -15.7923
  32   2.0000      -0.574930       -15.6446
  33   2.0000      -0.548499       -14.9254
  34   2.0000      -0.540520       -14.7083
  35   2.0000      -0.522556       -14.2195
  36   2.0000      -0.514634       -14.0039
  37   2.0000      -0.490555       -13.3487
  38   2.0000      -0.481841       -13.1116
  39   2.0000      -0.477469       -12.9926
  40   2.0000      -0.447888       -12.1877
  41   2.0000      -0.442238       -12.0339
  42   2.0000      -0.437234       -11.8977
  43   2.0000      -0.433239       -11.7890
  44   2.0000      -0.422351       -11.4927
  45   2.0000      -0.409455       -11.1418
  46   2.0000      -0.391051       -10.6410
  47   2.0000      -0.384914       -10.4740
  48   2.0000      -0.362550        -9.8655
  49   0.0000       0.042038         1.1439
  50   0.0000       0.063562         1.7296
  51   0.0000       0.071171         1.9367
  52   0.0000       0.081268         2.2114
  53   0.0000       0.094115         2.5610

MULLIKEN ATOMIC CHARGES
-----------------------
   0 C :    0.132278
   1 C :    2.419113
   2 C :    0.615642
   3 C :    0.371575
   4 S :    1.428363
   5 H :   -0.606843
   6 H :   -0.492096
   7 H :   -1.208836
   8 F :   -0.442999
   9 O :   -0.582443
  10 H :    0.075319
  11 H :   -0.516156
  12 O :   -0.657260
  13 C :    0.375935
  14 H :   -0.131509
  15 H :   -0.026090
  16 C :    0.251896
  17 H :   -0.434011
  18 H :   -0.230696
  19 C :    0.656359
  20 H :    0.060559
  21 H :   -0.374021
  22 H :   -0.128016
  23 H :   -0.358412
  24 H :   -0.107388
  25 H :   -0.090264
Sum of atomic charges:    0.0000000

LOEWDIN ATOMIC CHARGES
----------------------
   0 C :   -0.055470
   1 C :    0.127872
   2 C :   -0.034293
   3 C :   -0.045292
   4 S :    1.152590
   5 H :   -0.096456
   6 H :   -0.014393
   7 H :   -0.138199
   8 F :   -0.225929
   9 O :   -0.444351
  10 H :    0.019842
  11 H :    0.019883
  12 O :   -0.432897
  13 C :   -0.019627
  14 H :    0.020943
  15 H :    0.030991
  16 C :   -0.018247
  17 H :    0.029075
  18 H :   -0.014110
  19 C :   -0.022946
  20 H :    0.029014
  21 H :    0.017646
  22 H :    0.000078
  23 H :    0.036990
  24 H :    0.040540
  25 H :    0.036748

  Mayer bond orders larger than 0.100000
B(  0-C ,  1-C ) :   0.9228 B(  0-C ,  2-C ) :   1.1254 B(  0-C ,  5-H ) :   0.4159
B(  0-C ,  7-H ) :   0.5294 B(  0-C , 10-H ) :   0.6415 B(  0-C , 11-H ) :   0.9448
B(  0-C , 13-C ) :   0.1028 B(  0-C , 14-H ) :   0.1900 B(  0-C , 15-H ) :   0.1890
B(  0-C , 16-C ) :   0.1106 B(  1-C ,  2-C ) :   0.2202 B(  1-C ,  5-H ) :  -0.4500
B(  1-C ,  6-H ) :   0.3065 B(  1-C ,  7-H ) :  -1.1259 B(  1-C , 10-H ) :   0.2327
B(  1-C , 17-H ) :   0.1456 B(  2-C ,  7-H ) :  -0.1053 B(  2-C , 10-H ) :   0.1460
B(  2-C , 13-C ) :   1.2437 B(  2-C , 14-H ) :   0.6971 B(  2-C , 15-H ) :   0.5756
B(  2-C , 18-H ) :   0.1407 B(  3-C ,  4-S ) :   0.9441 B(  3-C , 16-C ) :   0.1213
B(  3-C , 19-C ) :   1.1962 B(  3-C , 20-H ) :   0.8452 B(  3-C , 21-H ) :   0.7714
B(  3-C , 24-H ) :   0.1630 B(  3-C , 25-H ) :   0.1386 B(  4-S ,  8-F ) :   0.7421
B(  4-S ,  9-O ) :   1.4366 B(  4-S , 12-O ) :   1.4210 B(  5-H ,  6-H ) :  -0.1204
B(  5-H ,  7-H ) :   1.1786 B(  5-H ,  9-O ) :   0.2654 B(  5-H , 11-H ) :   0.1966
B(  5-H , 17-H ) :  -0.1252 B(  5-H , 18-H ) :   0.1857 B(  6-H ,  7-H ) :   0.1745
B(  6-H , 11-H ) :  -0.1689 B(  6-H , 13-C ) :   0.1037 B(  6-H , 17-H ) :   0.1276
B(  6-H , 18-H ) :  -0.1682 B(  7-H , 10-H ) :  -0.1463 B(  7-H , 11-H ) :   0.1207
B(  7-H , 12-O ) :   0.2288 B(  7-H , 17-H ) :  -0.1475 B(  9-O , 12-O ) :   0.1782
B( 10-H , 11-H ) :  -0.2774 B( 10-H , 22-H ) :   0.1748 B( 11-H , 14-H ) :   0.1238
B( 13-C , 14-H ) :   0.1914 B( 13-C , 15-H ) :   0.3045 B( 13-C , 16-C ) :   1.1585
B( 13-C , 17-H ) :   0.7404 B( 13-C , 18-H ) :   0.7168 B( 13-C , 22-H ) :   0.1289
B( 13-C , 23-H ) :   0.1890 B( 14-H , 15-H ) :  -0.1374 B( 16-C , 17-H ) :   0.2182
B( 16-C , 18-H ) :   0.2174 B( 16-C , 19-C ) :   1.2364 B( 16-C , 22-H ) :   0.8244
B( 16-C , 23-H ) :   0.7542 B( 16-C , 24-H ) :   0.1418 B( 16-C , 25-H ) :   0.3054
B( 19-C , 21-H ) :   0.2370 B( 19-C , 24-H ) :   0.6942 B( 19-C , 25-H ) :   0.5860
B( 24-H , 25-H ) :  -0.1200

FINAL SINGLE POINT ENERGY      -922.195648924489

DIPOLE MOMENT
-------------
                                X             Y             Z
Electronic contribution:    -18.90927      -8.72717      -6.74356
Nuclear contribution   :     19.08524       6.89775       6.14221
                        -----------------------------------------
Total Dipole Moment    :      0.17597      -1.82942      -0.60135
                        -----------------------------------------
Magnitude (a.u.)       :      1.93374
Magnitude (Debye)      :      4.91518

Rotational constants in cm-1:     0.049343     0.024787     0.019726
Rotational constants in MHz :  1479.262779   743.087234   591.370705

                             ****ORCA TERMINATED NORMALLY****
TOTAL RUN TIME: 0 days 0 hours 2 minutes 2 seconds 121 msec
