                         Program Version 5.0.0 -  RELEASE  -
|  1> !LC-BLYP RIJCOSX def2-SVPD def2/J TightSCF
|  2> *xyz -1 1
|  3> C          1.44442        5.26658       -0.97546
|  4> O          1.56525        4.23349       -1.86489
|  5> H          1.76623        6.17572       -1.43893
|  6> H          2.05096        5.07018       -0.11614
|  7> H          0.42160        5.36155       -0.67592
|  8> *
|  9> %MaxCore 64000
| 10>
| 11> %pal nprocs 8
| 12> end
| 13>
| 14> %scf
| 15>   MaxIter 150
| 16> end
| 17>
| 18>
| 19>                          ****END OF INPUT****

CARTESIAN COORDINATES (ANGSTROEM)
---------------------------------
  C      1.444420    5.266580   -0.975460
  O      1.565250    4.233490   -1.864890
  H      1.766230    6.175720   -1.438930
  H      2.050960    5.070180   -0.116140
  H      0.421600    5.361550   -0.675920

 Total Charge           Charge          ....   -1
 Multiplicity           Mult            ....    1
 Number of Electrons    NEL             ....   18
 Basis Dimension        Dim             ....   67

ORBITAL ENERGIES
----------------

  NO   OCC          E(Eh)            E(eV)
   0   2.0000     -18.602408      -506.1972
   1   2.0000      -9.872424      -268.6423
   2   2.0000      -0.746417       -20.3111
   3   2.0000      -0.496818       -13.5191
   4   2.0000      -0.302320        -8.2265
   5   2.0000      -0.302317        -8.2265
   6   2.0000      -0.199548        -5.4300
   7   2.0000      -0.046964        -1.2780
   8   2.0000      -0.046959        -1.2778
   9   0.0000       0.247639         6.7386
  10   0.0000       0.324281         8.8241
  11   0.0000       0.324282         8.8242
  12   0.0000       0.333016         9.0618
  13   0.0000       0.368058        10.0154

MULLIKEN ATOMIC CHARGES
-----------------------
   0 C :    0.920814
   1 O :   -0.966133
   2 H :   -0.318223
   3 H :   -0.318265
   4 H :   -0.318193
Sum of atomic charges:   -1.0000000

LOEWDIN ATOMIC CHARGES
----------------------
   0 C :   -0.139596
   1 O :   -0.643706
   2 H :   -0.072230
   3 H :   -0.072234
   4 H :   -0.072233

  Mayer bond orders larger than 0.100000
B(  0-C ,  1-O ) :   1.2773 B(  0-C ,  2-H ) :   0.8732 B(  0-C ,  3-H ) :   0.8732
B(  0-C ,  4-H ) :   0.8733

FINAL SINGLE POINT ENERGY      -114.757863210060

DIPOLE MOMENT
-------------
                                X             Y             Z
Electronic contribution:      0.15509      -1.32549      -1.14107
Nuclear contribution   :     -0.25440       2.17514       1.87266
                        -----------------------------------------
Total Dipole Moment    :     -0.09932       0.84965       0.73159
                        -----------------------------------------
Magnitude (a.u.)       :      1.12560
Magnitude (Debye)      :      2.86106

Rotational constants in cm-1:     5.477715     0.940444     0.940443
Rotational constants in MHz : 164217.753846 28193.799011 28193.774483

                             ****ORCA TERMINATED NORMALLY****
TOTAL RUN TIME: 0 days 0 hours 0 minutes 2 seconds 990 msec
