                         Program Version 5.0.0 -  RELEASE  -
|  1> !LC-BLYP RIJCOSX def2-SVPD def2/J TightSCF
|  2> *xyz 1 1
|  3> C         -0.70169        4.07250       -4.00392
|  4> N          0.68053        4.61482       -4.04800
|  5> H          0.69993        5.58489       -4.38827
|  6> H          1.27804        4.05598       -4.66824
|  7> H          1.08573        4.53358       -3.10652
|  8> H         -1.14500        4.14653       -4.97495
|  9> H         -1.28296        4.63405       -3.30271
| 10> H         -0.67274        3.04629       -3.70235
| 11> *
| 12> %MaxCore 64000
| 13>
| 14> %pal nprocs 8
| 15> end
| 16>
| 17> %scf
| 18>   MaxIter 150
| 19> end
| 20>
| 21>
| 22>                          ****END OF INPUT****

CARTESIAN COORDINATES (ANGSTROEM)
---------------------------------
  C     -0.701690    4.072500   -4.003920
  N      0.680530    4.614820   -4.048000
  H      0.699930    5.584890   -4.388270
  H      1.278040    4.055980   -4.668240
  H      1.085730    4.533580   -3.106520
  H     -1.145000    4.146530   -4.974950
  H     -1.282960    4.634050   -3.302710
  H     -0.672740    3.046290   -3.702350

 Total Charge           Charge          ....    1
 Multiplicity           Mult            ....    1
 Number of Electrons    NEL             ....   18
 Basis Dimension        Dim             ....   88

ORBITAL ENERGIES
----------------

  NO   OCC          E(Eh)            E(eV)
   0   2.0000     -14.535877      -395.5413
   1   2.0000     -10.342779      -281.4413
   2   2.0000      -1.320076       -35.9211
   3   2.0000      -1.041567       -28.3425
   4   2.0000      -0.920715       -25.0539
   5   2.0000      -0.910790       -24.7839
   6   2.0000      -0.817390       -22.2423
   7   2.0000      -0.727956       -19.8087
   8   2.0000      -0.726242       -19.7620
   9   0.0000      -0.142839        -3.8868
  10   0.0000      -0.074268        -2.0209
  11   0.0000      -0.069014        -1.8780
  12   0.0000      -0.068690        -1.8691
  13   0.0000      -0.024932        -0.6784

MULLIKEN ATOMIC CHARGES
-----------------------
   0 C :    1.136501
   1 N :   -0.710534
   2 H :    0.332188
   3 H :    0.331082
   4 H :    0.349138
   5 H :   -0.155416
   6 H :   -0.142641
   7 H :   -0.140317
Sum of atomic charges:    1.0000000

LOEWDIN ATOMIC CHARGES
----------------------
   0 C :    0.261847
   1 N :    0.312463
   2 H :    0.114941
   3 H :    0.110672
   4 H :    0.111984
   5 H :    0.028624
   6 H :    0.029583
   7 H :    0.029887

  Mayer bond orders larger than 0.100000
B(  0-C ,  1-N ) :   0.8634 B(  0-C ,  5-H ) :   0.8583 B(  0-C ,  6-H ) :   0.8486
B(  0-C ,  7-H ) :   0.8453 B(  1-N ,  2-H ) :   0.8137 B(  1-N ,  3-H ) :   0.8202
B(  1-N ,  4-H ) :   0.7950 B(  1-N ,  6-H ) :   0.1034 B(  1-N ,  7-H ) :   0.1049

FINAL SINGLE POINT ENERGY       -95.870975487508

DIPOLE MOMENT
-------------
                                X             Y             Z
Electronic contribution:      1.02294       0.42633      -0.03897
Nuclear contribution   :     -0.21844      -0.13976       0.01729
                        -----------------------------------------
Total Dipole Moment    :      0.80451       0.28657      -0.02168
                        -----------------------------------------
Magnitude (a.u.)       :      0.85430
Magnitude (Debye)      :      2.17145

Rotational constants in cm-1:     2.865765     0.688517     0.685249
Rotational constants in MHz : 85913.460223 20641.211162 20543.252263

                             ****ORCA TERMINATED NORMALLY****
TOTAL RUN TIME: 0 days 0 hours 0 minutes 4 seconds 115 msec
