                         Program Version 5.0.0 -  RELEASE  -
|  1> !LC-BLYP RIJCOSX def2-SVPD def2/J TightSCF
|  2> *xyz 0 1
|  3> C         -0.70169        4.07250       -4.00392
|  4> C          0.68053        4.61482       -4.04800
|  5> H          0.69993        5.58489       -4.38827
|  6> H          1.27804        4.05598       -4.66824
|  7> H          1.08573        4.53358       -3.10652
|  8> H         -1.14500        4.14653       -4.97495
|  9> H         -1.28296        4.63405       -3.30271
| 10> H         -0.67274        3.04629       -3.70235
| 11> *
| 12> %MaxCore 64000
| 13>
| 14> %pal nprocs 8
| 15> end
| 16>
| 17> %scf
| 18>   MaxIter 150
| 19> end
| 20>
| 21>
| 22>                          ****END OF INPUT****

CARTESIAN COORDINATES (ANGSTROEM)
---------------------------------
  C     -0.701690    4.072500   -4.003920
  C      0.680530    4.614820   -4.048000
  H      0.699930    5.584890   -4.388270
  H      1.278040    4.055980   -4.668240
  H      1.085730    4.533580   -3.106520
  H     -1.145000    4.146530   -4.974950
  H     -1.282960    4.634050   -3.302710
  H     -0.672740    3.046290   -3.702350

 Total Charge           Charge          ....    0
 Multiplicity           Mult            ....    1
 Number of Electrons    NEL             ....   18
 Basis Dimension        Dim             ....   88

ORBITAL ENERGIES
----------------

  NO   OCC          E(Eh)            E(eV)
   0   2.0000     -10.062395      -273.8117
   1   2.0000     -10.050043      -273.4756
   2   2.0000      -0.873614       -23.7722
   3   2.0000      -0.722933       -19.6720
   4   2.0000      -0.558087       -15.1863
   5   2.0000      -0.552122       -15.0240
   6   2.0000      -0.470281       -12.7970
   7   2.0000      -0.446134       -12.1399
   8   2.0000      -0.440505       -11.9868
   9   0.0000       0.079410         2.1609
  10   0.0000       0.109841         2.9889
  11   0.0000       0.160885         4.3779
  12   0.0000       0.162534         4.4228
  13   0.0000       0.181518         4.9394

MULLIKEN ATOMIC CHARGES
-----------------------
   0 C :    0.472450
   1 C :    0.794475
   2 H :   -0.279591
   3 H :   -0.271498
   4 H :   -0.254466
   5 H :   -0.160187
   6 H :   -0.154184
   7 H :   -0.147000
Sum of atomic charges:    0.0000000

LOEWDIN ATOMIC CHARGES
----------------------
   0 C :    0.062964
   1 C :    0.067074
   2 H :   -0.028369
   3 H :   -0.032434
   4 H :   -0.030130
   5 H :   -0.014070
   6 H :   -0.012895
   7 H :   -0.012139

  Mayer bond orders larger than 0.100000
B(  0-C ,  1-C ) :   1.4203 B(  0-C ,  2-H ) :   0.1907 B(  0-C ,  3-H ) :   0.1932
B(  0-C ,  4-H ) :   0.2154 B(  0-C ,  5-H ) :   0.8242 B(  0-C ,  6-H ) :   0.8069
B(  0-C ,  7-H ) :   0.8054 B(  1-C ,  2-H ) :   0.7087 B(  1-C ,  3-H ) :   0.6895
B(  1-C ,  4-H ) :   0.6945 B(  1-C ,  5-H ) :   0.1737 B(  1-C ,  6-H ) :   0.1775
B(  1-C ,  7-H ) :   0.1828

FINAL SINGLE POINT ENERGY       -79.486598719105

DIPOLE MOMENT
-------------
                                X             Y             Z
Electronic contribution:      0.00571       0.04395      -0.01097
Nuclear contribution   :      0.01985      -0.04545       0.00953
                        -----------------------------------------
Total Dipole Moment    :      0.02556      -0.00150      -0.00144
                        -----------------------------------------
Magnitude (a.u.)       :      0.02565
Magnitude (Debye)      :      0.06519

Rotational constants in cm-1:     2.865782     0.718825     0.715264
Rotational constants in MHz : 85913.996449 21549.842906 21443.078705

                             ****ORCA TERMINATED NORMALLY****
TOTAL RUN TIME: 0 days 0 hours 0 minutes 3 seconds 452 msec
