                         Program Version 5.0.0 -  RELEASE  -
|  1> !LC-BLYP RIJCOSX def2-SVPD def2/J TightSCF xyzfile
|  2>
|  3> *xyzfile 0 1 D.xyz
|  4>
|  5> %MaxCore 64000
|  6>
|  7> %pal nprocs 4
|  8> end
|  9>
| 10> %scf
| 11>   MaxIter 150
| 12> end
| 13>
| 14>
| 15>                          ****END OF INPUT****

CARTESIAN COORDINATES (ANGSTROEM)
---------------------------------
  C     -0.701686    4.072499   -4.003920
  C      0.680528    4.614820   -4.048005
  C      1.444422    5.266576   -0.975463
  F      1.565248    4.233493   -1.864885
  H      0.699926    5.584890   -4.388272
  H      1.278044    4.055977   -4.668235
  H      1.085729    4.533581   -3.106524
  C     -1.703475    5.093197   -3.477396
  H     -0.995895    3.740394   -5.000654
  H     -0.643580    3.201910   -3.351533
  C     -1.313997    5.785995   -2.169271
  H     -1.877057    5.850103   -4.251154
  H     -2.653264    4.564475   -3.354796
  H     -2.097137    6.509395   -1.929558
  H     -0.416875    6.387594   -2.339097
  C     -1.073895    4.844728   -0.979904
  H     -1.968893    4.809608   -0.352568
  C      0.148120    5.210874   -0.138092
  H     -0.909754    3.827531   -1.338975
  H      1.474250    6.264638   -1.476917
  H      2.289622    5.303267   -0.264450
  H      0.261827    4.450942    0.640711
  H     -0.002516    6.171031    0.371483

 Total Charge           Charge          ....    0
 Multiplicity           Mult            ....    1
 Number of Electrons    NEL             ....   66
 Basis Dimension        Dim             ....  283

ORBITAL ENERGIES
----------------

  NO   OCC          E(Eh)            E(eV)
   0   2.0000     -24.483987      -666.2432
   1   2.0000     -10.173692      -276.8402
   2   2.0000     -10.096109      -274.7291
   3   2.0000     -10.080854      -274.3140
   4   2.0000     -10.074167      -274.1320
   5   2.0000     -10.067146      -273.9410
   6   2.0000     -10.055059      -273.6121
   7   2.0000     -10.002473      -272.1811
   8   2.0000      -1.298859       -35.3438
   9   2.0000      -0.920225       -25.0406
  10   2.0000      -0.888940       -24.1893
  11   2.0000      -0.826939       -22.5022
  12   2.0000      -0.795524       -21.6473
  13   2.0000      -0.735733       -20.0203
  14   2.0000      -0.702007       -19.1026
  15   2.0000      -0.646208       -17.5842
  16   2.0000      -0.644104       -17.5270
  17   2.0000      -0.629379       -17.1263
  18   2.0000      -0.602010       -16.3815
  19   2.0000      -0.566273       -15.4091
  20   2.0000      -0.559088       -15.2136
  21   2.0000      -0.533174       -14.5084
  22   2.0000      -0.517797       -14.0900
  23   2.0000      -0.492023       -13.3886
  24   2.0000      -0.482439       -13.1278
  25   2.0000      -0.469705       -12.7813
  26   2.0000      -0.459489       -12.5033
  27   2.0000      -0.438835       -11.9413
  28   2.0000      -0.429438       -11.6856
  29   2.0000      -0.413406       -11.2494
  30   2.0000      -0.400433       -10.8963
  31   2.0000      -0.396674       -10.7941
  32   2.0000      -0.373208       -10.1555
  33   0.0000       0.071753         1.9525
  34   0.0000       0.086404         2.3512
  35   0.0000       0.091755         2.4968
  36   0.0000       0.099013         2.6943
  37   0.0000       0.116831         3.1791

MULLIKEN ATOMIC CHARGES
-----------------------
   0 C :   -0.000602
   1 C :    3.206314
   2 C :    0.834406
   3 F :   -0.459862
   4 H :   -0.262005
   5 H :   -0.021541
   6 H :   -2.518429
   7 C :    0.431718
   8 H :   -0.471735
   9 H :   -0.011696
  10 C :    0.196863
  11 H :    0.035227
  12 H :   -0.222059
  13 H :   -0.291611
  14 H :   -0.133415
  15 C :    0.383703
  16 H :   -0.341760
  17 C :    0.313730
  18 H :   -0.070965
  19 H :    0.179090
  20 H :   -0.472045
  21 H :   -0.099439
  22 H :   -0.203887
Sum of atomic charges:   -0.0000000

LOEWDIN ATOMIC CHARGES
----------------------
   0 C :   -0.067547
   1 C :    0.130273
   2 C :    0.127340
   3 F :   -0.156238
   4 H :   -0.019580
   5 H :   -0.019786
   6 H :   -0.180891
   7 C :   -0.045100
   8 H :    0.023878
   9 H :    0.016235
  10 C :   -0.026800
  11 H :    0.030509
  12 H :    0.023793
  13 H :    0.024173
  14 H :   -0.000391
  15 C :   -0.026179
  16 H :    0.027530
  17 C :   -0.021913
  18 H :    0.011130
  19 H :    0.043558
  20 H :    0.039223
  21 H :    0.028140
  22 H :    0.038641

  Mayer bond orders larger than 0.100000
B(  0-C ,  1-C ) :   0.6406 B(  0-C ,  4-H ) :   0.3618 B(  0-C ,  5-H ) :   0.2205
B(  0-C ,  6-H ) :   0.7978 B(  0-C ,  7-C ) :   1.1912 B(  0-C ,  8-H ) :   0.9332
B(  0-C ,  9-H ) :   0.7057 B(  0-C , 10-C ) :   0.1634 B(  0-C , 11-H ) :   0.1642
B(  0-C , 12-H ) :   0.1810 B(  1-C ,  3-F ) :  -0.2929 B(  1-C ,  4-H ) :  -0.3342
B(  1-C ,  5-H ) :   0.5337 B(  1-C ,  6-H ) :  -4.6169 B(  1-C ,  7-C ) :   0.1075
B(  1-C ,  8-H ) :  -0.1077 B(  1-C ,  9-H ) :   0.2797 B(  2-C ,  3-F ) :   0.6955
B(  2-C ,  6-H ) :   0.1736 B(  2-C , 17-C ) :   1.2294 B(  2-C , 19-H ) :   0.7511
B(  2-C , 20-H ) :   0.9107 B(  2-C , 21-H ) :   0.1090 B(  3-F ,  6-H ) :   0.6487
B(  3-F , 20-H ) :  -0.1293 B(  4-H ,  5-H ) :  -0.2824 B(  4-H ,  6-H ) :   0.9724
B(  4-H ,  8-H ) :   0.2547 B(  4-H , 12-H ) :  -0.1072 B(  5-H ,  6-H ) :   0.2702
B(  5-H ,  8-H ) :  -0.1520 B(  6-H ,  9-H ) :  -0.1163 B(  7-C ,  9-H ) :   0.1910
B(  7-C , 10-C ) :   1.2459 B(  7-C , 11-H ) :   0.6320 B(  7-C , 12-H ) :   0.8030
B(  7-C , 13-H ) :   0.1382 B(  7-C , 14-H ) :   0.1640 B(  8-H ,  9-H ) :  -0.2580
B(  9-H , 18-H ) :   0.1159 B( 10-C , 11-H ) :   0.2518 B( 10-C , 12-H ) :   0.1440
B( 10-C , 13-H ) :   0.7166 B( 10-C , 14-H ) :   0.8151 B( 10-C , 15-C ) :   1.1616
B( 10-C , 16-H ) :   0.2450 B( 10-C , 18-H ) :   0.1156 B( 11-H , 12-H ) :  -0.1435
B( 13-H , 15-C ) :   0.1737 B( 14-H , 15-C ) :   0.1230 B( 15-C , 16-H ) :   0.7613
B( 15-C , 17-C ) :   1.2448 B( 15-C , 18-H ) :   0.7687 B( 15-C , 21-H ) :   0.2452
B( 16-H , 18-H ) :  -0.1299 B( 17-C , 18-H ) :   0.1148 B( 17-C , 19-H ) :   0.1081
B( 17-C , 20-H ) :   0.1938 B( 17-C , 21-H ) :   0.6639 B( 17-C , 22-H ) :   0.8581
B( 19-H , 20-H ) :  -0.1116

FINAL SINGLE POINT ENERGY      -374.318849619218

DIPOLE MOMENT
-------------
                                X             Y             Z
Electronic contribution:      5.11741      -2.24649       2.80153
Nuclear contribution   :     -5.08831       2.68947      -1.99048
                        -----------------------------------------
Total Dipole Moment    :      0.02911       0.44298       0.81105
                        -----------------------------------------
Magnitude (a.u.)       :      0.92460
Magnitude (Debye)      :      2.35014

Rotational constants in cm-1:     0.084646     0.055672     0.038419
Rotational constants in MHz :  2537.625105  1668.992890  1151.781380

                             ****ORCA TERMINATED NORMALLY****
TOTAL RUN TIME: 0 days 0 hours 1 minutes 4 seconds 552 msec
