                         Program Version 5.0.0 -  RELEASE  -
|  1> !CAM-B3LYP RIJCOSX def2-TZVP def2/J TightSCF
|  2> *xyz -1 1
|  3> C         -0.10608        1.76991       -4.08984
|  4> C         -0.25875        1.00432       -5.40983
|  5> C          0.39596       -0.37070       -5.33994
|  6> H          0.23915        1.56939       -6.20125
|  7> H         -1.30936        0.88869       -5.68245
|  8> O         -0.32633       -1.39040       -5.49128
|  9> O          1.61941       -0.40073       -5.03683
| 10> H         -0.57627        2.72718       -4.17630
| 11> H          0.93321        1.90140       -3.87192
| 12> H         -0.56868        1.21534       -3.30031
| 13> *
| 14> %MaxCore 64000
| 15>
| 16> %pal nprocs 4
| 17> end
| 18>
| 19> %scf
| 20>   MaxIter 150
| 21> end
| 22>
| 23>
| 24>                          ****END OF INPUT****

CARTESIAN COORDINATES (ANGSTROEM)
---------------------------------
  C     -0.106080    1.769910   -4.089840
  C     -0.258750    1.004320   -5.409830
  C      0.395960   -0.370700   -5.339940
  H      0.239150    1.569390   -6.201250
  H     -1.309360    0.888690   -5.682450
  O     -0.326330   -1.390400   -5.491280
  O      1.619410   -0.400730   -5.036830
  H     -0.576270    2.727180   -4.176300
  H      0.933210    1.901400   -3.871920
  H     -0.568680    1.215340   -3.300310

 Total Charge           Charge          ....   -1
 Multiplicity           Mult            ....    1
 Number of Electrons    NEL             ....   40
 Basis Dimension        Dim             ....  185

ORBITAL ENERGIES
----------------

  NO   OCC          E(Eh)            E(eV)
   0   2.0000     -18.921688      -514.8853
   1   2.0000     -18.920247      -514.8461
   2   2.0000     -10.120268      -275.3865
   3   2.0000     -10.076949      -274.2077
   4   2.0000     -10.065839      -273.9054
   5   2.0000      -0.891539       -24.2600
   6   2.0000      -0.795966       -21.6593
   7   2.0000      -0.685465       -18.6525
   8   2.0000      -0.550428       -14.9779
   9   2.0000      -0.389554       -10.6003
  10   2.0000      -0.360879        -9.8200
  11   2.0000      -0.325670        -8.8619
  12   2.0000      -0.293817        -7.9952
  13   2.0000      -0.277649        -7.5552
  14   2.0000      -0.271091        -7.3768
  15   2.0000      -0.238633        -6.4935
  16   2.0000      -0.221865        -6.0372
  17   2.0000      -0.102151        -2.7797
  18   2.0000      -0.099772        -2.7149
  19   2.0000      -0.085069        -2.3148
  20   0.0000       0.220372         5.9966
  21   0.0000       0.260930         7.1003
  22   0.0000       0.283684         7.7194
  23   0.0000       0.286062         7.7841
  24   0.0000       0.304276         8.2798

MULLIKEN ATOMIC CHARGES
-----------------------
   0 C :   -0.332907
   1 C :   -0.123674
   2 C :    0.184843
   3 H :    0.034936
   4 H :    0.040858
   5 O :   -0.521277
   6 O :   -0.530762
   7 H :    0.055854
   8 H :    0.101808
   9 H :    0.090321
Sum of atomic charges:   -1.0000000

LOEWDIN ATOMIC CHARGES
----------------------
   0 C :   -0.322797
   1 C :   -0.288001
   2 C :   -0.693686
   3 H :    0.120795
   4 H :    0.116853
   5 O :   -0.121618
   6 O :   -0.125301
   7 H :    0.092640
   8 H :    0.112303
   9 H :    0.108812

  Mayer bond orders larger than 0.100000
B(  0-C ,  1-C ) :   0.9430 B(  0-C ,  7-H ) :   0.9758 B(  0-C ,  8-H ) :   0.9739
B(  0-C ,  9-H ) :   0.9855 B(  1-C ,  2-C ) :   0.9307 B(  1-C ,  3-H ) :   0.9610
B(  1-C ,  4-H ) :   0.9593 B(  2-C ,  5-O ) :   1.9071 B(  2-C ,  6-O ) :   1.8506

FINAL SINGLE POINT ENERGY      -267.829950838700

DIPOLE MOMENT
-------------
                                X             Y             Z
Electronic contribution:      1.74578      -5.33884      -1.70741
Nuclear contribution   :     -2.46071       7.20791       1.95694
                        -----------------------------------------
Total Dipole Moment    :     -0.71493       1.86907       0.24952
                        -----------------------------------------
Magnitude (a.u.)       :      2.01663
Magnitude (Debye)      :      5.12588

Rotational constants in cm-1:     0.309435     0.135317     0.107436
Rotational constants in MHz :  9276.637721  4056.700783  3220.846587

                             ****ORCA TERMINATED NORMALLY****
TOTAL RUN TIME: 0 days 0 hours 0 minutes 24 seconds 942 msec
