                         Program Version 5.0.0 -  RELEASE  -
|  1> !CAM-B3LYP RIJCOSX def2-TZVP def2/J TightSCF
|  2> *xyz 1 1
|  3> C          0.81607       -2.10149       -2.18655
|  4> H          1.69623       -2.36869       -1.60046
|  5> N          1.10055       -2.46749       -3.59927
|  6> C          0.51624       -0.61363       -2.03937
|  7> H         -0.02007       -2.71285       -1.84084
|  8> H          1.70061       -1.75723       -4.07838
|  9> H          0.29386       -2.35977       -4.25632
| 10> H          1.50132       -3.42848       -3.69491
| 11> H         -0.34841       -0.36504       -2.61858
| 12> H          1.35358       -0.04503       -2.38643
| 13> H          0.33317       -0.38682       -1.00984
| 14> *
| 15> %MaxCore 64000
| 16>
| 17> %pal nprocs 4
| 18> end
| 19>
| 20> %scf
| 21>   MaxIter 150
| 22> end
| 23>
| 24>
| 25>                          ****END OF INPUT****

CARTESIAN COORDINATES (ANGSTROEM)
---------------------------------
  C      0.816070   -2.101490   -2.186550
  H      1.696230   -2.368690   -1.600460
  N      1.100550   -2.467490   -3.599270
  C      0.516240   -0.613630   -2.039370
  H     -0.020070   -2.712850   -1.840840
  H      1.700610   -1.757230   -4.078380
  H      0.293860   -2.359770   -4.256320
  H      1.501320   -3.428480   -3.694910
  H     -0.348410   -0.365040   -2.618580
  H      1.353580   -0.045030   -2.386430
  H      0.333170   -0.386820   -1.009840

 Total Charge           Charge          ....    1
 Multiplicity           Mult            ....    1
 Number of Electrons    NEL             ....   26
 Basis Dimension        Dim             ....  141

ORBITAL ENERGIES
----------------

  NO   OCC          E(Eh)            E(eV)
   0   2.0000     -14.727737      -400.7621
   1   2.0000     -10.498301      -285.6733
   2   2.0000     -10.417885      -283.4851
   3   2.0000      -1.293807       -35.2063
   4   2.0000      -1.047979       -28.5169
   5   2.0000      -0.928469       -25.2649
   6   2.0000      -0.861878       -23.4529
   7   2.0000      -0.844679       -22.9849
   8   2.0000      -0.772019       -21.0077
   9   2.0000      -0.707739       -19.2585
  10   2.0000      -0.650463       -17.7000
  11   2.0000      -0.635689       -17.2980
  12   2.0000      -0.617329       -16.7984
  13   0.0000      -0.160303        -4.3621
  14   0.0000      -0.097150        -2.6436
  15   0.0000      -0.094711        -2.5772
  16   0.0000      -0.075670        -2.0591
  17   0.0000      -0.031739        -0.8637

MULLIKEN ATOMIC CHARGES
-----------------------
   0 C :   -0.179329
   1 H :    0.190315
   2 N :   -0.312426
   3 C :   -0.368969
   4 H :    0.194204
   5 H :    0.322244
   6 H :    0.325895
   7 H :    0.343478
   8 H :    0.150857
   9 H :    0.151357
  10 H :    0.182373
Sum of atomic charges:    1.0000000

LOEWDIN ATOMIC CHARGES
----------------------
   0 C :   -0.277641
   1 H :    0.154146
   2 N :    0.148729
   3 C :   -0.277356
   4 H :    0.153972
   5 H :    0.229422
   6 H :    0.228830
   7 H :    0.232491
   8 H :    0.129986
   9 H :    0.129525
  10 H :    0.147897

  Mayer bond orders larger than 0.100000
B(  0-C ,  1-H ) :   0.9536 B(  0-C ,  2-N ) :   0.8370 B(  0-C ,  3-C ) :   0.9680
B(  0-C ,  4-H ) :   0.9553 B(  2-N ,  5-H ) :   0.8774 B(  2-N ,  6-H ) :   0.8774
B(  2-N ,  7-H ) :   0.8688 B(  3-C ,  8-H ) :   0.9623 B(  3-C ,  9-H ) :   0.9600
B(  3-C , 10-H ) :   0.9605

FINAL SINGLE POINT ENERGY      -135.502747010306

DIPOLE MOMENT
-------------
                                X             Y             Z
Electronic contribution:      0.42253      -1.44305      -1.08347
Nuclear contribution   :     -0.07506       0.54337      -0.16191
                        -----------------------------------------
Total Dipole Moment    :      0.34748      -0.89968      -1.24538
                        -----------------------------------------
Magnitude (a.u.)       :      1.57517
Magnitude (Debye)      :      4.00375

Rotational constants in cm-1:     0.999557     0.280801     0.246932
Rotational constants in MHz : 29965.963633  8418.199581  7402.841054

                             ****ORCA TERMINATED NORMALLY****
TOTAL RUN TIME: 0 days 0 hours 0 minutes 17 seconds 791 msec
