                         Program Version 5.0.0 -  RELEASE  -
|  1> !CAM-B3LYP RIJCOSX def2-TZVP def2/J TightSCF
|  2> *xyz 0 1
|  3> C         -0.10608        1.76991       -4.08984
|  4> C         -0.25875        1.00432       -5.40983
|  5> C          0.39596       -0.37070       -5.33994
|  6> H          0.23915        1.56939       -6.20125
|  7> H         -1.30936        0.88869       -5.68245
|  8> F         -0.32633       -1.39040       -5.49128
|  9> O          1.61941       -0.40073       -5.03683
| 10> H         -0.57627        2.72718       -4.17630
| 11> H          0.93321        1.90140       -3.87192
| 12> H         -0.56868        1.21534       -3.30031
| 13> *
| 14> %MaxCore 64000
| 15>
| 16> %pal nprocs 4
| 17> end
| 18>
| 19> %scf
| 20>   MaxIter 150
| 21> end
| 22>
| 23>
| 24>                          ****END OF INPUT****

CARTESIAN COORDINATES (ANGSTROEM)
---------------------------------
  C     -0.106080    1.769910   -4.089840
  C     -0.258750    1.004320   -5.409830
  C      0.395960   -0.370700   -5.339940
  H      0.239150    1.569390   -6.201250
  H     -1.309360    0.888690   -5.682450
  F     -0.326330   -1.390400   -5.491280
  O      1.619410   -0.400730   -5.036830
  H     -0.576270    2.727180   -4.176300
  H      0.933210    1.901400   -3.871920
  H     -0.568680    1.215340   -3.300310

 Total Charge           Charge          ....    0
 Multiplicity           Mult            ....    1
 Number of Electrons    NEL             ....   40
 Basis Dimension        Dim             ....  185

ORBITAL ENERGIES
----------------

  NO   OCC          E(Eh)            E(eV)
   0   2.0000     -24.826722      -675.5695
   1   2.0000     -19.203895      -522.5645
   2   2.0000     -10.426693      -283.7247
   3   2.0000     -10.277804      -279.6733
   4   2.0000     -10.248493      -278.8757
   5   2.0000      -1.400585       -38.1119
   6   2.0000      -1.112966       -30.2853
   7   2.0000      -0.885707       -24.1013
   8   2.0000      -0.769925       -20.9507
   9   2.0000      -0.716603       -19.4998
  10   2.0000      -0.624319       -16.9886
  11   2.0000      -0.610107       -16.6018
  12   2.0000      -0.582999       -15.8642
  13   2.0000      -0.538027       -14.6405
  14   2.0000      -0.505454       -13.7541
  15   2.0000      -0.468119       -12.7382
  16   2.0000      -0.447108       -12.1664
  17   2.0000      -0.442783       -12.0487
  18   2.0000      -0.411594       -11.2000
  19   2.0000      -0.361717        -9.8428
  20   0.0000       0.018075         0.4918
  21   0.0000       0.070559         1.9200
  22   0.0000       0.109772         2.9870
  23   0.0000       0.124646         3.3918
  24   0.0000       0.136736         3.7208

MULLIKEN ATOMIC CHARGES
-----------------------
   0 C :   -0.355398
   1 C :   -0.204045
   2 C :    0.363687
   3 H :    0.129541
   4 H :    0.113287
   5 F :   -0.101718
   6 O :   -0.332351
   7 H :    0.123461
   8 H :    0.143908
   9 H :    0.119627
Sum of atomic charges:    0.0000000

LOEWDIN ATOMIC CHARGES
----------------------
   0 C :   -0.285410
   1 C :   -0.258027
   2 C :   -0.489001
   3 H :    0.155239
   4 H :    0.138465
   5 F :    0.318628
   6 O :    0.054723
   7 H :    0.119241
   8 H :    0.126174
   9 H :    0.119968

  Mayer bond orders larger than 0.100000
B(  0-C ,  1-C ) :   0.9490 B(  0-C ,  7-H ) :   0.9744 B(  0-C ,  8-H ) :   0.9703
B(  0-C ,  9-H ) :   0.9762 B(  1-C ,  2-C ) :   0.9743 B(  1-C ,  3-H ) :   0.9490
B(  1-C ,  4-H ) :   0.9633 B(  2-C ,  5-F ) :   1.1664 B(  2-C ,  6-O ) :   2.0539

FINAL SINGLE POINT ENERGY      -292.401707492319

DIPOLE MOMENT
-------------
                                X             Y             Z
Electronic contribution:      0.83673      -8.17134      -2.57495
Nuclear contribution   :     -1.80992       8.85192       2.42184
                        -----------------------------------------
Total Dipole Moment    :     -0.97320       0.68058      -0.15311
                        -----------------------------------------
Magnitude (a.u.)       :      1.19739
Magnitude (Debye)      :      3.04353

Rotational constants in cm-1:     0.298360     0.128849     0.102271
Rotational constants in MHz :  8944.606599  3862.796179  3066.020510

                             ****ORCA TERMINATED NORMALLY****
TOTAL RUN TIME: 0 days 0 hours 0 minutes 27 seconds 545 msec
