                         Program Version 5.0.0 -  RELEASE  -
|  1> !CAM-B3LYP RIJCOSX def2-TZVP def2/J TightSCF
|  2> *xyz 0 1
|  3> C          0.81607       -2.10149       -2.18655
|  4> H          1.69623       -2.36869       -1.60046
|  5> C          1.10055       -2.46749       -3.59927
|  6> C          0.51624       -0.61363       -2.03937
|  7> H         -0.02007       -2.71285       -1.84084
|  8> H          1.70061       -1.75723       -4.07838
|  9> H          0.29386       -2.35977       -4.25632
| 10> H          1.50132       -3.42848       -3.69491
| 11> H         -0.34841       -0.36504       -2.61858
| 12> H          1.35358       -0.04503       -2.38643
| 13> H          0.33317       -0.38682       -1.00984
| 14> *
| 15> %MaxCore 64000
| 16>
| 17> %pal nprocs 4
| 18> end
| 19>
| 20> %scf
| 21>   MaxIter 150
| 22> end
| 23>
| 24>
| 25>                          ****END OF INPUT****

CARTESIAN COORDINATES (ANGSTROEM)
---------------------------------
  C      0.816070   -2.101490   -2.186550
  H      1.696230   -2.368690   -1.600460
  C      1.100550   -2.467490   -3.599270
  C      0.516240   -0.613630   -2.039370
  H     -0.020070   -2.712850   -1.840840
  H      1.700610   -1.757230   -4.078380
  H      0.293860   -2.359770   -4.256320
  H      1.501320   -3.428480   -3.694910
  H     -0.348410   -0.365040   -2.618580
  H      1.353580   -0.045030   -2.386430
  H      0.333170   -0.386820   -1.009840

 Total Charge           Charge          ....    0
 Multiplicity           Mult            ....    1
 Number of Electrons    NEL             ....   26
 Basis Dimension        Dim             ....  141

ORBITAL ENERGIES
----------------

  NO   OCC          E(Eh)            E(eV)
   0   2.0000     -10.230808      -278.3944
   1   2.0000     -10.220535      -278.1149
   2   2.0000     -10.207615      -277.7633
   3   2.0000      -0.873387       -23.7661
   4   2.0000      -0.768978       -20.9249
   5   2.0000      -0.666905       -18.1474
   6   2.0000      -0.531884       -14.4733
   7   2.0000      -0.516581       -14.0569
   8   2.0000      -0.480751       -13.0819
   9   2.0000      -0.443348       -12.0641
  10   2.0000      -0.406855       -11.0711
  11   2.0000      -0.401572       -10.9273
  12   2.0000      -0.385395       -10.4871
  13   0.0000       0.076967         2.0944
  14   0.0000       0.120591         3.2814
  15   0.0000       0.122146         3.3238
  16   0.0000       0.134139         3.6501
  17   0.0000       0.153166         4.1679

MULLIKEN ATOMIC CHARGES
-----------------------
   0 C :   -0.136952
   1 H :    0.087957
   2 C :   -0.359752
   3 C :   -0.342805
   4 H :    0.088497
   5 H :    0.106873
   6 H :    0.114518
   7 H :    0.114501
   8 H :    0.105751
   9 H :    0.108780
  10 H :    0.112631
Sum of atomic charges:    0.0000000

LOEWDIN ATOMIC CHARGES
----------------------
   0 C :   -0.320287
   1 H :    0.131914
   2 C :   -0.318918
   3 C :   -0.305178
   4 H :    0.130929
   5 H :    0.113821
   6 H :    0.111965
   7 H :    0.111363
   8 H :    0.115092
   9 H :    0.114911
  10 H :    0.114387

  Mayer bond orders larger than 0.100000
B(  0-C ,  1-H ) :   0.9766 B(  0-C ,  2-C ) :   0.9540 B(  0-C ,  3-C ) :   0.9600
B(  0-C ,  4-H ) :   0.9755 B(  2-C ,  5-H ) :   0.9811 B(  2-C ,  6-H ) :   0.9818
B(  2-C ,  7-H ) :   0.9821 B(  3-C ,  8-H ) :   0.9786 B(  3-C ,  9-H ) :   0.9790
B(  3-C , 10-H ) :   0.9842

FINAL SINGLE POINT ENERGY      -119.096253128055

DIPOLE MOMENT
-------------
                                X             Y             Z
Electronic contribution:     -0.01851      -0.30884       0.46437
Nuclear contribution   :      0.01737       0.30387      -0.47422
                        -----------------------------------------
Total Dipole Moment    :     -0.00113      -0.00497      -0.00985
                        -----------------------------------------
Magnitude (a.u.)       :      0.01109
Magnitude (Debye)      :      0.02819

Rotational constants in cm-1:     1.006891     0.295208     0.258491
Rotational constants in MHz : 30185.831813  8850.104914  7749.351732

                             ****ORCA TERMINATED NORMALLY****
TOTAL RUN TIME: 0 days 0 hours 0 minutes 17 seconds 187 msec
