                         Program Version 5.0.0 -  RELEASE  -
|  1> !CAM-B3LYP RIJCOSX def2-TZVP def2/J TightSCF
|  2> *xyz 0 1
|  3> C         -0.10608        1.76991       -4.08984
|  4> C         -0.25875        1.00432       -5.40983
|  5> C          0.39596       -0.37070       -5.33994
|  6> H          0.23915        1.56939       -6.20125
|  7> H         -1.30936        0.88869       -5.68245
|  8> O         -0.32633       -1.39040       -5.49128
|  9> F          1.61941       -0.40073       -5.03683
| 10> H         -0.57627        2.72718       -4.17630
| 11> H          0.93321        1.90140       -3.87192
| 12> H         -0.56868        1.21534       -3.30031
| 13> *
| 14> %MaxCore 64000
| 15>
| 16> %pal nprocs 4
| 17> end
| 18>
| 19> %scf
| 20>   MaxIter 150
| 21> end
| 22>
| 23>
| 24>                          ****END OF INPUT****

CARTESIAN COORDINATES (ANGSTROEM)
---------------------------------
  C     -0.106080    1.769910   -4.089840
  C     -0.258750    1.004320   -5.409830
  C      0.395960   -0.370700   -5.339940
  H      0.239150    1.569390   -6.201250
  H     -1.309360    0.888690   -5.682450
  O     -0.326330   -1.390400   -5.491280
  F      1.619410   -0.400730   -5.036830
  H     -0.576270    2.727180   -4.176300
  H      0.933210    1.901400   -3.871920
  H     -0.568680    1.215340   -3.300310

 Total Charge           Charge          ....    0
 Multiplicity           Mult            ....    1
 Number of Electrons    NEL             ....   40
 Basis Dimension        Dim             ....  185

ORBITAL ENERGIES
----------------

  NO   OCC          E(Eh)            E(eV)
   0   2.0000     -24.825328      -675.5315
   1   2.0000     -19.204816      -522.5896
   2   2.0000     -10.425817      -283.7009
   3   2.0000     -10.277574      -279.6670
   4   2.0000     -10.253616      -279.0151
   5   2.0000      -1.399189       -38.0739
   6   2.0000      -1.112960       -30.2852
   7   2.0000      -0.890378       -24.2284
   8   2.0000      -0.767170       -20.8758
   9   2.0000      -0.720270       -19.5996
  10   2.0000      -0.625765       -17.0279
  11   2.0000      -0.613913       -16.7054
  12   2.0000      -0.575548       -15.6615
  13   2.0000      -0.538522       -14.6539
  14   2.0000      -0.506540       -13.7837
  15   2.0000      -0.471655       -12.8344
  16   2.0000      -0.453250       -12.3335
  17   2.0000      -0.446478       -12.1493
  18   2.0000      -0.416553       -11.3350
  19   2.0000      -0.358388        -9.7522
  20   0.0000       0.022332         0.6077
  21   0.0000       0.066614         1.8127
  22   0.0000       0.108230         2.9451
  23   0.0000       0.126336         3.4378
  24   0.0000       0.140874         3.8334

MULLIKEN ATOMIC CHARGES
-----------------------
   0 C :   -0.360596
   1 C :   -0.200671
   2 C :    0.354326
   3 H :    0.117917
   4 H :    0.135834
   5 O :   -0.324491
   6 F :   -0.107624
   7 H :    0.128481
   8 H :    0.126101
   9 H :    0.130723
Sum of atomic charges:   -0.0000000

LOEWDIN ATOMIC CHARGES
----------------------
   0 C :   -0.291543
   1 C :   -0.253074
   2 C :   -0.492049
   3 H :    0.147784
   4 H :    0.151241
   5 O :    0.056407
   6 F :    0.317203
   7 H :    0.121355
   8 H :    0.120254
   9 H :    0.122422

  Mayer bond orders larger than 0.100000
B(  0-C ,  1-C ) :   0.9376 B(  0-C ,  7-H ) :   0.9747 B(  0-C ,  8-H ) :   0.9724
B(  0-C ,  9-H ) :   0.9739 B(  1-C ,  2-C ) :   0.9902 B(  1-C ,  3-H ) :   0.9471
B(  1-C ,  4-H ) :   0.9683 B(  2-C ,  5-O ) :   2.0822 B(  2-C ,  6-F ) :   1.1491

FINAL SINGLE POINT ENERGY      -292.403171832054

DIPOLE MOMENT
-------------
                                X             Y             Z
Electronic contribution:      4.06920      -6.49376      -1.81257
Nuclear contribution   :     -3.93139       7.77287       1.92635
                        -----------------------------------------
Total Dipole Moment    :      0.13782       1.27911       0.11378
                        -----------------------------------------
Magnitude (a.u.)       :      1.29154
Magnitude (Debye)      :      3.28282

Rotational constants in cm-1:     0.286068     0.133630     0.103472
Rotational constants in MHz :  8576.109806  4006.118234  3102.010802

                             ****ORCA TERMINATED NORMALLY****
TOTAL RUN TIME: 0 days 0 hours 0 minutes 29 seconds 314 msec
