                         Program Version 5.0.0 -  RELEASE  -
|  1> !CAM-B3LYP RIJCOSX def2-TZVP def2/J TightSCF xyzfile
|  2>
|  3> *xyzfile 0 1 D1.xyz
|  4>
|  5> %MaxCore 64000
|  6>
|  7> %pal nprocs 18
|  8> end
|  9>
| 10> %scf
| 11>   MaxIter 150
| 12> end
| 13>
| 14>
| 15>                          ****END OF INPUT****

CARTESIAN COORDINATES (ANGSTROEM)
---------------------------------
  C      0.816067   -2.101491   -2.186546
  H      1.696232   -2.368691   -1.600457
  C      1.100552   -2.467492   -3.599269
  C      0.516243   -0.613634   -2.039373
  H     -0.020066   -2.712849   -1.840844
  C     -0.868621   -0.193925   -2.546303
  C     -0.984801    1.284739   -2.928686
  H     -0.764939    1.904116   -2.051568
  H     -2.032613    1.478953   -3.178952
  C     -0.106085    1.769914   -4.089836
  H     -0.347744    2.822196   -4.262942
  H      0.949683    1.745875   -3.808781
  C     -0.258747    1.004323   -5.409829
  C      0.395958   -0.370696   -5.339939
  H      0.239150    1.569393   -6.201253
  H     -1.309360    0.888694   -5.682455
  H      1.700606   -1.757225   -4.078378
  H      0.293855   -2.359766   -4.256324
  H      1.501324   -3.428479   -3.694915
  F     -0.326329   -1.390398   -5.491279
  O      1.619412   -0.400726   -5.036827
  H     -1.607271   -0.412651   -1.768955
  H     -1.157234   -0.796164   -3.409254
  H      1.299044   -0.056805   -2.558982
  H      0.612393   -0.365579   -0.979171

 Total Charge           Charge          ....    0
 Multiplicity           Mult            ....    1
 Number of Electrons    NEL             ....   80
 Basis Dimension        Dim             ....  400

ORBITAL ENERGIES
----------------

  NO   OCC          E(Eh)            E(eV)
   0   2.0000     -24.835233      -675.8010
   1   2.0000     -19.211215      -522.7637
   2   2.0000     -10.435410      -283.9619
   3   2.0000     -10.278978      -279.7052
   4   2.0000     -10.257782      -279.1284
   5   2.0000     -10.245948      -278.8064
   6   2.0000     -10.238202      -278.5956
   7   2.0000     -10.224306      -278.2175
   8   2.0000     -10.214746      -277.9574
   9   2.0000     -10.164997      -276.6036
  10   2.0000      -1.415044       -38.5053
  11   2.0000      -1.128888       -30.7186
  12   2.0000      -0.910731       -24.7823
  13   2.0000      -0.877317       -23.8730
  14   2.0000      -0.827899       -22.5283
  15   2.0000      -0.788347       -21.4520
  16   2.0000      -0.744821       -20.2676
  17   2.0000      -0.717550       -19.5255
  18   2.0000      -0.677981       -18.4488
  19   2.0000      -0.636610       -17.3230
  20   2.0000      -0.632377       -17.2079
  21   2.0000      -0.617690       -16.8082
  22   2.0000      -0.600592       -16.3429
  23   2.0000      -0.550546       -14.9811
  24   2.0000      -0.530033       -14.4229
  25   2.0000      -0.514106       -13.9895
  26   2.0000      -0.508689       -13.8421
  27   2.0000      -0.495010       -13.4699
  28   2.0000      -0.481334       -13.0978
  29   2.0000      -0.468495       -12.7484
  30   2.0000      -0.450466       -12.2578
  31   2.0000      -0.434667       -11.8279
  32   2.0000      -0.429491       -11.6871
  33   2.0000      -0.416422       -11.3314
  34   2.0000      -0.402361       -10.9488
  35   2.0000      -0.391044       -10.6408
  36   2.0000      -0.382003       -10.3948
  37   2.0000      -0.370388       -10.0788
  38   2.0000      -0.361251        -9.8301
  39   2.0000      -0.329232        -8.9589
  40   0.0000       0.006489         0.1766
  41   0.0000       0.065822         1.7911
  42   0.0000       0.092156         2.5077
  43   0.0000       0.098352         2.6763
  44   0.0000       0.099989         2.7208

MULLIKEN ATOMIC CHARGES
-----------------------
   0 C :   -0.124373
   1 H :    0.087604
   2 C :   -0.440916
   3 C :   -0.227307
   4 H :    0.076018
   5 C :   -0.237048
   6 C :   -0.200679
   7 H :    0.107968
   8 H :    0.106544
   9 C :   -0.234825
  10 H :    0.118919
  11 H :    0.144208
  12 C :   -0.189595
  13 C :    0.343717
  14 H :    0.143319
  15 H :    0.118380
  16 H :    0.172468
  17 H :    0.107688
  18 H :    0.101919
  19 F :   -0.097112
  20 O :   -0.325855
  21 H :    0.109152
  22 H :    0.112496
  23 H :    0.130141
  24 H :    0.097170
Sum of atomic charges:   -0.0000000

LOEWDIN ATOMIC CHARGES
----------------------
   0 C :   -0.301101
   1 H :    0.133473
   2 C :   -0.337805
   3 C :   -0.266660
   4 H :    0.130101
   5 C :   -0.265748
   6 C :   -0.266993
   7 H :    0.140046
   8 H :    0.135840
   9 C :   -0.257188
  10 H :    0.141001
  11 H :    0.144383
  12 C :   -0.227276
  13 C :   -0.484513
  14 H :    0.159635
  15 H :    0.143315
  16 H :    0.115912
  17 H :    0.104924
  18 H :    0.104702
  19 F :    0.329812
  20 O :    0.079465
  21 H :    0.138025
  22 H :    0.135842
  23 H :    0.138543
  24 H :    0.132265

  Mayer bond orders larger than 0.100000
B(  0-C ,  1-H ) :   0.9765 B(  0-C ,  2-C ) :   0.9391 B(  0-C ,  3-C ) :   0.9621
B(  0-C ,  4-H ) :   0.9779 B(  2-C , 16-H ) :   0.9528 B(  2-C , 17-H ) :   0.9871
B(  2-C , 18-H ) :   0.9802 B(  3-C ,  5-C ) :   0.9061 B(  3-C , 23-H ) :   0.9941
B(  3-C , 24-H ) :   0.9718 B(  5-C ,  6-C ) :   0.9535 B(  5-C , 21-H ) :   0.9736
B(  5-C , 22-H ) :   0.9850 B(  6-C ,  7-H ) :   0.9759 B(  6-C ,  8-H ) :   0.9817
B(  6-C ,  9-C ) :   0.9573 B(  9-C , 10-H ) :   0.9755 B(  9-C , 11-H ) :   0.9761
B(  9-C , 12-C ) :   0.9241 B( 12-C , 13-C ) :   0.9802 B( 12-C , 14-H ) :   0.9524
B( 12-C , 15-H ) :   0.9611 B( 13-C , 19-F ) :   1.1457 B( 13-C , 20-O ) :   1.9964

FINAL SINGLE POINT ENERGY      -488.857813356743

DIPOLE MOMENT
-------------
                                X             Y             Z
Electronic contribution:      0.33518      -1.96283     -10.58214
Nuclear contribution   :     -1.21560       2.80077      10.24180
                        -----------------------------------------
Total Dipole Moment    :     -0.88043       0.83794      -0.34034
                        -----------------------------------------
Magnitude (a.u.)       :      1.26219
Magnitude (Debye)      :      3.20823

Rotational constants in cm-1:     0.051255     0.042531     0.028894
Rotational constants in MHz :  1536.587743  1275.050721   866.218876

                             ****ORCA TERMINATED NORMALLY****
TOTAL RUN TIME: 0 days 0 hours 1 minutes 4 seconds 255 msec
