                         Program Version 5.0.0 -  RELEASE  -
|  1> !CAM-B3LYP RIJCOSX def2-TZVP def2/J TightSCF xyzfile
|  2>
|  3> *xyzfile 0 1 D2.xyz
|  4>
|  5> %MaxCore 64000
|  6>
|  7> %pal nprocs 18
|  8> end
|  9>
| 10> %scf
| 11>   MaxIter 150
| 12> end
| 13>
| 14>
| 15>                          ****END OF INPUT****

CARTESIAN COORDINATES (ANGSTROEM)
---------------------------------
  C      0.816067   -2.101491   -2.186546
  H      1.696232   -2.368691   -1.600457
  C      1.100552   -2.467492   -3.599269
  C      0.516243   -0.613634   -2.039373
  H     -0.020066   -2.712849   -1.840844
  C     -0.868621   -0.193925   -2.546303
  C     -0.984801    1.284739   -2.928686
  H     -0.764939    1.904116   -2.051568
  H     -2.032613    1.478953   -3.178952
  C     -0.106085    1.769914   -4.089836
  H     -0.347744    2.822196   -4.262942
  H      0.949683    1.745875   -3.808781
  C     -0.258747    1.004323   -5.409829
  C      0.395958   -0.370696   -5.339939
  H      0.239150    1.569393   -6.201253
  H     -1.309360    0.888694   -5.682455
  H      1.700606   -1.757225   -4.078378
  H      0.293855   -2.359766   -4.256324
  H      1.501324   -3.428479   -3.694915
  O     -0.326329   -1.390398   -5.491279
  F      1.619412   -0.400726   -5.036827
  H     -1.607271   -0.412651   -1.768955
  H     -1.157234   -0.796164   -3.409254
  H      1.299044   -0.056805   -2.558982
  H      0.612393   -0.365579   -0.979171

 Total Charge           Charge          ....    0
 Multiplicity           Mult            ....    1
 Number of Electrons    NEL             ....   80
 Basis Dimension        Dim             ....  400

ORBITAL ENERGIES
----------------

  NO   OCC          E(Eh)            E(eV)
   0   2.0000     -24.835248      -675.8015
   1   2.0000     -19.211269      -522.7652
   2   2.0000     -10.434853      -283.9468
   3   2.0000     -10.278839      -279.7014
   4   2.0000     -10.261838      -279.2388
   5   2.0000     -10.245992      -278.8076
   6   2.0000     -10.232847      -278.4499
   7   2.0000     -10.228267      -278.3253
   8   2.0000     -10.215834      -277.9870
   9   2.0000     -10.166225      -276.6371
  10   2.0000      -1.414833       -38.4996
  11   2.0000      -1.128597       -30.7107
  12   2.0000      -0.913272       -24.8514
  13   2.0000      -0.879048       -23.9201
  14   2.0000      -0.828618       -22.5478
  15   2.0000      -0.787554       -21.4304
  16   2.0000      -0.744136       -20.2490
  17   2.0000      -0.718299       -19.5459
  18   2.0000      -0.679072       -18.4785
  19   2.0000      -0.640089       -17.4177
  20   2.0000      -0.637118       -17.3369
  21   2.0000      -0.621578       -16.9140
  22   2.0000      -0.586348       -15.9553
  23   2.0000      -0.551732       -15.0134
  24   2.0000      -0.529032       -14.3957
  25   2.0000      -0.515060       -14.0155
  26   2.0000      -0.510548       -13.8927
  27   2.0000      -0.499830       -13.6011
  28   2.0000      -0.485143       -13.2014
  29   2.0000      -0.460617       -12.5340
  30   2.0000      -0.452613       -12.3162
  31   2.0000      -0.444086       -12.0842
  32   2.0000      -0.435257       -11.8440
  33   2.0000      -0.415847       -11.3158
  34   2.0000      -0.396346       -10.7851
  35   2.0000      -0.394885       -10.7454
  36   2.0000      -0.381120       -10.3708
  37   2.0000      -0.366167        -9.9639
  38   2.0000      -0.365453        -9.9445
  39   2.0000      -0.329975        -8.9791
  40   0.0000       0.008340         0.2269
  41   0.0000       0.063823         1.7367
  42   0.0000       0.091422         2.4877
  43   0.0000       0.094509         2.5717
  44   0.0000       0.101485         2.7615

MULLIKEN ATOMIC CHARGES
-----------------------
   0 C :   -0.118338
   1 H :    0.085055
   2 C :   -0.434609
   3 C :   -0.231196
   4 H :    0.081490
   5 C :   -0.253873
   6 C :   -0.188977
   7 H :    0.105567
   8 H :    0.108872
   9 C :   -0.258979
  10 H :    0.123405
  11 H :    0.133838
  12 C :   -0.183647
  13 C :    0.344445
  14 H :    0.136239
  15 H :    0.134465
  16 H :    0.101500
  17 H :    0.174468
  18 H :    0.101395
  19 O :   -0.313295
  20 F :   -0.107581
  21 H :    0.105134
  22 H :    0.149513
  23 H :    0.104920
  24 H :    0.100190
Sum of atomic charges:    0.0000000

LOEWDIN ATOMIC CHARGES
----------------------
   0 C :   -0.300869
   1 H :    0.131504
   2 C :   -0.335775
   3 C :   -0.268047
   4 H :    0.132974
   5 C :   -0.266995
   6 C :   -0.266499
   7 H :    0.138749
   8 H :    0.137600
   9 C :   -0.264507
  10 H :    0.141871
  11 H :    0.137827
  12 C :   -0.222479
  13 C :   -0.484418
  14 H :    0.153201
  15 H :    0.155341
  16 H :    0.108022
  17 H :    0.113880
  18 H :    0.105474
  19 O :    0.074182
  20 F :    0.333094
  21 H :    0.137031
  22 H :    0.144918
  23 H :    0.130813
  24 H :    0.133105

  Mayer bond orders larger than 0.100000
B(  0-C ,  1-H ) :   0.9771 B(  0-C ,  2-C ) :   0.9353 B(  0-C ,  3-C ) :   0.9651
B(  0-C ,  4-H ) :   0.9782 B(  2-C , 16-H ) :   0.9816 B(  2-C , 17-H ) :   0.9627
B(  2-C , 18-H ) :   0.9799 B(  3-C ,  5-C ) :   0.9043 B(  3-C , 23-H ) :   0.9976
B(  3-C , 24-H ) :   0.9728 B(  5-C ,  6-C ) :   0.9444 B(  5-C , 21-H ) :   0.9722
B(  5-C , 22-H ) :   0.9834 B(  6-C ,  7-H ) :   0.9770 B(  6-C ,  8-H ) :   0.9798
B(  6-C ,  9-C ) :   0.9548 B(  9-C , 10-H ) :   0.9780 B(  9-C , 11-H ) :   0.9842
B(  9-C , 12-C ) :   0.9046 B( 12-C , 13-C ) :   0.9860 B( 12-C , 14-H ) :   0.9531
B( 12-C , 15-H ) :   0.9708 B( 13-C , 19-O ) :   2.0284 B( 13-C , 20-F ) :   1.1305

FINAL SINGLE POINT ENERGY      -488.858002867037

DIPOLE MOMENT
-------------
                                X             Y             Z
Electronic contribution:      3.58954      -0.29949      -9.81494
Nuclear contribution   :     -3.57245       1.60200       9.69133
                        -----------------------------------------
Total Dipole Moment    :      0.01709       1.30251      -0.12361
                        -----------------------------------------
Magnitude (a.u.)       :      1.30847
Magnitude (Debye)      :      3.32587

Rotational constants in cm-1:     0.051520     0.042563     0.028962
Rotational constants in MHz :  1544.537298  1275.996546   868.258224

                             ****ORCA TERMINATED NORMALLY****
TOTAL RUN TIME: 0 days 0 hours 1 minutes 6 seconds 452 msec
