                         Program Version 5.0.0 -  RELEASE  -
|  1> !B3LYP D3BJ RIJCOSX def2-TZVP def2/J TightSCF
|  2> *xyz -1 1
|  3> C          0.70466        1.44313       -4.50363
|  4> C          1.72854        1.42432       -5.63944
|  5> H          2.64672        1.95379       -5.38105
|  6> H          1.29992        1.93061       -6.50361
|  7> S          2.25263       -0.18811       -6.27184
|  8> O          3.56261       -0.44446       -5.63155
|  9> O          2.34494       -0.03374       -7.69650
| 10> O          1.26606       -1.15918       -5.80536
| 11> H         -0.17385        0.91270       -4.80656
| 12> H          0.44778        2.45562       -4.27173
| 13> H          1.12367        0.97423       -3.63791
| 14> *
| 15>
| 16> %MaxCore 64000
| 17>
| 18> %pal nprocs 4
| 19> end
| 20>
| 21> %scf
| 22>   MaxIter 150
| 23> end
| 24>
| 25>
| 26>                          ****END OF INPUT****

CARTESIAN COORDINATES (ANGSTROEM)
---------------------------------
  C      0.704660    1.443130   -4.503630
  C      1.728540    1.424320   -5.639440
  H      2.646720    1.953790   -5.381050
  H      1.299920    1.930610   -6.503610
  S      2.252630   -0.188110   -6.271840
  O      3.562610   -0.444460   -5.631550
  O      2.344940   -0.033740   -7.696500
  O      1.266060   -1.159180   -5.805360
  H     -0.173850    0.912700   -4.806560
  H      0.447780    2.455620   -4.271730
  H      1.123670    0.974230   -3.637910

 Total Charge           Charge          ....   -1
 Multiplicity           Mult            ....    1
 Number of Electrons    NEL             ....   58
 Basis Dimension        Dim             ....  222

ORBITAL ENERGIES
----------------

  NO   OCC          E(Eh)            E(eV)
   0   2.0000     -88.830433     -2417.1990
   1   2.0000     -18.897788      -514.2349
   2   2.0000     -18.891107      -514.0531
   3   2.0000     -18.881500      -513.7917
   4   2.0000     -10.024958      -272.7930
   5   2.0000     -10.022637      -272.7298
   6   2.0000      -7.873514      -214.2492
   7   2.0000      -5.837129      -158.8363
   8   2.0000      -5.835987      -158.8053
   9   2.0000      -5.835754      -158.7989
  10   2.0000      -0.914282       -24.8789
  11   2.0000      -0.785222       -21.3670
  12   2.0000      -0.762046       -20.7363
  13   2.0000      -0.627505       -17.0753
  14   2.0000      -0.503034       -13.6882
  15   2.0000      -0.374602       -10.1934
  16   2.0000      -0.314543        -8.5592
  17   2.0000      -0.306447        -8.3389
  18   2.0000      -0.268689        -7.3114
  19   2.0000      -0.251449        -6.8423
  20   2.0000      -0.249639        -6.7930
  21   2.0000      -0.222552        -6.0559
  22   2.0000      -0.215403        -5.8614
  23   2.0000      -0.143007        -3.8914
  24   2.0000      -0.141344        -3.8462
  25   2.0000      -0.108196        -2.9442
  26   2.0000      -0.102348        -2.7850
  27   2.0000      -0.090857        -2.4723
  28   2.0000      -0.055697        -1.5156
  29   0.0000       0.170584         4.6418
  30   0.0000       0.217563         5.9202
  31   0.0000       0.230103         6.2614
  32   0.0000       0.235647         6.4123
  33   0.0000       0.257787         7.0147

MULLIKEN ATOMIC CHARGES
-----------------------
   0 C :   -0.285533
   1 C :   -0.233583
   2 H :    0.078109
   3 H :    0.072515
   4 S :    0.845934
   5 O :   -0.600025
   6 O :   -0.550054
   7 O :   -0.574489
   8 H :    0.100692
   9 H :    0.056588
  10 H :    0.089847
Sum of atomic charges:   -1.0000000

LOEWDIN ATOMIC CHARGES
----------------------
   0 C :   -0.337918
   1 C :   -0.424297
   2 H :    0.115587
   3 H :    0.114557
   4 S :    0.420751
   5 O :   -0.434513
   6 O :   -0.373774
   7 O :   -0.399013
   8 H :    0.111670
   9 H :    0.096578
  10 H :    0.110372

  Mayer bond orders larger than 0.100000
B(  0-C ,  1-C ) :   0.9484 B(  0-C ,  8-H ) :   0.9753 B(  0-C ,  9-H ) :   0.9610
B(  0-C , 10-H ) :   0.9780 B(  1-C ,  2-H ) :   0.9635 B(  1-C ,  3-H ) :   0.9578
B(  1-C ,  4-S ) :   0.8711 B(  4-S ,  5-O ) :   1.7566 B(  4-S ,  6-O ) :   1.8094
B(  4-S ,  7-O ) :   1.7635

Dispersion correction           -0.016511522
FINAL SINGLE POINT ENERGY      -703.113656823662

DIPOLE MOMENT
-------------
                                X             Y             Z
Electronic contribution:      3.68082      -5.67763      -4.33252
Nuclear contribution   :     -4.50297       7.24642       5.01775
                        -----------------------------------------
Total Dipole Moment    :     -0.82215       1.56879       0.68523
                        -----------------------------------------
Magnitude (a.u.)       :      1.89910
Magnitude (Debye)      :      4.82713

Rotational constants in cm-1:     0.162459     0.081286     0.079601
Rotational constants in MHz :  4870.394399  2436.893583  2386.374948

                             ****ORCA TERMINATED NORMALLY****
TOTAL RUN TIME: 0 days 0 hours 0 minutes 27 seconds 894 msec
