                         Program Version 5.0.0 -  RELEASE  -
|  1> !B3LYP D3BJ RIJCOSX def2-TZVP def2/J TightSCF
|  2> *xyz 1 1
|  3> C          2.91632       -1.24259       -1.54313
|  4> C          3.46659       -1.59097       -2.88908
|  5> N          4.65227       -1.14316       -3.25969
|  6> N          2.75226       -2.29204       -3.72803
|  7> H          1.77836       -2.48960       -3.51274
|  8> H          2.94861       -2.20854       -4.71681
|  9> H          5.14672       -0.51251       -2.63385
| 10> H          4.78303       -1.00720       -4.25350
| 11> C          2.80408        0.29070       -1.35924
| 12> H          1.94047       -1.71653       -1.44116
| 13> H          3.55857       -1.66343       -0.76637
| 14> H          2.17393        0.69633       -2.12297
| 15> H          3.77707        0.73043       -1.42880
| 16> H          2.38369        0.50492       -0.39889
| 17> *
| 18>
| 19> %MaxCore 64000
| 20>
| 21> %pal nprocs 4
| 22> end
| 23>
| 24> %scf
| 25>   MaxIter 150
| 26> end
| 27>
| 28>
| 29>                          ****END OF INPUT****

CARTESIAN COORDINATES (ANGSTROEM)
---------------------------------
  C      2.916320   -1.242590   -1.543130
  C      3.466590   -1.590970   -2.889080
  N      4.652270   -1.143160   -3.259690
  N      2.752260   -2.292040   -3.728030
  H      1.778360   -2.489600   -3.512740
  H      2.948610   -2.208540   -4.716810
  H      5.146720   -0.512510   -2.633850
  H      4.783030   -1.007200   -4.253500
  C      2.804080    0.290700   -1.359240
  H      1.940470   -1.716530   -1.441160
  H      3.558570   -1.663430   -0.766370
  H      2.173930    0.696330   -2.122970
  H      3.777070    0.730430   -1.428800
  H      2.383690    0.504920   -0.398890

 Total Charge           Charge          ....    1
 Multiplicity           Mult            ....    1
 Number of Electrons    NEL             ....   40
 Basis Dimension        Dim             ....  209

ORBITAL ENERGIES
----------------

  NO   OCC          E(Eh)            E(eV)
   0   2.0000     -14.563609      -396.2960
   1   2.0000     -14.558225      -396.1494
   2   2.0000     -10.492102      -285.5046
   3   2.0000     -10.370839      -282.2049
   4   2.0000     -10.330155      -281.0978
   5   2.0000      -1.210868       -32.9494
   6   2.0000      -1.112663       -30.2771
   7   2.0000      -0.970973       -26.4215
   8   2.0000      -0.864832       -23.5333
   9   2.0000      -0.817807       -22.2537
  10   2.0000      -0.769922       -20.9506
  11   2.0000      -0.753714       -20.5096
  12   2.0000      -0.700329       -19.0569
  13   2.0000      -0.664054       -18.0698
  14   2.0000      -0.626520       -17.0485
  15   2.0000      -0.600473       -16.3397
  16   2.0000      -0.554235       -15.0815
  17   2.0000      -0.544609       -14.8196
  18   2.0000      -0.532506       -14.4902
  19   2.0000      -0.499284       -13.5862
  20   0.0000      -0.221692        -6.0325
  21   0.0000      -0.162286        -4.4160
  22   0.0000      -0.118915        -3.2359
  23   0.0000      -0.116373        -3.1667
  24   0.0000      -0.080716        -2.1964

MULLIKEN ATOMIC CHARGES
-----------------------
   0 C :   -0.216758
   1 C :    0.315895
   2 N :   -0.311340
   3 N :   -0.305450
   4 H :    0.290434
   5 H :    0.266943
   6 H :    0.287264
   7 H :    0.268047
   8 C :   -0.320010
   9 H :    0.130765
  10 H :    0.175271
  11 H :    0.137164
  12 H :    0.112902
  13 H :    0.168872
Sum of atomic charges:    1.0000000

LOEWDIN ATOMIC CHARGES
----------------------
   0 C :   -0.210532
   1 C :   -0.291333
   2 N :    0.109299
   3 N :    0.122160
   4 H :    0.209137
   5 H :    0.198609
   6 H :    0.206437
   7 H :    0.199197
   8 C :   -0.252047
   9 H :    0.155747
  10 H :    0.169255
  11 H :    0.127219
  12 H :    0.118431
  13 H :    0.138420

  Mayer bond orders larger than 0.100000
B(  0-C ,  1-C ) :   0.9828 B(  0-C ,  8-C ) :   0.9383 B(  0-C ,  9-H ) :   0.9663
B(  0-C , 10-H ) :   0.9391 B(  1-C ,  2-N ) :   1.4062 B(  1-C ,  3-N ) :   1.4622
B(  2-N ,  6-H ) :   0.8944 B(  2-N ,  7-H ) :   0.8945 B(  3-N ,  4-H ) :   0.8869
B(  3-N ,  5-H ) :   0.8952 B(  8-C , 11-H ) :   0.9629 B(  8-C , 12-H ) :   0.9692
B(  8-C , 13-H ) :   0.9633

Dispersion correction           -0.016830365
FINAL SINGLE POINT ENERGY      -228.986059690836

DIPOLE MOMENT
-------------
                                X             Y             Z
Electronic contribution:      1.30683      -2.84393      -2.77750
Nuclear contribution   :     -1.30215       2.77761       1.84194
                        -----------------------------------------
Total Dipole Moment    :      0.00469      -0.06632      -0.93557
                        -----------------------------------------
Magnitude (a.u.)       :      0.93793
Magnitude (Debye)      :      2.38402

Rotational constants in cm-1:     0.267442     0.127541     0.099068
Rotational constants in MHz :  8017.703171  3823.592522  2969.992494

                             ****ORCA TERMINATED NORMALLY****
TOTAL RUN TIME: 0 days 0 hours 0 minutes 24 seconds 250 msec
