                         Program Version 5.0.0 -  RELEASE  -
|  1> !B3LYP D3BJ RIJCOSX def2-TZVP def2/J TightSCF
|  2> *xyz 0 1
|  3> C          0.70466        1.44313       -4.50363
|  4> C          1.72854        1.42432       -5.63944
|  5> H          2.64672        1.95379       -5.38105
|  6> H          1.29992        1.93061       -6.50361
|  7> S          2.25263       -0.18811       -6.27184
|  8> F          3.56261       -0.44446       -5.63155
|  9> O          2.34494       -0.03374       -7.69650
| 10> O          1.26606       -1.15918       -5.80536
| 11> H         -0.17385        0.91270       -4.80656
| 12> H          0.44778        2.45562       -4.27173
| 13> H          1.12367        0.97423       -3.63791
| 14> *
| 15>
| 16> %MaxCore 64000
| 17>
| 18> %pal nprocs 4
| 19> end
| 20>
| 21> %scf
| 22>   MaxIter 150
| 23> end
| 24>
| 25>
| 26>                          ****END OF INPUT****

CARTESIAN COORDINATES (ANGSTROEM)
---------------------------------
  C      0.704660    1.443130   -4.503630
  C      1.728540    1.424320   -5.639440
  H      2.646720    1.953790   -5.381050
  H      1.299920    1.930610   -6.503610
  S      2.252630   -0.188110   -6.271840
  F      3.562610   -0.444460   -5.631550
  O      2.344940   -0.033740   -7.696500
  O      1.266060   -1.159180   -5.805360
  H     -0.173850    0.912700   -4.806560
  H      0.447780    2.455620   -4.271730
  H      1.123670    0.974230   -3.637910

 Total Charge           Charge          ....    0
 Multiplicity           Mult            ....    1
 Number of Electrons    NEL             ....   58
 Basis Dimension        Dim             ....  222

ORBITAL ENERGIES
----------------

  NO   OCC          E(Eh)            E(eV)
   0   2.0000     -89.095718     -2424.4177
   1   2.0000     -24.781224      -674.3314
   2   2.0000     -19.138503      -520.7851
   3   2.0000     -19.131232      -520.5873
   4   2.0000     -10.229484      -278.3584
   5   2.0000     -10.186433      -277.1869
   6   2.0000      -8.139429      -221.4851
   7   2.0000      -6.106283      -166.1604
   8   2.0000      -6.100004      -165.9896
   9   2.0000      -6.099417      -165.9736
  10   2.0000      -1.351686       -36.7812
  11   2.0000      -1.110871       -30.2283
  12   2.0000      -1.018482       -27.7143
  13   2.0000      -0.819355       -22.2958
  14   2.0000      -0.724060       -19.7027
  15   2.0000      -0.669384       -18.2149
  16   2.0000      -0.574983       -15.6461
  17   2.0000      -0.562667       -15.3110
  18   2.0000      -0.549425       -14.9506
  19   2.0000      -0.491856       -13.3841
  20   2.0000      -0.479613       -13.0509
  21   2.0000      -0.454292       -12.3619
  22   2.0000      -0.431425       -11.7397
  23   2.0000      -0.404172       -10.9981
  24   2.0000      -0.399397       -10.8681
  25   2.0000      -0.384006       -10.4493
  26   2.0000      -0.336412        -9.1542
  27   2.0000      -0.331592        -9.0231
  28   2.0000      -0.317220        -8.6320
  29   0.0000       0.016071         0.4373
  30   0.0000       0.030203         0.8219
  31   0.0000       0.053788         1.4636
  32   0.0000       0.071159         1.9363
  33   0.0000       0.076113         2.0711

MULLIKEN ATOMIC CHARGES
-----------------------
   0 C :   -0.297116
   1 C :   -0.251690
   2 H :    0.126739
   3 H :    0.150539
   4 S :    0.885954
   5 F :   -0.136125
   6 O :   -0.412061
   7 O :   -0.438526
   8 H :    0.138249
   9 H :    0.119915
  10 H :    0.114123
Sum of atomic charges:    0.0000000

LOEWDIN ATOMIC CHARGES
----------------------
   0 C :   -0.303511
   1 C :   -0.388254
   2 H :    0.132093
   3 H :    0.145366
   4 S :    0.549264
   5 F :    0.046038
   6 O :   -0.261038
   7 O :   -0.287009
   8 H :    0.125172
   9 H :    0.122170
  10 H :    0.119710

  Mayer bond orders larger than 0.100000
B(  0-C ,  1-C ) :   0.9602 B(  0-C ,  8-H ) :   0.9685 B(  0-C ,  9-H ) :   0.9574
B(  0-C , 10-H ) :   0.9721 B(  1-C ,  2-H ) :   0.9462 B(  1-C ,  3-H ) :   0.9439
B(  1-C ,  4-S ) :   0.9005 B(  4-S ,  5-F ) :   1.0936 B(  4-S ,  6-O ) :   1.9387
B(  4-S ,  7-O ) :   1.9004

Dispersion correction           -0.015746827
FINAL SINGLE POINT ENERGY      -727.651594003188

DIPOLE MOMENT
-------------
                                X             Y             Z
Electronic contribution:      6.31378      -6.50198      -3.71524
Nuclear contribution   :     -6.09914       7.80989       4.64238
                        -----------------------------------------
Total Dipole Moment    :      0.21465       1.30791       0.92714
                        -----------------------------------------
Magnitude (a.u.)       :      1.61750
Magnitude (Debye)      :      4.11135

Rotational constants in cm-1:     0.154372     0.078826     0.078033
Rotational constants in MHz :  4627.943144  2363.154585  2339.382767

                             ****ORCA TERMINATED NORMALLY****
TOTAL RUN TIME: 0 days 0 hours 0 minutes 25 seconds 957 msec
