                         Program Version 5.0.0 -  RELEASE  -
|  1> !B3LYP D3BJ RIJCOSX def2-TZVP def2/J TightSCF
|  2> *xyz 0 1
|  3> C          2.91632       -1.24259       -1.54313
|  4> C          3.46659       -1.59097       -2.88908
|  5> C          4.65227       -1.14316       -3.25969
|  6> N          2.75226       -2.29204       -3.72803
|  7> H          1.77836       -2.48960       -3.51274
|  8> H          2.94861       -2.20854       -4.71681
|  9> H          5.14672       -0.51251       -2.63385
| 10> H          4.78303       -1.00720       -4.25350
| 11> C          2.80408        0.29070       -1.35924
| 12> H          1.94047       -1.71653       -1.44116
| 13> H          3.55857       -1.66343       -0.76637
| 14> H          2.17393        0.69633       -2.12297
| 15> H          3.77707        0.73043       -1.42880
| 16> H          2.38369        0.50492       -0.39889
| 17> *
| 18>
| 19> %MaxCore 64000
| 20>
| 21> %pal nprocs 4
| 22> end
| 23>
| 24> %scf
| 25>   MaxIter 150
| 26> end
| 27>
| 28>
| 29>                          ****END OF INPUT****

CARTESIAN COORDINATES (ANGSTROEM)
---------------------------------
  C      2.916320   -1.242590   -1.543130
  C      3.466590   -1.590970   -2.889080
  C      4.652270   -1.143160   -3.259690
  N      2.752260   -2.292040   -3.728030
  H      1.778360   -2.489600   -3.512740
  H      2.948610   -2.208540   -4.716810
  H      5.146720   -0.512510   -2.633850
  H      4.783030   -1.007200   -4.253500
  C      2.804080    0.290700   -1.359240
  H      1.940470   -1.716530   -1.441160
  H      3.558570   -1.663430   -0.766370
  H      2.173930    0.696330   -2.122970
  H      3.777070    0.730430   -1.428800
  H      2.383690    0.504920   -0.398890

 Total Charge           Charge          ....    0
 Multiplicity           Mult            ....    1
 Number of Electrons    NEL             ....   40
 Basis Dimension        Dim             ....  209

ORBITAL ENERGIES
----------------

  NO   OCC          E(Eh)            E(eV)
   0   2.0000     -14.316631      -389.5753
   1   2.0000     -10.186987      -277.2020
   2   2.0000     -10.170713      -276.7592
   3   2.0000     -10.153876      -276.3010
   4   2.0000     -10.094267      -274.6790
   5   2.0000      -0.936554       -25.4849
   6   2.0000      -0.780427       -21.2365
   7   2.0000      -0.711235       -19.3537
   8   2.0000      -0.643246       -17.5036
   9   2.0000      -0.564945       -15.3729
  10   2.0000      -0.521793       -14.1987
  11   2.0000      -0.478532       -13.0215
  12   2.0000      -0.448660       -12.2087
  13   2.0000      -0.410186       -11.1617
  14   2.0000      -0.389704       -10.6044
  15   2.0000      -0.377068       -10.2606
  16   2.0000      -0.356778        -9.7084
  17   2.0000      -0.344336        -9.3698
  18   2.0000      -0.326466        -8.8836
  19   2.0000      -0.188481        -5.1288
  20   0.0000       0.024814         0.6752
  21   0.0000       0.033726         0.9177
  22   0.0000       0.067763         1.8439
  23   0.0000       0.072227         1.9654
  24   0.0000       0.089377         2.4321

MULLIKEN ATOMIC CHARGES
-----------------------
   0 C :   -0.175289
   1 C :    0.213062
   2 C :   -0.376691
   3 N :   -0.416861
   4 H :    0.212971
   5 H :    0.217430
   6 H :    0.069321
   7 H :    0.063346
   8 C :   -0.297837
   9 H :    0.070537
  10 H :    0.110482
  11 H :    0.100296
  12 H :    0.107496
  13 H :    0.101736
Sum of atomic charges:    0.0000000

LOEWDIN ATOMIC CHARGES
----------------------
   0 C :   -0.229812
   1 C :   -0.369365
   2 C :   -0.281692
   3 N :    0.010034
   4 H :    0.165100
   5 H :    0.171349
   6 H :    0.102416
   7 H :    0.098482
   8 C :   -0.281252
   9 H :    0.129022
  10 H :    0.145427
  11 H :    0.114558
  12 H :    0.115395
  13 H :    0.110340

  Mayer bond orders larger than 0.100000
B(  0-C ,  1-C ) :   0.9443 B(  0-C ,  8-C ) :   0.9566 B(  0-C ,  9-H ) :   0.9783
B(  0-C , 10-H ) :   0.9802 B(  1-C ,  2-C ) :   1.7284 B(  1-C ,  3-N ) :   1.1816
B(  2-C ,  6-H ) :   1.0119 B(  2-C ,  7-H ) :   0.9834 B(  3-N ,  4-H ) :   0.9251
B(  3-N ,  5-H ) :   0.9203 B(  8-C , 11-H ) :   0.9765 B(  8-C , 12-H ) :   0.9770
B(  8-C , 13-H ) :   0.9720

Dispersion correction           -0.017601889
FINAL SINGLE POINT ENERGY      -212.511814518251

DIPOLE MOMENT
-------------
                                X             Y             Z
Electronic contribution:      0.06959      -2.74638      -1.82715
Nuclear contribution   :     -0.99366       2.78648       1.68526
                        -----------------------------------------
Total Dipole Moment    :     -0.92407       0.04010      -0.14189
                        -----------------------------------------
Magnitude (a.u.)       :      0.93576
Magnitude (Debye)      :      2.37851

Rotational constants in cm-1:     0.282898     0.128664     0.101801
Rotational constants in MHz :  8481.061354  3857.240210  3051.924245

                             ****ORCA TERMINATED NORMALLY****
TOTAL RUN TIME: 0 days 0 hours 0 minutes 25 seconds 218 msec
