                         Program Version 5.0.0 -  RELEASE  -
|  1> !B3LYP D3BJ RIJCOSX def2-TZVP def2/J TightSCF
|  2> *xyz 0 1
|  3> C          0.70466        1.44313       -4.50363
|  4> C          1.72854        1.42432       -5.63944
|  5> H          2.64672        1.95379       -5.38105
|  6> H          1.29992        1.93061       -6.50361
|  7> S          2.25263       -0.18811       -6.27184
|  8> O          3.56261       -0.44446       -5.63155
|  9> F          2.34494       -0.03374       -7.69650
| 10> O          1.26606       -1.15918       -5.80536
| 11> H         -0.17385        0.91270       -4.80656
| 12> H          0.44778        2.45562       -4.27173
| 13> H          1.12367        0.97423       -3.63791
| 14> *
| 15>
| 16> %MaxCore 64000
| 17>
| 18> %pal nprocs 4
| 19> end
| 20>
| 21> %scf
| 22>   MaxIter 150
| 23> end
| 24>
| 25>
| 26>                          ****END OF INPUT****

CARTESIAN COORDINATES (ANGSTROEM)
---------------------------------
  C      0.704660    1.443130   -4.503630
  C      1.728540    1.424320   -5.639440
  H      2.646720    1.953790   -5.381050
  H      1.299920    1.930610   -6.503610
  S      2.252630   -0.188110   -6.271840
  O      3.562610   -0.444460   -5.631550
  F      2.344940   -0.033740   -7.696500
  O      1.266060   -1.159180   -5.805360
  H     -0.173850    0.912700   -4.806560
  H      0.447780    2.455620   -4.271730
  H      1.123670    0.974230   -3.637910

 Total Charge           Charge          ....    0
 Multiplicity           Mult            ....    1
 Number of Electrons    NEL             ....   58
 Basis Dimension        Dim             ....  222

ORBITAL ENERGIES
----------------

  NO   OCC          E(Eh)            E(eV)
   0   2.0000     -89.097861     -2424.4760
   1   2.0000     -24.804513      -674.9651
   2   2.0000     -19.131400      -520.5919
   3   2.0000     -19.122898      -520.3605
   4   2.0000     -10.230392      -278.3831
   5   2.0000     -10.187007      -277.2025
   6   2.0000      -8.141543      -221.5427
   7   2.0000      -6.108284      -166.2149
   8   2.0000      -6.101986      -166.0435
   9   2.0000      -6.101614      -166.0333
  10   2.0000      -1.389466       -37.8093
  11   2.0000      -1.096191       -29.8289
  12   2.0000      -0.998497       -27.1705
  13   2.0000      -0.820185       -22.3184
  14   2.0000      -0.739171       -20.1139
  15   2.0000      -0.677366       -18.4321
  16   2.0000      -0.591219       -16.0879
  17   2.0000      -0.589416       -16.0388
  18   2.0000      -0.553858       -15.0712
  19   2.0000      -0.492680       -13.4065
  20   2.0000      -0.479771       -13.0552
  21   2.0000      -0.443470       -12.0674
  22   2.0000      -0.428441       -11.6585
  23   2.0000      -0.406548       -11.0627
  24   2.0000      -0.391583       -10.6555
  25   2.0000      -0.380456       -10.3527
  26   2.0000      -0.329627        -8.9696
  27   2.0000      -0.319789        -8.7019
  28   2.0000      -0.301319        -8.1993
  29   0.0000       0.017923         0.4877
  30   0.0000       0.025032         0.6811
  31   0.0000       0.052798         1.4367
  32   0.0000       0.068148         1.8544
  33   0.0000       0.073879         2.0103

MULLIKEN ATOMIC CHARGES
-----------------------
   0 C :   -0.301548
   1 C :   -0.241892
   2 H :    0.149289
   3 H :    0.116293
   4 S :    0.880536
   5 O :   -0.451149
   6 F :   -0.102599
   7 O :   -0.429557
   8 H :    0.128911
   9 H :    0.120656
  10 H :    0.131059
Sum of atomic charges:    0.0000000

LOEWDIN ATOMIC CHARGES
----------------------
   0 C :   -0.297612
   1 C :   -0.389848
   2 H :    0.140522
   3 H :    0.130123
   4 S :    0.541041
   5 O :   -0.313774
   6 F :    0.101398
   7 O :   -0.283150
   8 H :    0.123508
   9 H :    0.122918
  10 H :    0.124873

  Mayer bond orders larger than 0.100000
B(  0-C ,  1-C ) :   0.9653 B(  0-C ,  8-H ) :   0.9680 B(  0-C ,  9-H ) :   0.9566
B(  0-C , 10-H ) :   0.9719 B(  1-C ,  2-H ) :   0.9416 B(  1-C ,  3-H ) :   0.9413
B(  1-C ,  4-S ) :   0.9029 B(  4-S ,  5-O ) :   1.8899 B(  4-S ,  6-F ) :   1.1358
B(  4-S ,  7-O ) :   1.9035

Dispersion correction           -0.015767031
FINAL SINGLE POINT ENERGY      -727.632149288989

DIPOLE MOMENT
-------------
                                X             Y             Z
Electronic contribution:      4.21925      -5.80650      -7.22506
Nuclear contribution   :     -4.83029       7.38191       6.79413
                        -----------------------------------------
Total Dipole Moment    :     -0.61104       1.57541      -0.43093
                        -----------------------------------------
Magnitude (a.u.)       :      1.74384
Magnitude (Debye)      :      4.43249

Rotational constants in cm-1:     0.156575     0.079070     0.076729
Rotational constants in MHz :  4694.010604  2370.444114  2300.280155

                             ****ORCA TERMINATED NORMALLY****
TOTAL RUN TIME: 0 days 0 hours 0 minutes 28 seconds 797 msec
