                         Program Version 5.0.0 -  RELEASE  -
|  1> !B3LYP D3BJ RIJCOSX def2-TZVP def2/J TightSCF
|  2> *xyz 0 1
|  3> C          2.91632       -1.24259       -1.54313
|  4> C          3.46659       -1.59097       -2.88908
|  5> N          4.65227       -1.14316       -3.25969
|  6> C          2.75226       -2.29204       -3.72803
|  7> H          1.77836       -2.48960       -3.51274
|  8> H          2.94861       -2.20854       -4.71681
|  9> H          5.14672       -0.51251       -2.63385
| 10> H          4.78303       -1.00720       -4.25350
| 11> C          2.80408        0.29070       -1.35924
| 12> H          1.94047       -1.71653       -1.44116
| 13> H          3.55857       -1.66343       -0.76637
| 14> H          2.17393        0.69633       -2.12297
| 15> H          3.77707        0.73043       -1.42880
| 16> H          2.38369        0.50492       -0.39889
| 17> *
| 18>
| 19> %MaxCore 64000
| 20>
| 21> %pal nprocs 4
| 22> end
| 23>
| 24> %scf
| 25>   MaxIter 150
| 26> end
| 27>
| 28>
| 29>                          ****END OF INPUT****

CARTESIAN COORDINATES (ANGSTROEM)
---------------------------------
  C      2.916320   -1.242590   -1.543130
  C      3.466590   -1.590970   -2.889080
  N      4.652270   -1.143160   -3.259690
  C      2.752260   -2.292040   -3.728030
  H      1.778360   -2.489600   -3.512740
  H      2.948610   -2.208540   -4.716810
  H      5.146720   -0.512510   -2.633850
  H      4.783030   -1.007200   -4.253500
  C      2.804080    0.290700   -1.359240
  H      1.940470   -1.716530   -1.441160
  H      3.558570   -1.663430   -0.766370
  H      2.173930    0.696330   -2.122970
  H      3.777070    0.730430   -1.428800
  H      2.383690    0.504920   -0.398890

 Total Charge           Charge          ....    0
 Multiplicity           Mult            ....    1
 Number of Electrons    NEL             ....   40
 Basis Dimension        Dim             ....  209

ORBITAL ENERGIES
----------------

  NO   OCC          E(Eh)            E(eV)
   0   2.0000     -14.313010      -389.4768
   1   2.0000     -10.185708      -277.1672
   2   2.0000     -10.169030      -276.7134
   3   2.0000     -10.158893      -276.4375
   4   2.0000     -10.098285      -274.7883
   5   2.0000      -0.931577       -25.3495
   6   2.0000      -0.778117       -21.1736
   7   2.0000      -0.722412       -19.6578
   8   2.0000      -0.636028       -17.3072
   9   2.0000      -0.564434       -15.3590
  10   2.0000      -0.526116       -14.3163
  11   2.0000      -0.475373       -12.9356
  12   2.0000      -0.437301       -11.8996
  13   2.0000      -0.433337       -11.7917
  14   2.0000      -0.388310       -10.5664
  15   2.0000      -0.380623       -10.3573
  16   2.0000      -0.358392        -9.7523
  17   2.0000      -0.342158        -9.3106
  18   2.0000      -0.321404        -8.7458
  19   2.0000      -0.195606        -5.3227
  20   0.0000       0.022293         0.6066
  21   0.0000       0.036694         0.9985
  22   0.0000       0.072466         1.9719
  23   0.0000       0.075849         2.0640
  24   0.0000       0.086846         2.3632

MULLIKEN ATOMIC CHARGES
-----------------------
   0 C :   -0.172276
   1 C :    0.211202
   2 N :   -0.427508
   3 C :   -0.369568
   4 H :    0.076755
   5 H :    0.062231
   6 H :    0.214008
   7 H :    0.220966
   8 C :   -0.313247
   9 H :    0.096606
  10 H :    0.094890
  11 H :    0.112303
  12 H :    0.082297
  13 H :    0.111341
Sum of atomic charges:    0.0000000

LOEWDIN ATOMIC CHARGES
----------------------
   0 C :   -0.230290
   1 C :   -0.368060
   2 N :   -0.000204
   3 C :   -0.271460
   4 H :    0.104686
   5 H :    0.098120
   6 H :    0.165651
   7 H :    0.173064
   8 C :   -0.287860
   9 H :    0.143775
  10 H :    0.135260
  11 H :    0.117042
  12 H :    0.106097
  13 H :    0.114179

  Mayer bond orders larger than 0.100000
B(  0-C ,  1-C ) :   0.9769 B(  0-C ,  8-C ) :   0.9386 B(  0-C ,  9-H ) :   0.9756
B(  0-C , 10-H ) :   0.9707 B(  1-C ,  2-N ) :   1.1289 B(  1-C ,  3-C ) :   1.7870
B(  2-N ,  6-H ) :   0.9356 B(  2-N ,  7-H ) :   0.9222 B(  3-C ,  4-H ) :   0.9941
B(  3-C ,  5-H ) :   0.9877 B(  8-C , 11-H ) :   0.9764 B(  8-C , 12-H ) :   0.9759
B(  8-C , 13-H ) :   0.9755

Dispersion correction           -0.017548372
FINAL SINGLE POINT ENERGY      -212.515650276095

DIPOLE MOMENT
-------------
                                X             Y             Z
Electronic contribution:      1.75610      -1.72226      -1.41297
Nuclear contribution   :     -1.43372       2.52039       1.57679
                        -----------------------------------------
Total Dipole Moment    :      0.32238       0.79813       0.16382
                        -----------------------------------------
Magnitude (a.u.)       :      0.87623
Magnitude (Debye)      :      2.22719

Rotational constants in cm-1:     0.274962     0.131786     0.102554
Rotational constants in MHz :  8243.150005  3950.846092  3074.493018

                             ****ORCA TERMINATED NORMALLY****
TOTAL RUN TIME: 0 days 0 hours 0 minutes 26 seconds 750 msec
