                         Program Version 5.0.0 -  RELEASE  -
|  1> !B3LYP D3BJ RIJCOSX def2-TZVP def2/J TightSCF
|  2> *xyz 0 1
|  3> C          0.70466        1.44313       -4.50363
|  4> C          1.72854        1.42432       -5.63944
|  5> H          2.64672        1.95379       -5.38105
|  6> H          1.29992        1.93061       -6.50361
|  7> S          2.25263       -0.18811       -6.27184
|  8> O          3.56261       -0.44446       -5.63155
|  9> O          2.34494       -0.03374       -7.69650
| 10> F          1.26606       -1.15918       -5.80536
| 11> H         -0.17385        0.91270       -4.80656
| 12> H          0.44778        2.45562       -4.27173
| 13> H          1.12367        0.97423       -3.63791
| 14> *
| 15>
| 16> %MaxCore 64000
| 17>
| 18> %pal nprocs 4
| 19> end
| 20>
| 21> %scf
| 22>   MaxIter 150
| 23> end
| 24>
| 25>
| 26>                          ****END OF INPUT****

CARTESIAN COORDINATES (ANGSTROEM)
---------------------------------
  C      0.704660    1.443130   -4.503630
  C      1.728540    1.424320   -5.639440
  H      2.646720    1.953790   -5.381050
  H      1.299920    1.930610   -6.503610
  S      2.252630   -0.188110   -6.271840
  O      3.562610   -0.444460   -5.631550
  O      2.344940   -0.033740   -7.696500
  F      1.266060   -1.159180   -5.805360
  H     -0.173850    0.912700   -4.806560
  H      0.447780    2.455620   -4.271730
  H      1.123670    0.974230   -3.637910

 Total Charge           Charge          ....    0
 Multiplicity           Mult            ....    1
 Number of Electrons    NEL             ....   58
 Basis Dimension        Dim             ....  222

ORBITAL ENERGIES
----------------

  NO   OCC          E(Eh)            E(eV)
   0   2.0000     -89.096321     -2424.4342
   1   2.0000     -24.792074      -674.6266
   2   2.0000     -19.138462      -520.7840
   3   2.0000     -19.122412      -520.3473
   4   2.0000     -10.229355      -278.3549
   5   2.0000     -10.194188      -277.3980
   6   2.0000      -8.140051      -221.5020
   7   2.0000      -6.106973      -166.1792
   8   2.0000      -6.100355      -165.9991
   9   2.0000      -6.100172      -165.9941
  10   2.0000      -1.368297       -37.2332
  11   2.0000      -1.106430       -30.1075
  12   2.0000      -1.006475       -27.3876
  13   2.0000      -0.823299       -22.4031
  14   2.0000      -0.728169       -19.8145
  15   2.0000      -0.678101       -18.4521
  16   2.0000      -0.590041       -16.0558
  17   2.0000      -0.575206       -15.6521
  18   2.0000      -0.543637       -14.7931
  19   2.0000      -0.496345       -13.5062
  20   2.0000      -0.474107       -12.9011
  21   2.0000      -0.449170       -12.2225
  22   2.0000      -0.443009       -12.0549
  23   2.0000      -0.413481       -11.2514
  24   2.0000      -0.397609       -10.8195
  25   2.0000      -0.384397       -10.4600
  26   2.0000      -0.335554        -9.1309
  27   2.0000      -0.320701        -8.7267
  28   2.0000      -0.307735        -8.3739
  29   0.0000       0.003760         0.1023
  30   0.0000       0.043104         1.1729
  31   0.0000       0.059212         1.6112
  32   0.0000       0.065906         1.7934
  33   0.0000       0.071959         1.9581

MULLIKEN ATOMIC CHARGES
-----------------------
   0 C :   -0.327896
   1 C :   -0.236794
   2 H :    0.153540
   3 H :    0.141525
   4 S :    0.882342
   5 O :   -0.457060
   6 O :   -0.407000
   7 F :   -0.121918
   8 H :    0.118740
   9 H :    0.125653
  10 H :    0.128869
Sum of atomic charges:    0.0000000

LOEWDIN ATOMIC CHARGES
----------------------
   0 C :   -0.310954
   1 C :   -0.381957
   2 H :    0.145466
   3 H :    0.139281
   4 S :    0.546185
   5 O :   -0.317096
   6 O :   -0.258838
   7 F :    0.074437
   8 H :    0.117670
   9 H :    0.124541
  10 H :    0.121264

  Mayer bond orders larger than 0.100000
B(  0-C ,  1-C ) :   0.9574 B(  0-C ,  8-H ) :   0.9693 B(  0-C ,  9-H ) :   0.9618
B(  0-C , 10-H ) :   0.9702 B(  1-C ,  2-H ) :   0.9429 B(  1-C ,  3-H ) :   0.9432
B(  1-C ,  4-S ) :   0.9047 B(  4-S ,  5-O ) :   1.8872 B(  4-S ,  6-O ) :   1.9397
B(  4-S ,  7-F ) :   1.1077

Dispersion correction           -0.015668358
FINAL SINGLE POINT ENERGY      -727.641799254497

DIPOLE MOMENT
-------------
                                X             Y             Z
Electronic contribution:      2.38796      -7.67852      -4.00876
Nuclear contribution   :     -3.70606       8.55465       4.82350
                        -----------------------------------------
Total Dipole Moment    :     -1.31810       0.87613       0.81474
                        -----------------------------------------
Magnitude (a.u.)       :      1.78011
Magnitude (Debye)      :      4.52468

Rotational constants in cm-1:     0.153201     0.080978     0.077494
Rotational constants in MHz :  4592.852844  2427.650814  2323.207507

                             ****ORCA TERMINATED NORMALLY****
TOTAL RUN TIME: 0 days 0 hours 0 minutes 26 seconds 464 msec
