                         Program Version 5.0.0 -  RELEASE  -
|  1> !B3LYP D3BJ RIJCOSX def2-TZVP def2/J TightSCF xyzfile
|  2>
|  3> *xyzfile 0 1 D2.xyz
|  4>
|  5> %MaxCore 64000
|  6>
|  7> %pal nprocs 18
|  8> end
|  9>
| 10> %scf
| 11>   MaxIter 150
| 12> end
| 13>
| 14>
| 15>                          ****END OF INPUT****

CARTESIAN COORDINATES (ANGSTROEM)
---------------------------------
  C      2.916324   -1.242589   -1.543125
  C      0.704661    1.443129   -4.503630
  C      1.728539    1.424320   -5.639443
  H      2.646718    1.953794   -5.381054
  H      1.299916    1.930613   -6.503614
  S      2.252625   -0.188115   -6.271840
  C      3.466585   -1.590971   -2.889082
  N      4.652275   -1.143164   -3.259692
  C      2.752264   -2.292043   -3.728029
  H      1.778364   -2.489604   -3.512738
  H      2.948612   -2.208544   -4.716813
  H      5.146723   -0.512508   -2.633852
  H      4.783030   -1.007203   -4.253498
  F      3.562607   -0.444464   -5.631552
  O      2.344944   -0.033742   -7.696501
  C      2.804084    0.290698   -1.359243
  C      1.052550    0.695659   -3.214915
  H     -0.232483    1.032925   -4.884449
  H      0.511700    2.495794   -4.267966
  C      2.388380    1.093669   -2.597108
  H      3.763425    0.674718   -0.999889
  H      2.094788    0.461222   -0.545756
  O      1.266058   -1.159177   -5.805365
  H      3.167316    1.013242   -3.359430
  H      2.357690    2.149375   -2.310997
  H      1.039284   -0.368429   -3.449329
  H      0.250787    0.865605   -2.488283
  H      1.940472   -1.716529   -1.441161
  H      3.558569   -1.663433   -0.766371

 Total Charge           Charge          ....    0
 Multiplicity           Mult            ....    1
 Number of Electrons    NEL             ....  112
 Basis Dimension        Dim             ....  505

ORBITAL ENERGIES
----------------

  NO   OCC          E(Eh)            E(eV)
   0   2.0000     -89.097541     -2424.4673
   1   2.0000     -24.788385      -674.5263
   2   2.0000     -19.141015      -520.8535
   3   2.0000     -19.131231      -520.5873
   4   2.0000     -14.311071      -389.4241
   5   2.0000     -10.228028      -278.3188
   6   2.0000     -10.193062      -277.3673
   7   2.0000     -10.181220      -277.0451
   8   2.0000     -10.175494      -276.8893
   9   2.0000     -10.173585      -276.8373
  10   2.0000     -10.168822      -276.7077
  11   2.0000     -10.168704      -276.7045
  12   2.0000     -10.093766      -274.6653
  13   2.0000      -8.141586      -221.5438
  14   2.0000      -6.108679      -166.2256
  15   2.0000      -6.101902      -166.0412
  16   2.0000      -6.101446      -166.0288
  17   2.0000      -1.361853       -37.0579
  18   2.0000      -1.113789       -30.3077
  19   2.0000      -1.020868       -27.7792
  20   2.0000      -0.932329       -25.3700
  21   2.0000      -0.835953       -22.7474
  22   2.0000      -0.800977       -21.7957
  23   2.0000      -0.761152       -20.7120
  24   2.0000      -0.734162       -19.9776
  25   2.0000      -0.709833       -19.3155
  26   2.0000      -0.680089       -18.5062
  27   2.0000      -0.628381       -17.0991
  28   2.0000      -0.595740       -16.2109
  29   2.0000      -0.575361       -15.6564
  30   2.0000      -0.570989       -15.5374
  31   2.0000      -0.558616       -15.2007
  32   2.0000      -0.548762       -14.9326
  33   2.0000      -0.523118       -14.2348
  34   2.0000      -0.493321       -13.4240
  35   2.0000      -0.490728       -13.3534
  36   2.0000      -0.477500       -12.9934
  37   2.0000      -0.465265       -12.6605
  38   2.0000      -0.452386       -12.3101
  39   2.0000      -0.444793       -12.1034
  40   2.0000      -0.435933       -11.8623
  41   2.0000      -0.418089       -11.3768
  42   2.0000      -0.404733       -11.0133
  43   2.0000      -0.390637       -10.6298
  44   2.0000      -0.386798       -10.5253
  45   2.0000      -0.382119       -10.3980
  46   2.0000      -0.368390       -10.0244
  47   2.0000      -0.357644        -9.7320
  48   2.0000      -0.348207        -9.4752
  49   2.0000      -0.336009        -9.1433
  50   2.0000      -0.333590        -9.0774
  51   2.0000      -0.328275        -8.9328
  52   2.0000      -0.321897        -8.7593
  53   2.0000      -0.316101        -8.6016
  54   2.0000      -0.313580        -8.5330
  55   2.0000      -0.192631        -5.2417
  56   0.0000       0.008857         0.2410
  57   0.0000       0.021152         0.5756
  58   0.0000       0.026809         0.7295
  59   0.0000       0.033282         0.9057
  60   0.0000       0.050770         1.3815

MULLIKEN ATOMIC CHARGES
-----------------------
   0 C :   -0.186738
   1 C :   -0.118266
   2 C :   -0.305687
   3 H :    0.138433
   4 H :    0.166928
   5 S :    0.919889
   6 C :    0.171283
   7 N :   -0.412213
   8 C :   -0.355445
   9 H :    0.078267
  10 H :    0.061234
  11 H :    0.216511
  12 H :    0.214695
  13 F :   -0.157463
  14 O :   -0.420267
  15 C :   -0.234765
  16 C :   -0.221874
  17 H :    0.116482
  18 H :    0.099354
  19 C :   -0.121894
  20 H :    0.101077
  21 H :    0.094532
  22 O :   -0.435371
  23 H :    0.065616
  24 H :    0.084854
  25 H :    0.137900
  26 H :    0.087213
  27 H :    0.108259
  28 H :    0.107458
Sum of atomic charges:    0.0000000

LOEWDIN ATOMIC CHARGES
----------------------
   0 C :   -0.210801
   1 C :   -0.274395
   2 C :   -0.362380
   3 H :    0.133600
   4 H :    0.148951
   5 S :    0.564300
   6 C :   -0.385158
   7 N :   -0.001078
   8 C :   -0.265423
   9 H :    0.103660
  10 H :    0.088861
  11 H :    0.165692
  12 H :    0.159423
  13 F :    0.051344
  14 O :   -0.257204
  15 C :   -0.254677
  16 C :   -0.264781
  17 H :    0.145495
  18 H :    0.142845
  19 C :   -0.266239
  20 H :    0.130416
  21 H :    0.136181
  22 O :   -0.255493
  23 H :    0.125483
  24 H :    0.133610
  25 H :    0.145406
  26 H :    0.136182
  27 H :    0.147056
  28 H :    0.139124

  Mayer bond orders larger than 0.100000
B(  0-C ,  6-C ) :   0.9530 B(  0-C , 15-C ) :   0.9298 B(  0-C , 27-H ) :   0.9734
B(  0-C , 28-H ) :   0.9803 B(  1-C ,  2-C ) :   0.9467 B(  1-C , 16-C ) :   0.9660
B(  1-C , 17-H ) :   0.9660 B(  1-C , 18-H ) :   0.9484 B(  2-C ,  3-H ) :   0.9466
B(  2-C ,  4-H ) :   0.9489 B(  2-C ,  5-S ) :   0.9039 B(  5-S , 13-F ) :   1.0479
B(  5-S , 14-O ) :   1.9658 B(  5-S , 22-O ) :   1.8640 B(  6-C ,  7-N ) :   1.1209
B(  6-C ,  8-C ) :   1.7276 B(  7-N , 11-H ) :   0.9359 B(  7-N , 12-H ) :   0.9243
B(  8-C ,  9-H ) :   1.0044 B(  8-C , 10-H ) :   1.0277 B( 15-C , 19-C ) :   0.9520
B( 15-C , 20-H ) :   0.9833 B( 15-C , 21-H ) :   0.9648 B( 16-C , 19-C ) :   0.9285
B( 16-C , 25-H ) :   0.9717 B( 16-C , 26-H ) :   0.9611 B( 19-C , 23-H ) :   0.9693
B( 19-C , 24-H ) :   0.9653

Dispersion correction           -0.060475685
FINAL SINGLE POINT ENERGY     -1017.564015366563

DIPOLE MOMENT
-------------
                                X             Y             Z
Electronic contribution:      3.48556      -4.26182     -18.27715
Nuclear contribution   :     -3.13969       6.14743      19.30799
                        -----------------------------------------
Total Dipole Moment    :      0.34588       1.88561       1.03084
                        -----------------------------------------
Magnitude (a.u.)       :      2.17665
Magnitude (Debye)      :      5.53260

Rotational constants in cm-1:     0.036460     0.018762     0.015014
Rotational constants in MHz :  1093.039020   562.475626   450.105862

                             ****ORCA TERMINATED NORMALLY****
TOTAL RUN TIME: 0 days 0 hours 0 minutes 55 seconds 452 msec
