                         Program Version 5.0.0 -  RELEASE  -
|  1> !B3LYP D3BJ RIJCOSX def2-TZVP def2/J TightSCF xyzfile
|  2>
|  3> *xyzfile 0 1 D3.xyz
|  4>
|  5> %MaxCore 64000
|  6>
|  7> %pal nprocs 18
|  8> end
|  9>
| 10> %scf
| 11>   MaxIter 150
| 12> end
| 13>
| 14>
| 15>                          ****END OF INPUT****

CARTESIAN COORDINATES (ANGSTROEM)
---------------------------------
  C      2.916324   -1.242589   -1.543125
  C      0.704661    1.443129   -4.503630
  C      1.728539    1.424320   -5.639443
  H      2.646718    1.953794   -5.381054
  H      1.299916    1.930613   -6.503614
  S      2.252625   -0.188115   -6.271840
  C      3.466585   -1.590971   -2.889082
  C      4.652275   -1.143164   -3.259692
  N      2.752264   -2.292043   -3.728029
  H      1.778364   -2.489604   -3.512738
  H      2.948612   -2.208544   -4.716813
  H      5.146723   -0.512508   -2.633852
  H      4.783030   -1.007203   -4.253498
  O      3.562607   -0.444464   -5.631552
  F      2.344944   -0.033742   -7.696501
  C      2.804084    0.290698   -1.359243
  C      1.052550    0.695659   -3.214915
  H     -0.232483    1.032925   -4.884449
  H      0.511700    2.495794   -4.267966
  C      2.388380    1.093669   -2.597108
  H      3.763425    0.674718   -0.999889
  H      2.094788    0.461222   -0.545756
  O      1.266058   -1.159177   -5.805365
  H      3.167316    1.013242   -3.359430
  H      2.357690    2.149375   -2.310997
  H      1.039284   -0.368429   -3.449329
  H      0.250787    0.865605   -2.488283
  H      1.940472   -1.716529   -1.441161
  H      3.558569   -1.663433   -0.766371

 Total Charge           Charge          ....    0
 Multiplicity           Mult            ....    1
 Number of Electrons    NEL             ....  112
 Basis Dimension        Dim             ....  505

ORBITAL ENERGIES
----------------

  NO   OCC          E(Eh)            E(eV)
   0   2.0000     -89.109887     -2424.8033
   1   2.0000     -24.814162      -675.2277
   2   2.0000     -19.146184      -520.9941
   3   2.0000     -19.137071      -520.7462
   4   2.0000     -14.284944      -388.7131
   5   2.0000     -10.234967      -278.5076
   6   2.0000     -10.198529      -277.5161
   7   2.0000     -10.168396      -276.6961
   8   2.0000     -10.162341      -276.5314
   9   2.0000     -10.160202      -276.4732
  10   2.0000     -10.158314      -276.4218
  11   2.0000     -10.155880      -276.3556
  12   2.0000     -10.066275      -273.9173
  13   2.0000      -8.154061      -221.8833
  14   2.0000      -6.120737      -166.5537
  15   2.0000      -6.114472      -166.3832
  16   2.0000      -6.114104      -166.3732
  17   2.0000      -1.399318       -38.0774
  18   2.0000      -1.113679       -30.3048
  19   2.0000      -1.016244       -27.6534
  20   2.0000      -0.910170       -24.7670
  21   2.0000      -0.838418       -22.8145
  22   2.0000      -0.794419       -21.6172
  23   2.0000      -0.762602       -20.7515
  24   2.0000      -0.728239       -19.8164
  25   2.0000      -0.697848       -18.9894
  26   2.0000      -0.672233       -18.2924
  27   2.0000      -0.632968       -17.2239
  28   2.0000      -0.602306       -16.3896
  29   2.0000      -0.597611       -16.2618
  30   2.0000      -0.572494       -15.5784
  31   2.0000      -0.562764       -15.3136
  32   2.0000      -0.535221       -14.5641
  33   2.0000      -0.503172       -13.6920
  34   2.0000      -0.494881       -13.4664
  35   2.0000      -0.493297       -13.4233
  36   2.0000      -0.475827       -12.9479
  37   2.0000      -0.467725       -12.7274
  38   2.0000      -0.448732       -12.2106
  39   2.0000      -0.435640       -11.8544
  40   2.0000      -0.426177       -11.5969
  41   2.0000      -0.412522       -11.2253
  42   2.0000      -0.400347       -10.8940
  43   2.0000      -0.384666       -10.4673
  44   2.0000      -0.379234       -10.3195
  45   2.0000      -0.363636        -9.8950
  46   2.0000      -0.358562        -9.7570
  47   2.0000      -0.350186        -9.5291
  48   2.0000      -0.341461        -9.2916
  49   2.0000      -0.335348        -9.1253
  50   2.0000      -0.328000        -8.9253
  51   2.0000      -0.320885        -8.7317
  52   2.0000      -0.315848        -8.5947
  53   2.0000      -0.307471        -8.3667
  54   2.0000      -0.298458        -8.1215
  55   2.0000      -0.162592        -4.4244
  56   0.0000       0.008589         0.2337
  57   0.0000       0.014470         0.3937
  58   0.0000       0.040478         1.1015
  59   0.0000       0.044579         1.2130
  60   0.0000       0.048903         1.3307

MULLIKEN ATOMIC CHARGES
-----------------------
   0 C :   -0.199755
   1 C :   -0.131410
   2 C :   -0.293248
   3 H :    0.161086
   4 H :    0.141638
   5 S :    0.905627
   6 C :    0.173448
   7 C :   -0.402471
   8 N :   -0.371160
   9 H :    0.200759
  10 H :    0.219898
  11 H :    0.063187
  12 H :    0.104900
  13 O :   -0.454783
  14 F :   -0.101553
  15 C :   -0.202761
  16 C :   -0.195876
  17 H :    0.109721
  18 H :    0.105857
  19 C :   -0.133709
  20 H :    0.101463
  21 H :    0.078185
  22 O :   -0.450433
  23 H :    0.120064
  24 H :    0.076102
  25 H :    0.091489
  26 H :    0.088843
  27 H :    0.081967
  28 H :    0.112926
Sum of atomic charges:   -0.0000000

LOEWDIN ATOMIC CHARGES
----------------------
   0 C :   -0.212563
   1 C :   -0.271235
   2 C :   -0.362714
   3 H :    0.144867
   4 H :    0.135306
   5 S :    0.554952
   6 C :   -0.383596
   7 C :   -0.288221
   8 N :    0.023986
   9 H :    0.156634
  10 H :    0.160688
  11 H :    0.098443
  12 H :    0.098563
  13 O :   -0.283359
  14 F :    0.105554
  15 C :   -0.247090
  16 C :   -0.263224
  17 H :    0.142804
  18 H :    0.145799
  19 C :   -0.264735
  20 H :    0.135898
  21 H :    0.130165
  22 O :   -0.277563
  23 H :    0.140752
  24 H :    0.130717
  25 H :    0.134954
  26 H :    0.136189
  27 H :    0.130879
  28 H :    0.147149

  Mayer bond orders larger than 0.100000
B(  0-C ,  6-C ) :   0.9327 B(  0-C , 15-C ) :   0.9549 B(  0-C , 27-H ) :   0.9738
B(  0-C , 28-H ) :   0.9787 B(  1-C ,  2-C ) :   0.9561 B(  1-C , 16-C ) :   0.9772
B(  1-C , 17-H ) :   0.9679 B(  1-C , 18-H ) :   0.9499 B(  2-C ,  3-H ) :   0.9418
B(  2-C ,  4-H ) :   0.9446 B(  2-C ,  5-S ) :   0.9072 B(  5-S , 13-O ) :   1.8137
B(  5-S , 14-F ) :   1.1469 B(  5-S , 22-O ) :   1.8555 B(  6-C ,  7-C ) :   1.6936
B(  6-C ,  8-N ) :   1.2067 B(  7-C , 11-H ) :   1.0071 B(  7-C , 12-H ) :   0.9953
B(  8-N ,  9-H ) :   0.9300 B(  8-N , 10-H ) :   0.9136 B( 15-C , 19-C ) :   0.9808
B( 15-C , 20-H ) :   0.9709 B( 15-C , 21-H ) :   0.9667 B( 16-C , 19-C ) :   0.9347
B( 16-C , 25-H ) :   0.9646 B( 16-C , 26-H ) :   0.9629 B( 19-C , 23-H ) :   0.9636
B( 19-C , 24-H ) :   0.9610

Dispersion correction           -0.061017745
FINAL SINGLE POINT ENERGY     -1017.547279058967

DIPOLE MOMENT
-------------
                                X             Y             Z
Electronic contribution:      0.05396      -4.18922     -22.54976
Nuclear contribution   :     -1.50273       5.82595      21.72909
                        -----------------------------------------
Total Dipole Moment    :     -1.44876       1.63673      -0.82067
                        -----------------------------------------
Magnitude (a.u.)       :      2.33480
Magnitude (Debye)      :      5.93459

Rotational constants in cm-1:     0.036883     0.018294     0.014745
Rotational constants in MHz :  1105.724679   548.429785   442.050481

                             ****ORCA TERMINATED NORMALLY****
TOTAL RUN TIME: 0 days 0 hours 0 minutes 56 seconds 197 msec
