                         Program Version 5.0.0 -  RELEASE  -
|  1> !B3LYP D3BJ RIJCOSX def2-TZVP def2/J TightSCF xyzfile
|  2>
|  3> *xyzfile 0 1 D4.xyz
|  4>
|  5> %MaxCore 64000
|  6>
|  7> %pal nprocs 18
|  8> end
|  9>
| 10> %scf
| 11>   MaxIter 150
| 12> end
| 13>
| 14>
| 15>                          ****END OF INPUT****

CARTESIAN COORDINATES (ANGSTROEM)
---------------------------------
  C      2.916324   -1.242589   -1.543125
  C      0.704661    1.443129   -4.503630
  C      1.728539    1.424320   -5.639443
  H      2.646718    1.953794   -5.381054
  H      1.299916    1.930613   -6.503614
  S      2.252625   -0.188115   -6.271840
  C      3.466585   -1.590971   -2.889082
  N      4.652275   -1.143164   -3.259692
  C      2.752264   -2.292043   -3.728029
  H      1.778364   -2.489604   -3.512738
  H      2.948612   -2.208544   -4.716813
  H      5.146723   -0.512508   -2.633852
  H      4.783030   -1.007203   -4.253498
  O      3.562607   -0.444464   -5.631552
  F      2.344944   -0.033742   -7.696501
  C      2.804084    0.290698   -1.359243
  C      1.052550    0.695659   -3.214915
  H     -0.232483    1.032925   -4.884449
  H      0.511700    2.495794   -4.267966
  C      2.388380    1.093669   -2.597108
  H      3.763425    0.674718   -0.999889
  H      2.094788    0.461222   -0.545756
  O      1.266058   -1.159177   -5.805365
  H      3.167316    1.013242   -3.359430
  H      2.357690    2.149375   -2.310997
  H      1.039284   -0.368429   -3.449329
  H      0.250787    0.865605   -2.488283
  H      1.940472   -1.716529   -1.441161
  H      3.558569   -1.663433   -0.766371

 Total Charge           Charge          ....    0
 Multiplicity           Mult            ....    1
 Number of Electrons    NEL             ....  112
 Basis Dimension        Dim             ....  505

ORBITAL ENERGIES
----------------

  NO   OCC          E(Eh)            E(eV)
   0   2.0000     -89.105808     -2424.6923
   1   2.0000     -24.810366      -675.1244
   2   2.0000     -19.137192      -520.7495
   3   2.0000     -19.133659      -520.6533
   4   2.0000     -14.283532      -388.6747
   5   2.0000     -10.231753      -278.4202
   6   2.0000     -10.194666      -277.4110
   7   2.0000     -10.163133      -276.5529
   8   2.0000     -10.162456      -276.5345
   9   2.0000     -10.161346      -276.5043
  10   2.0000     -10.159575      -276.4561
  11   2.0000     -10.153573      -276.2928
  12   2.0000     -10.070076      -274.0207
  13   2.0000      -8.149627      -221.7626
  14   2.0000      -6.116320      -166.4335
  15   2.0000      -6.109991      -166.2613
  16   2.0000      -6.109795      -166.2560
  17   2.0000      -1.395418       -37.9713
  18   2.0000      -1.106685       -30.1144
  19   2.0000      -1.010427       -27.4951
  20   2.0000      -0.906230       -24.6598
  21   2.0000      -0.834826       -22.7168
  22   2.0000      -0.792965       -21.5777
  23   2.0000      -0.757819       -20.6213
  24   2.0000      -0.727833       -19.8053
  25   2.0000      -0.704391       -19.1675
  26   2.0000      -0.670055       -18.2331
  27   2.0000      -0.625601       -17.0235
  28   2.0000      -0.599064       -16.3014
  29   2.0000      -0.593358       -16.1461
  30   2.0000      -0.569735       -15.5033
  31   2.0000      -0.561419       -15.2770
  32   2.0000      -0.533469       -14.5164
  33   2.0000      -0.506041       -13.7701
  34   2.0000      -0.494552       -13.4574
  35   2.0000      -0.491784       -13.3821
  36   2.0000      -0.468235       -12.7413
  37   2.0000      -0.454341       -12.3633
  38   2.0000      -0.449288       -12.2257
  39   2.0000      -0.439486       -11.9590
  40   2.0000      -0.425563       -11.5802
  41   2.0000      -0.407792       -11.0966
  42   2.0000      -0.398853       -10.8534
  43   2.0000      -0.382608       -10.4113
  44   2.0000      -0.377226       -10.2648
  45   2.0000      -0.369249       -10.0478
  46   2.0000      -0.357442        -9.7265
  47   2.0000      -0.349255        -9.5037
  48   2.0000      -0.338383        -9.2079
  49   2.0000      -0.328337        -8.9345
  50   2.0000      -0.323617        -8.8061
  51   2.0000      -0.317692        -8.6448
  52   2.0000      -0.313979        -8.5438
  53   2.0000      -0.303505        -8.2588
  54   2.0000      -0.294713        -8.0195
  55   2.0000      -0.169716        -4.6182
  56   0.0000       0.012871         0.3502
  57   0.0000       0.016984         0.4622
  58   0.0000       0.034349         0.9347
  59   0.0000       0.045995         1.2516
  60   0.0000       0.054405         1.4804

MULLIKEN ATOMIC CHARGES
-----------------------
   0 C :   -0.189198
   1 C :   -0.133210
   2 C :   -0.290411
   3 H :    0.152108
   4 H :    0.141527
   5 S :    0.919903
   6 C :    0.184718
   7 N :   -0.417980
   8 C :   -0.360465
   9 H :    0.064874
  10 H :    0.080802
  11 H :    0.204136
  12 H :    0.237859
  13 O :   -0.482794
  14 F :   -0.102602
  15 C :   -0.233191
  16 C :   -0.197212
  17 H :    0.110320
  18 H :    0.102433
  19 C :   -0.136583
  20 H :    0.097314
  21 H :    0.086953
  22 O :   -0.427851
  23 H :    0.094855
  24 H :    0.076311
  25 H :    0.131268
  26 H :    0.083890
  27 H :    0.101712
  28 H :    0.100514
Sum of atomic charges:   -0.0000000

LOEWDIN ATOMIC CHARGES
----------------------
   0 C :   -0.213922
   1 C :   -0.271763
   2 C :   -0.364196
   3 H :    0.141834
   4 H :    0.134915
   5 S :    0.562988
   6 C :   -0.383695
   7 N :    0.001348
   8 C :   -0.272342
   9 H :    0.098197
  10 H :    0.093833
  11 H :    0.160549
  12 H :    0.165711
  13 O :   -0.301681
  14 F :    0.104792
  15 C :   -0.256200
  16 C :   -0.261442
  17 H :    0.143691
  18 H :    0.144375
  19 C :   -0.265950
  20 H :    0.129859
  21 H :    0.133361
  22 O :   -0.251434
  23 H :    0.133424
  24 H :    0.130683
  25 H :    0.146331
  26 H :    0.135265
  27 H :    0.144596
  28 H :    0.136870

  Mayer bond orders larger than 0.100000
B(  0-C ,  6-C ) :   0.9650 B(  0-C , 15-C ) :   0.9312 B(  0-C , 27-H ) :   0.9734
B(  0-C , 28-H ) :   0.9812 B(  1-C ,  2-C ) :   0.9553 B(  1-C , 16-C ) :   0.9715
B(  1-C , 17-H ) :   0.9674 B(  1-C , 18-H ) :   0.9492 B(  2-C ,  3-H ) :   0.9426
B(  2-C ,  4-H ) :   0.9460 B(  2-C ,  5-S ) :   0.9077 B(  5-S , 13-O ) :   1.7972
B(  5-S , 14-F ) :   1.1439 B(  5-S , 22-O ) :   1.8899 B(  6-C ,  7-N ) :   1.1379
B(  6-C ,  8-C ) :   1.7291 B(  7-N , 11-H ) :   0.9400 B(  7-N , 12-H ) :   0.9097
B(  8-C ,  9-H ) :   1.0048 B(  8-C , 10-H ) :   1.0127 B( 15-C , 19-C ) :   0.9559
B( 15-C , 20-H ) :   0.9817 B( 15-C , 21-H ) :   0.9651 B( 16-C , 19-C ) :   0.9261
B( 16-C , 25-H ) :   0.9683 B( 16-C , 26-H ) :   0.9622 B( 19-C , 23-H ) :   0.9679
B( 19-C , 24-H ) :   0.9629

Dispersion correction           -0.061142582
FINAL SINGLE POINT ENERGY     -1017.549966055081

DIPOLE MOMENT
-------------
                                X             Y             Z
Electronic contribution:      1.36406      -3.47234     -22.23321
Nuclear contribution   :     -1.74760       5.67788      21.66873
                        -----------------------------------------
Total Dipole Moment    :     -0.38355       2.20553      -0.56448
                        -----------------------------------------
Magnitude (a.u.)       :      2.30871
Magnitude (Debye)      :      5.86827

Rotational constants in cm-1:     0.036818     0.018222     0.014682
Rotational constants in MHz :  1103.783048   546.296792   440.157914

                             ****ORCA TERMINATED NORMALLY****
TOTAL RUN TIME: 0 days 0 hours 0 minutes 46 seconds 144 msec
