                         Program Version 5.0.0 -  RELEASE  -
|  1> !B3LYP D3BJ RIJCOSX def2-TZVP def2/J TightSCF xyzfile
|  2>
|  3> *xyzfile 0 1 D5.xyz
|  4>
|  5> %MaxCore 64000
|  6>
|  7> %pal nprocs 18
|  8> end
|  9>
| 10> %scf
| 11>   MaxIter 150
| 12> end
| 13>
| 14>
| 15>                          ****END OF INPUT****

CARTESIAN COORDINATES (ANGSTROEM)
---------------------------------
  C      2.916324   -1.242589   -1.543125
  C      0.704661    1.443129   -4.503630
  C      1.728539    1.424320   -5.639443
  H      2.646718    1.953794   -5.381054
  H      1.299916    1.930613   -6.503614
  S      2.252625   -0.188115   -6.271840
  C      3.466585   -1.590971   -2.889082
  C      4.652275   -1.143164   -3.259692
  N      2.752264   -2.292043   -3.728029
  H      1.778364   -2.489604   -3.512738
  H      2.948612   -2.208544   -4.716813
  H      5.146723   -0.512508   -2.633852
  H      4.783030   -1.007203   -4.253498
  O      3.562607   -0.444464   -5.631552
  O      2.344944   -0.033742   -7.696501
  C      2.804084    0.290698   -1.359243
  C      1.052550    0.695659   -3.214915
  H     -0.232483    1.032925   -4.884449
  H      0.511700    2.495794   -4.267966
  C      2.388380    1.093669   -2.597108
  H      3.763425    0.674718   -0.999889
  H      2.094788    0.461222   -0.545756
  F      1.266058   -1.159177   -5.805365
  H      3.167316    1.013242   -3.359430
  H      2.357690    2.149375   -2.310997
  H      1.039284   -0.368429   -3.449329
  H      0.250787    0.865605   -2.488283
  H      1.940472   -1.716529   -1.441161
  H      3.558569   -1.663433   -0.766371

 Total Charge           Charge          ....    0
 Multiplicity           Mult            ....    1
 Number of Electrons    NEL             ....  112
 Basis Dimension        Dim             ....  505

ORBITAL ENERGIES
----------------

  NO   OCC          E(Eh)            E(eV)
   0   2.0000     -89.105744     -2424.6906
   1   2.0000     -24.804282      -674.9588
   2   2.0000     -19.147470      -521.0292
   3   2.0000     -19.133851      -520.6586
   4   2.0000     -14.302860      -389.2006
   5   2.0000     -10.232492      -278.4403
   6   2.0000     -10.203435      -277.6496
   7   2.0000     -10.180749      -277.0323
   8   2.0000     -10.172499      -276.8078
   9   2.0000     -10.167929      -276.6834
  10   2.0000     -10.166474      -276.6438
  11   2.0000     -10.165091      -276.6062
  12   2.0000     -10.076204      -274.1875
  13   2.0000      -8.149987      -221.7724
  14   2.0000      -6.116928      -166.4501
  15   2.0000      -6.110248      -166.2683
  16   2.0000      -6.109932      -166.2597
  17   2.0000      -1.382053       -37.6076
  18   2.0000      -1.117522       -30.4093
  19   2.0000      -1.020987       -27.7825
  20   2.0000      -0.925999       -25.1977
  21   2.0000      -0.843518       -22.9533
  22   2.0000      -0.800161       -21.7735
  23   2.0000      -0.762910       -20.7598
  24   2.0000      -0.728235       -19.8163
  25   2.0000      -0.705348       -19.1935
  26   2.0000      -0.678924       -18.4745
  27   2.0000      -0.638651       -17.3786
  28   2.0000      -0.602784       -16.4026
  29   2.0000      -0.593641       -16.1538
  30   2.0000      -0.578861       -15.7516
  31   2.0000      -0.557341       -15.1660
  32   2.0000      -0.544907       -14.8277
  33   2.0000      -0.511520       -13.9192
  34   2.0000      -0.498439       -13.5632
  35   2.0000      -0.493767       -13.4361
  36   2.0000      -0.476936       -12.9781
  37   2.0000      -0.470526       -12.8037
  38   2.0000      -0.456530       -12.4228
  39   2.0000      -0.447708       -12.1828
  40   2.0000      -0.432719       -11.7749
  41   2.0000      -0.418857       -11.3977
  42   2.0000      -0.402662       -10.9570
  43   2.0000      -0.389352       -10.5948
  44   2.0000      -0.388275       -10.5655
  45   2.0000      -0.377212       -10.2645
  46   2.0000      -0.370699       -10.0872
  47   2.0000      -0.352845        -9.6014
  48   2.0000      -0.350363        -9.5339
  49   2.0000      -0.340451        -9.2641
  50   2.0000      -0.333680        -9.0799
  51   2.0000      -0.328432        -8.9371
  52   2.0000      -0.323045        -8.7905
  53   2.0000      -0.310368        -8.4455
  54   2.0000      -0.306714        -8.3461
  55   2.0000      -0.174757        -4.7554
  56   0.0000      -0.002575        -0.0701
  57   0.0000       0.025094         0.6828
  58   0.0000       0.030450         0.8286
  59   0.0000       0.041063         1.1174
  60   0.0000       0.046449         1.2639

MULLIKEN ATOMIC CHARGES
-----------------------
   0 C :   -0.197689
   1 C :   -0.180575
   2 C :   -0.269421
   3 H :    0.161843
   4 H :    0.160154
   5 S :    0.902399
   6 C :    0.171413
   7 C :   -0.383529
   8 N :   -0.397729
   9 H :    0.198884
  10 H :    0.211038
  11 H :    0.067339
  12 H :    0.114454
  13 O :   -0.458144
  14 O :   -0.410668
  15 C :   -0.209747
  16 C :   -0.197583
  17 H :    0.115732
  18 H :    0.108027
  19 C :   -0.119726
  20 H :    0.105596
  21 H :    0.081119
  22 F :   -0.131237
  23 H :    0.123392
  24 H :    0.083033
  25 H :    0.056044
  26 H :    0.096402
  27 H :    0.081240
  28 H :    0.117938
Sum of atomic charges:    0.0000000

LOEWDIN ATOMIC CHARGES
----------------------
   0 C :   -0.212768
   1 C :   -0.282835
   2 C :   -0.353991
   3 H :    0.148841
   4 H :    0.144122
   5 S :    0.556652
   6 C :   -0.384709
   7 C :   -0.272930
   8 N :    0.011597
   9 H :    0.152790
  10 H :    0.155782
  11 H :    0.100164
  12 H :    0.100933
  13 O :   -0.283113
  14 O :   -0.251369
  15 C :   -0.246492
  16 C :   -0.267508
  17 H :    0.138415
  18 H :    0.145956
  19 C :   -0.263322
  20 H :    0.137171
  21 H :    0.130926
  22 F :    0.078346
  23 H :    0.142349
  24 H :    0.133113
  25 H :    0.125232
  26 H :    0.137739
  27 H :    0.130324
  28 H :    0.148586

  Mayer bond orders larger than 0.100000
B(  0-C ,  6-C ) :   0.9311 B(  0-C , 15-C ) :   0.9533 B(  0-C , 27-H ) :   0.9741
B(  0-C , 28-H ) :   0.9786 B(  1-C ,  2-C ) :   0.9572 B(  1-C , 16-C ) :   0.9531
B(  1-C , 17-H ) :   0.9792 B(  1-C , 18-H ) :   0.9500 B(  2-C ,  3-H ) :   0.9429
B(  2-C ,  4-H ) :   0.9465 B(  2-C ,  5-S ) :   0.9084 B(  5-S , 13-O ) :   1.7921
B(  5-S , 14-O ) :   1.9755 B(  5-S , 22-F ) :   1.0841 B(  6-C ,  7-C ) :   1.7141
B(  6-C ,  8-N ) :   1.1676 B(  7-C , 11-H ) :   1.0070 B(  7-C , 12-H ) :   0.9927
B(  8-N ,  9-H ) :   0.9311 B(  8-N , 10-H ) :   0.9119 B( 15-C , 19-C ) :   0.9765
B( 15-C , 20-H ) :   0.9708 B( 15-C , 21-H ) :   0.9674 B( 16-C , 19-C ) :   0.9135
B( 16-C , 25-H ) :   0.9775 B( 16-C , 26-H ) :   0.9630 B( 19-C , 23-H ) :   0.9637
B( 19-C , 24-H ) :   0.9609

Dispersion correction           -0.060505844
FINAL SINGLE POINT ENERGY     -1017.552105416648

DIPOLE MOMENT
-------------
                                X             Y             Z
Electronic contribution:     -1.71611      -6.09111     -19.04472
Nuclear contribution   :     -0.26930       7.11259      19.56706
                        -----------------------------------------
Total Dipole Moment    :     -1.98541       1.02148       0.52235
                        -----------------------------------------
Magnitude (a.u.)       :      2.29306
Magnitude (Debye)      :      5.82850

Rotational constants in cm-1:     0.036519     0.018683     0.015073
Rotational constants in MHz :  1094.801738   560.111127   451.890222

                             ****ORCA TERMINATED NORMALLY****
TOTAL RUN TIME: 0 days 0 hours 1 minutes 3 seconds 93 msec
