                         Program Version 5.0.0 -  RELEASE  -
|  1> !B3LYP D3BJ RIJCOSX def2-TZVPD def2/J TightSCF
|  2> *xyz -1 1
|  3> C         -0.91495        0.61511        2.50554
|  4> C         -0.05915        1.50352        3.41058
|  5> H          0.36536        2.34431        2.86116
|  6> H         -0.69226        1.92021        4.19898
|  7> C          1.08303        0.74964        4.08571
|  8> O          2.22817        1.26348        4.01983
|  9> O          0.81003       -0.34541        4.63627
| 10> H         -0.30401        0.20228        1.73015
| 11> H         -1.69811        1.19946        2.06954
| 12> H         -1.34124       -0.17772        3.08397
| 13> *
| 14>
| 15> %MaxCore 64000
| 16>
| 17> %pal nprocs 4
| 18> end
| 19>
| 20> %scf
| 21>   MaxIter 150
| 22> end
| 23>
| 24>
| 25>                          ****END OF INPUT****

CARTESIAN COORDINATES (ANGSTROEM)
---------------------------------
  C     -0.914950    0.615110    2.505540
  C     -0.059150    1.503520    3.410580
  H      0.365360    2.344310    2.861160
  H     -0.692260    1.920210    4.198980
  C      1.083030    0.749640    4.085710
  O      2.228170    1.263480    4.019830
  O      0.810030   -0.345410    4.636270
  H     -0.304010    0.202280    1.730150
  H     -1.698110    1.199460    2.069540
  H     -1.341240   -0.177720    3.083970

 Total Charge           Charge          ....   -1
 Multiplicity           Mult            ....    1
 Number of Electrons    NEL             ....   40
 Basis Dimension        Dim             ....  236

ORBITAL ENERGIES
----------------

  NO   OCC          E(Eh)            E(eV)
   0   2.0000     -18.861082      -513.2361
   1   2.0000     -18.860523      -513.2209
   2   2.0000     -10.050355      -273.4841
   3   2.0000     -10.003040      -272.1965
   4   2.0000      -9.993526      -271.9377
   5   2.0000      -0.819959       -22.3122
   6   2.0000      -0.728358       -19.8196
   7   2.0000      -0.604177       -16.4405
   8   2.0000      -0.473886       -12.8951
   9   2.0000      -0.319355        -8.6901
  10   2.0000      -0.292295        -7.9538
  11   2.0000      -0.260077        -7.0771
  12   2.0000      -0.229428        -6.2431
  13   2.0000      -0.214528        -5.8376
  14   2.0000      -0.207260        -5.6398
  15   2.0000      -0.178782        -4.8649
  16   2.0000      -0.160814        -4.3760
  17   2.0000      -0.049519        -1.3475
  18   2.0000      -0.042243        -1.1495
  19   2.0000      -0.028412        -0.7731
  20   0.0000       0.133100         3.6218
  21   0.0000       0.159029         4.3274
  22   0.0000       0.173739         4.7277
  23   0.0000       0.183383         4.9901
  24   0.0000       0.207294         5.6408

MULLIKEN ATOMIC CHARGES
-----------------------
   0 C :   -0.987718
   1 C :    0.004674
   2 H :    0.162475
   3 H :    0.155820
   4 C :    0.363766
   5 O :   -0.737822
   6 O :   -0.736851
   7 H :    0.276911
   8 H :    0.266683
   9 H :    0.232062
Sum of atomic charges:   -1.0000000

LOEWDIN ATOMIC CHARGES
----------------------
   0 C :   -0.129221
   1 C :   -0.208711
   2 H :    0.084165
   3 H :    0.092347
   4 C :   -0.775448
   5 O :   -0.110685
   6 O :   -0.101629
   7 H :    0.058317
   8 H :    0.039174
   9 H :    0.051691

  Mayer bond orders larger than 0.100000
B(  0-C ,  1-C ) :   0.5766 B(  0-C ,  7-H ) :   0.9623 B(  0-C ,  8-H ) :   0.9535
B(  0-C ,  9-H ) :   1.0402 B(  1-C ,  2-H ) :   1.0318 B(  1-C ,  3-H ) :   0.9488
B(  1-C ,  4-C ) :   0.9299 B(  4-C ,  5-O ) :   1.4298 B(  4-C ,  6-O ) :   1.4420

Dispersion correction           -0.010966401
FINAL SINGLE POINT ENERGY      -267.817484942034

DIPOLE MOMENT
-------------
                                X             Y             Z
Electronic contribution:      4.74443      -1.01594       3.37196
Nuclear contribution   :     -6.38408       1.63097      -4.40540
                        -----------------------------------------
Total Dipole Moment    :     -1.63965       0.61503      -1.03344
                        -----------------------------------------
Magnitude (a.u.)       :      2.03340
Magnitude (Debye)      :      5.16848

Rotational constants in cm-1:     0.319732     0.134414     0.104753
Rotational constants in MHz :  9585.336550  4029.633034  3140.404334

                             ****ORCA TERMINATED NORMALLY****
TOTAL RUN TIME: 0 days 0 hours 0 minutes 30 seconds 279 msec
