                         Program Version 5.0.0 -  RELEASE  -
|  1> !B3LYP D3BJ RIJCOSX def2-TZVPD def2/J TightSCF
|  2> *xyz 1 1
|  3> C          4.60295       -2.44010        2.63478
|  4> C          3.86085       -1.59157        3.62289
|  5> N          2.75650       -2.04616        4.16633
|  6> N          4.25433       -0.36291        3.86046
|  7> H          3.56526        0.31099        4.16898
|  8> H          5.05429       -0.01606        3.33784
|  9> H          2.43970       -2.97389        3.89740
| 10> H          2.06687       -1.41253        4.54981
| 11> C          3.74469       -2.58056        1.36188
| 12> H          5.56156       -1.97135        2.40708
| 13> H          4.81050       -3.42255        3.06310
| 14> H          4.26314       -3.18477        0.64702
| 15> H          3.56325       -1.61180        0.94535
| 16> H          2.81197       -3.04259        1.60980
| 17> *
| 18>
| 19> %MaxCore 64000
| 20>
| 21> %pal nprocs 4
| 22> end
| 23>
| 24> %scf
| 25>   MaxIter 150
| 26> end
| 27>
| 28>
| 29>                          ****END OF INPUT****

CARTESIAN COORDINATES (ANGSTROEM)
---------------------------------
  C      4.602950   -2.440100    2.634780
  C      3.860850   -1.591570    3.622890
  N      2.756500   -2.046160    4.166330
  N      4.254330   -0.362910    3.860460
  H      3.565260    0.310990    4.168980
  H      5.054290   -0.016060    3.337840
  H      2.439700   -2.973890    3.897400
  H      2.066870   -1.412530    4.549810
  C      3.744690   -2.580560    1.361880
  H      5.561560   -1.971350    2.407080
  H      4.810500   -3.422550    3.063100
  H      4.263140   -3.184770    0.647020
  H      3.563250   -1.611800    0.945350
  H      2.811970   -3.042590    1.609800

 Total Charge           Charge          ....    1
 Multiplicity           Mult            ....    1
 Number of Electrons    NEL             ....   40
 Basis Dimension        Dim             ....  266

ORBITAL ENERGIES
----------------

  NO   OCC          E(Eh)            E(eV)
   0   2.0000     -14.560799      -396.2195
   1   2.0000     -14.559781      -396.1918
   2   2.0000     -10.490828      -285.4700
   3   2.0000     -10.371133      -282.2129
   4   2.0000     -10.329264      -281.0736
   5   2.0000      -1.208442       -32.8834
   6   2.0000      -1.111738       -30.2519
   7   2.0000      -0.971668       -26.4404
   8   2.0000      -0.862084       -23.4585
   9   2.0000      -0.817166       -22.2362
  10   2.0000      -0.773167       -21.0389
  11   2.0000      -0.754001       -20.5174
  12   2.0000      -0.699052       -19.0222
  13   2.0000      -0.663555       -18.0563
  14   2.0000      -0.626876       -17.0582
  15   2.0000      -0.601892       -16.3783
  16   2.0000      -0.551267       -15.0007
  17   2.0000      -0.545439       -14.8422
  18   2.0000      -0.533495       -14.5171
  19   2.0000      -0.496661       -13.5148
  20   0.0000      -0.219240        -5.9658
  21   0.0000      -0.170800        -4.6477
  22   0.0000      -0.130021        -3.5381
  23   0.0000      -0.124832        -3.3969
  24   0.0000      -0.100661        -2.7391

MULLIKEN ATOMIC CHARGES
-----------------------
   0 C :   -0.300812
   1 C :    0.582889
   2 N :   -0.302886
   3 N :   -0.271106
   4 H :    0.221406
   5 H :    0.233574
   6 H :    0.233716
   7 H :    0.202177
   8 C :   -1.079313
   9 H :    0.253311
  10 H :    0.263017
  11 H :    0.295164
  12 H :    0.341953
  13 H :    0.326913
Sum of atomic charges:    1.0000000

LOEWDIN ATOMIC CHARGES
----------------------
   0 C :   -0.135094
   1 C :   -0.369105
   2 N :    0.230816
   3 N :    0.232999
   4 H :    0.146447
   5 H :    0.148473
   6 H :    0.147928
   7 H :    0.148535
   8 C :   -0.046755
   9 H :    0.123252
  10 H :    0.133030
  11 H :    0.086373
  12 H :    0.083037
  13 H :    0.070063

  Mayer bond orders larger than 0.100000
B(  0-C ,  1-C ) :   0.8580 B(  0-C ,  8-C ) :   0.6193 B(  0-C ,  9-H ) :   0.9679
B(  0-C , 10-H ) :   0.9715 B(  1-C ,  2-N ) :   1.2432 B(  1-C ,  3-N ) :   1.2668
B(  2-N ,  6-H ) :   0.9291 B(  2-N ,  7-H ) :   0.9832 B(  3-N ,  4-H ) :   0.9538
B(  3-N ,  5-H ) :   0.9351 B(  8-C , 11-H ) :   0.9869 B(  8-C , 12-H ) :   0.9589
B(  8-C , 13-H ) :   0.9169

Dispersion correction           -0.016931780
FINAL SINGLE POINT ENERGY      -228.989838627643

DIPOLE MOMENT
-------------
                                X             Y             Z
Electronic contribution:     -0.23166       1.78021       3.72165
Nuclear contribution   :     -0.22400      -1.16268      -3.30447
                        -----------------------------------------
Total Dipole Moment    :     -0.45566       0.61753       0.41718
                        -----------------------------------------
Magnitude (a.u.)       :      0.87350
Magnitude (Debye)      :      2.22027

Rotational constants in cm-1:     0.258103     0.130571     0.102508
Rotational constants in MHz :  7737.732062  3914.431392  3073.119154

                             ****ORCA TERMINATED NORMALLY****
TOTAL RUN TIME: 0 days 0 hours 0 minutes 34 seconds 998 msec
