                         Program Version 5.0.0 -  RELEASE  -
|  1> !B3LYP D3BJ RIJCOSX def2-TZVPD def2/J TightSCF xyzfile
|  2>
|  3> *xyzfile 0 1 B.xyz
|  4>
|  5> %MaxCore 64000
|  6>
|  7> %pal nprocs 4
|  8> end
|  9>
| 10> %scf
| 11>   MaxIter 150
| 12> end
| 13>
| 14>
| 15>                          ****END OF INPUT****

CARTESIAN COORDINATES (ANGSTROEM)
---------------------------------
  C      4.602954   -2.440100    2.634780
  C     -0.914947    0.615112    2.505538
  C     -0.059146    1.503524    3.410578
  H      0.365364    2.344315    2.861161
  H     -0.692261    1.920207    4.198985
  C      1.083027    0.749640    4.085705
  C      3.860851   -1.591565    3.622893
  N      2.756502   -2.046159    4.166333
  N      4.254325   -0.362905    3.860455
  H      3.565256    0.310994    4.168983
  H      5.054292   -0.016059    3.337838
  H      2.439696   -2.973894    3.897395
  H      2.066869   -1.412532    4.549813
  O      2.228167    1.263475    4.019826
  O      0.810034   -0.345411    4.636269
  C      3.744685   -2.580557    1.361882
  C      0.772139    0.636882    0.562129
  C     -0.130740   -0.193985    1.470763
  H     -0.840563   -0.760165    0.856377
  H      0.466691   -0.938942    2.006959
  H     -1.647961    1.245963    1.991076
  H     -1.478180   -0.081046    3.130424
  C      3.203721   -1.256004    0.826211
  H      2.898939   -3.239289    1.583074
  H      4.334962   -3.095523    0.600188
  C      2.107815   -1.442385   -0.216865
  H      2.786775   -0.672760    1.650711
  H      4.021008   -0.652993    0.414046
  C      1.390662   -0.145912   -0.602422
  H      1.372179   -2.152184    0.176151
  H      2.523302   -1.906787   -1.117115
  H      1.561361    1.100094    1.161831
  H      0.195516    1.468325    0.142758
  H      0.602893   -0.398214   -1.319716
  H      2.087247    0.508272   -1.137335
  H      5.561557   -1.971347    2.407084
  H      4.810498   -3.422552    3.063099

 Total Charge           Charge          ....    0
 Multiplicity           Mult            ....    1
 Number of Electrons    NEL             ....  118
 Basis Dimension        Dim             ....  759

ORBITAL ENERGIES
----------------

  NO   OCC          E(Eh)            E(eV)
   0   2.0000     -19.048565      -518.3378
   1   2.0000     -19.046667      -518.2862
   2   2.0000     -14.356224      -390.6527
   3   2.0000     -14.356217      -390.6525
   4   2.0000     -10.304383      -280.3965
   5   2.0000     -10.231631      -278.4168
   6   2.0000     -10.219424      -278.0847
   7   2.0000     -10.200545      -277.5709
   8   2.0000     -10.176891      -276.9273
   9   2.0000     -10.168053      -276.6868
  10   2.0000     -10.160144      -276.4716
  11   2.0000     -10.149566      -276.1837
  12   2.0000     -10.146296      -276.0947
  13   2.0000     -10.142330      -275.9868
  14   2.0000     -10.134005      -275.7603
  15   2.0000      -1.021230       -27.7891
  16   2.0000      -1.007075       -27.4039
  17   2.0000      -0.927247       -25.2317
  18   2.0000      -0.911042       -24.7907
  19   2.0000      -0.836693       -22.7676
  20   2.0000      -0.802426       -21.8351
  21   2.0000      -0.772670       -21.0254
  22   2.0000      -0.733104       -19.9488
  23   2.0000      -0.695346       -18.9213
  24   2.0000      -0.658943       -17.9308
  25   2.0000      -0.642034       -17.4706
  26   2.0000      -0.619046       -16.8451
  27   2.0000      -0.585148       -15.9227
  28   2.0000      -0.578953       -15.7541
  29   2.0000      -0.570454       -15.5228
  30   2.0000      -0.545731       -14.8501
  31   2.0000      -0.512363       -13.9421
  32   2.0000      -0.507774       -13.8172
  33   2.0000      -0.484205       -13.1759
  34   2.0000      -0.473636       -12.8883
  35   2.0000      -0.462198       -12.5771
  36   2.0000      -0.456028       -12.4092
  37   2.0000      -0.441927       -12.0254
  38   2.0000      -0.430612       -11.7176
  39   2.0000      -0.419405       -11.4126
  40   2.0000      -0.413559       -11.2535
  41   2.0000      -0.404790       -11.0149
  42   2.0000      -0.401167       -10.9163
  43   2.0000      -0.395593       -10.7646
  44   2.0000      -0.375459       -10.2168
  45   2.0000      -0.372964       -10.1489
  46   2.0000      -0.367140        -9.9904
  47   2.0000      -0.361458        -9.8358
  48   2.0000      -0.351468        -9.5639
  49   2.0000      -0.335050        -9.1172
  50   2.0000      -0.332051        -9.0356
  51   2.0000      -0.323896        -8.8137
  52   2.0000      -0.309313        -8.4168
  53   2.0000      -0.304325        -8.2811
  54   2.0000      -0.302583        -8.2337
  55   2.0000      -0.295902        -8.0519
  56   2.0000      -0.237903        -6.4737
  57   2.0000      -0.226848        -6.1728
  58   2.0000      -0.221088        -6.0161
  59   0.0000      -0.038780        -1.0553
  60   0.0000      -0.016265        -0.4426
  61   0.0000      -0.000899        -0.0245
  62   0.0000       0.009222         0.2509
  63   0.0000       0.017440         0.4746

MULLIKEN ATOMIC CHARGES
-----------------------
   0 C :   -0.483062
   1 C :   -0.546032
   2 C :   -0.395746
   3 H :    0.211862
   4 H :    0.260559
   5 C :    0.719584
   6 C :    0.155572
   7 N :   -0.247454
   8 N :   -0.249395
   9 H :    0.346540
  10 H :    0.189371
  11 H :    0.193660
  12 H :    0.331726
  13 O :   -0.851933
  14 O :   -0.872266
  15 C :   -0.582198
  16 C :   -0.278672
  17 C :   -0.421115
  18 H :    0.297335
  19 H :    0.176308
  20 H :    0.228172
  21 H :    0.211582
  22 C :    0.195083
  23 H :    0.202348
  24 H :    0.270102
  25 C :   -0.551862
  26 H :   -0.067378
  27 H :    0.191921
  28 C :   -0.700552
  29 H :    0.244789
  30 H :    0.273321
  31 H :    0.270789
  32 H :    0.271963
  33 H :    0.255172
  34 H :    0.244601
  35 H :    0.258197
  36 H :    0.247109
Sum of atomic charges:    0.0000000

LOEWDIN ATOMIC CHARGES
----------------------
   0 C :   -0.109051
   1 C :   -0.200360
   2 C :   -0.123275
   3 H :    0.103960
   4 H :    0.115703
   5 C :   -0.654193
   6 C :   -0.393728
   7 N :    0.234213
   8 N :    0.220760
   9 H :    0.053361
  10 H :    0.133954
  11 H :    0.135942
  12 H :    0.052727
  13 O :   -0.049232
  14 O :   -0.045257
  15 C :   -0.183646
  16 C :   -0.208630
  17 C :   -0.209449
  18 H :    0.114492
  19 H :    0.097248
  20 H :    0.106216
  21 H :    0.106190
  22 C :   -0.207263
  23 H :    0.107636
  24 H :    0.116675
  25 C :   -0.212340
  26 H :    0.089271
  27 H :    0.126586
  28 C :   -0.204543
  29 H :    0.105907
  30 H :    0.111620
  31 H :    0.102897
  32 H :    0.115109
  33 H :    0.106747
  34 H :    0.106797
  35 H :    0.115952
  36 H :    0.121002

  Mayer bond orders larger than 0.100000
B(  0-C ,  6-C ) :   0.7734 B(  0-C , 15-C ) :   0.7543 B(  0-C , 35-H ) :   0.9379
B(  0-C , 36-H ) :   1.0180 B(  1-C ,  2-C ) :   0.8638 B(  1-C , 16-C ) :   0.1442
B(  1-C , 17-C ) :   0.9663 B(  1-C , 20-H ) :   0.9671 B(  1-C , 21-H ) :   0.9300
B(  2-C ,  3-H ) :   1.0143 B(  2-C ,  4-H ) :   0.8735 B(  2-C ,  5-C ) :   0.9807
B(  2-C , 16-C ) :   0.1470 B(  5-C , 13-O ) :   1.1899 B(  5-C , 14-O ) :   1.1750
B(  6-C ,  7-N ) :   1.3594 B(  6-C ,  8-N ) :   1.4744 B(  7-N , 11-H ) :   0.9351
B(  7-N , 12-H ) :   0.7157 B(  8-N ,  9-H ) :   0.7436 B(  8-N , 10-H ) :   0.9225
B( 12-H , 14-O ) :   0.1084 B( 13-O , 14-O ) :   0.1396 B( 15-C , 22-C ) :   0.4988
B( 15-C , 23-H ) :   0.9427 B( 15-C , 24-H ) :   0.9696 B( 15-C , 25-C ) :   0.4031
B( 15-C , 27-H ) :  -0.1343 B( 16-C , 17-C ) :   0.3334 B( 16-C , 19-H ) :  -0.1909
B( 16-C , 28-C ) :   0.8217 B( 16-C , 31-H ) :   1.0666 B( 16-C , 32-H ) :   0.8578
B( 17-C , 18-H ) :   0.8323 B( 17-C , 19-H ) :   1.2029 B( 17-C , 25-C ) :   0.1075
B( 17-C , 28-C ) :   0.1896 B( 17-C , 31-H ) :  -0.1451 B( 22-C , 25-C ) :   0.4608
B( 22-C , 26-H ) :   1.5347 B( 22-C , 27-H ) :   0.8649 B( 22-C , 28-C ) :   0.1516
B( 25-C , 27-H ) :  -0.1131 B( 25-C , 28-C ) :   0.9193 B( 25-C , 29-H ) :   0.9383
B( 25-C , 30-H ) :   0.9430 B( 26-H , 27-H ) :   0.1172 B( 28-C , 33-H ) :   0.9578
B( 28-C , 34-H ) :   0.9658

Dispersion correction           -0.069885919
FINAL SINGLE POINT ENERGY      -692.326673985546

DIPOLE MOMENT
-------------
                                X             Y             Z
Electronic contribution:      3.42435       1.62505      13.00662
Nuclear contribution   :     -1.50655      -3.48027     -14.35034
                        -----------------------------------------
Total Dipole Moment    :      1.91779      -1.85522      -1.34372
                        -----------------------------------------
Magnitude (a.u.)       :      2.98753
Magnitude (Debye)      :      7.59371

Rotational constants in cm-1:     0.021781     0.017296     0.011403
Rotational constants in MHz :   652.971749   518.510612   341.853154

                             ****ORCA TERMINATED NORMALLY****
TOTAL RUN TIME: 0 days 0 hours 8 minutes 15 seconds 253 msec
