                         Program Version 5.0.0 -  RELEASE  -
|  1> !B3LYP D3BJ RIJCOSX def2-TZVPD def2/J TightSCF
|  2> *xyz 0 1
|  3> C         -0.91495        0.61511        2.50554
|  4> C         -0.05915        1.50352        3.41058
|  5> H          0.36536        2.34431        2.86116
|  6> H         -0.69226        1.92021        4.19898
|  7> C          1.08303        0.74964        4.08571
|  8> F          2.22817        1.26348        4.01983
|  9> O          0.81003       -0.34541        4.63627
| 10> H         -0.30401        0.20228        1.73015
| 11> H         -1.69811        1.19946        2.06954
| 12> H         -1.34124       -0.17772        3.08397
| 13> *
| 14>
| 15> %MaxCore 64000
| 16>
| 17> %pal nprocs 4
| 18> end
| 19>
| 20> %scf
| 21>   MaxIter 150
| 22> end
| 23>
| 24>
| 25>                          ****END OF INPUT****

CARTESIAN COORDINATES (ANGSTROEM)
---------------------------------
  C     -0.914950    0.615110    2.505540
  C     -0.059150    1.503520    3.410580
  H      0.365360    2.344310    2.861160
  H     -0.692260    1.920210    4.198980
  C      1.083030    0.749640    4.085710
  F      2.228170    1.263480    4.019830
  O      0.810030   -0.345410    4.636270
  H     -0.304010    0.202280    1.730150
  H     -1.698110    1.199460    2.069540
  H     -1.341240   -0.177720    3.083970

 Total Charge           Charge          ....    0
 Multiplicity           Mult            ....    1
 Number of Electrons    NEL             ....   40
 Basis Dimension        Dim             ....  236

ORBITAL ENERGIES
----------------

  NO   OCC          E(Eh)            E(eV)
   0   2.0000     -24.752273      -673.5436
   1   2.0000     -19.132208      -520.6139
   2   2.0000     -10.348247      -281.5901
   3   2.0000     -10.201548      -277.5982
   4   2.0000     -10.171596      -276.7832
   5   2.0000      -1.319600       -35.9082
   6   2.0000      -1.034775       -28.1577
   7   2.0000      -0.800773       -21.7901
   8   2.0000      -0.692244       -18.8369
   9   2.0000      -0.639122       -17.3914
  10   2.0000      -0.549234       -14.9454
  11   2.0000      -0.535691       -14.5769
  12   2.0000      -0.509908       -13.8753
  13   2.0000      -0.467019       -12.7082
  14   2.0000      -0.435709       -11.8562
  15   2.0000      -0.399250       -10.8641
  16   2.0000      -0.379916       -10.3380
  17   2.0000      -0.376788       -10.2529
  18   2.0000      -0.349270        -9.5041
  19   2.0000      -0.295623        -8.0443
  20   0.0000      -0.034906        -0.9498
  21   0.0000       0.001690         0.0460
  22   0.0000       0.026834         0.7302
  23   0.0000       0.037827         1.0293
  24   0.0000       0.047564         1.2943

MULLIKEN ATOMIC CHARGES
-----------------------
   0 C :   -1.024710
   1 C :   -0.075799
   2 H :    0.224569
   3 H :    0.217427
   4 C :    0.505995
   5 F :   -0.218614
   6 O :   -0.500233
   7 H :    0.312030
   8 H :    0.283704
   9 H :    0.275631
Sum of atomic charges:    0.0000000

LOEWDIN ATOMIC CHARGES
----------------------
   0 C :   -0.083225
   1 C :   -0.154256
   2 H :    0.106282
   3 H :    0.120793
   4 C :   -0.486390
   5 F :    0.205336
   6 O :    0.081401
   7 H :    0.072815
   8 H :    0.067149
   9 H :    0.070096

  Mayer bond orders larger than 0.100000
B(  0-C ,  1-C ) :   0.6528 B(  0-C ,  7-H ) :   0.9302 B(  0-C ,  8-H ) :   0.9584
B(  0-C ,  9-H ) :   1.0120 B(  1-C ,  2-H ) :   0.9755 B(  1-C ,  3-H ) :   0.9331
B(  1-C ,  4-C ) :   0.9241 B(  4-C ,  5-F ) :   1.0080 B(  4-C ,  6-O ) :   1.7425

Dispersion correction           -0.010404920
FINAL SINGLE POINT ENERGY      -292.383048702721

DIPOLE MOMENT
-------------
                                X             Y             Z
Electronic contribution:      7.72150      -0.16870       4.08851
Nuclear contribution   :     -8.12386       1.06915      -4.71960
                        -----------------------------------------
Total Dipole Moment    :     -0.40236       0.90044      -0.63108
                        -----------------------------------------
Magnitude (a.u.)       :      1.17088
Magnitude (Debye)      :      2.97614

Rotational constants in cm-1:     0.309513     0.127560     0.099675
Rotational constants in MHz :  9278.979128  3824.146597  2988.174827

                             ****ORCA TERMINATED NORMALLY****
TOTAL RUN TIME: 0 days 0 hours 0 minutes 26 seconds 871 msec
