                         Program Version 5.0.0 -  RELEASE  -
|  1> !B3LYP D3BJ RIJCOSX def2-TZVPD def2/J TightSCF
|  2> *xyz 0 1
|  3> C          4.60295       -2.44010        2.63478
|  4> C          3.86085       -1.59157        3.62289
|  5> C          2.75650       -2.04616        4.16633
|  6> N          4.25433       -0.36291        3.86046
|  7> H          3.56526        0.31099        4.16898
|  8> H          5.05429       -0.01606        3.33784
|  9> H          2.43970       -2.97389        3.89740
| 10> H          2.06687       -1.41253        4.54981
| 11> C          3.74469       -2.58056        1.36188
| 12> H          5.56156       -1.97135        2.40708
| 13> H          4.81050       -3.42255        3.06310
| 14> H          4.26314       -3.18477        0.64702
| 15> H          3.56325       -1.61180        0.94535
| 16> H          2.81197       -3.04259        1.60980
| 17> *
| 18>
| 19> %MaxCore 64000
| 20>
| 21> %pal nprocs 4
| 22> end
| 23>
| 24> %scf
| 25>   MaxIter 150
| 26> end
| 27>
| 28>
| 29>                          ****END OF INPUT****

CARTESIAN COORDINATES (ANGSTROEM)
---------------------------------
  C      4.602950   -2.440100    2.634780
  C      3.860850   -1.591570    3.622890
  C      2.756500   -2.046160    4.166330
  N      4.254330   -0.362910    3.860460
  H      3.565260    0.310990    4.168980
  H      5.054290   -0.016060    3.337840
  H      2.439700   -2.973890    3.897400
  H      2.066870   -1.412530    4.549810
  C      3.744690   -2.580560    1.361880
  H      5.561560   -1.971350    2.407080
  H      4.810500   -3.422550    3.063100
  H      4.263140   -3.184770    0.647020
  H      3.563250   -1.611800    0.945350
  H      2.811970   -3.042590    1.609800

 Total Charge           Charge          ....    0
 Multiplicity           Mult            ....    1
 Number of Electrons    NEL             ....   40
 Basis Dimension        Dim             ....  266

ORBITAL ENERGIES
----------------

  NO   OCC          E(Eh)            E(eV)
   0   2.0000     -14.316955      -389.5841
   1   2.0000     -10.185915      -277.1728
   2   2.0000     -10.170849      -276.7629
   3   2.0000     -10.152939      -276.2755
   4   2.0000     -10.096855      -274.7494
   5   2.0000      -0.934137       -25.4192
   6   2.0000      -0.781616       -21.2689
   7   2.0000      -0.712390       -19.3851
   8   2.0000      -0.639896       -17.4125
   9   2.0000      -0.563282       -15.3277
  10   2.0000      -0.524822       -14.2811
  11   2.0000      -0.482334       -13.1250
  12   2.0000      -0.447813       -12.1856
  13   2.0000      -0.413636       -11.2556
  14   2.0000      -0.389408       -10.5963
  15   2.0000      -0.378635       -10.3032
  16   2.0000      -0.354351        -9.6424
  17   2.0000      -0.343993        -9.3605
  18   2.0000      -0.328835        -8.9481
  19   2.0000      -0.190302        -5.1784
  20   0.0000       0.001323         0.0360
  21   0.0000       0.022482         0.6118
  22   0.0000       0.031972         0.8700
  23   0.0000       0.040554         1.1035
  24   0.0000       0.048815         1.3283

MULLIKEN ATOMIC CHARGES
-----------------------
   0 C :   -0.264317
   1 C :    0.595577
   2 C :   -1.099830
   3 N :   -0.348043
   4 H :    0.160633
   5 H :    0.174864
   6 H :    0.302113
   7 H :    0.236900
   8 C :   -1.060510
   9 H :    0.221614
  10 H :    0.217616
  11 H :    0.270925
  12 H :    0.289743
  13 H :    0.302715
Sum of atomic charges:    0.0000000

LOEWDIN ATOMIC CHARGES
----------------------
   0 C :   -0.186834
   1 C :   -0.504516
   2 C :    0.012203
   3 N :    0.105208
   4 H :    0.110472
   5 H :    0.103051
   6 H :    0.023721
   7 H :    0.021758
   8 C :   -0.085844
   9 H :    0.099564
  10 H :    0.111714
  11 H :    0.059373
  12 H :    0.069295
  13 H :    0.060837

  Mayer bond orders larger than 0.100000
B(  0-C ,  1-C ) :   0.7508 B(  0-C ,  8-C ) :   0.6063 B(  0-C ,  9-H ) :   1.0458
B(  0-C , 10-H ) :   0.9606 B(  1-C ,  2-C ) :   1.4049 B(  1-C ,  3-N ) :   1.0108
B(  1-C ,  9-H ) :  -0.1001 B(  2-C ,  6-H ) :   0.9263 B(  2-C ,  7-H ) :   1.0707
B(  3-N ,  4-H ) :   0.9818 B(  3-N ,  5-H ) :   0.9913 B(  8-C , 11-H ) :   0.9681
B(  8-C , 12-H ) :   0.9721 B(  8-C , 13-H ) :   0.9765

Dispersion correction           -0.017702680
FINAL SINGLE POINT ENERGY      -212.517317274185

DIPOLE MOMENT
-------------
                                X             Y             Z
Electronic contribution:      0.80271       1.76798       2.54821
Nuclear contribution   :     -0.47010      -1.22282      -3.06417
                        -----------------------------------------
Total Dipole Moment    :      0.33261       0.54516      -0.51595
                        -----------------------------------------
Magnitude (a.u.)       :      0.82100
Magnitude (Debye)      :      2.08681

Rotational constants in cm-1:     0.271862     0.131962     0.105499
Rotational constants in MHz :  8150.219120  3956.123671  3162.785522

                             ****ORCA TERMINATED NORMALLY****
TOTAL RUN TIME: 0 days 0 hours 0 minutes 38 seconds 517 msec
