                         Program Version 5.0.0 -  RELEASE  -
|  1> !B3LYP D3BJ RIJCOSX def2-TZVPD def2/J TightSCF
|  2> *xyz 0 1
|  3> C         -0.91495        0.61511        2.50554
|  4> C         -0.05915        1.50352        3.41058
|  5> H          0.36536        2.34431        2.86116
|  6> H         -0.69226        1.92021        4.19898
|  7> C          1.08303        0.74964        4.08571
|  8> O          2.22817        1.26348        4.01983
|  9> F          0.81003       -0.34541        4.63627
| 10> H         -0.30401        0.20228        1.73015
| 11> H         -1.69811        1.19946        2.06954
| 12> H         -1.34124       -0.17772        3.08397
| 13> *
| 14>
| 15> %MaxCore 64000
| 16>
| 17> %pal nprocs 4
| 18> end
| 19>
| 20> %scf
| 21>   MaxIter 150
| 22> end
| 23>
| 24>
| 25>                          ****END OF INPUT****

CARTESIAN COORDINATES (ANGSTROEM)
---------------------------------
  C     -0.914950    0.615110    2.505540
  C     -0.059150    1.503520    3.410580
  H      0.365360    2.344310    2.861160
  H     -0.692260    1.920210    4.198980
  C      1.083030    0.749640    4.085710
  O      2.228170    1.263480    4.019830
  F      0.810030   -0.345410    4.636270
  H     -0.304010    0.202280    1.730150
  H     -1.698110    1.199460    2.069540
  H     -1.341240   -0.177720    3.083970

 Total Charge           Charge          ....    0
 Multiplicity           Mult            ....    1
 Number of Electrons    NEL             ....   40
 Basis Dimension        Dim             ....  236

ORBITAL ENERGIES
----------------

  NO   OCC          E(Eh)            E(eV)
   0   2.0000     -24.753337      -673.5726
   1   2.0000     -19.131302      -520.5892
   2   2.0000     -10.347680      -281.5747
   3   2.0000     -10.201003      -277.5834
   4   2.0000     -10.176946      -276.9288
   5   2.0000      -1.321136       -35.9499
   6   2.0000      -1.032868       -28.1058
   7   2.0000      -0.804915       -21.9028
   8   2.0000      -0.688359       -18.7312
   9   2.0000      -0.645888       -17.5755
  10   2.0000      -0.551854       -15.0167
  11   2.0000      -0.542383       -14.7590
  12   2.0000      -0.501223       -13.6390
  13   2.0000      -0.468156       -12.7392
  14   2.0000      -0.436610       -11.8808
  15   2.0000      -0.403756       -10.9868
  16   2.0000      -0.386342       -10.5129
  17   2.0000      -0.380640       -10.3577
  18   2.0000      -0.351068        -9.5531
  19   2.0000      -0.290509        -7.9052
  20   0.0000      -0.032348        -0.8802
  21   0.0000      -0.000598        -0.0163
  22   0.0000       0.027214         0.7405
  23   0.0000       0.036351         0.9892
  24   0.0000       0.047686         1.2976

MULLIKEN ATOMIC CHARGES
-----------------------
   0 C :   -1.060381
   1 C :   -0.023059
   2 H :    0.189565
   3 H :    0.233545
   4 C :    0.495253
   5 O :   -0.500993
   6 F :   -0.225521
   7 H :    0.328338
   8 H :    0.276558
   9 H :    0.286696
Sum of atomic charges:    0.0000000

LOEWDIN ATOMIC CHARGES
----------------------
   0 C :   -0.087322
   1 C :   -0.149748
   2 H :    0.115682
   3 H :    0.118600
   4 C :   -0.491261
   5 O :    0.077314
   6 F :    0.209441
   7 H :    0.073269
   8 H :    0.067543
   9 H :    0.066483

  Mayer bond orders larger than 0.100000
B(  0-C ,  1-C ) :   0.5898 B(  0-C ,  7-H ) :   0.9423 B(  0-C ,  8-H ) :   0.9786
B(  0-C ,  9-H ) :   0.9843 B(  1-C ,  2-H ) :   1.0127 B(  1-C ,  3-H ) :   0.9211
B(  1-C ,  4-C ) :   0.9255 B(  4-C ,  5-O ) :   1.7345 B(  4-C ,  6-F ) :   1.0085

Dispersion correction           -0.010322680
FINAL SINGLE POINT ENERGY      -292.382086145295

DIPOLE MOMENT
-------------
                                X             Y             Z
Electronic contribution:      5.33771      -2.83433       5.09768
Nuclear contribution   :     -6.57765       2.82334      -5.39171
                        -----------------------------------------
Total Dipole Moment    :     -1.23993      -0.01099      -0.29403
                        -----------------------------------------
Magnitude (a.u.)       :      1.27437
Magnitude (Debye)      :      3.23918

Rotational constants in cm-1:     0.294245     0.132994     0.101060
Rotational constants in MHz :  8821.228602  3987.049251  3029.696815

                             ****ORCA TERMINATED NORMALLY****
TOTAL RUN TIME: 0 days 0 hours 0 minutes 27 seconds 487 msec
