                         Program Version 5.0.0 -  RELEASE  -
|  1> !B3LYP D3BJ RIJCOSX def2-TZVPD def2/J TightSCF
|  2> *xyz 0 1
|  3> C          4.60295       -2.44010        2.63478
|  4> C          3.86085       -1.59157        3.62289
|  5> N          2.75650       -2.04616        4.16633
|  6> C          4.25433       -0.36291        3.86046
|  7> H          3.56526        0.31099        4.16898
|  8> H          5.05429       -0.01606        3.33784
|  9> H          2.43970       -2.97389        3.89740
| 10> H          2.06687       -1.41253        4.54981
| 11> C          3.74469       -2.58056        1.36188
| 12> H          5.56156       -1.97135        2.40708
| 13> H          4.81050       -3.42255        3.06310
| 14> H          4.26314       -3.18477        0.64702
| 15> H          3.56325       -1.61180        0.94535
| 16> H          2.81197       -3.04259        1.60980
| 17> *
| 18>
| 19> %MaxCore 64000
| 20>
| 21> %pal nprocs 4
| 22> end
| 23>
| 24> %scf
| 25>   MaxIter 150
| 26> end
| 27>
| 28>
| 29>                          ****END OF INPUT****

CARTESIAN COORDINATES (ANGSTROEM)
---------------------------------
  C      4.602950   -2.440100    2.634780
  C      3.860850   -1.591570    3.622890
  N      2.756500   -2.046160    4.166330
  C      4.254330   -0.362910    3.860460
  H      3.565260    0.310990    4.168980
  H      5.054290   -0.016060    3.337840
  H      2.439700   -2.973890    3.897400
  H      2.066870   -1.412530    4.549810
  C      3.744690   -2.580560    1.361880
  H      5.561560   -1.971350    2.407080
  H      4.810500   -3.422550    3.063100
  H      4.263140   -3.184770    0.647020
  H      3.563250   -1.611800    0.945350
  H      2.811970   -3.042590    1.609800

 Total Charge           Charge          ....    0
 Multiplicity           Mult            ....    1
 Number of Electrons    NEL             ....   40
 Basis Dimension        Dim             ....  266

ORBITAL ENERGIES
----------------

  NO   OCC          E(Eh)            E(eV)
   0   2.0000     -14.316644      -389.5757
   1   2.0000     -10.186992      -277.2021
   2   2.0000     -10.170310      -276.7482
   3   2.0000     -10.156670      -276.3770
   4   2.0000     -10.098213      -274.7863
   5   2.0000      -0.933769       -25.4092
   6   2.0000      -0.779810       -21.2197
   7   2.0000      -0.720238       -19.5987
   8   2.0000      -0.635398       -17.2901
   9   2.0000      -0.569964       -15.5095
  10   2.0000      -0.526126       -14.3166
  11   2.0000      -0.477415       -12.9911
  12   2.0000      -0.439312       -11.9543
  13   2.0000      -0.429554       -11.6888
  14   2.0000      -0.389824       -10.6077
  15   2.0000      -0.380772       -10.3613
  16   2.0000      -0.358160        -9.7460
  17   2.0000      -0.340802        -9.2737
  18   2.0000      -0.325510        -8.8576
  19   2.0000      -0.192944        -5.2503
  20   0.0000      -0.000162        -0.0044
  21   0.0000       0.024050         0.6544
  22   0.0000       0.035293         0.9604
  23   0.0000       0.037659         1.0248
  24   0.0000       0.047578         1.2947

MULLIKEN ATOMIC CHARGES
-----------------------
   0 C :   -0.312600
   1 C :    0.568480
   2 N :   -0.378833
   3 C :   -0.962979
   4 H :    0.250157
   5 H :    0.254354
   6 H :    0.168248
   7 H :    0.145029
   8 C :   -1.029495
   9 H :    0.186506
  10 H :    0.246845
  11 H :    0.268589
  12 H :    0.307714
  13 H :    0.287986
Sum of atomic charges:   -0.0000000

LOEWDIN ATOMIC CHARGES
----------------------
   0 C :   -0.188601
   1 C :   -0.508121
   2 N :    0.105787
   3 C :    0.018306
   4 H :    0.020411
   5 H :    0.019817
   6 H :    0.105247
   7 H :    0.112751
   8 C :   -0.085972
   9 H :    0.106986
  10 H :    0.106195
  11 H :    0.060986
  12 H :    0.071614
  13 H :    0.054595

  Mayer bond orders larger than 0.100000
B(  0-C ,  1-C ) :   0.8248 B(  0-C ,  8-C ) :   0.6416 B(  0-C ,  9-H ) :   0.9944
B(  0-C , 10-H ) :   0.9660 B(  1-C ,  2-N ) :   0.9923 B(  1-C ,  3-C ) :   1.4149
B(  2-N ,  6-H ) :   0.9760 B(  2-N ,  7-H ) :   1.0040 B(  3-C ,  4-H ) :   1.0374
B(  3-C ,  5-H ) :   1.0057 B(  8-C , 11-H ) :   0.9830 B(  8-C , 12-H ) :   1.0011
B(  8-C , 13-H ) :   0.9506

Dispersion correction           -0.017664961
FINAL SINGLE POINT ENERGY      -212.517830374968

DIPOLE MOMENT
-------------
                                X             Y             Z
Electronic contribution:     -0.48419       0.31413       2.82142
Nuclear contribution   :     -0.12319      -0.83296      -3.13501
                        -----------------------------------------
Total Dipole Moment    :     -0.60738      -0.51884      -0.31359
                        -----------------------------------------
Magnitude (a.u.)       :      0.85816
Magnitude (Debye)      :      2.18127

Rotational constants in cm-1:     0.266453     0.134423     0.106086
Rotational constants in MHz :  7988.053142  4029.892766  3180.375228

                             ****ORCA TERMINATED NORMALLY****
TOTAL RUN TIME: 0 days 0 hours 0 minutes 38 seconds 784 msec
