                         Program Version 5.0.0 -  RELEASE  -
|  1> !B3LYP D3BJ RIJCOSX def2-TZVPD def2/J TightSCF xyzfile
|  2>
|  3> *xyzfile 0 1 D1.xyz
|  4>
|  5> %MaxCore 64000
|  6>
|  7> %pal nprocs 4
|  8> end
|  9>
| 10> %scf
| 11>   MaxIter 150
| 12> end
| 13>
| 14>
| 15>                          ****END OF INPUT****

CARTESIAN COORDINATES (ANGSTROEM)
---------------------------------
  C      4.602954   -2.440100    2.634780
  C     -0.914947    0.615112    2.505538
  C     -0.059146    1.503524    3.410578
  H      0.365364    2.344315    2.861161
  H     -0.692261    1.920207    4.198985
  C      1.083027    0.749640    4.085705
  C      3.860851   -1.591565    3.622893
  C      2.756502   -2.046159    4.166333
  N      4.254325   -0.362905    3.860455
  H      3.565256    0.310994    4.168983
  H      5.054292   -0.016059    3.337838
  H      2.439696   -2.973894    3.897395
  H      2.066869   -1.412532    4.549813
  F      2.228167    1.263475    4.019826
  O      0.810034   -0.345411    4.636269
  C      3.744685   -2.580557    1.361882
  C      0.772139    0.636882    0.562129
  C     -0.130740   -0.193985    1.470763
  H     -0.840563   -0.760165    0.856377
  H      0.466691   -0.938942    2.006959
  H     -1.647961    1.245963    1.991076
  H     -1.478180   -0.081046    3.130424
  C      3.203721   -1.256004    0.826211
  H      2.898939   -3.239289    1.583074
  H      4.334962   -3.095523    0.600188
  C      2.107815   -1.442385   -0.216865
  H      2.786775   -0.672760    1.650711
  H      4.021008   -0.652993    0.414046
  C      1.390662   -0.145912   -0.602422
  H      1.372179   -2.152184    0.176151
  H      2.523302   -1.906787   -1.117115
  H      1.561361    1.100094    1.161831
  H      0.195516    1.468325    0.142758
  H      0.602893   -0.398214   -1.319716
  H      2.087247    0.508272   -1.137335
  H      5.561557   -1.971347    2.407084
  H      4.810498   -3.422552    3.063099

 Total Charge           Charge          ....    0
 Multiplicity           Mult            ....    1
 Number of Electrons    NEL             ....  118
 Basis Dimension        Dim             ....  759

ORBITAL ENERGIES
----------------

  NO   OCC          E(Eh)            E(eV)
   0   2.0000     -24.776777      -674.2104
   1   2.0000     -19.144027      -520.9355
   2   2.0000     -14.292781      -388.9263
   3   2.0000     -10.362513      -281.9783
   4   2.0000     -10.206205      -277.7250
   5   2.0000     -10.184244      -277.1274
   6   2.0000     -10.168732      -276.7053
   7   2.0000     -10.168474      -276.6982
   8   2.0000     -10.164618      -276.5933
   9   2.0000     -10.163663      -276.5673
  10   2.0000     -10.157309      -276.3944
  11   2.0000     -10.155696      -276.3505
  12   2.0000     -10.155478      -276.3446
  13   2.0000     -10.153431      -276.2889
  14   2.0000     -10.064771      -273.8764
  15   2.0000      -1.348026       -36.6817
  16   2.0000      -1.053671       -28.6718
  17   2.0000      -0.916318       -24.9343
  18   2.0000      -0.830128       -22.5889
  19   2.0000      -0.805048       -21.9065
  20   2.0000      -0.780469       -21.2377
  21   2.0000      -0.744128       -20.2487
  22   2.0000      -0.720581       -19.6080
  23   2.0000      -0.691490       -18.8164
  24   2.0000      -0.677589       -18.4381
  25   2.0000      -0.647283       -17.6135
  26   2.0000      -0.613091       -16.6831
  27   2.0000      -0.590341       -16.0640
  28   2.0000      -0.575811       -15.6686
  29   2.0000      -0.567478       -15.4419
  30   2.0000      -0.553736       -15.0679
  31   2.0000      -0.539624       -14.6839
  32   2.0000      -0.526442       -14.3252
  33   2.0000      -0.498271       -13.5586
  34   2.0000      -0.481673       -13.1070
  35   2.0000      -0.479098       -13.0369
  36   2.0000      -0.469744       -12.7824
  37   2.0000      -0.451117       -12.2755
  38   2.0000      -0.444376       -12.0921
  39   2.0000      -0.427274       -11.6267
  40   2.0000      -0.424088       -11.5400
  41   2.0000      -0.409540       -11.1442
  42   2.0000      -0.404572       -11.0090
  43   2.0000      -0.390782       -10.6337
  44   2.0000      -0.387645       -10.5484
  45   2.0000      -0.373979       -10.1765
  46   2.0000      -0.370476       -10.0812
  47   2.0000      -0.361120        -9.8266
  48   2.0000      -0.353770        -9.6266
  49   2.0000      -0.345468        -9.4007
  50   2.0000      -0.342418        -9.3177
  51   2.0000      -0.334319        -9.0973
  52   2.0000      -0.324457        -8.8289
  53   2.0000      -0.321508        -8.7487
  54   2.0000      -0.313705        -8.5364
  55   2.0000      -0.310305        -8.4438
  56   2.0000      -0.303276        -8.2526
  57   2.0000      -0.277296        -7.5456
  58   2.0000      -0.169904        -4.6233
  59   0.0000      -0.049885        -1.3574
  60   0.0000      -0.003551        -0.0966
  61   0.0000       0.010982         0.2988
  62   0.0000       0.013078         0.3559
  63   0.0000       0.017222         0.4686

MULLIKEN ATOMIC CHARGES
-----------------------
   0 C :   -0.644977
   1 C :   -0.528247
   2 C :   -0.494221
   3 H :    0.277384
   4 H :    0.275148
   5 C :    0.736960
   6 C :    0.192921
   7 C :   -1.436606
   8 N :   -0.308695
   9 H :    0.327186
  10 H :    0.182220
  11 H :    0.312394
  12 H :    0.759848
  13 F :   -0.335050
  14 O :   -0.574588
  15 C :   -0.565562
  16 C :   -0.262413
  17 C :   -0.456536
  18 H :    0.303893
  19 H :    0.224988
  20 H :    0.244690
  21 H :    0.242793
  22 C :    0.200082
  23 H :    0.210518
  24 H :    0.267275
  25 C :   -0.540594
  26 H :   -0.088941
  27 H :    0.183834
  28 C :   -0.718139
  29 H :    0.208055
  30 H :    0.285905
  31 H :    0.259956
  32 H :    0.256106
  33 H :    0.252087
  34 H :    0.251111
  35 H :    0.286158
  36 H :    0.213057
Sum of atomic charges:   -0.0000000

LOEWDIN ATOMIC CHARGES
----------------------
   0 C :   -0.138324
   1 C :   -0.186971
   2 C :   -0.096194
   3 H :    0.111061
   4 H :    0.127311
   5 C :   -0.437807
   6 C :   -0.494297
   7 C :    0.030161
   8 N :    0.118988
   9 H :    0.068189
  10 H :    0.107612
  11 H :    0.036578
  12 H :   -0.023621
  13 F :    0.191743
  14 O :    0.083077
  15 C :   -0.190867
  16 C :   -0.212154
  17 C :   -0.202833
  18 H :    0.120981
  19 H :    0.105154
  20 H :    0.114509
  21 H :    0.113481
  22 C :   -0.211781
  23 H :    0.107208
  24 H :    0.108038
  25 C :   -0.212896
  26 H :    0.082852
  27 H :    0.121946
  28 C :   -0.204297
  29 H :    0.106347
  30 H :    0.111930
  31 H :    0.098835
  32 H :    0.113788
  33 H :    0.106747
  34 H :    0.107412
  35 H :    0.104099
  36 H :    0.113994

  Mayer bond orders larger than 0.100000
B(  0-C ,  6-C ) :   0.7452 B(  0-C , 15-C ) :   0.8127 B(  0-C , 35-H ) :   0.9538
B(  0-C , 36-H ) :   1.0005 B(  1-C ,  2-C ) :   0.8535 B(  1-C , 16-C ) :   0.1266
B(  1-C , 17-C ) :   0.9237 B(  1-C , 20-H ) :   0.9663 B(  1-C , 21-H ) :   0.9315
B(  2-C ,  3-H ) :   0.9840 B(  2-C ,  4-H ) :   0.8796 B(  2-C ,  5-C ) :   0.9392
B(  2-C , 16-C ) :   0.1572 B(  5-C , 13-F ) :   0.7731 B(  5-C , 14-O ) :   1.6504
B(  6-C ,  7-C ) :   1.5229 B(  6-C ,  8-N ) :   1.1107 B(  6-C , 12-H ) :  -0.1303
B(  6-C , 35-H ) :  -0.1010 B(  7-C , 11-H ) :   1.0774 B(  7-C , 12-H ) :   0.6157
B(  8-N ,  9-H ) :   0.7618 B(  8-N , 10-H ) :   0.9034 B( 12-H , 14-O ) :  -0.2379
B( 15-C , 22-C ) :   0.5620 B( 15-C , 23-H ) :   0.9158 B( 15-C , 24-H ) :   0.9611
B( 15-C , 25-C ) :   0.4193 B( 15-C , 27-H ) :  -0.1426 B( 16-C , 17-C ) :   0.3170
B( 16-C , 19-H ) :  -0.1929 B( 16-C , 22-C ) :   0.1171 B( 16-C , 28-C ) :   0.8990
B( 16-C , 31-H ) :   1.0680 B( 16-C , 32-H ) :   0.8788 B( 17-C , 18-H ) :   0.8178
B( 17-C , 19-H ) :   1.2380 B( 17-C , 25-C ) :   0.1160 B( 17-C , 28-C ) :   0.1832
B( 17-C , 31-H ) :  -0.1554 B( 22-C , 25-C ) :   0.4359 B( 22-C , 26-H ) :   1.6457
B( 22-C , 27-H ) :   0.8659 B( 22-C , 28-C ) :   0.1162 B( 23-H , 25-C ) :   0.1146
B( 25-C , 27-H ) :  -0.1221 B( 25-C , 28-C ) :   0.8990 B( 25-C , 29-H ) :   0.9690
B( 25-C , 30-H ) :   0.9280 B( 28-C , 33-H ) :   0.9628 B( 28-C , 34-H ) :   0.9638

Dispersion correction           -0.069875588
FINAL SINGLE POINT ENERGY      -700.193458808582

DIPOLE MOMENT
-------------
                                X             Y             Z
Electronic contribution:      1.17505       7.37346      14.96546
Nuclear contribution   :     -1.66567      -5.90236     -15.95042
                        -----------------------------------------
Total Dipole Moment    :     -0.49062       1.47110      -0.98497
                        -----------------------------------------
Magnitude (a.u.)       :      1.83712
Magnitude (Debye)      :      4.66958

Rotational constants in cm-1:     0.021600     0.017292     0.011381
Rotational constants in MHz :   647.565282   518.410024   341.193038

                             ****ORCA TERMINATED NORMALLY****
TOTAL RUN TIME: 0 days 0 hours 9 minutes 56 seconds 494 msec
