                         Program Version 5.0.0 -  RELEASE  -
|  1> !B3LYP D3BJ RIJCOSX def2-TZVPD def2/J TightSCF xyzfile
|  2>
|  3> *xyzfile 0 1 D2.xyz
|  4>
|  5> %MaxCore 64000
|  6>
|  7> %pal nprocs 4
|  8> end
|  9>
| 10> %scf
| 11>   MaxIter 150
| 12> end
| 13>
| 14>
| 15>                          ****END OF INPUT****

CARTESIAN COORDINATES (ANGSTROEM)
---------------------------------
  C      4.602954   -2.440100    2.634780
  C     -0.914947    0.615112    2.505538
  C     -0.059146    1.503524    3.410578
  H      0.365364    2.344315    2.861161
  H     -0.692261    1.920207    4.198985
  C      1.083027    0.749640    4.085705
  C      3.860851   -1.591565    3.622893
  N      2.756502   -2.046159    4.166333
  C      4.254325   -0.362905    3.860455
  H      3.565256    0.310994    4.168983
  H      5.054292   -0.016059    3.337838
  H      2.439696   -2.973894    3.897395
  H      2.066869   -1.412532    4.549813
  F      2.228167    1.263475    4.019826
  O      0.810034   -0.345411    4.636269
  C      3.744685   -2.580557    1.361882
  C      0.772139    0.636882    0.562129
  C     -0.130740   -0.193985    1.470763
  H     -0.840563   -0.760165    0.856377
  H      0.466691   -0.938942    2.006959
  H     -1.647961    1.245963    1.991076
  H     -1.478180   -0.081046    3.130424
  C      3.203721   -1.256004    0.826211
  H      2.898939   -3.239289    1.583074
  H      4.334962   -3.095523    0.600188
  C      2.107815   -1.442385   -0.216865
  H      2.786775   -0.672760    1.650711
  H      4.021008   -0.652993    0.414046
  C      1.390662   -0.145912   -0.602422
  H      1.372179   -2.152184    0.176151
  H      2.523302   -1.906787   -1.117115
  H      1.561361    1.100094    1.161831
  H      0.195516    1.468325    0.142758
  H      0.602893   -0.398214   -1.319716
  H      2.087247    0.508272   -1.137335
  H      5.561557   -1.971347    2.407084
  H      4.810498   -3.422552    3.063099

 Total Charge           Charge          ....    0
 Multiplicity           Mult            ....    1
 Number of Electrons    NEL             ....  118
 Basis Dimension        Dim             ....  759

ORBITAL ENERGIES
----------------

  NO   OCC          E(Eh)            E(eV)
   0   2.0000     -24.767295      -673.9524
   1   2.0000     -19.155089      -521.2365
   2   2.0000     -14.281196      -388.6111
   3   2.0000     -10.370014      -282.1824
   4   2.0000     -10.209184      -277.8060
   5   2.0000     -10.187839      -277.2252
   6   2.0000     -10.172390      -276.8048
   7   2.0000     -10.169602      -276.7289
   8   2.0000     -10.166930      -276.6562
   9   2.0000     -10.164184      -276.5815
  10   2.0000     -10.158849      -276.4363
  11   2.0000     -10.157790      -276.4075
  12   2.0000     -10.154663      -276.3224
  13   2.0000     -10.151777      -276.2439
  14   2.0000     -10.073143      -274.1042
  15   2.0000      -1.340028       -36.4640
  16   2.0000      -1.064083       -28.9552
  17   2.0000      -0.908757       -24.7285
  18   2.0000      -0.832952       -22.6658
  19   2.0000      -0.805776       -21.9263
  20   2.0000      -0.779666       -21.2158
  21   2.0000      -0.745994       -20.2995
  22   2.0000      -0.715581       -19.4720
  23   2.0000      -0.702836       -19.1251
  24   2.0000      -0.671194       -18.2641
  25   2.0000      -0.648596       -17.6492
  26   2.0000      -0.612424       -16.6649
  27   2.0000      -0.586132       -15.9495
  28   2.0000      -0.569551       -15.4983
  29   2.0000      -0.562968       -15.3191
  30   2.0000      -0.556632       -15.1467
  31   2.0000      -0.548538       -14.9265
  32   2.0000      -0.527589       -14.3564
  33   2.0000      -0.499167       -13.5830
  34   2.0000      -0.484786       -13.1917
  35   2.0000      -0.479013       -13.0346
  36   2.0000      -0.462712       -12.5910
  37   2.0000      -0.453335       -12.3359
  38   2.0000      -0.443924       -12.0798
  39   2.0000      -0.434658       -11.8276
  40   2.0000      -0.423328       -11.5194
  41   2.0000      -0.411226       -11.1900
  42   2.0000      -0.407681       -11.0936
  43   2.0000      -0.395509       -10.7623
  44   2.0000      -0.382558       -10.4099
  45   2.0000      -0.375705       -10.2235
  46   2.0000      -0.370520       -10.0824
  47   2.0000      -0.368141       -10.0176
  48   2.0000      -0.353937        -9.6311
  49   2.0000      -0.349983        -9.5235
  50   2.0000      -0.343753        -9.3540
  51   2.0000      -0.329521        -8.9667
  52   2.0000      -0.324991        -8.8435
  53   2.0000      -0.321782        -8.7561
  54   2.0000      -0.315402        -8.5825
  55   2.0000      -0.313150        -8.5212
  56   2.0000      -0.304047        -8.2735
  57   2.0000      -0.294286        -8.0079
  58   2.0000      -0.171470        -4.6659
  59   0.0000      -0.055335        -1.5057
  60   0.0000      -0.002502        -0.0681
  61   0.0000       0.008350         0.2272
  62   0.0000       0.013432         0.3655
  63   0.0000       0.016748         0.4557

MULLIKEN ATOMIC CHARGES
-----------------------
   0 C :   -0.611184
   1 C :   -0.536040
   2 C :   -0.459646
   3 H :    0.281410
   4 H :    0.275143
   5 C :    0.740349
   6 C :    0.229093
   7 N :   -0.303483
   8 C :   -1.222437
   9 H :    0.548165
  10 H :    0.266614
  11 H :    0.173367
  12 H :    0.320263
  13 F :   -0.292576
  14 O :   -0.663537
  15 C :   -0.589958
  16 C :   -0.277491
  17 C :   -0.463999
  18 H :    0.310868
  19 H :    0.216055
  20 H :    0.251841
  21 H :    0.233547
  22 C :    0.303022
  23 H :    0.214526
  24 H :    0.234690
  25 C :   -0.528818
  26 H :   -0.139748
  27 H :    0.206840
  28 C :   -0.702314
  29 H :    0.214739
  30 H :    0.256774
  31 H :    0.272520
  32 H :    0.260625
  33 H :    0.251571
  34 H :    0.250271
  35 H :    0.229983
  36 H :    0.248957
Sum of atomic charges:   -0.0000000

LOEWDIN ATOMIC CHARGES
----------------------
   0 C :   -0.139221
   1 C :   -0.187738
   2 C :   -0.093054
   3 H :    0.113485
   4 H :    0.128381
   5 C :   -0.431586
   6 C :   -0.497267
   7 N :    0.133209
   8 C :    0.020001
   9 H :   -0.004533
  10 H :    0.029231
  11 H :    0.110372
  12 H :    0.041649
  13 F :    0.189393
  14 O :    0.083088
  15 C :   -0.190864
  16 C :   -0.210771
  17 C :   -0.204688
  18 H :    0.120805
  19 H :    0.102547
  20 H :    0.115163
  21 H :    0.112650
  22 C :   -0.208139
  23 H :    0.100986
  24 H :    0.109784
  25 C :   -0.215332
  26 H :    0.083414
  27 H :    0.126791
  28 C :   -0.203588
  29 H :    0.104156
  30 H :    0.111408
  31 H :    0.101012
  32 H :    0.114207
  33 H :    0.106528
  34 H :    0.108346
  35 H :    0.110988
  36 H :    0.109191

  Mayer bond orders larger than 0.100000
B(  0-C ,  6-C ) :   0.7896 B(  0-C , 15-C ) :   0.8216 B(  0-C , 35-H ) :   0.9001
B(  0-C , 36-H ) :   1.0372 B(  1-C ,  2-C ) :   0.8678 B(  1-C , 16-C ) :   0.1297
B(  1-C , 17-C ) :   0.9263 B(  1-C , 20-H ) :   0.9544 B(  1-C , 21-H ) :   0.9361
B(  2-C ,  3-H ) :   0.9736 B(  2-C ,  4-H ) :   0.8700 B(  2-C ,  5-C ) :   0.9512
B(  2-C , 16-C ) :   0.1579 B(  5-C , 13-F ) :   0.8391 B(  5-C , 14-O ) :   1.5129
B(  6-C ,  7-N ) :   0.9642 B(  6-C ,  8-C ) :   1.7670 B(  6-C ,  9-H ) :  -0.1244
B(  6-C , 10-H ) :  -0.1286 B(  7-N , 11-H ) :   0.9242 B(  7-N , 12-H ) :   0.7645
B(  8-C ,  9-H ) :   0.7447 B(  8-C , 10-H ) :   1.1409 B(  8-C , 26-H ) :  -0.1182
B( 13-F , 14-O ) :   0.1039 B( 15-C , 22-C ) :   0.5348 B( 15-C , 23-H ) :   0.9231
B( 15-C , 24-H ) :   0.9793 B( 15-C , 25-C ) :   0.4063 B( 15-C , 27-H ) :  -0.1373
B( 16-C , 17-C ) :   0.3164 B( 16-C , 19-H ) :  -0.1863 B( 16-C , 22-C ) :   0.1121
B( 16-C , 28-C ) :   0.9062 B( 16-C , 31-H ) :   1.0689 B( 16-C , 32-H ) :   0.8755
B( 17-C , 18-H ) :   0.8067 B( 17-C , 19-H ) :   1.2323 B( 17-C , 25-C ) :   0.1141
B( 17-C , 28-C ) :   0.1839 B( 17-C , 31-H ) :  -0.1630 B( 22-C , 25-C ) :   0.4548
B( 22-C , 26-H ) :   1.6382 B( 22-C , 27-H ) :   0.8334 B( 22-C , 28-C ) :   0.1128
B( 25-C , 26-H ) :  -0.1038 B( 25-C , 27-H ) :  -0.1185 B( 25-C , 28-C ) :   0.8880
B( 25-C , 29-H ) :   0.9605 B( 25-C , 30-H ) :   0.9624 B( 26-H , 27-H ) :   0.1414
B( 28-C , 33-H ) :   0.9665 B( 28-C , 34-H ) :   0.9630

Dispersion correction           -0.069782896
FINAL SINGLE POINT ENERGY      -700.203527203907

DIPOLE MOMENT
-------------
                                X             Y             Z
Electronic contribution:      0.06355       6.25251      15.13116
Nuclear contribution   :     -1.39991      -5.60370     -16.00470
                        -----------------------------------------
Total Dipole Moment    :     -1.33636       0.64881      -0.87354
                        -----------------------------------------
Magnitude (a.u.)       :      1.72333
Magnitude (Debye)      :      4.38037

Rotational constants in cm-1:     0.021622     0.017313     0.011402
Rotational constants in MHz :   648.226014   519.043632   341.814105

                             ****ORCA TERMINATED NORMALLY****
TOTAL RUN TIME: 0 days 0 hours 9 minutes 15 seconds 839 msec
