                         Program Version 5.0.0 -  RELEASE  -
|  1> !B3LYP D3BJ RIJCOSX def2-TZVPD def2/J TightSCF xyzfile
|  2>
|  3> *xyzfile 0 1 D3.xyz
|  4>
|  5> %MaxCore 64000
|  6>
|  7> %pal nprocs 4
|  8> end
|  9>
| 10> %scf
| 11>   MaxIter 150
| 12> end
| 13>
| 14>
| 15>                          ****END OF INPUT****

CARTESIAN COORDINATES (ANGSTROEM)
---------------------------------
  C      4.602954   -2.440100    2.634780
  C     -0.914947    0.615112    2.505538
  C     -0.059146    1.503524    3.410578
  H      0.365364    2.344315    2.861161
  H     -0.692261    1.920207    4.198985
  C      1.083027    0.749640    4.085705
  C      3.860851   -1.591565    3.622893
  C      2.756502   -2.046159    4.166333
  N      4.254325   -0.362905    3.860455
  H      3.565256    0.310994    4.168983
  H      5.054292   -0.016059    3.337838
  H      2.439696   -2.973894    3.897395
  H      2.066869   -1.412532    4.549813
  O      2.228167    1.263475    4.019826
  F      0.810034   -0.345411    4.636269
  C      3.744685   -2.580557    1.361882
  C      0.772139    0.636882    0.562129
  C     -0.130740   -0.193985    1.470763
  H     -0.840563   -0.760165    0.856377
  H      0.466691   -0.938942    2.006959
  H     -1.647961    1.245963    1.991076
  H     -1.478180   -0.081046    3.130424
  C      3.203721   -1.256004    0.826211
  H      2.898939   -3.239289    1.583074
  H      4.334962   -3.095523    0.600188
  C      2.107815   -1.442385   -0.216865
  H      2.786775   -0.672760    1.650711
  H      4.021008   -0.652993    0.414046
  C      1.390662   -0.145912   -0.602422
  H      1.372179   -2.152184    0.176151
  H      2.523302   -1.906787   -1.117115
  H      1.561361    1.100094    1.161831
  H      0.195516    1.468325    0.142758
  H      0.602893   -0.398214   -1.319716
  H      2.087247    0.508272   -1.137335
  H      5.561557   -1.971347    2.407084
  H      4.810498   -3.422552    3.063099

 Total Charge           Charge          ....    0
 Multiplicity           Mult            ....    1
 Number of Electrons    NEL             ....  118
 Basis Dimension        Dim             ....  759

ORBITAL ENERGIES
----------------

  NO   OCC          E(Eh)            E(eV)
   0   2.0000     -24.766426      -673.9287
   1   2.0000     -19.153416      -521.1909
   2   2.0000     -14.279474      -388.5642
   3   2.0000     -10.368263      -282.1348
   4   2.0000     -10.207317      -277.7552
   5   2.0000     -10.189003      -277.2569
   6   2.0000     -10.173041      -276.8225
   7   2.0000     -10.166932      -276.6563
   8   2.0000     -10.166763      -276.6517
   9   2.0000     -10.162519      -276.5362
  10   2.0000     -10.156494      -276.3723
  11   2.0000     -10.155268      -276.3389
  12   2.0000     -10.154999      -276.3316
  13   2.0000     -10.151002      -276.2228
  14   2.0000     -10.072930      -274.0983
  15   2.0000      -1.339673       -36.4544
  16   2.0000      -1.061025       -28.8720
  17   2.0000      -0.907709       -24.7000
  18   2.0000      -0.833842       -22.6900
  19   2.0000      -0.805146       -21.9091
  20   2.0000      -0.779083       -21.1999
  21   2.0000      -0.744753       -20.2658
  22   2.0000      -0.712673       -19.3928
  23   2.0000      -0.695911       -18.9367
  24   2.0000      -0.671403       -18.2698
  25   2.0000      -0.648681       -17.6515
  26   2.0000      -0.614409       -16.7189
  27   2.0000      -0.589384       -16.0380
  28   2.0000      -0.570163       -15.5149
  29   2.0000      -0.566526       -15.4160
  30   2.0000      -0.555595       -15.1185
  31   2.0000      -0.542588       -14.7646
  32   2.0000      -0.521995       -14.2042
  33   2.0000      -0.492943       -13.4137
  34   2.0000      -0.483321       -13.1518
  35   2.0000      -0.478561       -13.0223
  36   2.0000      -0.467765       -12.7285
  37   2.0000      -0.448095       -12.1933
  38   2.0000      -0.444286       -12.0896
  39   2.0000      -0.431179       -11.7330
  40   2.0000      -0.422921       -11.5083
  41   2.0000      -0.410246       -11.1634
  42   2.0000      -0.408493       -11.1157
  43   2.0000      -0.391933       -10.6650
  44   2.0000      -0.386370       -10.5137
  45   2.0000      -0.376796       -10.2531
  46   2.0000      -0.372960       -10.1488
  47   2.0000      -0.366208        -9.9650
  48   2.0000      -0.354187        -9.6379
  49   2.0000      -0.343973        -9.3600
  50   2.0000      -0.340924        -9.2770
  51   2.0000      -0.334859        -9.1120
  52   2.0000      -0.323370        -8.7993
  53   2.0000      -0.320274        -8.7151
  54   2.0000      -0.313441        -8.5292
  55   2.0000      -0.309873        -8.4321
  56   2.0000      -0.301558        -8.2058
  57   2.0000      -0.294187        -8.0052
  58   2.0000      -0.170226        -4.6321
  59   0.0000      -0.050942        -1.3862
  60   0.0000      -0.003325        -0.0905
  61   0.0000       0.012689         0.3453
  62   0.0000       0.013210         0.3595
  63   0.0000       0.017380         0.4729

MULLIKEN ATOMIC CHARGES
-----------------------
   0 C :   -0.632766
   1 C :   -0.607525
   2 C :   -0.391601
   3 H :    0.237119
   4 H :    0.294894
   5 C :    0.706505
   6 C :    0.245132
   7 C :   -1.395249
   8 N :   -0.301896
   9 H :    0.325407
  10 H :    0.174872
  11 H :    0.325305
  12 H :    0.644143
  13 O :   -0.635292
  14 F :   -0.309498
  15 C :   -0.571588
  16 C :   -0.288673
  17 C :   -0.363102
  18 H :    0.296143
  19 H :    0.185429
  20 H :    0.246008
  21 H :    0.250173
  22 C :    0.186793
  23 H :    0.206724
  24 H :    0.262521
  25 C :   -0.537966
  26 H :   -0.055794
  27 H :    0.178214
  28 C :   -0.703656
  29 H :    0.203133
  30 H :    0.283072
  31 H :    0.278079
  32 H :    0.262735
  33 H :    0.248667
  34 H :    0.250912
  35 H :    0.283634
  36 H :    0.218991
Sum of atomic charges:    0.0000000

LOEWDIN ATOMIC CHARGES
----------------------
   0 C :   -0.136805
   1 C :   -0.192123
   2 C :   -0.089749
   3 H :    0.120170
   4 H :    0.126375
   5 C :   -0.435237
   6 C :   -0.492304
   7 C :    0.024285
   8 N :    0.123085
   9 H :    0.041962
  10 H :    0.108262
  11 H :    0.032386
  12 H :   -0.005637
  13 O :    0.079428
  14 F :    0.191664
  15 C :   -0.191474
  16 C :   -0.209267
  17 C :   -0.204291
  18 H :    0.120517
  19 H :    0.103741
  20 H :    0.114680
  21 H :    0.110400
  22 C :   -0.210480
  23 H :    0.105990
  24 H :    0.108041
  25 C :   -0.213652
  26 H :    0.084227
  27 H :    0.123082
  28 C :   -0.203990
  29 H :    0.105180
  30 H :    0.111687
  31 H :    0.102247
  32 H :    0.114303
  33 H :    0.106055
  34 H :    0.108107
  35 H :    0.105314
  36 H :    0.113819

  Mayer bond orders larger than 0.100000
B(  0-C ,  6-C ) :   0.7633 B(  0-C , 15-C ) :   0.8144 B(  0-C , 35-H ) :   0.9468
B(  0-C , 36-H ) :   1.0025 B(  1-C ,  2-C ) :   0.8117 B(  1-C , 16-C ) :   0.1373
B(  1-C , 17-C ) :   0.8502 B(  1-C , 20-H ) :   0.9582 B(  1-C , 21-H ) :   0.9666
B(  2-C ,  3-H ) :   1.0129 B(  2-C ,  4-H ) :   0.8788 B(  2-C ,  5-C ) :   0.9339
B(  2-C , 16-C ) :   0.1589 B(  5-C , 13-O ) :   1.5597 B(  5-C , 14-F ) :   0.8380
B(  6-C ,  7-C ) :   1.5234 B(  6-C ,  8-N ) :   1.0996 B(  7-C , 11-H ) :   1.0514
B(  7-C , 12-H ) :   0.6620 B(  8-N ,  9-H ) :   0.7786 B(  8-N , 10-H ) :   0.8978
B( 15-C , 22-C ) :   0.5594 B( 15-C , 23-H ) :   0.9183 B( 15-C , 24-H ) :   0.9613
B( 15-C , 25-C ) :   0.4167 B( 15-C , 27-H ) :  -0.1430 B( 16-C , 17-C ) :   0.3573
B( 16-C , 19-H ) :  -0.1722 B( 16-C , 22-C ) :   0.1088 B( 16-C , 28-C ) :   0.8811
B( 16-C , 31-H ) :   1.0584 B( 16-C , 32-H ) :   0.8700 B( 17-C , 18-H ) :   0.8491
B( 17-C , 19-H ) :   1.2081 B( 17-C , 25-C ) :   0.1231 B( 17-C , 28-C ) :   0.1753
B( 17-C , 31-H ) :  -0.1385 B( 22-C , 25-C ) :   0.4173 B( 22-C , 26-H ) :   1.6573
B( 22-C , 27-H ) :   0.8529 B( 22-C , 28-C ) :   0.1148 B( 23-H , 25-C ) :   0.1155
B( 25-C , 26-H ) :  -0.1109 B( 25-C , 27-H ) :  -0.1207 B( 25-C , 28-C ) :   0.8957
B( 25-C , 29-H ) :   0.9728 B( 25-C , 30-H ) :   0.9309 B( 26-H , 27-H ) :   0.1157
B( 28-C , 33-H ) :   0.9670 B( 28-C , 34-H ) :   0.9610

Dispersion correction           -0.069860084
FINAL SINGLE POINT ENERGY      -700.204574442450

DIPOLE MOMENT
-------------
                                X             Y             Z
Electronic contribution:     -1.22129       4.75577      15.96512
Nuclear contribution   :      0.05905      -3.94566     -16.70013
                        -----------------------------------------
Total Dipole Moment    :     -1.16224       0.81011      -0.73501
                        -----------------------------------------
Magnitude (a.u.)       :      1.59603
Magnitude (Debye)      :      4.05679

Rotational constants in cm-1:     0.021602     0.017295     0.011353
Rotational constants in MHz :   647.614981   518.478934   340.359556

                             ****ORCA TERMINATED NORMALLY****
TOTAL RUN TIME: 0 days 0 hours 9 minutes 20 seconds 576 msec
