                         Program Version 5.0.0 -  RELEASE  -
|  1> !B3LYP D3BJ RIJCOSX def2-TZVPD def2/J TightSCF xyzfile
|  2>
|  3> *xyzfile 0 1 D4.xyz
|  4>
|  5> %MaxCore 64000
|  6>
|  7> %pal nprocs 4
|  8> end
|  9>
| 10> %scf
| 11>   MaxIter 150
| 12> end
| 13>
| 14>
| 15>                          ****END OF INPUT****

CARTESIAN COORDINATES (ANGSTROEM)
---------------------------------
  C      4.602954   -2.440100    2.634780
  C     -0.914947    0.615112    2.505538
  C     -0.059146    1.503524    3.410578
  H      0.365364    2.344315    2.861161
  H     -0.692261    1.920207    4.198985
  C      1.083027    0.749640    4.085705
  C      3.860851   -1.591565    3.622893
  N      2.756502   -2.046159    4.166333
  C      4.254325   -0.362905    3.860455
  H      3.565256    0.310994    4.168983
  H      5.054292   -0.016059    3.337838
  H      2.439696   -2.973894    3.897395
  H      2.066869   -1.412532    4.549813
  O      2.228167    1.263475    4.019826
  F      0.810034   -0.345411    4.636269
  C      3.744685   -2.580557    1.361882
  C      0.772139    0.636882    0.562129
  C     -0.130740   -0.193985    1.470763
  H     -0.840563   -0.760165    0.856377
  H      0.466691   -0.938942    2.006959
  H     -1.647961    1.245963    1.991076
  H     -1.478180   -0.081046    3.130424
  C      3.203721   -1.256004    0.826211
  H      2.898939   -3.239289    1.583074
  H      4.334962   -3.095523    0.600188
  C      2.107815   -1.442385   -0.216865
  H      2.786775   -0.672760    1.650711
  H      4.021008   -0.652993    0.414046
  C      1.390662   -0.145912   -0.602422
  H      1.372179   -2.152184    0.176151
  H      2.523302   -1.906787   -1.117115
  H      1.561361    1.100094    1.161831
  H      0.195516    1.468325    0.142758
  H      0.602893   -0.398214   -1.319716
  H      2.087247    0.508272   -1.137335
  H      5.561557   -1.971347    2.407084
  H      4.810498   -3.422552    3.063099

 Total Charge           Charge          ....    0
 Multiplicity           Mult            ....    1
 Number of Electrons    NEL             ....  118
 Basis Dimension        Dim             ....  759

ORBITAL ENERGIES
----------------

  NO   OCC          E(Eh)            E(eV)
   0   2.0000     -24.778499      -674.2572
   1   2.0000     -19.144952      -520.9606
   2   2.0000     -14.294013      -388.9599
   3   2.0000     -10.363672      -282.0098
   4   2.0000     -10.206729      -277.7392
   5   2.0000     -10.190037      -277.2850
   6   2.0000     -10.175813      -276.8979
   7   2.0000     -10.166856      -276.6542
   8   2.0000     -10.163020      -276.5498
   9   2.0000     -10.162485      -276.5353
  10   2.0000     -10.157567      -276.4014
  11   2.0000     -10.156652      -276.3766
  12   2.0000     -10.153305      -276.2855
  13   2.0000     -10.149315      -276.1769
  14   2.0000     -10.063329      -273.8371
  15   2.0000      -1.350531       -36.7498
  16   2.0000      -1.053562       -28.6689
  17   2.0000      -0.915802       -24.9202
  18   2.0000      -0.834630       -22.7114
  19   2.0000      -0.805061       -21.9068
  20   2.0000      -0.779689       -21.2164
  21   2.0000      -0.743524       -20.2323
  22   2.0000      -0.718391       -19.5484
  23   2.0000      -0.694310       -18.8931
  24   2.0000      -0.680643       -18.5212
  25   2.0000      -0.646946       -17.6043
  26   2.0000      -0.614784       -16.7291
  27   2.0000      -0.588078       -16.0024
  28   2.0000      -0.581636       -15.8271
  29   2.0000      -0.572646       -15.5825
  30   2.0000      -0.554017       -15.0756
  31   2.0000      -0.543805       -14.7977
  32   2.0000      -0.520693       -14.1688
  33   2.0000      -0.501629       -13.6500
  34   2.0000      -0.485498       -13.2111
  35   2.0000      -0.482056       -13.1174
  36   2.0000      -0.460695       -12.5361
  37   2.0000      -0.446692       -12.1551
  38   2.0000      -0.441359       -12.0100
  39   2.0000      -0.436115       -11.8673
  40   2.0000      -0.419660       -11.4195
  41   2.0000      -0.414439       -11.2775
  42   2.0000      -0.409169       -11.1341
  43   2.0000      -0.390462       -10.6250
  44   2.0000      -0.384369       -10.4592
  45   2.0000      -0.376724       -10.2512
  46   2.0000      -0.373732       -10.1698
  47   2.0000      -0.361891        -9.8475
  48   2.0000      -0.357080        -9.7166
  49   2.0000      -0.349539        -9.5114
  50   2.0000      -0.345265        -9.3951
  51   2.0000      -0.329755        -8.9731
  52   2.0000      -0.324840        -8.8393
  53   2.0000      -0.322861        -8.7855
  54   2.0000      -0.313709        -8.5364
  55   2.0000      -0.309279        -8.4159
  56   2.0000      -0.302195        -8.2231
  57   2.0000      -0.272247        -7.4082
  58   2.0000      -0.170112        -4.6290
  59   0.0000      -0.048718        -1.3257
  60   0.0000      -0.006633        -0.1805
  61   0.0000       0.007283         0.1982
  62   0.0000       0.012816         0.3488
  63   0.0000       0.017258         0.4696

MULLIKEN ATOMIC CHARGES
-----------------------
   0 C :   -0.619307
   1 C :   -0.613422
   2 C :   -0.380286
   3 H :    0.236996
   4 H :    0.290496
   5 C :    0.666254
   6 C :    0.183011
   7 N :   -0.321163
   8 C :   -1.244786
   9 H :    0.648050
  10 H :    0.242726
  11 H :    0.180710
  12 H :    0.342238
  13 O :   -0.556373
  14 F :   -0.367525
  15 C :   -0.585166
  16 C :   -0.307133
  17 C :   -0.362451
  18 H :    0.301999
  19 H :    0.167358
  20 H :    0.250820
  21 H :    0.248209
  22 C :    0.270446
  23 H :    0.207504
  24 H :    0.230162
  25 C :   -0.528465
  26 H :   -0.091889
  27 H :    0.207039
  28 C :   -0.689824
  29 H :    0.210184
  30 H :    0.254051
  31 H :    0.291684
  32 H :    0.266080
  33 H :    0.248202
  34 H :    0.250579
  35 H :    0.226191
  36 H :    0.246801
Sum of atomic charges:   -0.0000000

LOEWDIN ATOMIC CHARGES
----------------------
   0 C :   -0.140761
   1 C :   -0.194581
   2 C :   -0.090837
   3 H :    0.121148
   4 H :    0.125570
   5 C :   -0.439943
   6 C :   -0.498339
   7 N :    0.130908
   8 C :    0.024865
   9 H :   -0.024409
  10 H :    0.032886
  11 H :    0.109699
  12 H :    0.067003
  13 O :    0.081259
  14 F :    0.195216
  15 C :   -0.192431
  16 C :   -0.207947
  17 C :   -0.206444
  18 H :    0.120063
  19 H :    0.100771
  20 H :    0.114690
  21 H :    0.108916
  22 C :   -0.206631
  23 H :    0.099421
  24 H :    0.109406
  25 C :   -0.216213
  26 H :    0.085229
  27 H :    0.127788
  28 C :   -0.203470
  29 H :    0.102901
  30 H :    0.111144
  31 H :    0.104256
  32 H :    0.114772
  33 H :    0.105794
  34 H :    0.108925
  35 H :    0.111587
  36 H :    0.107788

  Mayer bond orders larger than 0.100000
B(  0-C ,  6-C ) :   0.7870 B(  0-C , 15-C ) :   0.8173 B(  0-C , 35-H ) :   0.8987
B(  0-C , 36-H ) :   1.0498 B(  1-C ,  2-C ) :   0.8093 B(  1-C , 16-C ) :   0.1425
B(  1-C , 17-C ) :   0.8566 B(  1-C , 20-H ) :   0.9526 B(  1-C , 21-H ) :   0.9641
B(  2-C ,  3-H ) :   1.0046 B(  2-C ,  4-H ) :   0.8781 B(  2-C ,  5-C ) :   0.9558
B(  2-C , 16-C ) :   0.1608 B(  5-C , 13-O ) :   1.6488 B(  5-C , 14-F ) :   0.7292
B(  6-C ,  7-N ) :   0.9887 B(  6-C ,  8-C ) :   1.7392 B(  6-C ,  9-H ) :  -0.1440
B(  6-C , 10-H ) :  -0.1327 B(  7-N , 11-H ) :   0.9300 B(  7-N , 12-H ) :   0.7447
B(  8-C ,  9-H ) :   0.7219 B(  8-C , 10-H ) :   1.1858 B(  8-C , 26-H ) :  -0.1087
B(  9-H , 13-O ) :  -0.2136 B( 13-O , 14-F ) :   0.1059 B( 15-C , 22-C ) :   0.5193
B( 15-C , 23-H ) :   0.9292 B( 15-C , 24-H ) :   0.9804 B( 15-C , 25-C ) :   0.4036
B( 15-C , 27-H ) :  -0.1362 B( 16-C , 17-C ) :   0.3624 B( 16-C , 19-H ) :  -0.1656
B( 16-C , 22-C ) :   0.1047 B( 16-C , 28-C ) :   0.8843 B( 16-C , 31-H ) :   1.0549
B( 16-C , 32-H ) :   0.8664 B( 17-C , 18-H ) :   0.8327 B( 17-C , 19-H ) :   1.2081
B( 17-C , 25-C ) :   0.1218 B( 17-C , 28-C ) :   0.1760 B( 17-C , 31-H ) :  -0.1428
B( 22-C , 25-C ) :   0.4389 B( 22-C , 26-H ) :   1.6483 B( 22-C , 27-H ) :   0.8261
B( 22-C , 28-C ) :   0.1140 B( 25-C , 26-H ) :  -0.1086 B( 25-C , 27-H ) :  -0.1171
B( 25-C , 28-C ) :   0.8867 B( 25-C , 29-H ) :   0.9633 B( 25-C , 30-H ) :   0.9636
B( 26-H , 27-H ) :   0.1516 B( 28-C , 33-H ) :   0.9697 B( 28-C , 34-H ) :   0.9595

Dispersion correction           -0.069782845
FINAL SINGLE POINT ENERGY      -700.192045449417

DIPOLE MOMENT
-------------
                                X             Y             Z
Electronic contribution:     -2.25698       3.59461      16.20218
Nuclear contribution   :      0.32481      -3.64700     -16.75441
                        -----------------------------------------
Total Dipole Moment    :     -1.93218      -0.05239      -0.55223
                        -----------------------------------------
Magnitude (a.u.)       :      2.01023
Magnitude (Debye)      :      5.10959

Rotational constants in cm-1:     0.021629     0.017327     0.011372
Rotational constants in MHz :   648.414821   519.443407   340.925013

                             ****ORCA TERMINATED NORMALLY****
TOTAL RUN TIME: 0 days 0 hours 9 minutes 26 seconds 405 msec
