                         Program Version 5.0.0 -  RELEASE  -
|  1> !PBE0 D3BJ RIJCOSX def2-TZVP def2/J TightSCF
|  2> *xyz -1 1
|  3> C         -2.79070       -0.78527        5.70281
|  4> C         -2.45380        0.05510        6.94145
|  5> C         -2.07842        1.48042        6.56410
|  6> H         -1.62558       -0.38216        7.49891
|  7> H         -3.32527        0.08775        7.59917
|  8> O         -0.90125        1.85816        6.82810
|  9> O         -2.93658        2.17731        5.96415
| 10> H         -1.94052       -0.82114        5.05412
| 11> H         -3.61590       -0.34261        5.18514
| 12> H         -3.05063       -1.77815        6.00536
| 13> *
| 14> %MaxCore 64000
| 15>
| 16> %pal nprocs 4
| 17> end
| 18>
| 19> %scf
| 20>   MaxIter 150
| 21> end
| 22>
| 23>
| 24>                          ****END OF INPUT****

CARTESIAN COORDINATES (ANGSTROEM)
---------------------------------
  C     -2.790700   -0.785270    5.702810
  C     -2.453800    0.055100    6.941450
  C     -2.078420    1.480420    6.564100
  H     -1.625580   -0.382160    7.498910
  H     -3.325270    0.087750    7.599170
  O     -0.901250    1.858160    6.828100
  O     -2.936580    2.177310    5.964150
  H     -1.940520   -0.821140    5.054120
  H     -3.615900   -0.342610    5.185140
  H     -3.050630   -1.778150    6.005360

 Total Charge           Charge          ....   -1
 Multiplicity           Mult            ....    1
 Number of Electrons    NEL             ....   40
 Basis Dimension        Dim             ....  185

ORBITAL ENERGIES
----------------

  NO   OCC          E(Eh)            E(eV)
   0   2.0000     -18.927744      -515.0501
   1   2.0000     -18.926124      -515.0060
   2   2.0000     -10.090867      -274.5864
   3   2.0000     -10.053529      -273.5704
   4   2.0000     -10.041207      -273.2351
   5   2.0000      -0.835740       -22.7416
   6   2.0000      -0.741290       -20.1715
   7   2.0000      -0.624648       -16.9975
   8   2.0000      -0.490192       -13.3388
   9   2.0000      -0.331991        -9.0339
  10   2.0000      -0.302217        -8.2238
  11   2.0000      -0.269002        -7.3199
  12   2.0000      -0.237831        -6.4717
  13   2.0000      -0.221438        -6.0256
  14   2.0000      -0.214543        -5.8380
  15   2.0000      -0.182554        -4.9675
  16   2.0000      -0.165924        -4.5150
  17   2.0000      -0.049621        -1.3503
  18   2.0000      -0.044538        -1.2119
  19   2.0000      -0.029376        -0.7994
  20   0.0000       0.193397         5.2626
  21   0.0000       0.234838         6.3903
  22   0.0000       0.252587         6.8732
  23   0.0000       0.259078         7.0499
  24   0.0000       0.269700         7.3389

MULLIKEN ATOMIC CHARGES
-----------------------
   0 C :   -0.348781
   1 C :   -0.128745
   2 C :    0.211985
   3 H :    0.046864
   4 H :    0.038799
   5 O :   -0.543622
   6 O :   -0.540565
   7 H :    0.096164
   8 H :    0.103538
   9 H :    0.064364
Sum of atomic charges:   -1.0000000

LOEWDIN ATOMIC CHARGES
----------------------
   0 C :   -0.326736
   1 C :   -0.293771
   2 C :   -0.698299
   3 H :    0.119851
   4 H :    0.121265
   5 O :   -0.124711
   6 O :   -0.114895
   7 H :    0.110235
   8 H :    0.112772
   9 H :    0.094290

  Mayer bond orders larger than 0.100000
B(  0-C ,  1-C ) :   0.9809 B(  0-C ,  7-H ) :   0.9808 B(  0-C ,  8-H ) :   0.9678
B(  0-C ,  9-H ) :   0.9682 B(  1-C ,  2-C ) :   0.9539 B(  1-C ,  3-H ) :   0.9473
B(  1-C ,  4-H ) :   0.9460 B(  2-C ,  5-O ) :   1.8666 B(  2-C ,  6-O ) :   1.8407

Dispersion correction           -0.005467074
FINAL SINGLE POINT ENERGY      -267.641657638478

DIPOLE MOMENT
-------------
                                X             Y             Z
Electronic contribution:      1.66467       5.63577       0.66356
Nuclear contribution   :     -2.24498      -7.51881      -0.57245
                        -----------------------------------------
Total Dipole Moment    :     -0.58031      -1.88304       0.09111
                        -----------------------------------------
Magnitude (a.u.)       :      1.97253
Magnitude (Debye)      :      5.01379

Rotational constants in cm-1:     0.305589     0.135336     0.107479
Rotational constants in MHz :  9161.317320  4057.276612  3222.126231

                             ****ORCA TERMINATED NORMALLY****
TOTAL RUN TIME: 0 days 0 hours 0 minutes 23 seconds 259 msec
