                         Program Version 5.0.0 -  RELEASE  -
|  1> !PBE0 D3BJ RIJCOSX def2-TZVP def2/J TightSCF
|  2> *xyz 1 1
|  3> C         -0.69912        3.48945        3.75516
|  4> H         -0.96672        4.34901        3.14049
|  5> N         -1.08067        3.79296        5.15686
|  6> C          0.77696        3.13839        3.61741
|  7> H         -1.33146        2.65651        3.44632
|  8> H         -0.87449        4.76274        5.42734
|  9> H         -0.68079        3.13476        5.83900
| 10> H         -2.05755        3.53169        5.34620
| 11> H          0.99957        2.92898        2.59199
| 12> H          0.99576        2.27685        4.21303
| 13> H          1.37223        3.96279        3.95046
| 14> *
| 15> %MaxCore 64000
| 16>
| 17> %pal nprocs 4
| 18> end
| 19>
| 20> %scf
| 21>   MaxIter 150
| 22> end
| 23>
| 24>
| 25>                          ****END OF INPUT****

CARTESIAN COORDINATES (ANGSTROEM)
---------------------------------
  C     -0.699120    3.489450    3.755160
  H     -0.966720    4.349010    3.140490
  N     -1.080670    3.792960    5.156860
  C      0.776960    3.138390    3.617410
  H     -1.331460    2.656510    3.446320
  H     -0.874490    4.762740    5.427340
  H     -0.680790    3.134760    5.839000
  H     -2.057550    3.531690    5.346200
  H      0.999570    2.928980    2.591990
  H      0.995760    2.276850    4.213030
  H      1.372230    3.962790    3.950460

 Total Charge           Charge          ....    1
 Multiplicity           Mult            ....    1
 Number of Electrons    NEL             ....   26
 Basis Dimension        Dim             ....  141

ORBITAL ENERGIES
----------------

  NO   OCC          E(Eh)            E(eV)
   0   2.0000     -14.719411      -400.5355
   1   2.0000     -10.475205      -285.0448
   2   2.0000     -10.392948      -282.8065
   3   2.0000      -1.244899       -33.8754
   4   2.0000      -0.989762       -26.9328
   5   2.0000      -0.865457       -23.5503
   6   2.0000      -0.831320       -22.6214
   7   2.0000      -0.782527       -21.2936
   8   2.0000      -0.714083       -19.4312
   9   2.0000      -0.656715       -17.8701
  10   2.0000      -0.594364       -16.1735
  11   2.0000      -0.579806       -15.7773
  12   2.0000      -0.561961       -15.2917
  13   0.0000      -0.187670        -5.1068
  14   0.0000      -0.126521        -3.4428
  15   0.0000      -0.123501        -3.3606
  16   0.0000      -0.102854        -2.7988
  17   0.0000      -0.065195        -1.7741

MULLIKEN ATOMIC CHARGES
-----------------------
   0 C :   -0.206436
   1 H :    0.196331
   2 N :   -0.292650
   3 C :   -0.365451
   4 H :    0.185024
   5 H :    0.339821
   6 H :    0.320942
   7 H :    0.330590
   8 H :    0.184569
   9 H :    0.153356
  10 H :    0.153905
Sum of atomic charges:    1.0000000

LOEWDIN ATOMIC CHARGES
----------------------
   0 C :   -0.282032
   1 H :    0.155118
   2 N :    0.167504
   3 C :   -0.278979
   4 H :    0.153295
   5 H :    0.224791
   6 H :    0.222701
   7 H :    0.225790
   8 H :    0.148686
   9 H :    0.130973
  10 H :    0.132155

  Mayer bond orders larger than 0.100000
B(  0-C ,  1-H ) :   0.9483 B(  0-C ,  2-N ) :   0.8793 B(  0-C ,  3-C ) :   1.0261
B(  0-C ,  4-H ) :   0.9466 B(  2-N ,  5-H ) :   0.8679 B(  2-N ,  6-H ) :   0.8754
B(  2-N ,  7-H ) :   0.8780 B(  3-C ,  8-H ) :   0.9531 B(  3-C ,  9-H ) :   0.9564
B(  3-C , 10-H ) :   0.9566

Dispersion correction           -0.005000239
FINAL SINGLE POINT ENERGY      -135.418475302434

DIPOLE MOMENT
-------------
                                X             Y             Z
Electronic contribution:     -1.33264       0.57252       1.10578
Nuclear contribution   :      0.33986      -0.24565       0.10678
                        -----------------------------------------
Total Dipole Moment    :     -0.99279       0.32687       1.21256
                        -----------------------------------------
Magnitude (a.u.)       :      1.60086
Magnitude (Debye)      :      4.06907

Rotational constants in cm-1:     1.016237     0.277523     0.247812
Rotational constants in MHz : 30466.024354  8319.937961  7429.230177

                             ****ORCA TERMINATED NORMALLY****
TOTAL RUN TIME: 0 days 0 hours 0 minutes 15 seconds 926 msec
