                         Program Version 5.0.0 -  RELEASE  -
|  1> !PBE0 D3BJ RIJCOSX def2-TZVP def2/J TightSCF xyzfile
|  2>
|  3> *xyzfile 0 1 B.xyz
|  4>
|  5> %MaxCore 64000
|  6>
|  7> %pal nprocs 18
|  8> end
|  9>
| 10> %scf
| 11>   MaxIter 150
| 12> end
| 13>
| 14>
| 15>                          ****END OF INPUT****

CARTESIAN COORDINATES (ANGSTROEM)
---------------------------------
  C     -0.699123    3.489451    3.755163
  H     -0.966716    4.349013    3.140491
  N     -1.080669    3.792957    5.156857
  C      0.776956    3.138391    3.617408
  H     -1.331455    2.656510    3.446323
  H      1.371398    3.888342    4.149744
  H      1.046926    3.232057    2.561331
  C      1.118917    1.731170    4.115155
  H      2.200573    1.654226    4.254882
  C      0.659466    0.635182    3.153306
  H      0.677024    1.576674    5.103150
  H      1.312288    0.638870    2.274207
  H     -0.339563    0.868049    2.772876
  C      0.639957   -0.771175    3.755619
  C     -0.341821   -0.965537    4.915046
  H      1.648266   -1.028665    4.097015
  H      0.398568   -1.482386    2.958453
  H     -0.279892   -2.005646    5.252547
  C     -1.789164   -0.639231    4.557496
  H     -0.032380   -0.352918    5.765118
  H     -2.107151   -1.270102    3.719619
  H     -1.856352    0.391636    4.197604
  C     -2.790700   -0.785275    5.702812
  H     -2.867308   -1.835651    6.001675
  H     -3.774554   -0.486577    5.334807
  C     -2.453797    0.055101    6.941445
  C     -2.078419    1.480421    6.564098
  H     -1.625584   -0.382163    7.498914
  H     -3.325274    0.087746    7.599175
  H     -0.874488    4.762737    5.427344
  H     -0.680793    3.134762    5.839000
  H     -2.057550    3.531691    5.346197
  O     -0.901252    1.858156    6.828104
  O     -2.936582    2.177309    5.964151

 Total Charge           Charge          ....    0
 Multiplicity           Mult            ....    1
 Number of Electrons    NEL             ....  104
 Basis Dimension        Dim             ....  529

ORBITAL ENERGIES
----------------

  NO   OCC          E(Eh)            E(eV)
   0   2.0000     -19.139014      -520.7990
   1   2.0000     -19.136923      -520.7421
   2   2.0000     -14.463813      -393.5804
   3   2.0000     -10.291197      -280.0377
   4   2.0000     -10.290193      -280.0104
   5   2.0000     -10.243944      -278.7519
   6   2.0000     -10.219338      -278.0823
   7   2.0000     -10.216196      -277.9968
   8   2.0000     -10.209662      -277.8190
   9   2.0000     -10.200446      -277.5683
  10   2.0000     -10.200006      -277.5563
  11   2.0000     -10.198838      -277.5245
  12   2.0000     -10.191919      -277.3362
  13   2.0000      -1.055910       -28.7328
  14   2.0000      -1.008353       -27.4387
  15   2.0000      -0.955508       -26.0007
  16   2.0000      -0.846119       -23.0241
  17   2.0000      -0.817418       -22.2431
  18   2.0000      -0.788560       -21.4578
  19   2.0000      -0.741382       -20.1740
  20   2.0000      -0.708251       -19.2725
  21   2.0000      -0.668338       -18.1864
  22   2.0000      -0.629358       -17.1257
  23   2.0000      -0.611288       -16.6340
  24   2.0000      -0.593293       -16.1443
  25   2.0000      -0.566658       -15.4195
  26   2.0000      -0.559986       -15.2380
  27   2.0000      -0.516195       -14.0464
  28   2.0000      -0.499300       -13.5866
  29   2.0000      -0.487712       -13.2713
  30   2.0000      -0.484876       -13.1942
  31   2.0000      -0.460604       -12.5337
  32   2.0000      -0.456693       -12.4272
  33   2.0000      -0.445137       -12.1128
  34   2.0000      -0.434026       -11.8104
  35   2.0000      -0.421627       -11.4731
  36   2.0000      -0.412888       -11.2353
  37   2.0000      -0.412390       -11.2217
  38   2.0000      -0.398508       -10.8440
  39   2.0000      -0.390201       -10.6179
  40   2.0000      -0.373717       -10.1694
  41   2.0000      -0.368906       -10.0384
  42   2.0000      -0.362065        -9.8523
  43   2.0000      -0.346604        -9.4316
  44   2.0000      -0.336745        -9.1633
  45   2.0000      -0.332048        -9.0355
  46   2.0000      -0.318119        -8.6565
  47   2.0000      -0.312313        -8.4985
  48   2.0000      -0.306524        -8.3409
  49   2.0000      -0.260188        -7.0801
  50   2.0000      -0.246397        -6.7048
  51   2.0000      -0.244777        -6.6607
  52   0.0000       0.010644         0.2896
  53   0.0000       0.045638         1.2419
  54   0.0000       0.052241         1.4215
  55   0.0000       0.057316         1.5596
  56   0.0000       0.061858         1.6832

MULLIKEN ATOMIC CHARGES
-----------------------
   0 C :   -0.216103
   1 H :    0.141879
   2 N :   -0.244899
   3 C :   -0.156952
   4 H :    0.154043
   5 H :    0.109469
   6 H :    0.111724
   7 C :   -0.251505
   8 H :    0.104055
   9 C :   -0.258776
  10 H :    0.157256
  11 H :    0.107272
  12 H :    0.106900
  13 C :   -0.117763
  14 C :   -0.291729
  15 H :    0.094866
  16 H :    0.096355
  17 H :    0.095458
  18 C :   -0.179276
  19 H :    0.153730
  20 H :    0.091769
  21 H :    0.084646
  22 C :   -0.173457
  23 H :    0.091459
  24 H :    0.102619
  25 C :   -0.170066
  26 C :    0.288445
  27 H :    0.109488
  28 H :    0.105261
  29 H :    0.256864
  30 H :    0.273284
  31 H :    0.287981
  32 O :   -0.534208
  33 O :   -0.530086
Sum of atomic charges:    0.0000000

LOEWDIN ATOMIC CHARGES
----------------------
   0 C :   -0.278334
   1 H :    0.134566
   2 N :    0.136180
   3 C :   -0.274150
   4 H :    0.143093
   5 H :    0.138633
   6 H :    0.146578
   7 C :   -0.267745
   8 H :    0.139326
   9 C :   -0.274459
  10 H :    0.147181
  11 H :    0.135923
  12 H :    0.133256
  13 C :   -0.270008
  14 C :   -0.271175
  15 H :    0.137395
  16 H :    0.137093
  17 H :    0.136645
  18 C :   -0.272912
  19 H :    0.143598
  20 H :    0.135263
  21 H :    0.134639
  22 C :   -0.265337
  23 H :    0.134362
  24 H :    0.141460
  25 C :   -0.241466
  26 C :   -0.627373
  27 H :    0.139942
  28 H :    0.144779
  29 H :    0.185997
  30 H :    0.163620
  31 H :    0.177500
  32 O :   -0.065809
  33 O :   -0.058260

  Mayer bond orders larger than 0.100000
B(  0-C ,  1-H ) :   0.9622 B(  0-C ,  2-N ) :   0.9456 B(  0-C ,  3-C ) :   1.0033
B(  0-C ,  4-H ) :   0.9591 B(  2-N , 29-H ) :   0.8965 B(  2-N , 30-H ) :   0.7600
B(  2-N , 31-H ) :   0.7812 B(  3-C ,  5-H ) :   0.9560 B(  3-C ,  6-H ) :   0.9488
B(  3-C ,  7-C ) :   0.9907 B(  7-C ,  8-H ) :   0.9477 B(  7-C ,  9-C ) :   0.9720
B(  7-C , 10-H ) :   0.9713 B(  9-C , 11-H ) :   0.9494 B(  9-C , 12-H ) :   0.9782
B(  9-C , 13-C ) :   0.9928 B( 13-C , 14-C ) :   1.0054 B( 13-C , 15-H ) :   0.9587
B( 13-C , 16-H ) :   0.9572 B( 14-C , 17-H ) :   0.9519 B( 14-C , 18-C ) :   0.9717
B( 14-C , 19-H ) :   0.9698 B( 18-C , 20-H ) :   0.9526 B( 18-C , 21-H ) :   0.9639
B( 18-C , 22-C ) :   1.0251 B( 22-C , 23-H ) :   0.9573 B( 22-C , 24-H ) :   0.9485
B( 22-C , 25-C ) :   0.9936 B( 25-C , 26-C ) :   0.9731 B( 25-C , 27-H ) :   0.9697
B( 25-C , 28-H ) :   0.9356 B( 26-C , 32-O ) :   1.6302 B( 26-C , 33-O ) :   1.6891
B( 30-H , 32-O ) :   0.2232 B( 31-H , 33-O ) :   0.1804

Dispersion correction           -0.033467819
FINAL SINGLE POINT ENERGY      -598.490681354937

DIPOLE MOMENT
-------------
                                X             Y             Z
Electronic contribution:     -4.67198       4.85931       6.71156
Nuclear contribution   :      5.60885      -3.40606      -8.06960
                        -----------------------------------------
Total Dipole Moment    :      0.93686       1.45325      -1.35804
                        -----------------------------------------
Magnitude (a.u.)       :      2.19862
Magnitude (Debye)      :      5.58845

Rotational constants in cm-1:     0.028465     0.023505     0.015110
Rotational constants in MHz :   853.363165   704.655786   452.976312

                             ****ORCA TERMINATED NORMALLY****
TOTAL RUN TIME: 0 days 0 hours 1 minutes 1 seconds 451 msec
