                         Program Version 5.0.0 -  RELEASE  -
|  1> !PBE0 D3BJ RIJCOSX def2-TZVP def2/J TightSCF
|  2> *xyz 0 1
|  3> C         -2.79070       -0.78527        5.70281
|  4> C         -2.45380        0.05510        6.94145
|  5> C         -2.07842        1.48042        6.56410
|  6> H         -1.62558       -0.38216        7.49891
|  7> H         -3.32527        0.08775        7.59917
|  8> F         -0.90125        1.85816        6.82810
|  9> O         -2.93658        2.17731        5.96415
| 10> H         -1.94052       -0.82114        5.05412
| 11> H         -3.61590       -0.34261        5.18514
| 12> H         -3.05063       -1.77815        6.00536
| 13> *
| 14> %MaxCore 64000
| 15>
| 16> %pal nprocs 4
| 17> end
| 18>
| 19> %scf
| 20>   MaxIter 150
| 21> end
| 22>
| 23>
| 24>                          ****END OF INPUT****

CARTESIAN COORDINATES (ANGSTROEM)
---------------------------------
  C     -2.790700   -0.785270    5.702810
  C     -2.453800    0.055100    6.941450
  C     -2.078420    1.480420    6.564100
  H     -1.625580   -0.382160    7.498910
  H     -3.325270    0.087750    7.599170
  F     -0.901250    1.858160    6.828100
  O     -2.936580    2.177310    5.964150
  H     -1.940520   -0.821140    5.054120
  H     -3.615900   -0.342610    5.185140
  H     -3.050630   -1.778150    6.005360

 Total Charge           Charge          ....    0
 Multiplicity           Mult            ....    1
 Number of Electrons    NEL             ....   40
 Basis Dimension        Dim             ....  185

ORBITAL ENERGIES
----------------

  NO   OCC          E(Eh)            E(eV)
   0   2.0000     -24.837513      -675.8631
   1   2.0000     -19.209948      -522.7293
   2   2.0000     -10.397145      -282.9207
   3   2.0000     -10.253809      -279.0203
   4   2.0000     -10.225940      -278.2620
   5   2.0000      -1.345085       -36.6016
   6   2.0000      -1.059745       -28.8371
   7   2.0000      -0.826047       -22.4779
   8   2.0000      -0.710830       -19.3427
   9   2.0000      -0.656487       -17.8639
  10   2.0000      -0.562088       -15.2952
  11   2.0000      -0.548721       -14.9315
  12   2.0000      -0.525862       -14.3094
  13   2.0000      -0.479865       -13.0578
  14   2.0000      -0.449351       -12.2275
  15   2.0000      -0.413887       -11.2624
  16   2.0000      -0.393109       -10.6970
  17   2.0000      -0.387602       -10.5472
  18   2.0000      -0.359283        -9.7766
  19   2.0000      -0.306574        -8.3423
  20   0.0000      -0.025179        -0.6852
  21   0.0000       0.044285         1.2050
  22   0.0000       0.082629         2.2484
  23   0.0000       0.096491         2.6257
  24   0.0000       0.108640         2.9563

MULLIKEN ATOMIC CHARGES
-----------------------
   0 C :   -0.370741
   1 C :   -0.199797
   2 C :    0.362708
   3 H :    0.114689
   4 H :    0.132384
   5 F :   -0.101206
   6 O :   -0.338712
   7 H :    0.124138
   8 H :    0.146769
   9 H :    0.129768
Sum of atomic charges:    0.0000000

LOEWDIN ATOMIC CHARGES
----------------------
   0 C :   -0.287708
   1 C :   -0.261580
   2 C :   -0.491832
   3 H :    0.140452
   4 H :    0.156469
   5 F :    0.311751
   6 O :    0.062905
   7 H :    0.121435
   8 H :    0.127223
   9 H :    0.120885

  Mayer bond orders larger than 0.100000
B(  0-C ,  1-C ) :   0.9922 B(  0-C ,  7-H ) :   0.9716 B(  0-C ,  8-H ) :   0.9661
B(  0-C ,  9-H ) :   0.9657 B(  1-C ,  2-C ) :   1.0040 B(  1-C ,  3-H ) :   0.9519
B(  1-C ,  4-H ) :   0.9374 B(  2-C ,  5-F ) :   1.1600 B(  2-C ,  6-O ) :   2.0517

Dispersion correction           -0.005178714
FINAL SINGLE POINT ENERGY      -292.202741406688

DIPOLE MOMENT
-------------
                                X             Y             Z
Electronic contribution:      3.96792       7.43476       1.48456
Nuclear contribution   :     -3.69486      -8.49563      -1.04945
                        -----------------------------------------
Total Dipole Moment    :      0.27306      -1.06087       0.43511
                        -----------------------------------------
Magnitude (a.u.)       :      1.17870
Magnitude (Debye)      :      2.99601

Rotational constants in cm-1:     0.293725     0.129218     0.102393
Rotational constants in MHz :  8805.653529  3873.869810  3069.666716

                             ****ORCA TERMINATED NORMALLY****
TOTAL RUN TIME: 0 days 0 hours 0 minutes 22 seconds 106 msec
