                         Program Version 5.0.0 -  RELEASE  -
|  1> !PBE0 D3BJ RIJCOSX def2-TZVP def2/J TightSCF
|  2> *xyz 0 1
|  3> C         -0.69912        3.48945        3.75516
|  4> H         -0.96672        4.34901        3.14049
|  5> C         -1.08067        3.79296        5.15686
|  6> C          0.77696        3.13839        3.61741
|  7> H         -1.33146        2.65651        3.44632
|  8> H         -0.87449        4.76274        5.42734
|  9> H         -0.68079        3.13476        5.83900
| 10> H         -2.05755        3.53169        5.34620
| 11> H          0.99957        2.92898        2.59199
| 12> H          0.99576        2.27685        4.21303
| 13> H          1.37223        3.96279        3.95046
| 14> *
| 15> %MaxCore 64000
| 16>
| 17> %pal nprocs 4
| 18> end
| 19>
| 20> %scf
| 21>   MaxIter 150
| 22> end
| 23>
| 24>
| 25>                          ****END OF INPUT****

CARTESIAN COORDINATES (ANGSTROEM)
---------------------------------
  C     -0.699120    3.489450    3.755160
  H     -0.966720    4.349010    3.140490
  C     -1.080670    3.792960    5.156860
  C      0.776960    3.138390    3.617410
  H     -1.331460    2.656510    3.446320
  H     -0.874490    4.762740    5.427340
  H     -0.680790    3.134760    5.839000
  H     -2.057550    3.531690    5.346200
  H      0.999570    2.928980    2.591990
  H      0.995760    2.276850    4.213030
  H      1.372230    3.962790    3.950460

 Total Charge           Charge          ....    0
 Multiplicity           Mult            ....    1
 Number of Electrons    NEL             ....   26
 Basis Dimension        Dim             ....  141

ORBITAL ENERGIES
----------------

  NO   OCC          E(Eh)            E(eV)
   0   2.0000     -10.206843      -277.7423
   1   2.0000     -10.195876      -277.4439
   2   2.0000     -10.177180      -276.9351
   3   2.0000      -0.814220       -22.1561
   4   2.0000      -0.712377       -19.3848
   5   2.0000      -0.605926       -16.4881
   6   2.0000      -0.485402       -13.2084
   7   2.0000      -0.452084       -12.3018
   8   2.0000      -0.412106       -11.2140
   9   2.0000      -0.407885       -11.0991
  10   2.0000      -0.350838        -9.5468
  11   2.0000      -0.338963        -9.2236
  12   2.0000      -0.335454        -9.1282
  13   0.0000       0.050434         1.3724
  14   0.0000       0.093218         2.5366
  15   0.0000       0.099014         2.6943
  16   0.0000       0.102846         2.7986
  17   0.0000       0.126101         3.4314

MULLIKEN ATOMIC CHARGES
-----------------------
   0 C :   -0.162477
   1 H :    0.093722
   2 C :   -0.360346
   3 C :   -0.343943
   4 H :    0.091332
   5 H :    0.116016
   6 H :    0.109512
   7 H :    0.118670
   8 H :    0.116529
   9 H :    0.111345
  10 H :    0.109641
Sum of atomic charges:    0.0000000

LOEWDIN ATOMIC CHARGES
----------------------
   0 C :   -0.325642
   1 H :    0.133069
   2 C :   -0.314398
   3 C :   -0.309184
   4 H :    0.134048
   5 H :    0.108412
   6 H :    0.112588
   7 H :    0.113364
   8 H :    0.115139
   9 H :    0.115937
  10 H :    0.116666

  Mayer bond orders larger than 0.100000
B(  0-C ,  1-H ) :   0.9668 B(  0-C ,  2-C ) :   1.0009 B(  0-C ,  3-C ) :   1.0045
B(  0-C ,  4-H ) :   0.9686 B(  2-C ,  5-H ) :   0.9739 B(  2-C ,  6-H ) :   0.9766
B(  2-C ,  7-H ) :   0.9781 B(  3-C ,  8-H ) :   0.9744 B(  3-C ,  9-H ) :   0.9750
B(  3-C , 10-H ) :   0.9738

Dispersion correction           -0.005019913
FINAL SINGLE POINT ENERGY      -119.015559292280

DIPOLE MOMENT
-------------
                                X             Y             Z
Electronic contribution:     -0.14475       0.11940      -0.39522
Nuclear contribution   :      0.10024      -0.14218       0.41628
                        -----------------------------------------
Total Dipole Moment    :     -0.04450      -0.02279       0.02107
                        -----------------------------------------
Magnitude (a.u.)       :      0.05425
Magnitude (Debye)      :      0.13790

Rotational constants in cm-1:     1.024179     0.291605     0.259489
Rotational constants in MHz : 30704.103454  8742.106283  7779.285909

                             ****ORCA TERMINATED NORMALLY****
TOTAL RUN TIME: 0 days 0 hours 0 minutes 15 seconds 910 msec
