                         Program Version 5.0.0 -  RELEASE  -
|  1> !PBE0 D3BJ RIJCOSX def2-TZVP def2/J TightSCF
|  2> *xyz 0 1
|  3> C         -2.79070       -0.78527        5.70281
|  4> C         -2.45380        0.05510        6.94145
|  5> C         -2.07842        1.48042        6.56410
|  6> H         -1.62558       -0.38216        7.49891
|  7> H         -3.32527        0.08775        7.59917
|  8> O         -0.90125        1.85816        6.82810
|  9> F         -2.93658        2.17731        5.96415
| 10> H         -1.94052       -0.82114        5.05412
| 11> H         -3.61590       -0.34261        5.18514
| 12> H         -3.05063       -1.77815        6.00536
| 13> *
| 14> %MaxCore 64000
| 15>
| 16> %pal nprocs 4
| 17> end
| 18>
| 19> %scf
| 20>   MaxIter 150
| 21> end
| 22>
| 23>
| 24>                          ****END OF INPUT****

CARTESIAN COORDINATES (ANGSTROEM)
---------------------------------
  C     -2.790700   -0.785270    5.702810
  C     -2.453800    0.055100    6.941450
  C     -2.078420    1.480420    6.564100
  H     -1.625580   -0.382160    7.498910
  H     -3.325270    0.087750    7.599170
  O     -0.901250    1.858160    6.828100
  F     -2.936580    2.177310    5.964150
  H     -1.940520   -0.821140    5.054120
  H     -3.615900   -0.342610    5.185140
  H     -3.050630   -1.778150    6.005360

 Total Charge           Charge          ....    0
 Multiplicity           Mult            ....    1
 Number of Electrons    NEL             ....   40
 Basis Dimension        Dim             ....  185

ORBITAL ENERGIES
----------------

  NO   OCC          E(Eh)            E(eV)
   0   2.0000     -24.840624      -675.9477
   1   2.0000     -19.208139      -522.6800
   2   2.0000     -10.396854      -282.9128
   3   2.0000     -10.253395      -279.0091
   4   2.0000     -10.229929      -278.3705
   5   2.0000      -1.350311       -36.7438
   6   2.0000      -1.054773       -28.7018
   7   2.0000      -0.829149       -22.5623
   8   2.0000      -0.708648       -19.2833
   9   2.0000      -0.663251       -18.0480
  10   2.0000      -0.566433       -15.4134
  11   2.0000      -0.555236       -15.1087
  12   2.0000      -0.519501       -14.1364
  13   2.0000      -0.480510       -13.0753
  14   2.0000      -0.450459       -12.2576
  15   2.0000      -0.416240       -11.3265
  16   2.0000      -0.396443       -10.7878
  17   2.0000      -0.390163       -10.6169
  18   2.0000      -0.360830        -9.8187
  19   2.0000      -0.300369        -8.1735
  20   0.0000      -0.022223        -0.6047
  21   0.0000       0.040646         1.1060
  22   0.0000       0.081618         2.2209
  23   0.0000       0.099041         2.6950
  24   0.0000       0.113439         3.0868

MULLIKEN ATOMIC CHARGES
-----------------------
   0 C :   -0.373993
   1 C :   -0.196472
   2 C :    0.355339
   3 H :    0.138483
   4 H :    0.119038
   5 O :   -0.340881
   6 F :   -0.099623
   7 H :    0.134915
   8 H :    0.129427
   9 H :    0.133767
Sum of atomic charges:    0.0000000

LOEWDIN ATOMIC CHARGES
----------------------
   0 C :   -0.293856
   1 C :   -0.257959
   2 C :   -0.494896
   3 H :    0.153608
   4 H :    0.148529
   5 O :    0.052876
   6 F :    0.323843
   7 H :    0.123859
   8 H :    0.121415
   9 H :    0.122581

  Mayer bond orders larger than 0.100000
B(  0-C ,  1-C ) :   0.9809 B(  0-C ,  7-H ) :   0.9696 B(  0-C ,  8-H ) :   0.9691
B(  0-C ,  9-H ) :   0.9655 B(  1-C ,  2-C ) :   1.0235 B(  1-C ,  3-H ) :   0.9563
B(  1-C ,  4-H ) :   0.9335 B(  2-C ,  5-O ) :   2.0572 B(  2-C ,  6-F ) :   1.1558

Dispersion correction           -0.005153064
FINAL SINGLE POINT ENERGY      -292.200394220946

DIPOLE MOMENT
-------------
                                X             Y             Z
Electronic contribution:      0.58456       7.94242       0.05341
Nuclear contribution   :     -1.47571      -8.84360      -0.10748
                        -----------------------------------------
Total Dipole Moment    :     -0.89115      -0.90118      -0.05407
                        -----------------------------------------
Magnitude (a.u.)       :      1.26854
Magnitude (Debye)      :      3.22438

Rotational constants in cm-1:     0.283081     0.133379     0.103386
Rotational constants in MHz :  8486.545774  3998.599544  3099.448040

                             ****ORCA TERMINATED NORMALLY****
TOTAL RUN TIME: 0 days 0 hours 0 minutes 22 seconds 551 msec
