                         Program Version 5.0.0 -  RELEASE  -
|  1> !wB97X-D3 RIJCOSX def2-TZVPD def2/J TightSCF
|  2> *xyz -1 1
|  3> C         -0.29041        0.95134       -5.15342
|  4> C         -0.05517        1.61942       -3.78858
|  5> H          0.04501        0.86230       -3.00301
|  6> H         -0.92294        2.23033       -3.51703
|  7> C          1.22302        2.46987       -3.75691
|  8> H          1.11470        3.25807       -4.53300
|  9> H          1.23773        3.01124       -2.79216
| 10> O          2.35381        1.71203       -3.93448
| 11> H         -0.38575        1.70447       -5.90748
| 12> H         -1.18723        0.36894       -5.11561
| 13> H          0.53806        0.31571       -5.38692
| 14> *
| 15>
| 16> %MaxCore 64000
| 17>
| 18> %pal nprocs 18
| 19> end
| 20>
| 21> %scf
| 22>   MaxIter 150
| 23> end
| 24>
| 25>
| 26>                          ****END OF INPUT****

CARTESIAN COORDINATES (ANGSTROEM)
---------------------------------
  C     -0.290410    0.951340   -5.153420
  C     -0.055170    1.619420   -3.788580
  H      0.045010    0.862300   -3.003010
  H     -0.922940    2.230330   -3.517030
  C      1.223020    2.469870   -3.756910
  H      1.114700    3.258070   -4.533000
  H      1.237730    3.011240   -2.792160
  O      2.353810    1.712030   -3.934480
  H     -0.385750    1.704470   -5.907480
  H     -1.187230    0.368940   -5.115610
  H      0.538060    0.315710   -5.386920

 Total Charge           Charge          ....   -1
 Multiplicity           Mult            ....    1
 Number of Electrons    NEL             ....   34
 Basis Dimension        Dim             ....  214

ORBITAL ENERGIES
----------------

  NO   OCC          E(Eh)            E(eV)
   0   2.0000     -18.896379      -514.1966
   1   2.0000     -10.091080      -274.5923
   2   2.0000     -10.088772      -274.5294
   3   2.0000     -10.082792      -274.3667
   4   2.0000      -0.797677       -21.7059
   5   2.0000      -0.697850       -18.9895
   6   2.0000      -0.580788       -15.8040
   7   2.0000      -0.475060       -12.9271
   8   2.0000      -0.374018       -10.1775
   9   2.0000      -0.366643        -9.9769
  10   2.0000      -0.317672        -8.6443
  11   2.0000      -0.283600        -7.7172
  12   2.0000      -0.254208        -6.9174
  13   2.0000      -0.247016        -6.7216
  14   2.0000      -0.205816        -5.6005
  15   2.0000      -0.063677        -1.7327
  16   2.0000      -0.061243        -1.6665
  17   0.0000       0.201273         5.4769
  18   0.0000       0.219346         5.9687
  19   0.0000       0.230500         6.2722
  20   0.0000       0.252786         6.8786
  21   0.0000       0.275084         7.4854

MULLIKEN ATOMIC CHARGES
-----------------------
   0 C :   -1.082672
   1 C :   -0.166268
   2 H :    0.241692
   3 H :    0.276371
   4 C :   -0.474772
   5 H :    0.156945
   6 H :    0.155441
   7 O :   -0.928341
   8 H :    0.278543
   9 H :    0.283820
  10 H :    0.259242
Sum of atomic charges:   -1.0000000

LOEWDIN ATOMIC CHARGES
----------------------
   0 C :   -0.147002
   1 C :   -0.299070
   2 H :    0.087057
   3 H :    0.075696
   4 C :   -0.570723
   5 H :    0.066598
   6 H :    0.060268
   7 O :   -0.409870
   8 H :    0.049629
   9 H :    0.037117
  10 H :    0.050300

  Mayer bond orders larger than 0.100000
B(  0-C ,  1-C ) :   0.6353 B(  0-C ,  4-C ) :   0.2036 B(  0-C ,  8-H ) :   0.9556
B(  0-C ,  9-H ) :   0.9382 B(  0-C , 10-H ) :   1.0467 B(  1-C ,  2-H ) :   0.9710
B(  1-C ,  3-H ) :   0.9941 B(  1-C ,  4-C ) :   0.7962 B(  4-C ,  5-H ) :   1.0545
B(  4-C ,  6-H ) :   1.0778 B(  4-C ,  7-O ) :   1.1017

Dispersion correction           -0.001942097
FINAL SINGLE POINT ENERGY      -193.759784908616

DIPOLE MOMENT
-------------
                                X             Y             Z
Electronic contribution:      2.87510      -0.03809       0.70388
Nuclear contribution   :     -4.97104      -0.06484      -1.04325
                        -----------------------------------------
Total Dipole Moment    :     -2.09594      -0.10293      -0.33937
                        -----------------------------------------
Magnitude (a.u.)       :      2.12573
Magnitude (Debye)      :      5.40317

Rotational constants in cm-1:     0.508668     0.174500     0.148765
Rotational constants in MHz : 15249.486055  5231.367342  4459.875680

                             ****ORCA TERMINATED NORMALLY****
TOTAL RUN TIME: 0 days 0 hours 0 minutes 13 seconds 996 msec
