                         Program Version 5.0.0 -  RELEASE  -
|  1> !wB97X-D3 RIJCOSX def2-TZVPD def2/J TightSCF
|  2> *xyz 1 1
|  3> C          1.63556       -1.67040       -5.29211
|  4> C          0.33848       -1.50091       -4.50540
|  5> N          2.48451       -0.50741       -5.14039
|  6> C         -0.68487       -0.52803       -5.09989
|  7> H          1.39834       -1.82924       -6.35259
|  8> H          2.15586       -2.56540       -4.93209
|  9> C          3.45115       -0.14953       -5.95259
| 10> N          3.92267        1.08956       -5.85071
| 11> N          3.96616       -1.00618       -6.86788
| 12> H          3.52139       -1.90647       -6.99527
| 13> H          4.44482       -0.62347       -7.67035
| 14> H          2.25200        0.24080       -4.49879
| 15> H          3.46428        1.64078       -5.13639
| 16> H          4.83447        1.31375       -6.22465
| 17> H          0.59489       -1.21158       -3.48231
| 18> H         -0.12653       -2.48766       -4.43418
| 19> H         -0.92267       -0.82721       -6.09931
| 20> H         -0.27317        0.45953       -5.11162
| 21> H         -1.57350       -0.53693       -4.50394
| 22> *
| 23>
| 24> %MaxCore 64000
| 25>
| 26> %pal nprocs 18
| 27> end
| 28>
| 29> %scf
| 30>   MaxIter 150
| 31> end
| 32>
| 33>
| 34>                          ****END OF INPUT****

CARTESIAN COORDINATES (ANGSTROEM)
---------------------------------
  C      1.635560   -1.670400   -5.292110
  C      0.338480   -1.500910   -4.505400
  N      2.484510   -0.507410   -5.140390
  C     -0.684870   -0.528030   -5.099890
  H      1.398340   -1.829240   -6.352590
  H      2.155860   -2.565400   -4.932090
  C      3.451150   -0.149530   -5.952590
  N      3.922670    1.089560   -5.850710
  N      3.966160   -1.006180   -6.867880
  H      3.521390   -1.906470   -6.995270
  H      4.444820   -0.623470   -7.670350
  H      2.252000    0.240800   -4.498790
  H      3.464280    1.640780   -5.136390
  H      4.834470    1.313750   -6.224650
  H      0.594890   -1.211580   -3.482310
  H     -0.126530   -2.487660   -4.434180
  H     -0.922670   -0.827210   -6.099310
  H     -0.273170    0.459530   -5.111620
  H     -1.573500   -0.536930   -4.503940

 Total Charge           Charge          ....    1
 Multiplicity           Mult            ....    1
 Number of Electrons    NEL             ....   56
 Basis Dimension        Dim             ....  367

ORBITAL ENERGIES
----------------

  NO   OCC          E(Eh)            E(eV)
   0   2.0000     -14.646830      -398.5605
   1   2.0000     -14.642413      -398.4403
   2   2.0000     -14.640647      -398.3923
   3   2.0000     -10.608929      -288.6836
   4   2.0000     -10.480075      -285.1773
   5   2.0000     -10.419453      -283.5277
   6   2.0000     -10.386724      -282.6371
   7   2.0000      -1.335765       -36.3480
   8   2.0000      -1.220413       -33.2091
   9   2.0000      -1.206758       -32.8375
  10   2.0000      -1.059001       -28.8169
  11   2.0000      -0.973160       -26.4810
  12   2.0000      -0.931215       -25.3396
  13   2.0000      -0.884711       -24.0742
  14   2.0000      -0.870825       -23.6964
  15   2.0000      -0.836261       -22.7558
  16   2.0000      -0.786213       -21.3939
  17   2.0000      -0.780490       -21.2382
  18   2.0000      -0.757426       -20.6106
  19   2.0000      -0.741326       -20.1725
  20   2.0000      -0.694964       -18.9109
  21   2.0000      -0.673616       -18.3300
  22   2.0000      -0.651175       -17.7194
  23   2.0000      -0.595136       -16.1945
  24   2.0000      -0.579705       -15.7746
  25   2.0000      -0.577477       -15.7140
  26   2.0000      -0.569647       -15.5009
  27   2.0000      -0.540823       -14.7165
  28   0.0000      -0.087997        -2.3945
  29   0.0000      -0.087683        -2.3860
  30   0.0000      -0.060231        -1.6390
  31   0.0000      -0.044184        -1.2023
  32   0.0000      -0.024964        -0.6793

MULLIKEN ATOMIC CHARGES
-----------------------
   0 C :   -0.651449
   1 C :   -0.598021
   2 N :   -0.116897
   3 C :   -1.183225
   4 H :    0.403339
   5 H :    0.380388
   6 C :    0.780098
   7 N :   -0.402388
   8 N :   -0.427119
   9 H :    0.263715
  10 H :    0.239662
  11 H :    0.214032
  12 H :    0.224282
  13 H :    0.247201
  14 H :    0.336862
  15 H :    0.304906
  16 H :    0.336926
  17 H :    0.307624
  18 H :    0.340064
Sum of atomic charges:    1.0000000

LOEWDIN ATOMIC CHARGES
----------------------
   0 C :   -0.180160
   1 C :   -0.231449
   2 N :    0.088316
   3 C :   -0.087204
   4 H :    0.132585
   5 H :    0.134889
   6 C :   -0.425084
   7 N :    0.199469
   8 N :    0.209459
   9 H :    0.122529
  10 H :    0.137309
  11 H :    0.164272
  12 H :    0.137772
  13 H :    0.144486
  14 H :    0.116148
  15 H :    0.120119
  16 H :    0.075452
  17 H :    0.062760
  18 H :    0.078330

  Mayer bond orders larger than 0.100000
B(  0-C ,  1-C ) :   1.0161 B(  0-C ,  2-N ) :   0.9706 B(  0-C ,  4-H ) :   0.7610
B(  0-C ,  5-H ) :   0.8057 B(  0-C ,  6-C ) :  -0.1072 B(  0-C ,  8-N ) :   0.1002
B(  1-C ,  3-C ) :   0.6541 B(  1-C , 14-H ) :   0.9050 B(  1-C , 15-H ) :   0.9666
B(  2-N ,  6-C ) :   1.2194 B(  2-N ,  7-N ) :   0.1072 B(  2-N , 11-H ) :   0.9617
B(  3-C , 16-H ) :   0.9696 B(  3-C , 17-H ) :   0.9551 B(  3-C , 18-H ) :   0.9563
B(  6-C ,  7-N ) :   1.0691 B(  6-C ,  8-N ) :   1.1072 B(  7-N , 12-H ) :   0.9611
B(  7-N , 13-H ) :   0.9766 B(  8-N ,  9-H ) :   0.9243 B(  8-N , 10-H ) :   0.9804

Dispersion correction           -0.004931757
FINAL SINGLE POINT ENERGY      -323.746992945547

DIPOLE MOMENT
-------------
                                X             Y             Z
Electronic contribution:      7.35230       1.74916      -1.60400
Nuclear contribution   :     -5.91327      -1.13589       1.03073
                        -----------------------------------------
Total Dipole Moment    :      1.43903       0.61327      -0.57328
                        -----------------------------------------
Magnitude (a.u.)       :      1.66600
Magnitude (Debye)      :      4.23463

Rotational constants in cm-1:     0.176161     0.043658     0.038822
Rotational constants in MHz :  5281.161077  1308.843263  1163.840625

                             ****ORCA TERMINATED NORMALLY****
TOTAL RUN TIME: 0 days 0 hours 0 minutes 38 seconds 923 msec
