                         Program Version 5.0.0 -  RELEASE  -
|  1> !wB97X-D3 RIJCOSX def2-TZVPD def2/J TightSCF xyzfile
|  2>
|  3> *xyzfile 0 1 B.xyz
|  4>
|  5> %MaxCore 64000
|  6>
|  7> %pal nprocs 18
|  8> end
|  9>
| 10> %scf
| 11>   MaxIter 150
| 12> end
| 13>
| 14>
| 15>                          ****END OF INPUT****

CARTESIAN COORDINATES (ANGSTROEM)
---------------------------------
  C      1.635557   -1.670396   -5.292109
  C      0.338484   -1.500907   -4.505398
  N      2.484511   -0.507410   -5.140392
  C     -0.684873   -0.528026   -5.099889
  C     -0.290406    0.951335   -5.153423
  H      0.607991    1.070692   -5.764412
  C     -0.055168    1.619420   -3.788577
  H     -1.080912    1.483775   -5.689436
  H      0.045006    0.862302   -3.003015
  H     -0.922936    2.230329   -3.517028
  C      1.223022    2.469865   -3.756911
  H      1.114701    3.258074   -4.532999
  H      1.237732    3.011242   -2.792157
  O      2.353815    1.712032   -3.934477
  H      1.398337   -1.829239   -6.352591
  H      2.155864   -2.565398   -4.932091
  C      3.451149   -0.149530   -5.952589
  N      3.922667    1.089559   -5.850711
  N      3.966162   -1.006183   -6.867880
  H      3.521391   -1.906467   -6.995270
  H      4.444824   -0.623472   -7.670348
  H      2.251995    0.240804   -4.498792
  H      3.464277    1.640782   -5.136392
  H      4.834470    1.313745   -6.224653
  H     -0.937999   -0.869056   -6.110838
  H     -1.604638   -0.622496   -4.513132
  H      0.594887   -1.211578   -3.482312
  H     -0.126530   -2.487656   -4.434176

 Total Charge           Charge          ....    0
 Multiplicity           Mult            ....    1
 Number of Electrons    NEL             ....   88
 Basis Dimension        Dim             ....  563

ORBITAL ENERGIES
----------------

  NO   OCC          E(Eh)            E(eV)
   0   2.0000     -19.093233      -519.5533
   1   2.0000     -14.480370      -394.0309
   2   2.0000     -14.438825      -392.9004
   3   2.0000     -14.435950      -392.8222
   4   2.0000     -10.424091      -283.6539
   5   2.0000     -10.327938      -281.0375
   6   2.0000     -10.278544      -279.6934
   7   2.0000     -10.265312      -279.3333
   8   2.0000     -10.250927      -278.9419
   9   2.0000     -10.246497      -278.8213
  10   2.0000     -10.227832      -278.3134
  11   2.0000      -1.150756       -31.3137
  12   2.0000      -1.043914       -28.4064
  13   2.0000      -1.023521       -27.8514
  14   2.0000      -0.995670       -27.0936
  15   2.0000      -0.917029       -24.9536
  16   2.0000      -0.861805       -23.4509
  17   2.0000      -0.804184       -21.8830
  18   2.0000      -0.762603       -20.7515
  19   2.0000      -0.736184       -20.0326
  20   2.0000      -0.703349       -19.1391
  21   2.0000      -0.685807       -18.6618
  22   2.0000      -0.667021       -18.1506
  23   2.0000      -0.634577       -17.2677
  24   2.0000      -0.608666       -16.5626
  25   2.0000      -0.598670       -16.2906
  26   2.0000      -0.590559       -16.0699
  27   2.0000      -0.577522       -15.7152
  28   2.0000      -0.540990       -14.7211
  29   2.0000      -0.525919       -14.3110
  30   2.0000      -0.514698       -14.0056
  31   2.0000      -0.509525       -13.8649
  32   2.0000      -0.481666       -13.1068
  33   2.0000      -0.461591       -12.5605
  34   2.0000      -0.453844       -12.3497
  35   2.0000      -0.431592       -11.7442
  36   2.0000      -0.413654       -11.2561
  37   2.0000      -0.405354       -11.0303
  38   2.0000      -0.396654       -10.7935
  39   2.0000      -0.388208       -10.5637
  40   2.0000      -0.382079       -10.3969
  41   2.0000      -0.353666        -9.6237
  42   2.0000      -0.268358        -7.3024
  43   2.0000      -0.261771        -7.1232
  44   0.0000       0.042829         1.1654
  45   0.0000       0.068555         1.8655
  46   0.0000       0.081990         2.2311
  47   0.0000       0.085557         2.3281
  48   0.0000       0.088745         2.4149

MULLIKEN ATOMIC CHARGES
-----------------------
   0 C :   -0.908406
   1 C :   -0.596518
   2 N :   -0.006230
   3 C :   -0.601659
   4 C :   -0.472393
   5 H :    0.294119
   6 C :   -0.481027
   7 H :    0.317004
   8 H :    0.212453
   9 H :    0.311219
  10 C :   -0.501956
  11 H :    0.220771
  12 H :    0.228352
  13 O :   -1.021598
  14 H :    0.389601
  15 H :    0.380249
  16 C :    0.591744
  17 N :   -0.306824
  18 N :   -0.436952
  19 H :    0.246733
  20 H :    0.214839
  21 H :    0.279173
  22 H :    0.354225
  23 H :    0.177277
  24 H :    0.302476
  25 H :    0.229705
  26 H :    0.303436
  27 H :    0.280191
Sum of atomic charges:    0.0000000

LOEWDIN ATOMIC CHARGES
----------------------
   0 C :   -0.179705
   1 C :   -0.190224
   2 N :    0.083142
   3 C :   -0.209977
   4 C :   -0.213021
   5 H :    0.100410
   6 C :   -0.200793
   7 H :    0.106426
   8 H :    0.099797
   9 H :    0.103599
  10 C :   -0.403650
  11 H :    0.102769
  12 H :    0.095573
  13 O :   -0.335544
  14 H :    0.120829
  15 H :    0.120947
  16 C :   -0.444517
  17 N :    0.181540
  18 N :    0.168872
  19 H :    0.102924
  20 H :    0.116246
  21 H :    0.057755
  22 H :    0.051818
  23 H :    0.122871
  24 H :    0.106638
  25 H :    0.111413
  26 H :    0.113056
  27 H :    0.110807

  Mayer bond orders larger than 0.100000
B(  0-C ,  1-C ) :   1.0472 B(  0-C ,  2-N ) :   1.0313 B(  0-C ,  3-C ) :   0.1611
B(  0-C , 14-H ) :   0.8391 B(  0-C , 15-H ) :   0.8254 B(  0-C , 16-C ) :  -0.2611
B(  0-C , 18-N ) :   0.1235 B(  1-C ,  3-C ) :   0.8938 B(  1-C ,  6-C ) :   0.1050
B(  1-C , 26-H ) :   0.9121 B(  1-C , 27-H ) :   0.9875 B(  2-N , 16-C ) :   1.3501
B(  2-N , 21-H ) :   0.7004 B(  3-C ,  4-C ) :   0.8471 B(  3-C ,  6-C ) :   0.2655
B(  3-C , 24-H ) :   0.9221 B(  3-C , 25-H ) :   1.0059 B(  4-C ,  5-H ) :   1.0113
B(  4-C ,  6-C ) :   0.7223 B(  4-C ,  7-H ) :   0.9179 B(  4-C , 10-C ) :   0.2857
B(  6-C ,  8-H ) :   0.9708 B(  6-C ,  9-H ) :   0.9781 B(  6-C , 10-C ) :   0.8190
B( 10-C , 11-H ) :   1.0324 B( 10-C , 12-H ) :   0.9702 B( 10-C , 13-O ) :   1.0099
B( 13-O , 16-C ) :  -0.1560 B( 13-O , 21-H ) :   0.2020 B( 13-O , 22-H ) :   0.1733
B( 16-C , 17-N ) :   1.2539 B( 16-C , 18-N ) :   1.0938 B( 17-N , 22-H ) :   0.7359
B( 17-N , 23-H ) :   1.0198 B( 18-N , 19-H ) :   0.9378 B( 18-N , 20-H ) :   0.9895

Dispersion correction           -0.011927497
FINAL SINGLE POINT ENERGY      -516.511145646306

DIPOLE MOMENT
-------------
                                X             Y             Z
Electronic contribution:      8.36848      -0.94114      -2.27042
Nuclear contribution   :     -7.46499      -1.05836       0.01518
                        -----------------------------------------
Total Dipole Moment    :      0.90348      -1.99950      -2.25524
                        -----------------------------------------
Magnitude (a.u.)       :      3.14649
Magnitude (Debye)      :      7.99774

Rotational constants in cm-1:     0.044680     0.028958     0.019773
Rotational constants in MHz :  1339.486245   868.136755   592.791310

                             ****ORCA TERMINATED NORMALLY****
TOTAL RUN TIME: 0 days 0 hours 1 minutes 43 seconds 61 msec
