                         Program Version 5.0.0 -  RELEASE  -
|  1> !wB97X-D3 RIJCOSX def2-TZVPD def2/J TightSCF
|  2> *xyz 0 1
|  3> C         -0.29041        0.95134       -5.15342
|  4> C         -0.05517        1.61942       -3.78858
|  5> H          0.04501        0.86230       -3.00301
|  6> H         -0.92294        2.23033       -3.51703
|  7> C          1.22302        2.46987       -3.75691
|  8> H          1.11470        3.25807       -4.53300
|  9> H          1.23773        3.01124       -2.79216
| 10> F          2.35381        1.71203       -3.93448
| 11> H         -0.38575        1.70447       -5.90748
| 12> H         -1.18723        0.36894       -5.11561
| 13> H          0.53806        0.31571       -5.38692
| 14> *
| 15>
| 16> %MaxCore 64000
| 17>
| 18> %pal nprocs 18
| 19> end
| 20>
| 21> %scf
| 22>   MaxIter 150
| 23> end
| 24>
| 25>
| 26>                          ****END OF INPUT****

CARTESIAN COORDINATES (ANGSTROEM)
---------------------------------
  C     -0.290410    0.951340   -5.153420
  C     -0.055170    1.619420   -3.788580
  H      0.045010    0.862300   -3.003010
  H     -0.922940    2.230330   -3.517030
  C      1.223020    2.469870   -3.756910
  H      1.114700    3.258070   -4.533000
  H      1.237730    3.011240   -2.792160
  F      2.353810    1.712030   -3.934480
  H     -0.385750    1.704470   -5.907480
  H     -1.187230    0.368940   -5.115610
  H      0.538060    0.315710   -5.386920

 Total Charge           Charge          ....    0
 Multiplicity           Mult            ....    1
 Number of Electrons    NEL             ....   34
 Basis Dimension        Dim             ....  214

ORBITAL ENERGIES
----------------

  NO   OCC          E(Eh)            E(eV)
   0   2.0000     -24.771235      -674.0596
   1   2.0000     -10.351067      -281.6669
   2   2.0000     -10.280374      -279.7432
   3   2.0000     -10.259600      -279.1779
   4   2.0000      -1.312956       -35.7274
   5   2.0000      -0.905189       -24.6315
   6   2.0000      -0.803386       -21.8612
   7   2.0000      -0.708124       -19.2690
   8   2.0000      -0.611097       -16.6288
   9   2.0000      -0.595755       -16.2113
  10   2.0000      -0.569019       -15.4838
  11   2.0000      -0.534223       -14.5370
  12   2.0000      -0.499222       -13.5845
  13   2.0000      -0.472817       -12.8660
  14   2.0000      -0.447549       -12.1784
  15   2.0000      -0.421610       -11.4726
  16   2.0000      -0.419028       -11.4023
  17   0.0000       0.073054         1.9879
  18   0.0000       0.091863         2.4997
  19   0.0000       0.096406         2.6233
  20   0.0000       0.112321         3.0564
  21   0.0000       0.138612         3.7718

MULLIKEN ATOMIC CHARGES
-----------------------
   0 C :   -1.161407
   1 C :   -0.272092
   2 H :    0.293816
   3 H :    0.295955
   4 C :   -0.247378
   5 H :    0.247877
   6 H :    0.224141
   7 F :   -0.314794
   8 H :    0.326277
   9 H :    0.299586
  10 H :    0.308019
Sum of atomic charges:    0.0000000

LOEWDIN ATOMIC CHARGES
----------------------
   0 C :   -0.109348
   1 C :   -0.240608
   2 H :    0.106278
   3 H :    0.107934
   4 C :   -0.249361
   5 H :    0.119277
   6 H :    0.113968
   7 F :   -0.042180
   8 H :    0.065608
   9 H :    0.062428
  10 H :    0.066004

  Mayer bond orders larger than 0.100000
B(  0-C ,  1-C ) :   0.6659 B(  0-C ,  4-C ) :   0.1586 B(  0-C ,  8-H ) :   0.9376
B(  0-C ,  9-H ) :   0.9732 B(  0-C , 10-H ) :   0.9811 B(  1-C ,  2-H ) :   0.9353
B(  1-C ,  3-H ) :   0.9478 B(  1-C ,  4-C ) :   0.8560 B(  4-C ,  5-H ) :   0.9707
B(  4-C ,  6-H ) :   0.9908 B(  4-C ,  7-F ) :   0.7679

Dispersion correction           -0.001921977
FINAL SINGLE POINT ENERGY      -218.405057596015

DIPOLE MOMENT
-------------
                                X             Y             Z
Electronic contribution:      6.18932       0.38650       1.40230
Nuclear contribution   :     -6.82889      -0.09322      -1.32039
                        -----------------------------------------
Total Dipole Moment    :     -0.63956       0.29328       0.08191
                        -----------------------------------------
Magnitude (a.u.)       :      0.70835
Magnitude (Debye)      :      1.80049

Rotational constants in cm-1:     0.494282     0.164406     0.140369
Rotational constants in MHz : 14818.207649  4928.760399  4208.156468

                             ****ORCA TERMINATED NORMALLY****
TOTAL RUN TIME: 0 days 0 hours 0 minutes 15 seconds 396 msec
