                         Program Version 5.0.0 -  RELEASE  -
|  1> !wB97X-D3 RIJCOSX def2-TZVPD def2/J TightSCF
|  2> *xyz 0 1
|  3> C          1.63556       -1.67040       -5.29211
|  4> C          0.33848       -1.50091       -4.50540
|  5> C          2.48451       -0.50741       -5.14039
|  6> C         -0.68487       -0.52803       -5.09989
|  7> H          1.39834       -1.82924       -6.35259
|  8> H          2.15586       -2.56540       -4.93209
|  9> C          3.45115       -0.14953       -5.95259
| 10> N          3.92267        1.08956       -5.85071
| 11> N          3.96616       -1.00618       -6.86788
| 12> H          3.52139       -1.90647       -6.99527
| 13> H          4.44482       -0.62347       -7.67035
| 14> H          2.25200        0.24080       -4.49879
| 15> H          3.46428        1.64078       -5.13639
| 16> H          4.83447        1.31375       -6.22465
| 17> H          0.59489       -1.21158       -3.48231
| 18> H         -0.12653       -2.48766       -4.43418
| 19> H         -0.92267       -0.82721       -6.09931
| 20> H         -0.27317        0.45953       -5.11162
| 21> H         -1.57350       -0.53693       -4.50394
| 22> *
| 23>
| 24> %MaxCore 64000
| 25>
| 26> %pal nprocs 18
| 27> end
| 28>
| 29> %scf
| 30>   MaxIter 150
| 31> end
| 32>
| 33>
| 34>                          ****END OF INPUT****

CARTESIAN COORDINATES (ANGSTROEM)
---------------------------------
  C      1.635560   -1.670400   -5.292110
  C      0.338480   -1.500910   -4.505400
  C      2.484510   -0.507410   -5.140390
  C     -0.684870   -0.528030   -5.099890
  H      1.398340   -1.829240   -6.352590
  H      2.155860   -2.565400   -4.932090
  C      3.451150   -0.149530   -5.952590
  N      3.922670    1.089560   -5.850710
  N      3.966160   -1.006180   -6.867880
  H      3.521390   -1.906470   -6.995270
  H      4.444820   -0.623470   -7.670350
  H      2.252000    0.240800   -4.498790
  H      3.464280    1.640780   -5.136390
  H      4.834470    1.313750   -6.224650
  H      0.594890   -1.211580   -3.482310
  H     -0.126530   -2.487660   -4.434180
  H     -0.922670   -0.827210   -6.099310
  H     -0.273170    0.459530   -5.111620
  H     -1.573500   -0.536930   -4.503940

 Total Charge           Charge          ....    0
 Multiplicity           Mult            ....    1
 Number of Electrons    NEL             ....   56
 Basis Dimension        Dim             ....  367

ORBITAL ENERGIES
----------------

  NO   OCC          E(Eh)            E(eV)
   0   2.0000     -14.422232      -392.4489
   1   2.0000     -14.417097      -392.3092
   2   2.0000     -10.314970      -280.6846
   3   2.0000     -10.254459      -279.0380
   4   2.0000     -10.250826      -278.9392
   5   2.0000     -10.243115      -278.7293
   6   2.0000     -10.195244      -277.4267
   7   2.0000      -1.075612       -29.2689
   8   2.0000      -0.985544       -26.8180
   9   2.0000      -0.905095       -24.6289
  10   2.0000      -0.839083       -22.8326
  11   2.0000      -0.772756       -21.0278
  12   2.0000      -0.699387       -19.0313
  13   2.0000      -0.677773       -18.4431
  14   2.0000      -0.635408       -17.2903
  15   2.0000      -0.616997       -16.7894
  16   2.0000      -0.564116       -15.3504
  17   2.0000      -0.544025       -14.8037
  18   2.0000      -0.537333       -14.6216
  19   2.0000      -0.512545       -13.9470
  20   2.0000      -0.485413       -13.2088
  21   2.0000      -0.472575       -12.8594
  22   2.0000      -0.459281       -12.4977
  23   2.0000      -0.420817       -11.4510
  24   2.0000      -0.410779       -11.1779
  25   2.0000      -0.405147       -11.0246
  26   2.0000      -0.359159        -9.7732
  27   2.0000      -0.249484        -6.7888
  28   0.0000       0.064990         1.7685
  29   0.0000       0.085271         2.3203
  30   0.0000       0.088014         2.3950
  31   0.0000       0.100664         2.7392
  32   0.0000       0.112395         3.0584

MULLIKEN ATOMIC CHARGES
-----------------------
   0 C :   -0.215477
   1 C :   -0.557975
   2 C :   -0.614198
   3 C :   -1.202387
   4 H :    0.302360
   5 H :    0.263048
   6 C :    0.173345
   7 N :   -0.437802
   8 N :   -0.446796
   9 H :    0.222430
  10 H :    0.191731
  11 H :    0.381582
  12 H :    0.212468
  13 H :    0.181821
  14 H :    0.301835
  15 H :    0.273210
  16 H :    0.319433
  17 H :    0.322629
  18 H :    0.328743
Sum of atomic charges:    0.0000000

LOEWDIN ATOMIC CHARGES
----------------------
   0 C :   -0.252297
   1 C :   -0.268671
   2 C :   -0.148725
   3 C :   -0.106467
   4 H :    0.111617
   5 H :    0.111402
   6 C :   -0.539977
   7 N :    0.097565
   8 N :    0.124237
   9 H :    0.095390
  10 H :    0.098175
  11 H :    0.071107
  12 H :    0.109329
  13 H :    0.102912
  14 H :    0.106660
  15 H :    0.099343
  16 H :    0.065791
  17 H :    0.061546
  18 H :    0.061064

  Mayer bond orders larger than 0.100000
B(  0-C ,  1-C ) :   0.7810 B(  0-C ,  2-C ) :   0.6072 B(  0-C ,  3-C ) :   0.1259
B(  0-C ,  4-H ) :   0.8256 B(  0-C ,  5-H ) :   0.9932 B(  0-C ,  6-C ) :   0.1347
B(  1-C ,  2-C ) :   0.3368 B(  1-C ,  3-C ) :   0.6293 B(  1-C , 14-H ) :   0.9470
B(  1-C , 15-H ) :   0.9897 B(  2-C ,  3-C ) :   0.1177 B(  2-C ,  6-C ) :   1.3323
B(  2-C , 11-H ) :   0.8422 B(  3-C , 16-H ) :   0.9756 B(  3-C , 17-H ) :   0.9690
B(  3-C , 18-H ) :   0.9356 B(  6-C ,  7-N ) :   1.0956 B(  6-C ,  8-N ) :   0.9558
B(  6-C , 11-H ) :  -0.2432 B(  7-N , 12-H ) :   0.9527 B(  7-N , 13-H ) :   1.0409
B(  8-N ,  9-H ) :   0.9357 B(  8-N , 10-H ) :   1.0145

Dispersion correction           -0.004909907
FINAL SINGLE POINT ENERGY      -307.262268788631

DIPOLE MOMENT
-------------
                                X             Y             Z
Electronic contribution:      6.37315       1.42819      -1.65594
Nuclear contribution   :     -5.84539      -1.11717       1.11949
                        -----------------------------------------
Total Dipole Moment    :      0.52775       0.31102      -0.53645
                        -----------------------------------------
Magnitude (a.u.)       :      0.81427
Magnitude (Debye)      :      2.06971

Rotational constants in cm-1:     0.177055     0.043715     0.038831
Rotational constants in MHz :  5307.971484  1310.555422  1164.112547

                             ****ORCA TERMINATED NORMALLY****
TOTAL RUN TIME: 0 days 0 hours 0 minutes 37 seconds 92 msec
