                         Program Version 5.0.0 -  RELEASE  -
|  1> !wB97X-D3 RIJCOSX def2-TZVPD def2/J TightSCF
|  2> *xyz 0 1
|  3> C          1.63556       -1.67040       -5.29211
|  4> C          0.33848       -1.50091       -4.50540
|  5> N          2.48451       -0.50741       -5.14039
|  6> C         -0.68487       -0.52803       -5.09989
|  7> H          1.39834       -1.82924       -6.35259
|  8> H          2.15586       -2.56540       -4.93209
|  9> C          3.45115       -0.14953       -5.95259
| 10> C          3.92267        1.08956       -5.85071
| 11> N          3.96616       -1.00618       -6.86788
| 12> H          3.52139       -1.90647       -6.99527
| 13> H          4.44482       -0.62347       -7.67035
| 14> H          2.25200        0.24080       -4.49879
| 15> H          3.46428        1.64078       -5.13639
| 16> H          4.83447        1.31375       -6.22465
| 17> H          0.59489       -1.21158       -3.48231
| 18> H         -0.12653       -2.48766       -4.43418
| 19> H         -0.92267       -0.82721       -6.09931
| 20> H         -0.27317        0.45953       -5.11162
| 21> H         -1.57350       -0.53693       -4.50394
| 22> *
| 23>
| 24> %MaxCore 64000
| 25>
| 26> %pal nprocs 18
| 27> end
| 28>
| 29> %scf
| 30>   MaxIter 150
| 31> end
| 32>
| 33>
| 34>                          ****END OF INPUT****

CARTESIAN COORDINATES (ANGSTROEM)
---------------------------------
  C      1.635560   -1.670400   -5.292110
  C      0.338480   -1.500910   -4.505400
  N      2.484510   -0.507410   -5.140390
  C     -0.684870   -0.528030   -5.099890
  H      1.398340   -1.829240   -6.352590
  H      2.155860   -2.565400   -4.932090
  C      3.451150   -0.149530   -5.952590
  C      3.922670    1.089560   -5.850710
  N      3.966160   -1.006180   -6.867880
  H      3.521390   -1.906470   -6.995270
  H      4.444820   -0.623470   -7.670350
  H      2.252000    0.240800   -4.498790
  H      3.464280    1.640780   -5.136390
  H      4.834470    1.313750   -6.224650
  H      0.594890   -1.211580   -3.482310
  H     -0.126530   -2.487660   -4.434180
  H     -0.922670   -0.827210   -6.099310
  H     -0.273170    0.459530   -5.111620
  H     -1.573500   -0.536930   -4.503940

 Total Charge           Charge          ....    0
 Multiplicity           Mult            ....    1
 Number of Electrons    NEL             ....   56
 Basis Dimension        Dim             ....  367

ORBITAL ENERGIES
----------------

  NO   OCC          E(Eh)            E(eV)
   0   2.0000     -14.421926      -392.4405
   1   2.0000     -14.420575      -392.4038
   2   2.0000     -10.320051      -280.8229
   3   2.0000     -10.315962      -280.7116
   4   2.0000     -10.284831      -279.8645
   5   2.0000     -10.264973      -279.3241
   6   2.0000     -10.180624      -277.0289
   7   2.0000      -1.088163       -29.6104
   8   2.0000      -0.999583       -27.2000
   9   2.0000      -0.912031       -24.8176
  10   2.0000      -0.842771       -22.9330
  11   2.0000      -0.784583       -21.3496
  12   2.0000      -0.714633       -19.4462
  13   2.0000      -0.699685       -19.0394
  14   2.0000      -0.638033       -17.3618
  15   2.0000      -0.601310       -16.3625
  16   2.0000      -0.574551       -15.6343
  17   2.0000      -0.566071       -15.4036
  18   2.0000      -0.546014       -14.8578
  19   2.0000      -0.515942       -14.0395
  20   2.0000      -0.491360       -13.3706
  21   2.0000      -0.480057       -13.0630
  22   2.0000      -0.471139       -12.8204
  23   2.0000      -0.449372       -12.2280
  24   2.0000      -0.444766       -12.1027
  25   2.0000      -0.435877       -11.8608
  26   2.0000      -0.351349        -9.5607
  27   2.0000      -0.248231        -6.7547
  28   0.0000       0.063205         1.7199
  29   0.0000       0.079918         2.1747
  30   0.0000       0.085591         2.3290
  31   0.0000       0.092784         2.5248
  32   0.0000       0.115171         3.1340

MULLIKEN ATOMIC CHARGES
-----------------------
   0 C :   -0.564961
   1 C :   -0.540525
   2 N :   -0.117777
   3 C :   -1.174757
   4 H :    0.350509
   5 H :    0.292595
   6 C :    0.942225
   7 C :   -1.602493
   8 N :   -0.453391
   9 H :    0.211151
  10 H :    0.233882
  11 H :    0.156280
  12 H :    0.339924
  13 H :    0.380757
  14 H :    0.312542
  15 H :    0.279765
  16 H :    0.315168
  17 H :    0.309557
  18 H :    0.329549
Sum of atomic charges:   -0.0000000

LOEWDIN ATOMIC CHARGES
----------------------
   0 C :   -0.214348
   1 C :   -0.248383
   2 N :    0.016071
   3 C :   -0.101780
   4 H :    0.118418
   5 H :    0.116384
   6 C :   -0.558193
   7 C :   -0.012371
   8 N :    0.118402
   9 H :    0.087351
  10 H :    0.109019
  11 H :    0.142386
  12 H :    0.007324
  13 H :    0.009570
  14 H :    0.108362
  15 H :    0.105177
  16 H :    0.067901
  17 H :    0.064012
  18 H :    0.064697

  Mayer bond orders larger than 0.100000
B(  0-C ,  1-C ) :   0.9905 B(  0-C ,  2-N ) :   0.9214 B(  0-C ,  4-H ) :   0.8130
B(  0-C ,  5-H ) :   0.8827 B(  1-C ,  3-C ) :   0.6246 B(  1-C , 14-H ) :   0.9336
B(  1-C , 15-H ) :   0.9829 B(  2-N ,  6-C ) :   1.1375 B(  2-N , 11-H ) :   0.9137
B(  3-C , 16-H ) :   0.9777 B(  3-C , 17-H ) :   0.9784 B(  3-C , 18-H ) :   0.9449
B(  6-C ,  7-C ) :   0.8069 B(  6-C ,  8-N ) :   1.0170 B(  7-C , 12-H ) :   0.9413
B(  7-C , 13-H ) :   0.9557 B(  8-N ,  9-H ) :   0.9736 B(  8-N , 10-H ) :   0.9589

Dispersion correction           -0.004971126
FINAL SINGLE POINT ENERGY      -307.251579332398

DIPOLE MOMENT
-------------
                                X             Y             Z
Electronic contribution:      4.75579      -0.17252      -1.04306
Nuclear contribution   :     -5.53036      -0.76734       0.96389
                        -----------------------------------------
Total Dipole Moment    :     -0.77457      -0.93986      -0.07917
                        -----------------------------------------
Magnitude (a.u.)       :      1.22048
Magnitude (Debye)      :      3.10221

Rotational constants in cm-1:     0.181901     0.044719     0.039941
Rotational constants in MHz :  5453.254735  1340.639344  1197.391002

                             ****ORCA TERMINATED NORMALLY****
TOTAL RUN TIME: 0 days 0 hours 0 minutes 40 seconds 374 msec
