                         Program Version 5.0.0 -  RELEASE  -
|  1> !wB97X-D3 RIJCOSX def2-TZVPD def2/J TightSCF
|  2> *xyz 0 1
|  3> C          1.63556       -1.67040       -5.29211
|  4> C          0.33848       -1.50091       -4.50540
|  5> N          2.48451       -0.50741       -5.14039
|  6> C         -0.68487       -0.52803       -5.09989
|  7> H          1.39834       -1.82924       -6.35259
|  8> H          2.15586       -2.56540       -4.93209
|  9> C          3.45115       -0.14953       -5.95259
| 10> N          3.92267        1.08956       -5.85071
| 11> C          3.96616       -1.00618       -6.86788
| 12> H          3.52139       -1.90647       -6.99527
| 13> H          4.44482       -0.62347       -7.67035
| 14> H          2.25200        0.24080       -4.49879
| 15> H          3.46428        1.64078       -5.13639
| 16> H          4.83447        1.31375       -6.22465
| 17> H          0.59489       -1.21158       -3.48231
| 18> H         -0.12653       -2.48766       -4.43418
| 19> H         -0.92267       -0.82721       -6.09931
| 20> H         -0.27317        0.45953       -5.11162
| 21> H         -1.57350       -0.53693       -4.50394
| 22> *
| 23>
| 24> %MaxCore 64000
| 25>
| 26> %pal nprocs 18
| 27> end
| 28>
| 29> %scf
| 30>   MaxIter 150
| 31> end
| 32>
| 33>
| 34>                          ****END OF INPUT****

CARTESIAN COORDINATES (ANGSTROEM)
---------------------------------
  C      1.635560   -1.670400   -5.292110
  C      0.338480   -1.500910   -4.505400
  N      2.484510   -0.507410   -5.140390
  C     -0.684870   -0.528030   -5.099890
  H      1.398340   -1.829240   -6.352590
  H      2.155860   -2.565400   -4.932090
  C      3.451150   -0.149530   -5.952590
  N      3.922670    1.089560   -5.850710
  C      3.966160   -1.006180   -6.867880
  H      3.521390   -1.906470   -6.995270
  H      4.444820   -0.623470   -7.670350
  H      2.252000    0.240800   -4.498790
  H      3.464280    1.640780   -5.136390
  H      4.834470    1.313750   -6.224650
  H      0.594890   -1.211580   -3.482310
  H     -0.126530   -2.487660   -4.434180
  H     -0.922670   -0.827210   -6.099310
  H     -0.273170    0.459530   -5.111620
  H     -1.573500   -0.536930   -4.503940

 Total Charge           Charge          ....    0
 Multiplicity           Mult            ....    1
 Number of Electrons    NEL             ....   56
 Basis Dimension        Dim             ....  367

ORBITAL ENERGIES
----------------

  NO   OCC          E(Eh)            E(eV)
   0   2.0000     -14.428620      -392.6227
   1   2.0000     -14.422861      -392.4660
   2   2.0000     -10.321782      -280.8700
   3   2.0000     -10.309608      -280.5387
   4   2.0000     -10.281413      -279.7715
   5   2.0000     -10.263853      -279.2936
   6   2.0000     -10.182779      -277.0875
   7   2.0000      -1.096803       -29.8455
   8   2.0000      -1.005000       -27.3474
   9   2.0000      -0.904288       -24.6069
  10   2.0000      -0.822733       -22.3877
  11   2.0000      -0.808718       -22.0063
  12   2.0000      -0.719676       -19.5834
  13   2.0000      -0.674462       -18.3530
  14   2.0000      -0.638723       -17.3805
  15   2.0000      -0.626880       -17.0583
  16   2.0000      -0.575078       -15.6487
  17   2.0000      -0.569386       -15.4938
  18   2.0000      -0.533703       -14.5228
  19   2.0000      -0.518942       -14.1211
  20   2.0000      -0.485528       -13.2119
  21   2.0000      -0.482102       -13.1187
  22   2.0000      -0.463738       -12.6190
  23   2.0000      -0.448682       -12.2093
  24   2.0000      -0.440746       -11.9933
  25   2.0000      -0.435708       -11.8562
  26   2.0000      -0.344950        -9.3866
  27   2.0000      -0.252724        -6.8770
  28   0.0000       0.062289         1.6950
  29   0.0000       0.078973         2.1490
  30   0.0000       0.088691         2.4134
  31   0.0000       0.090479         2.4621
  32   0.0000       0.112885         3.0718

MULLIKEN ATOMIC CHARGES
-----------------------
   0 C :   -0.669354
   1 C :   -0.491139
   2 N :   -0.136935
   3 C :   -1.171077
   4 H :    0.333779
   5 H :    0.366339
   6 C :    0.896300
   7 N :   -0.443842
   8 C :   -1.542620
   9 H :    0.405831
  10 H :    0.347666
  11 H :    0.176539
  12 H :    0.165201
  13 H :    0.224447
  14 H :    0.313702
  15 H :    0.273509
  16 H :    0.320609
  17 H :    0.301051
  18 H :    0.329994
Sum of atomic charges:   -0.0000000

LOEWDIN ATOMIC CHARGES
----------------------
   0 C :   -0.206932
   1 C :   -0.248946
   2 N :    0.016709
   3 C :   -0.103936
   4 H :    0.123567
   5 H :    0.122917
   6 C :   -0.568240
   7 N :    0.109579
   8 C :    0.000649
   9 H :   -0.008000
  10 H :    0.004165
  11 H :    0.137039
  12 H :    0.100230
  13 H :    0.116158
  14 H :    0.105914
  15 H :    0.105894
  16 H :    0.068820
  17 H :    0.060419
  18 H :    0.063994

  Mayer bond orders larger than 0.100000
B(  0-C ,  1-C ) :   0.9136 B(  0-C ,  2-N ) :   0.9823 B(  0-C ,  4-H ) :   0.8495
B(  0-C ,  5-H ) :   0.8387 B(  0-C ,  8-C ) :   0.1962 B(  1-C ,  3-C ) :   0.6186
B(  1-C , 14-H ) :   0.9329 B(  1-C , 15-H ) :   0.9927 B(  2-N ,  6-C ) :   1.0562
B(  2-N , 11-H ) :   0.9797 B(  3-C , 16-H ) :   0.9778 B(  3-C , 17-H ) :   0.9826
B(  3-C , 18-H ) :   0.9457 B(  6-C ,  7-N ) :   0.9751 B(  6-C ,  8-C ) :   1.0715
B(  6-C , 10-H ) :  -0.1209 B(  7-N , 12-H ) :   1.0214 B(  7-N , 13-H ) :   0.9808
B(  8-C ,  9-H ) :   0.8374 B(  8-C , 10-H ) :   1.0336

Dispersion correction           -0.004948798
FINAL SINGLE POINT ENERGY      -307.252149581436

DIPOLE MOMENT
-------------
                                X             Y             Z
Electronic contribution:      4.81467       1.90785       0.03746
Nuclear contribution   :     -5.52083      -1.22643       0.74108
                        -----------------------------------------
Total Dipole Moment    :     -0.70616       0.68142       0.77853
                        -----------------------------------------
Magnitude (a.u.)       :      1.25264
Magnitude (Debye)      :      3.18396

Rotational constants in cm-1:     0.181479     0.044588     0.039739
Rotational constants in MHz :  5440.604457  1336.706831  1191.355312

                             ****ORCA TERMINATED NORMALLY****
TOTAL RUN TIME: 0 days 0 hours 0 minutes 38 seconds 839 msec
