                         Program Version 5.0.0 -  RELEASE  -
|  1> !wB97X-D3 RIJCOSX def2-TZVPD def2/J TightSCF xyzfile
|  2>
|  3> *xyzfile 0 1 D1.xyz
|  4>
|  5> %MaxCore 64000
|  6>
|  7> %pal nprocs 18
|  8> end
|  9>
| 10> %scf
| 11>   MaxIter 150
| 12> end
| 13>
| 14>
| 15>                          ****END OF INPUT****

CARTESIAN COORDINATES (ANGSTROEM)
---------------------------------
  C      1.635557   -1.670396   -5.292109
  C      0.338484   -1.500907   -4.505398
  C      2.484511   -0.507410   -5.140392
  C     -0.684873   -0.528026   -5.099889
  C     -0.290406    0.951335   -5.153423
  H      0.607991    1.070692   -5.764412
  C     -0.055168    1.619420   -3.788577
  H     -1.080912    1.483775   -5.689436
  H      0.045006    0.862302   -3.003015
  H     -0.922936    2.230329   -3.517028
  C      1.223022    2.469865   -3.756911
  H      1.114701    3.258074   -4.532999
  H      1.237732    3.011242   -2.792157
  F      2.353815    1.712032   -3.934477
  H      1.398337   -1.829239   -6.352591
  H      2.155864   -2.565398   -4.932091
  C      3.451149   -0.149530   -5.952589
  N      3.922667    1.089559   -5.850711
  N      3.966162   -1.006183   -6.867880
  H      3.521391   -1.906467   -6.995270
  H      4.444824   -0.623472   -7.670348
  H      2.251995    0.240804   -4.498792
  H      3.464277    1.640782   -5.136392
  H      4.834470    1.313745   -6.224653
  H     -0.937999   -0.869056   -6.110838
  H     -1.604638   -0.622496   -4.513132
  H      0.594887   -1.211578   -3.482312
  H     -0.126530   -2.487656   -4.434176

 Total Charge           Charge          ....    0
 Multiplicity           Mult            ....    1
 Number of Electrons    NEL             ....   88
 Basis Dimension        Dim             ....  563

ORBITAL ENERGIES
----------------

  NO   OCC          E(Eh)            E(eV)
   0   2.0000     -24.798654      -674.8057
   1   2.0000     -14.407510      -392.0483
   2   2.0000     -14.391471      -391.6118
   3   2.0000     -10.364033      -282.0197
   4   2.0000     -10.296208      -280.1741
   5   2.0000     -10.281392      -279.7709
   6   2.0000     -10.263934      -279.2958
   7   2.0000     -10.261192      -279.2212
   8   2.0000     -10.251552      -278.9589
   9   2.0000     -10.241060      -278.6734
  10   2.0000     -10.167034      -276.6591
  11   2.0000      -1.350625       -36.7524
  12   2.0000      -1.057571       -28.7780
  13   2.0000      -0.968513       -26.3546
  14   2.0000      -0.926837       -25.2205
  15   2.0000      -0.892541       -24.2873
  16   2.0000      -0.841938       -22.9103
  17   2.0000      -0.805147       -21.9092
  18   2.0000      -0.751853       -20.4590
  19   2.0000      -0.717921       -19.5356
  20   2.0000      -0.683556       -18.6005
  21   2.0000      -0.662703       -18.0331
  22   2.0000      -0.640341       -17.4246
  23   2.0000      -0.624258       -16.9869
  24   2.0000      -0.609368       -16.5818
  25   2.0000      -0.604337       -16.4449
  26   2.0000      -0.587020       -15.9736
  27   2.0000      -0.558088       -15.1863
  28   2.0000      -0.540743       -14.7144
  29   2.0000      -0.536476       -14.5983
  30   2.0000      -0.515223       -14.0199
  31   2.0000      -0.500362       -13.6155
  32   2.0000      -0.489293       -13.3143
  33   2.0000      -0.476104       -12.9554
  34   2.0000      -0.457062       -12.4373
  35   2.0000      -0.454041       -12.3551
  36   2.0000      -0.444891       -12.1061
  37   2.0000      -0.430533       -11.7154
  38   2.0000      -0.411999       -11.2111
  39   2.0000      -0.400412       -10.8958
  40   2.0000      -0.394428       -10.7329
  41   2.0000      -0.382678       -10.4132
  42   2.0000      -0.342065        -9.3081
  43   2.0000      -0.230738        -6.2787
  44   0.0000       0.066988         1.8228
  45   0.0000       0.075128         2.0443
  46   0.0000       0.082317         2.2400
  47   0.0000       0.088614         2.4113
  48   0.0000       0.098429         2.6784

MULLIKEN ATOMIC CHARGES
-----------------------
   0 C :   -0.411223
   1 C :   -0.644445
   2 C :   -0.530862
   3 C :   -0.719472
   4 C :   -0.449367
   5 H :    0.411251
   6 C :   -0.661858
   7 H :    0.326470
   8 H :    0.297297
   9 H :    0.328791
  10 C :   -0.312817
  11 H :    0.272254
  12 H :    0.274305
  13 F :   -0.427426
  14 H :    0.324934
  15 H :    0.331754
  16 C :   -0.825912
  17 N :   -0.393845
  18 N :   -0.447798
  19 H :    0.227389
  20 H :    0.187560
  21 H :    1.308408
  22 H :    0.376502
  23 H :    0.116733
  24 H :    0.314062
  25 H :    0.223958
  26 H :    0.202733
  27 H :    0.300624
Sum of atomic charges:    0.0000000

LOEWDIN ATOMIC CHARGES
----------------------
   0 C :   -0.228362
   1 C :   -0.213582
   2 C :   -0.145539
   3 C :   -0.204830
   4 C :   -0.207785
   5 H :    0.105321
   6 C :   -0.173010
   7 H :    0.107652
   8 H :    0.108912
   9 H :    0.116364
  10 C :   -0.189987
  11 H :    0.131746
  12 H :    0.121460
  13 F :   -0.083086
  14 H :    0.112229
  15 H :    0.110936
  16 C :   -0.527553
  17 N :    0.109289
  18 N :    0.122078
  19 H :    0.092444
  20 H :    0.094670
  21 H :    0.034118
  22 H :    0.072644
  23 H :    0.103067
  24 H :    0.111392
  25 H :    0.108372
  26 H :    0.105813
  27 H :    0.105227

  Mayer bond orders larger than 0.100000
B(  0-C ,  1-C ) :   1.0729 B(  0-C ,  2-C ) :   0.3124 B(  0-C ,  3-C ) :   0.2173
B(  0-C , 14-H ) :   0.8509 B(  0-C , 15-H ) :   1.0074 B(  1-C ,  2-C ) :   0.3163
B(  1-C ,  3-C ) :   0.9541 B(  1-C , 26-H ) :   0.9626 B(  1-C , 27-H ) :   0.9761
B(  2-C ,  4-C ) :   0.1194 B(  2-C ,  6-C ) :   0.1133 B(  2-C , 13-F ) :   0.2345
B(  2-C , 14-H ) :  -0.2691 B(  2-C , 15-H ) :  -0.1717 B(  2-C , 16-C ) :   2.1020
B(  2-C , 17-N ) :  -0.1720 B(  2-C , 21-H ) :  -0.1560 B(  3-C ,  4-C ) :   0.9015
B(  3-C ,  6-C ) :   0.3321 B(  3-C , 24-H ) :   0.9261 B(  3-C , 25-H ) :   1.0104
B(  4-C ,  5-H ) :   0.9305 B(  4-C ,  6-C ) :   0.6255 B(  4-C ,  7-H ) :   0.8939
B(  4-C , 10-C ) :   0.2596 B(  6-C ,  8-H ) :   0.9714 B(  6-C ,  9-H ) :   0.9373
B(  6-C , 10-C ) :   0.8500 B( 10-C , 11-H ) :   0.9720 B( 10-C , 12-H ) :   0.9233
B( 10-C , 13-F ) :   0.7926 B( 13-F , 16-C ) :   0.1232 B( 13-F , 21-H ) :  -0.4416
B( 14-H , 21-H ) :   0.1366 B( 16-C , 17-N ) :   1.2265 B( 16-C , 18-N ) :   0.9886
B( 16-C , 21-H ) :  -0.8888 B( 17-N , 22-H ) :   0.7920 B( 17-N , 23-H ) :   1.0908
B( 18-N , 19-H ) :   0.9419 B( 18-N , 20-H ) :   1.0112

Dispersion correction           -0.011718809
FINAL SINGLE POINT ENERGY      -524.437979222640

DIPOLE MOMENT
-------------
                                X             Y             Z
Electronic contribution:      7.82503       3.83767       1.15157
Nuclear contribution   :     -8.11591      -2.99033      -1.35383
                        -----------------------------------------
Total Dipole Moment    :     -0.29087       0.84735      -0.20227
                        -----------------------------------------
Magnitude (a.u.)       :      0.91843
Magnitude (Debye)      :      2.33447

Rotational constants in cm-1:     0.043530     0.028984     0.019589
Rotational constants in MHz :  1305.007140   868.923804   587.262638

                             ****ORCA TERMINATED NORMALLY****
TOTAL RUN TIME: 0 days 0 hours 1 minutes 39 seconds 487 msec
