                         Program Version 5.0.0 -  RELEASE  -
|  1> !wB97X-D3 RIJCOSX def2-TZVPD def2/J TightSCF xyzfile
|  2>
|  3> *xyzfile 0 1 D3.xyz
|  4>
|  5> %MaxCore 64000
|  6>
|  7> %pal nprocs 18
|  8> end
|  9>
| 10> %scf
| 11>   MaxIter 150
| 12> end
| 13>
| 14>
| 15>                          ****END OF INPUT****

CARTESIAN COORDINATES (ANGSTROEM)
---------------------------------
  C      1.635557   -1.670396   -5.292109
  C      0.338484   -1.500907   -4.505398
  N      2.484511   -0.507410   -5.140392
  C     -0.684873   -0.528026   -5.099889
  C     -0.290406    0.951335   -5.153423
  H      0.607991    1.070692   -5.764412
  C     -0.055168    1.619420   -3.788577
  H     -1.080912    1.483775   -5.689436
  H      0.045006    0.862302   -3.003015
  H     -0.922936    2.230329   -3.517028
  C      1.223022    2.469865   -3.756911
  H      1.114701    3.258074   -4.532999
  H      1.237732    3.011242   -2.792157
  F      2.353815    1.712032   -3.934477
  H      1.398337   -1.829239   -6.352591
  H      2.155864   -2.565398   -4.932091
  C      3.451149   -0.149530   -5.952589
  N      3.922667    1.089559   -5.850711
  C      3.966162   -1.006183   -6.867880
  H      3.521391   -1.906467   -6.995270
  H      4.444824   -0.623472   -7.670348
  H      2.251995    0.240804   -4.498792
  H      3.464277    1.640782   -5.136392
  H      4.834470    1.313745   -6.224653
  H     -0.937999   -0.869056   -6.110838
  H     -1.604638   -0.622496   -4.513132
  H      0.594887   -1.211578   -3.482312
  H     -0.126530   -2.487656   -4.434176

 Total Charge           Charge          ....    0
 Multiplicity           Mult            ....    1
 Number of Electrons    NEL             ....   88
 Basis Dimension        Dim             ....  563

ORBITAL ENERGIES
----------------

  NO   OCC          E(Eh)            E(eV)
   0   2.0000     -24.828553      -675.6193
   1   2.0000     -14.399014      -391.8171
   2   2.0000     -14.394820      -391.7030
   3   2.0000     -10.383163      -282.5402
   4   2.0000     -10.303264      -280.3661
   5   2.0000     -10.300011      -280.2776
   6   2.0000     -10.297812      -280.2177
   7   2.0000     -10.282794      -279.8091
   8   2.0000     -10.279837      -279.7286
   9   2.0000     -10.276777      -279.6453
  10   2.0000     -10.165722      -276.6234
  11   2.0000      -1.378968       -37.5236
  12   2.0000      -1.075887       -29.2764
  13   2.0000      -0.985997       -26.8303
  14   2.0000      -0.941783       -25.6272
  15   2.0000      -0.897527       -24.4229
  16   2.0000      -0.844731       -22.9863
  17   2.0000      -0.808093       -21.9893
  18   2.0000      -0.773347       -21.0438
  19   2.0000      -0.745915       -20.2974
  20   2.0000      -0.688257       -18.7284
  21   2.0000      -0.675011       -18.3680
  22   2.0000      -0.665258       -18.1026
  23   2.0000      -0.637541       -17.3484
  24   2.0000      -0.633412       -17.2360
  25   2.0000      -0.599987       -16.3265
  26   2.0000      -0.591859       -16.1053
  27   2.0000      -0.576817       -15.6960
  28   2.0000      -0.564762       -15.3680
  29   2.0000      -0.534582       -14.5467
  30   2.0000      -0.527980       -14.3671
  31   2.0000      -0.518341       -14.1048
  32   2.0000      -0.500175       -13.6105
  33   2.0000      -0.474860       -12.9216
  34   2.0000      -0.472709       -12.8631
  35   2.0000      -0.459143       -12.4939
  36   2.0000      -0.457204       -12.4412
  37   2.0000      -0.450202       -12.2506
  38   2.0000      -0.438082       -11.9208
  39   2.0000      -0.425674       -11.5832
  40   2.0000      -0.416982       -11.3467
  41   2.0000      -0.414531       -11.2800
  42   2.0000      -0.322832        -8.7847
  43   2.0000      -0.235055        -6.3962
  44   0.0000       0.058514         1.5922
  45   0.0000       0.072730         1.9791
  46   0.0000       0.076458         2.0805
  47   0.0000       0.082331         2.2403
  48   0.0000       0.095488         2.5984

MULLIKEN ATOMIC CHARGES
-----------------------
   0 C :   -0.964224
   1 C :   -0.613632
   2 N :   -0.056186
   3 C :   -0.581656
   4 C :   -0.587182
   5 H :    0.403433
   6 C :   -0.598211
   7 H :    0.308585
   8 H :    0.288718
   9 H :    0.327872
  10 C :   -0.320570
  11 H :    0.282759
  12 H :    0.274906
  13 F :   -0.475659
  14 H :    0.373463
  15 H :    0.418028
  16 C :    0.681322
  17 N :   -0.374805
  18 C :   -1.608280
  19 H :    0.450297
  20 H :    0.358513
  21 H :    0.380565
  22 H :    0.356390
  23 H :    0.172410
  24 H :    0.334033
  25 H :    0.228164
  26 H :    0.275120
  27 H :    0.265825
Sum of atomic charges:   -0.0000000

LOEWDIN ATOMIC CHARGES
----------------------
   0 C :   -0.188325
   1 C :   -0.195297
   2 N :    0.023062
   3 C :   -0.204335
   4 C :   -0.206941
   5 H :    0.106298
   6 C :   -0.172811
   7 H :    0.110932
   8 H :    0.108487
   9 H :    0.119262
  10 C :   -0.185340
  11 H :    0.135179
  12 H :    0.124913
  13 F :   -0.071490
  14 H :    0.123244
  15 H :    0.122056
  16 C :   -0.560080
  17 N :    0.118543
  18 C :   -0.003283
  19 H :   -0.012262
  20 H :   -0.000409
  21 H :    0.084597
  22 H :    0.066576
  23 H :    0.116241
  24 H :    0.114031
  25 H :    0.110726
  26 H :    0.105081
  27 H :    0.111344

  Mayer bond orders larger than 0.100000
B(  0-C ,  1-C ) :   0.9648 B(  0-C ,  2-N ) :   1.1171 B(  0-C ,  3-C ) :   0.1554
B(  0-C , 14-H ) :   0.8788 B(  0-C , 15-H ) :   0.7891 B(  0-C , 16-C ) :  -0.1330
B(  0-C , 18-C ) :   0.3025 B(  1-C ,  3-C ) :   0.8788 B(  1-C ,  6-C ) :   0.1034
B(  1-C , 26-H ) :   0.9188 B(  1-C , 27-H ) :   1.0177 B(  2-N , 16-C ) :   1.1524
B(  2-N , 21-H ) :   0.7124 B(  3-C ,  4-C ) :   0.8884 B(  3-C ,  6-C ) :   0.2665
B(  3-C , 24-H ) :   0.8982 B(  3-C , 25-H ) :   1.0119 B(  4-C ,  5-H ) :   0.9312
B(  4-C ,  6-C ) :   0.6398 B(  4-C ,  7-H ) :   0.9336 B(  4-C , 10-C ) :   0.2913
B(  6-C ,  8-H ) :   0.9876 B(  6-C ,  9-H ) :   0.9394 B(  6-C , 10-C ) :   0.8577
B( 10-C , 11-H ) :   0.9634 B( 10-C , 12-H ) :   0.9199 B( 10-C , 13-F ) :   0.7625
B( 16-C , 17-N ) :   1.1052 B( 16-C , 18-C ) :   1.0769 B( 16-C , 20-H ) :  -0.1355
B( 17-N , 22-H ) :   0.8281 B( 17-N , 23-H ) :   1.0132 B( 18-C , 19-H ) :   0.7946
B( 18-C , 20-H ) :   1.0421

Dispersion correction           -0.011867319
FINAL SINGLE POINT ENERGY      -524.441268838095

DIPOLE MOMENT
-------------
                                X             Y             Z
Electronic contribution:      6.23948       4.46112       2.82491
Nuclear contribution   :     -7.84660      -3.08098      -1.66782
                        -----------------------------------------
Total Dipole Moment    :     -1.60712       1.38013       1.15709
                        -----------------------------------------
Magnitude (a.u.)       :      2.41380
Magnitude (Debye)      :      6.13540

Rotational constants in cm-1:     0.043547     0.029898     0.020008
Rotational constants in MHz :  1305.520367   896.323854   599.829375

                             ****ORCA TERMINATED NORMALLY****
TOTAL RUN TIME: 0 days 0 hours 1 minutes 51 seconds 375 msec
