                         Program Version 5.0.0 -  RELEASE  -
|  1> !LC-PBE RIJCOSX def2-SVP def2/J TightSCF
|  2> *xyz -1 1
|  3> C          0.61188        1.65763       -4.50029
|  4> C          1.69499        1.54179       -5.57045
|  5> H          2.69733        1.73466       -5.18400
|  6> H          1.50666        2.27224       -6.35808
|  7> S          1.78029       -0.03313       -6.42874
|  8> O          2.56929        0.21366       -7.60736
|  9> O          0.41688       -0.46297       -6.61859
| 10> O          2.50513       -0.93326       -5.48257
| 11> H         -0.34424        1.45871       -4.93752
| 12> H          0.61845        2.64655       -4.09174
| 13> H          0.80247        0.94882       -3.72173
| 14> *
| 15> %MaxCore 64000
| 16>
| 17> %pal nprocs 4
| 18> end
| 19>
| 20> %scf
| 21>   MaxIter 150
| 22> end
| 23>
| 24>
| 25>                          ****END OF INPUT****

CARTESIAN COORDINATES (ANGSTROEM)
---------------------------------
  C      0.611880    1.657630   -4.500290
  C      1.694990    1.541790   -5.570450
  H      2.697330    1.734660   -5.184000
  H      1.506660    2.272240   -6.358080
  S      1.780290   -0.033130   -6.428740
  O      2.569290    0.213660   -7.607360
  O      0.416880   -0.462970   -6.618590
  O      2.505130   -0.933260   -5.482570
  H     -0.344240    1.458710   -4.937520
  H      0.618450    2.646550   -4.091740
  H      0.802470    0.948820   -3.721730

 Total Charge           Charge          ....   -1
 Multiplicity           Mult            ....    1
 Number of Electrons    NEL             ....   58
 Basis Dimension        Dim             ....  113

ORBITAL ENERGIES
----------------

  NO   OCC          E(Eh)            E(eV)
   0   2.0000     -88.274413     -2402.0689
   1   2.0000     -18.741552      -509.9836
   2   2.0000     -18.740001      -509.9414
   3   2.0000     -18.716893      -509.3126
   4   2.0000      -9.979442      -271.5544
   5   2.0000      -9.976903      -271.4853
   6   2.0000      -7.904384      -215.0892
   7   2.0000      -5.926329      -161.2636
   8   2.0000      -5.926018      -161.2551
   9   2.0000      -5.925796      -161.2491
  10   2.0000      -1.083053       -29.4714
  11   2.0000      -0.931148       -25.3378
  12   2.0000      -0.894037       -24.3280
  13   2.0000      -0.799175       -21.7467
  14   2.0000      -0.661904       -18.0113
  15   2.0000      -0.516213       -14.0469
  16   2.0000      -0.458370       -12.4729
  17   2.0000      -0.448224       -12.1968
  18   2.0000      -0.408855       -11.1255
  19   2.0000      -0.387735       -10.5508
  20   2.0000      -0.382208       -10.4004
  21   2.0000      -0.356577        -9.7030
  22   2.0000      -0.337940        -9.1958
  23   2.0000      -0.265811        -7.2331
  24   2.0000      -0.262119        -7.1326
  25   2.0000      -0.228583        -6.2201
  26   2.0000      -0.215554        -5.8655
  27   2.0000      -0.200276        -5.4498
  28   2.0000      -0.166627        -4.5341
  29   0.0000       0.292287         7.9535
  30   0.0000       0.347317         9.4510
  31   0.0000       0.351968         9.5775
  32   0.0000       0.359146         9.7729
  33   0.0000       0.385770        10.4973

MULLIKEN ATOMIC CHARGES
-----------------------
   0 C :   -0.107829
   1 C :   -0.218583
   2 H :    0.061273
   3 H :    0.050008
   4 S :    0.818039
   5 O :   -0.557217
   6 O :   -0.558540
   7 O :   -0.621534
   8 H :    0.059933
   9 H :    0.017429
  10 H :    0.057021
Sum of atomic charges:   -1.0000000

LOEWDIN ATOMIC CHARGES
----------------------
   0 C :   -0.106828
   1 C :   -0.215416
   2 H :    0.025882
   3 H :    0.019469
   4 S :    1.083980
   5 O :   -0.606409
   6 O :   -0.606478
   7 O :   -0.672270
   8 H :    0.031171
   9 H :    0.015624
  10 H :    0.031275

  Mayer bond orders larger than 0.100000
B(  0-C ,  1-C ) :   1.0380 B(  0-C ,  8-H ) :   0.9694 B(  0-C ,  9-H ) :   0.9734
B(  0-C , 10-H ) :   0.9720 B(  1-C ,  2-H ) :   0.9518 B(  1-C ,  3-H ) :   0.9509
B(  1-C ,  4-S ) :   0.9061 B(  4-S ,  5-O ) :   1.6643 B(  4-S ,  6-O ) :   1.6552
B(  4-S ,  7-O ) :   1.5995

FINAL SINGLE POINT ENERGY      -701.516756618166

DIPOLE MOMENT
-------------
                                X             Y             Z
Electronic contribution:      2.23431      -5.62474      -5.02283
Nuclear contribution   :     -2.69163       7.29476       5.86550
                        -----------------------------------------
Total Dipole Moment    :     -0.45732       1.67002       0.84267
                        -----------------------------------------
Magnitude (a.u.)       :      1.92567
Magnitude (Debye)      :      4.89465

Rotational constants in cm-1:     0.163060     0.082831     0.081111
Rotational constants in MHz :  4888.419330  2483.225008  2431.646841

                             ****ORCA TERMINATED NORMALLY****
TOTAL RUN TIME: 0 days 0 hours 0 minutes 9 seconds 200 msec
