                         Program Version 5.0.0 -  RELEASE  -
|  1> !LC-PBE RIJCOSX def2-SVP def2/J TightSCF
|  2> *xyz 1 1
|  3> C          1.96337       -1.74915       -1.89689
|  4> N          2.73849       -2.01517       -3.09711
|  5> C          4.04974       -2.15472       -3.15204
|  6> N          4.65821       -1.98629       -4.31866
|  7> N          4.76423       -2.45444       -2.05049
|  8> H          4.28736       -2.77626       -1.21750
|  9> H          5.75082       -2.65835       -2.12599
| 10> H          2.34518       -1.69027       -3.97145
| 11> H          4.10900       -1.59268       -5.07176
| 12> H          5.64910       -2.15646       -4.42724
| 13> C          2.08852       -0.30091       -1.41520
| 14> H          2.23127       -2.45162       -1.10264
| 15> H          0.93025       -1.97780       -2.15544
| 16> H          1.82118        0.36368       -2.21003
| 17> H          3.09792       -0.11068       -1.11551
| 18> H          1.43391       -0.14382       -0.58352
| 19> *
| 20> %MaxCore 64000
| 21>
| 22> %pal nprocs 4
| 23> end
| 24>
| 25> %scf
| 26>   MaxIter 150
| 27> end
| 28>
| 29>
| 30>                          ****END OF INPUT****

CARTESIAN COORDINATES (ANGSTROEM)
---------------------------------
  C      1.963370   -1.749150   -1.896890
  N      2.738490   -2.015170   -3.097110
  C      4.049740   -2.154720   -3.152040
  N      4.658210   -1.986290   -4.318660
  N      4.764230   -2.454440   -2.050490
  H      4.287360   -2.776260   -1.217500
  H      5.750820   -2.658350   -2.125990
  H      2.345180   -1.690270   -3.971450
  H      4.109000   -1.592680   -5.071760
  H      5.649100   -2.156460   -4.427240
  C      2.088520   -0.300910   -1.415200
  H      2.231270   -2.451620   -1.102640
  H      0.930250   -1.977800   -2.155440
  H      1.821180    0.363680   -2.210030
  H      3.097920   -0.110680   -1.115510
  H      1.433910   -0.143820   -0.583520

 Total Charge           Charge          ....    1
 Multiplicity           Mult            ....    1
 Number of Electrons    NEL             ....   48
 Basis Dimension        Dim             ....  134

ORBITAL ENERGIES
----------------

  NO   OCC          E(Eh)            E(eV)
   0   2.0000     -14.453870      -393.3098
   1   2.0000     -14.452845      -393.2819
   2   2.0000     -14.450725      -393.2242
   3   2.0000     -10.470586      -284.9191
   4   2.0000     -10.332955      -281.1740
   5   2.0000     -10.260087      -279.1912
   6   2.0000      -1.391477       -37.8640
   7   2.0000      -1.270471       -34.5713
   8   2.0000      -1.254460       -34.1356
   9   2.0000      -1.097703       -29.8700
  10   2.0000      -0.997015       -27.1302
  11   2.0000      -0.960482       -26.1360
  12   2.0000      -0.937043       -25.4982
  13   2.0000      -0.893577       -24.3155
  14   2.0000      -0.838363       -22.8130
  15   2.0000      -0.827716       -22.5233
  16   2.0000      -0.807176       -21.9644
  17   2.0000      -0.773610       -21.0510
  18   2.0000      -0.741372       -20.1737
  19   2.0000      -0.703313       -19.1381
  20   2.0000      -0.663879       -18.0651
  21   2.0000      -0.640663       -17.4333
  22   2.0000      -0.610304       -16.6072
  23   2.0000      -0.577314       -15.7095
  24   0.0000      -0.063783        -1.7356
  25   0.0000      -0.043498        -1.1836
  26   0.0000      -0.010459        -0.2846
  27   0.0000       0.000989         0.0269
  28   0.0000       0.026392         0.7182

MULLIKEN ATOMIC CHARGES
-----------------------
   0 C :   -0.103890
   1 N :   -0.159318
   2 C :    0.100177
   3 N :   -0.100714
   4 N :   -0.123353
   5 H :    0.201285
   6 H :    0.199697
   7 H :    0.191043
   8 H :    0.200704
   9 H :    0.206072
  10 C :   -0.125691
  11 H :    0.106990
  12 H :    0.125230
  13 H :    0.086843
  14 H :    0.078935
  15 H :    0.115988
Sum of atomic charges:    1.0000000

LOEWDIN ATOMIC CHARGES
----------------------
   0 C :    0.010060
   1 N :    0.020489
   2 C :    0.158070
   3 N :    0.031736
   4 N :    0.020326
   5 H :    0.116585
   6 H :    0.118522
   7 H :    0.112812
   8 H :    0.118486
   9 H :    0.121788
  10 C :   -0.084706
  11 H :    0.046948
  12 H :    0.062761
  13 H :    0.045049
  14 H :    0.039972
  15 H :    0.061101

  Mayer bond orders larger than 0.100000
B(  0-C ,  1-N ) :   0.9239 B(  0-C , 10-C ) :   1.0606 B(  0-C , 11-H ) :   0.9607
B(  0-C , 12-H ) :   0.9520 B(  1-N ,  2-C ) :   1.3822 B(  1-N ,  7-H ) :   0.9078
B(  2-C ,  3-N ) :   1.4035 B(  2-C ,  4-N ) :   1.3862 B(  3-N ,  8-H ) :   0.9201
B(  3-N ,  9-H ) :   0.9213 B(  4-N ,  5-H ) :   0.9189 B(  4-N ,  6-H ) :   0.9231
B( 10-C , 13-H ) :   0.9707 B( 10-C , 14-H ) :   0.9693 B( 10-C , 15-H ) :   0.9658

FINAL SINGLE POINT ENERGY      -283.295122280625

DIPOLE MOMENT
-------------
                                X             Y             Z
Electronic contribution:      3.08762      -2.74115      -3.14874
Nuclear contribution   :     -2.17768       2.37118       2.44574
                        -----------------------------------------
Total Dipole Moment    :      0.90994      -0.36997      -0.70300
                        -----------------------------------------
Magnitude (a.u.)       :      1.20793
Magnitude (Debye)      :      3.07030

Rotational constants in cm-1:     0.215650     0.075183     0.066454
Rotational constants in MHz :  6465.033740  2253.919004  1992.232519

                             ****ORCA TERMINATED NORMALLY****
TOTAL RUN TIME: 0 days 0 hours 0 minutes 13 seconds 870 msec
