                         Program Version 5.0.0 -  RELEASE  -
|  1> !LC-PBE RIJCOSX def2-SVP def2/J TightSCF
|  2> *xyz 0 1
|  3> C          0.61188        1.65763       -4.50029
|  4> C          1.69499        1.54179       -5.57045
|  5> H          2.69733        1.73466       -5.18400
|  6> H          1.50666        2.27224       -6.35808
|  7> S          1.78029       -0.03313       -6.42874
|  8> F          2.56929        0.21366       -7.60736
|  9> O          0.41688       -0.46297       -6.61859
| 10> O          2.50513       -0.93326       -5.48257
| 11> H         -0.34424        1.45871       -4.93752
| 12> H          0.61845        2.64655       -4.09174
| 13> H          0.80247        0.94882       -3.72173
| 14> *
| 15> %MaxCore 64000
| 16>
| 17> %pal nprocs 4
| 18> end
| 19>
| 20> %scf
| 21>   MaxIter 150
| 22> end
| 23>
| 24>
| 25>                          ****END OF INPUT****

CARTESIAN COORDINATES (ANGSTROEM)
---------------------------------
  C      0.611880    1.657630   -4.500290
  C      1.694990    1.541790   -5.570450
  H      2.697330    1.734660   -5.184000
  H      1.506660    2.272240   -6.358080
  S      1.780290   -0.033130   -6.428740
  F      2.569290    0.213660   -7.607360
  O      0.416880   -0.462970   -6.618590
  O      2.505130   -0.933260   -5.482570
  H     -0.344240    1.458710   -4.937520
  H      0.618450    2.646550   -4.091740
  H      0.802470    0.948820   -3.721730

 Total Charge           Charge          ....    0
 Multiplicity           Mult            ....    1
 Number of Electrons    NEL             ....   58
 Basis Dimension        Dim             ....  113

ORBITAL ENERGIES
----------------

  NO   OCC          E(Eh)            E(eV)
   0   2.0000     -88.550230     -2409.5743
   1   2.0000     -24.618128      -669.8933
   2   2.0000     -18.993062      -516.8275
   3   2.0000     -18.970180      -516.2048
   4   2.0000     -10.189355      -277.2664
   5   2.0000     -10.146471      -276.0995
   6   2.0000      -8.182631      -222.6607
   7   2.0000      -6.209101      -168.9582
   8   2.0000      -6.201664      -168.7559
   9   2.0000      -6.200623      -168.7275
  10   2.0000      -1.537576       -41.8396
  11   2.0000      -1.270505       -34.5722
  12   2.0000      -1.150967       -31.3194
  13   2.0000      -0.998127       -27.1604
  14   2.0000      -0.895698       -24.3732
  15   2.0000      -0.836034       -22.7497
  16   2.0000      -0.742433       -20.2026
  17   2.0000      -0.741034       -20.1646
  18   2.0000      -0.700244       -19.0546
  19   2.0000      -0.642651       -17.4874
  20   2.0000      -0.624908       -17.0046
  21   2.0000      -0.573102       -15.5949
  22   2.0000      -0.571003       -15.5378
  23   2.0000      -0.545912       -14.8550
  24   2.0000      -0.521119       -14.1804
  25   2.0000      -0.517412       -14.0795
  26   2.0000      -0.460933       -12.5426
  27   2.0000      -0.440113       -11.9761
  28   2.0000      -0.426128       -11.5955
  29   0.0000       0.135475         3.6865
  30   0.0000       0.138971         3.7816
  31   0.0000       0.179389         4.8814
  32   0.0000       0.183332         4.9887
  33   0.0000       0.191549         5.2123

MULLIKEN ATOMIC CHARGES
-----------------------
   0 C :   -0.118027
   1 C :   -0.251121
   2 H :    0.126937
   3 H :    0.107927
   4 S :    0.903822
   5 F :   -0.148124
   6 O :   -0.422579
   7 O :   -0.482853
   8 H :    0.097604
   9 H :    0.087050
  10 H :    0.099363
Sum of atomic charges:   -0.0000000

LOEWDIN ATOMIC CHARGES
----------------------
   0 C :   -0.081120
   1 C :   -0.180019
   2 H :    0.053478
   3 H :    0.043198
   4 S :    1.143363
   5 F :   -0.102545
   6 O :   -0.479486
   7 O :   -0.543143
   8 H :    0.047791
   9 H :    0.048924
  10 H :    0.049558

  Mayer bond orders larger than 0.100000
B(  0-C ,  1-C ) :   1.0476 B(  0-C ,  8-H ) :   0.9675 B(  0-C ,  9-H ) :   0.9676
B(  0-C , 10-H ) :   0.9713 B(  1-C ,  2-H ) :   0.9332 B(  1-C ,  3-H ) :   0.9342
B(  1-C ,  4-S ) :   0.9291 B(  4-S ,  5-F ) :   1.0596 B(  4-S ,  6-O ) :   1.8037
B(  4-S ,  7-O ) :   1.7486

FINAL SINGLE POINT ENERGY      -725.984866175135

DIPOLE MOMENT
-------------
                                X             Y             Z
Electronic contribution:      3.89452      -5.59152      -7.59979
Nuclear contribution   :     -3.66946       7.33549       7.42434
                        -----------------------------------------
Total Dipole Moment    :      0.22506       1.74397      -0.17544
                        -----------------------------------------
Magnitude (a.u.)       :      1.76716
Magnitude (Debye)      :      4.49176

Rotational constants in cm-1:     0.158379     0.080294     0.077843
Rotational constants in MHz :  4748.076444  2407.152850  2333.668303

                             ****ORCA TERMINATED NORMALLY****
TOTAL RUN TIME: 0 days 0 hours 0 minutes 9 seconds 254 msec
