                         Program Version 5.0.0 -  RELEASE  -
|  1> !LC-PBE RIJCOSX def2-SVP def2/J TightSCF
|  2> *xyz 0 1
|  3> C          1.96337       -1.74915       -1.89689
|  4> C          2.73849       -2.01517       -3.09711
|  5> C          4.04974       -2.15472       -3.15204
|  6> N          4.65821       -1.98629       -4.31866
|  7> N          4.76423       -2.45444       -2.05049
|  8> H          4.28736       -2.77626       -1.21750
|  9> H          5.75082       -2.65835       -2.12599
| 10> H          2.34518       -1.69027       -3.97145
| 11> H          4.10900       -1.59268       -5.07176
| 12> H          5.64910       -2.15646       -4.42724
| 13> C          2.08852       -0.30091       -1.41520
| 14> H          2.23127       -2.45162       -1.10264
| 15> H          0.93025       -1.97780       -2.15544
| 16> H          1.82118        0.36368       -2.21003
| 17> H          3.09792       -0.11068       -1.11551
| 18> H          1.43391       -0.14382       -0.58352
| 19> *
| 20> %MaxCore 64000
| 21>
| 22> %pal nprocs 4
| 23> end
| 24>
| 25> %scf
| 26>   MaxIter 150
| 27> end
| 28>
| 29>
| 30>                          ****END OF INPUT****

CARTESIAN COORDINATES (ANGSTROEM)
---------------------------------
  C      1.963370   -1.749150   -1.896890
  C      2.738490   -2.015170   -3.097110
  C      4.049740   -2.154720   -3.152040
  N      4.658210   -1.986290   -4.318660
  N      4.764230   -2.454440   -2.050490
  H      4.287360   -2.776260   -1.217500
  H      5.750820   -2.658350   -2.125990
  H      2.345180   -1.690270   -3.971450
  H      4.109000   -1.592680   -5.071760
  H      5.649100   -2.156460   -4.427240
  C      2.088520   -0.300910   -1.415200
  H      2.231270   -2.451620   -1.102640
  H      0.930250   -1.977800   -2.155440
  H      1.821180    0.363680   -2.210030
  H      3.097920   -0.110680   -1.115510
  H      1.433910   -0.143820   -0.583520

 Total Charge           Charge          ....    0
 Multiplicity           Mult            ....    1
 Number of Electrons    NEL             ....   48
 Basis Dimension        Dim             ....  134

ORBITAL ENERGIES
----------------

  NO   OCC          E(Eh)            E(eV)
   0   2.0000     -14.221907      -386.9978
   1   2.0000     -14.218948      -386.9173
   2   2.0000     -10.167866      -276.6817
   3   2.0000     -10.094976      -274.6983
   4   2.0000     -10.085198      -274.4322
   5   2.0000     -10.035556      -273.0814
   6   2.0000      -1.122071       -30.5331
   7   2.0000      -1.023177       -27.8421
   8   2.0000      -0.938346       -25.5337
   9   2.0000      -0.849457       -23.1149
  10   2.0000      -0.766376       -20.8541
  11   2.0000      -0.725242       -19.7348
  12   2.0000      -0.685021       -18.6404
  13   2.0000      -0.649357       -17.6699
  14   2.0000      -0.606150       -16.4942
  15   2.0000      -0.575638       -15.6639
  16   2.0000      -0.559971       -15.2376
  17   2.0000      -0.523910       -14.2563
  18   2.0000      -0.510442       -13.8898
  19   2.0000      -0.486124       -13.2281
  20   2.0000      -0.451645       -12.2899
  21   2.0000      -0.438450       -11.9308
  22   2.0000      -0.392937       -10.6924
  23   2.0000      -0.266519        -7.2524
  24   0.0000       0.140173         3.8143
  25   0.0000       0.171211         4.6589
  26   0.0000       0.180082         4.9003
  27   0.0000       0.198519         5.4020
  28   0.0000       0.206617         5.6223

MULLIKEN ATOMIC CHARGES
-----------------------
   0 C :   -0.098610
   1 C :   -0.227859
   2 C :   -0.007599
   3 N :   -0.143142
   4 N :   -0.164681
   5 H :    0.150636
   6 H :    0.132595
   7 H :   -0.049047
   8 H :    0.154164
   9 H :    0.132312
  10 C :   -0.083768
  11 H :    0.025985
  12 H :    0.046143
  13 H :    0.044110
  14 H :    0.045841
  15 H :    0.042920
Sum of atomic charges:   -0.0000000

LOEWDIN ATOMIC CHARGES
----------------------
   0 C :   -0.068444
   1 C :   -0.250510
   2 C :    0.035417
   3 N :   -0.040209
   4 N :   -0.049087
   5 H :    0.087435
   6 H :    0.073763
   7 H :   -0.002128
   8 H :    0.092048
   9 H :    0.074382
  10 C :   -0.089213
  11 H :    0.020060
  12 H :    0.035606
  13 H :    0.029418
  14 H :    0.027209
  15 H :    0.024254

  Mayer bond orders larger than 0.100000
B(  0-C ,  1-C ) :   1.0647 B(  0-C , 10-C ) :   1.0600 B(  0-C , 11-H ) :   0.9575
B(  0-C , 12-H ) :   0.9461 B(  1-C ,  2-C ) :   1.7230 B(  1-C ,  7-H ) :   0.9490
B(  2-C ,  3-N ) :   1.2361 B(  2-C ,  4-N ) :   1.2335 B(  3-N ,  8-H ) :   0.9373
B(  3-N ,  9-H ) :   0.9519 B(  4-N ,  5-H ) :   0.9424 B(  4-N ,  6-H ) :   0.9516
B( 10-C , 13-H ) :   0.9743 B( 10-C , 14-H ) :   0.9768 B( 10-C , 15-H ) :   0.9751

FINAL SINGLE POINT ENERGY      -266.838923434813

DIPOLE MOMENT
-------------
                                X             Y             Z
Electronic contribution:      3.47026      -2.46568      -2.53760
Nuclear contribution   :     -2.31778       2.31977       2.35294
                        -----------------------------------------
Total Dipole Moment    :      1.15248      -0.14591      -0.18466
                        -----------------------------------------
Magnitude (a.u.)       :      1.17627
Magnitude (Debye)      :      2.98983

Rotational constants in cm-1:     0.219415     0.075373     0.066689
Rotational constants in MHz :  6577.897266  2259.621393  1999.290981

                             ****ORCA TERMINATED NORMALLY****
TOTAL RUN TIME: 0 days 0 hours 0 minutes 13 seconds 772 msec
