                         Program Version 5.0.0 -  RELEASE  -
|  1> !LC-PBE RIJCOSX def2-SVP def2/J TightSCF
|  2> *xyz 0 1
|  3> C          0.61188        1.65763       -4.50029
|  4> C          1.69499        1.54179       -5.57045
|  5> H          2.69733        1.73466       -5.18400
|  6> H          1.50666        2.27224       -6.35808
|  7> S          1.78029       -0.03313       -6.42874
|  8> O          2.56929        0.21366       -7.60736
|  9> F          0.41688       -0.46297       -6.61859
| 10> O          2.50513       -0.93326       -5.48257
| 11> H         -0.34424        1.45871       -4.93752
| 12> H          0.61845        2.64655       -4.09174
| 13> H          0.80247        0.94882       -3.72173
| 14> *
| 15> %MaxCore 64000
| 16>
| 17> %pal nprocs 4
| 18> end
| 19>
| 20> %scf
| 21>   MaxIter 150
| 22> end
| 23>
| 24>
| 25>                          ****END OF INPUT****

CARTESIAN COORDINATES (ANGSTROEM)
---------------------------------
  C      0.611880    1.657630   -4.500290
  C      1.694990    1.541790   -5.570450
  H      2.697330    1.734660   -5.184000
  H      1.506660    2.272240   -6.358080
  S      1.780290   -0.033130   -6.428740
  O      2.569290    0.213660   -7.607360
  F      0.416880   -0.462970   -6.618590
  O      2.505130   -0.933260   -5.482570
  H     -0.344240    1.458710   -4.937520
  H      0.618450    2.646550   -4.091740
  H      0.802470    0.948820   -3.721730

 Total Charge           Charge          ....    0
 Multiplicity           Mult            ....    1
 Number of Electrons    NEL             ....   58
 Basis Dimension        Dim             ....  113

ORBITAL ENERGIES
----------------

  NO   OCC          E(Eh)            E(eV)
   0   2.0000     -88.549671     -2409.5591
   1   2.0000     -24.617609      -669.8792
   2   2.0000     -18.992280      -516.8062
   3   2.0000     -18.970266      -516.2072
   4   2.0000     -10.188966      -277.2558
   5   2.0000     -10.153063      -276.2789
   6   2.0000      -8.182104      -222.6464
   7   2.0000      -6.208714      -168.9477
   8   2.0000      -6.201060      -168.7394
   9   2.0000      -6.200055      -168.7121
  10   2.0000      -1.535639       -41.7869
  11   2.0000      -1.271437       -34.5975
  12   2.0000      -1.150679       -31.3116
  13   2.0000      -1.002632       -27.2830
  14   2.0000      -0.890250       -24.2249
  15   2.0000      -0.842515       -22.9260
  16   2.0000      -0.755067       -20.5464
  17   2.0000      -0.738918       -20.1070
  18   2.0000      -0.688405       -18.7324
  19   2.0000      -0.643227       -17.5031
  20   2.0000      -0.619866       -16.8674
  21   2.0000      -0.592632       -16.1263
  22   2.0000      -0.570569       -15.5260
  23   2.0000      -0.549732       -14.9590
  24   2.0000      -0.529705       -14.4140
  25   2.0000      -0.514497       -14.0002
  26   2.0000      -0.459614       -12.5067
  27   2.0000      -0.440500       -11.9866
  28   2.0000      -0.426198       -11.5974
  29   0.0000       0.119562         3.2534
  30   0.0000       0.153216         4.1692
  31   0.0000       0.180122         4.9014
  32   0.0000       0.186313         5.0698
  33   0.0000       0.192260         5.2317

MULLIKEN ATOMIC CHARGES
-----------------------
   0 C :   -0.138686
   1 C :   -0.251487
   2 H :    0.150512
   3 H :    0.120097
   4 S :    0.902380
   5 O :   -0.416879
   6 F :   -0.151530
   7 O :   -0.482188
   8 H :    0.077304
   9 H :    0.092384
  10 H :    0.098092
Sum of atomic charges:    0.0000000

LOEWDIN ATOMIC CHARGES
----------------------
   0 C :   -0.096689
   1 C :   -0.175436
   2 H :    0.068771
   3 H :    0.048833
   4 S :    1.143694
   5 O :   -0.476925
   6 F :   -0.104637
   7 O :   -0.542860
   8 H :    0.037840
   9 H :    0.050788
  10 H :    0.046622

  Mayer bond orders larger than 0.100000
B(  0-C ,  1-C ) :   1.0260 B(  0-C ,  8-H ) :   0.9748 B(  0-C ,  9-H ) :   0.9664
B(  0-C , 10-H ) :   0.9703 B(  1-C ,  2-H ) :   0.9332 B(  1-C ,  3-H ) :   0.9371
B(  1-C ,  4-S ) :   0.9345 B(  4-S ,  5-O ) :   1.8109 B(  4-S ,  6-F ) :   1.0521
B(  4-S ,  7-O ) :   1.7479

FINAL SINGLE POINT ENERGY      -725.984897337243

DIPOLE MOMENT
-------------
                                X             Y             Z
Electronic contribution:      0.19123      -6.74590      -5.86828
Nuclear contribution   :     -1.42658       8.04056       6.39401
                        -----------------------------------------
Total Dipole Moment    :     -1.23535       1.29466       0.52573
                        -----------------------------------------
Magnitude (a.u.)       :      1.86511
Magnitude (Debye)      :      4.74074

Rotational constants in cm-1:     0.153659     0.082363     0.078978
Rotational constants in MHz :  4606.587369  2469.179541  2367.702074

                             ****ORCA TERMINATED NORMALLY****
TOTAL RUN TIME: 0 days 0 hours 0 minutes 9 seconds 84 msec
