                         Program Version 5.0.0 -  RELEASE  -
|  1> !LC-PBE RIJCOSX def2-SVP def2/J TightSCF
|  2> *xyz 0 1
|  3> C          1.96337       -1.74915       -1.89689
|  4> N          2.73849       -2.01517       -3.09711
|  5> C          4.04974       -2.15472       -3.15204
|  6> C          4.65821       -1.98629       -4.31866
|  7> N          4.76423       -2.45444       -2.05049
|  8> H          4.28736       -2.77626       -1.21750
|  9> H          5.75082       -2.65835       -2.12599
| 10> H          2.34518       -1.69027       -3.97145
| 11> H          4.10900       -1.59268       -5.07176
| 12> H          5.64910       -2.15646       -4.42724
| 13> C          2.08852       -0.30091       -1.41520
| 14> H          2.23127       -2.45162       -1.10264
| 15> H          0.93025       -1.97780       -2.15544
| 16> H          1.82118        0.36368       -2.21003
| 17> H          3.09792       -0.11068       -1.11551
| 18> H          1.43391       -0.14382       -0.58352
| 19> *
| 20> %MaxCore 64000
| 21>
| 22> %pal nprocs 4
| 23> end
| 24>
| 25> %scf
| 26>   MaxIter 150
| 27> end
| 28>
| 29>
| 30>                          ****END OF INPUT****

CARTESIAN COORDINATES (ANGSTROEM)
---------------------------------
  C      1.963370   -1.749150   -1.896890
  N      2.738490   -2.015170   -3.097110
  C      4.049740   -2.154720   -3.152040
  C      4.658210   -1.986290   -4.318660
  N      4.764230   -2.454440   -2.050490
  H      4.287360   -2.776260   -1.217500
  H      5.750820   -2.658350   -2.125990
  H      2.345180   -1.690270   -3.971450
  H      4.109000   -1.592680   -5.071760
  H      5.649100   -2.156460   -4.427240
  C      2.088520   -0.300910   -1.415200
  H      2.231270   -2.451620   -1.102640
  H      0.930250   -1.977800   -2.155440
  H      1.821180    0.363680   -2.210030
  H      3.097920   -0.110680   -1.115510
  H      1.433910   -0.143820   -0.583520

 Total Charge           Charge          ....    0
 Multiplicity           Mult            ....    1
 Number of Electrons    NEL             ....   48
 Basis Dimension        Dim             ....  134

ORBITAL ENERGIES
----------------

  NO   OCC          E(Eh)            E(eV)
   0   2.0000     -14.221336      -386.9822
   1   2.0000     -14.220876      -386.9697
   2   2.0000     -10.170250      -276.7466
   3   2.0000     -10.164711      -276.5959
   4   2.0000     -10.113124      -275.1921
   5   2.0000     -10.031013      -272.9577
   6   2.0000      -1.133891       -30.8547
   7   2.0000      -1.039885       -28.2967
   8   2.0000      -0.936742       -25.4901
   9   2.0000      -0.859562       -23.3899
  10   2.0000      -0.783423       -21.3180
  11   2.0000      -0.746147       -20.3037
  12   2.0000      -0.679677       -18.4950
  13   2.0000      -0.638706       -17.3801
  14   2.0000      -0.616665       -16.7803
  15   2.0000      -0.578189       -15.7333
  16   2.0000      -0.572570       -15.5804
  17   2.0000      -0.536523       -14.5995
  18   2.0000      -0.514778       -14.0078
  19   2.0000      -0.505154       -13.7459
  20   2.0000      -0.492011       -13.3883
  21   2.0000      -0.484244       -13.1770
  22   2.0000      -0.379515       -10.3271
  23   2.0000      -0.274064        -7.4577
  24   0.0000       0.137139         3.7317
  25   0.0000       0.166209         4.5228
  26   0.0000       0.180547         4.9129
  27   0.0000       0.193665         5.2699
  28   0.0000       0.203658         5.5418

MULLIKEN ATOMIC CHARGES
-----------------------
   0 C :   -0.066176
   1 N :   -0.181801
   2 C :    0.004071
   3 C :   -0.191781
   4 N :   -0.173623
   5 H :    0.133280
   6 H :    0.152853
   7 H :    0.151829
   8 H :   -0.017567
   9 H :   -0.015248
  10 C :   -0.110516
  11 H :    0.060673
  12 H :    0.067680
  13 H :    0.060094
  14 H :    0.067721
  15 H :    0.058512
Sum of atomic charges:   -0.0000000

LOEWDIN ATOMIC CHARGES
----------------------
   0 C :   -0.000159
   1 N :   -0.038291
   2 C :    0.041988
   3 C :   -0.283399
   4 N :   -0.047827
   5 H :    0.072070
   6 H :    0.091109
   7 H :    0.092352
   8 H :    0.000087
   9 H :    0.000862
  10 C :   -0.099718
  11 H :    0.028456
  12 H :    0.037033
  13 H :    0.034605
  14 H :    0.036359
  15 H :    0.034473

  Mayer bond orders larger than 0.100000
B(  0-C ,  1-N ) :   1.0111 B(  0-C , 10-C ) :   1.0525 B(  0-C , 11-H ) :   0.9659
B(  0-C , 12-H ) :   0.9655 B(  1-N ,  2-C ) :   1.2018 B(  1-N ,  7-H ) :   0.9264
B(  2-C ,  3-C ) :   1.7660 B(  2-C ,  4-N ) :   1.2063 B(  3-C ,  8-H ) :   0.9464
B(  3-C ,  9-H ) :   0.9582 B(  4-N ,  5-H ) :   0.9514 B(  4-N ,  6-H ) :   0.9451
B( 10-C , 13-H ) :   0.9729 B( 10-C , 14-H ) :   0.9694 B( 10-C , 15-H ) :   0.9711

FINAL SINGLE POINT ENERGY      -266.833758450903

DIPOLE MOMENT
-------------
                                X             Y             Z
Electronic contribution:      1.40489      -2.37089      -1.14228
Nuclear contribution   :     -1.91052       2.32590       2.09379
                        -----------------------------------------
Total Dipole Moment    :     -0.50563      -0.04499       0.95151
                        -----------------------------------------
Magnitude (a.u.)       :      1.07845
Magnitude (Debye)      :      2.74121

Rotational constants in cm-1:     0.219448     0.077923     0.068804
Rotational constants in MHz :  6578.886179  2336.083179  2062.700476

                             ****ORCA TERMINATED NORMALLY****
TOTAL RUN TIME: 0 days 0 hours 0 minutes 13 seconds 521 msec
