                         Program Version 5.0.0 -  RELEASE  -
|  1> !LC-PBE RIJCOSX def2-SVP def2/J TightSCF
|  2> *xyz 0 1
|  3> C          0.61188        1.65763       -4.50029
|  4> C          1.69499        1.54179       -5.57045
|  5> H          2.69733        1.73466       -5.18400
|  6> H          1.50666        2.27224       -6.35808
|  7> S          1.78029       -0.03313       -6.42874
|  8> O          2.56929        0.21366       -7.60736
|  9> O          0.41688       -0.46297       -6.61859
| 10> F          2.50513       -0.93326       -5.48257
| 11> H         -0.34424        1.45871       -4.93752
| 12> H          0.61845        2.64655       -4.09174
| 13> H          0.80247        0.94882       -3.72173
| 14> *
| 15> %MaxCore 64000
| 16>
| 17> %pal nprocs 4
| 18> end
| 19>
| 20> %scf
| 21>   MaxIter 150
| 22> end
| 23>
| 24>
| 25>                          ****END OF INPUT****

CARTESIAN COORDINATES (ANGSTROEM)
---------------------------------
  C      0.611880    1.657630   -4.500290
  C      1.694990    1.541790   -5.570450
  H      2.697330    1.734660   -5.184000
  H      1.506660    2.272240   -6.358080
  S      1.780290   -0.033130   -6.428740
  O      2.569290    0.213660   -7.607360
  O      0.416880   -0.462970   -6.618590
  F      2.505130   -0.933260   -5.482570
  H     -0.344240    1.458710   -4.937520
  H      0.618450    2.646550   -4.091740
  H      0.802470    0.948820   -3.721730

 Total Charge           Charge          ....    0
 Multiplicity           Mult            ....    1
 Number of Electrons    NEL             ....   58
 Basis Dimension        Dim             ....  113

ORBITAL ENERGIES
----------------

  NO   OCC          E(Eh)            E(eV)
   0   2.0000     -88.548923     -2409.5387
   1   2.0000     -24.588305      -669.0818
   2   2.0000     -18.993928      -516.8511
   3   2.0000     -18.992501      -516.8122
   4   2.0000     -10.187968      -277.2287
   5   2.0000     -10.147638      -276.1313
   6   2.0000      -8.180960      -222.6152
   7   2.0000      -6.207233      -168.9074
   8   2.0000      -6.200305      -168.7189
   9   2.0000      -6.199256      -168.6903
  10   2.0000      -1.491089       -40.5746
  11   2.0000      -1.282696       -34.9039
  12   2.0000      -1.181065       -32.1384
  13   2.0000      -0.999162       -27.1886
  14   2.0000      -0.878228       -23.8978
  15   2.0000      -0.826076       -22.4787
  16   2.0000      -0.729595       -19.8533
  17   2.0000      -0.706668       -19.2294
  18   2.0000      -0.691158       -18.8074
  19   2.0000      -0.640266       -17.4225
  20   2.0000      -0.622474       -16.9384
  21   2.0000      -0.595319       -16.1995
  22   2.0000      -0.571241       -15.5442
  23   2.0000      -0.542091       -14.7510
  24   2.0000      -0.538848       -14.6628
  25   2.0000      -0.514585       -14.0026
  26   2.0000      -0.471045       -12.8178
  27   2.0000      -0.458120       -12.4661
  28   2.0000      -0.449394       -12.2286
  29   0.0000       0.127039         3.4569
  30   0.0000       0.151999         4.1361
  31   0.0000       0.182958         4.9785
  32   0.0000       0.185651         5.0518
  33   0.0000       0.192625         5.2416

MULLIKEN ATOMIC CHARGES
-----------------------
   0 C :   -0.128081
   1 C :   -0.262771
   2 H :    0.120649
   3 H :    0.142756
   4 S :    0.916250
   5 O :   -0.425060
   6 O :   -0.428081
   7 F :   -0.204625
   8 H :    0.102082
   9 H :    0.086590
  10 H :    0.080290
Sum of atomic charges:   -0.0000000

LOEWDIN ATOMIC CHARGES
----------------------
   0 C :   -0.093088
   1 C :   -0.181429
   2 H :    0.049810
   3 H :    0.064274
   4 S :    1.150596
   5 O :   -0.483262
   6 O :   -0.483327
   7 F :   -0.160831
   8 H :    0.048039
   9 H :    0.048337
  10 H :    0.040880

  Mayer bond orders larger than 0.100000
B(  0-C ,  1-C ) :   1.0290 B(  0-C ,  8-H ) :   0.9673 B(  0-C ,  9-H ) :   0.9664
B(  0-C , 10-H ) :   0.9755 B(  1-C ,  2-H ) :   0.9363 B(  1-C ,  3-H ) :   0.9359
B(  1-C ,  4-S ) :   0.9275 B(  4-S ,  5-O ) :   1.8164 B(  4-S ,  6-O ) :   1.8097
B(  4-S ,  7-F ) :   0.9966

FINAL SINGLE POINT ENERGY      -726.011533228565

DIPOLE MOMENT
-------------
                                X             Y             Z
Electronic contribution:      3.80465      -7.59058      -3.90645
Nuclear contribution   :     -3.60260       8.53062       5.21025
                        -----------------------------------------
Total Dipole Moment    :      0.20204       0.94003       1.30380
                        -----------------------------------------
Magnitude (a.u.)       :      1.61999
Magnitude (Debye)      :      4.11770

Rotational constants in cm-1:     0.154011     0.080858     0.079602
Rotational constants in MHz :  4617.134198  2424.070332  2386.404775

                             ****ORCA TERMINATED NORMALLY****
TOTAL RUN TIME: 0 days 0 hours 0 minutes 8 seconds 945 msec
