                         Program Version 5.0.0 -  RELEASE  -
|  1> !LC-PBE RIJCOSX def2-SVP def2/J TightSCF
|  2> *xyz 0 1
|  3> C          1.96337       -1.74915       -1.89689
|  4> N          2.73849       -2.01517       -3.09711
|  5> C          4.04974       -2.15472       -3.15204
|  6> N          4.65821       -1.98629       -4.31866
|  7> C          4.76423       -2.45444       -2.05049
|  8> H          4.28736       -2.77626       -1.21750
|  9> H          5.75082       -2.65835       -2.12599
| 10> H          2.34518       -1.69027       -3.97145
| 11> H          4.10900       -1.59268       -5.07176
| 12> H          5.64910       -2.15646       -4.42724
| 13> C          2.08852       -0.30091       -1.41520
| 14> H          2.23127       -2.45162       -1.10264
| 15> H          0.93025       -1.97780       -2.15544
| 16> H          1.82118        0.36368       -2.21003
| 17> H          3.09792       -0.11068       -1.11551
| 18> H          1.43391       -0.14382       -0.58352
| 19> *
| 20> %MaxCore 64000
| 21>
| 22> %pal nprocs 4
| 23> end
| 24>
| 25> %scf
| 26>   MaxIter 150
| 27> end
| 28>
| 29>
| 30>                          ****END OF INPUT****

CARTESIAN COORDINATES (ANGSTROEM)
---------------------------------
  C      1.963370   -1.749150   -1.896890
  N      2.738490   -2.015170   -3.097110
  C      4.049740   -2.154720   -3.152040
  N      4.658210   -1.986290   -4.318660
  C      4.764230   -2.454440   -2.050490
  H      4.287360   -2.776260   -1.217500
  H      5.750820   -2.658350   -2.125990
  H      2.345180   -1.690270   -3.971450
  H      4.109000   -1.592680   -5.071760
  H      5.649100   -2.156460   -4.427240
  C      2.088520   -0.300910   -1.415200
  H      2.231270   -2.451620   -1.102640
  H      0.930250   -1.977800   -2.155440
  H      1.821180    0.363680   -2.210030
  H      3.097920   -0.110680   -1.115510
  H      1.433910   -0.143820   -0.583520

 Total Charge           Charge          ....    0
 Multiplicity           Mult            ....    1
 Number of Electrons    NEL             ....   48
 Basis Dimension        Dim             ....  134

ORBITAL ENERGIES
----------------

  NO   OCC          E(Eh)            E(eV)
   0   2.0000     -14.225734      -387.1019
   1   2.0000     -14.223363      -387.0374
   2   2.0000     -10.172540      -276.8089
   3   2.0000     -10.156657      -276.3767
   4   2.0000     -10.105427      -274.9827
   5   2.0000     -10.029597      -272.9192
   6   2.0000      -1.139362       -31.0036
   7   2.0000      -1.045114       -28.4390
   8   2.0000      -0.917135       -24.9565
   9   2.0000      -0.864149       -23.5147
  10   2.0000      -0.797783       -21.7088
  11   2.0000      -0.706530       -19.2257
  12   2.0000      -0.692191       -18.8355
  13   2.0000      -0.664818       -18.0906
  14   2.0000      -0.609226       -16.5779
  15   2.0000      -0.578805       -15.7501
  16   2.0000      -0.558481       -15.1970
  17   2.0000      -0.531359       -14.4590
  18   2.0000      -0.510389       -13.8884
  19   2.0000      -0.498816       -13.5735
  20   2.0000      -0.493793       -13.4368
  21   2.0000      -0.472267       -12.8510
  22   2.0000      -0.376833       -10.2541
  23   2.0000      -0.273927        -7.4539
  24   0.0000       0.136930         3.7261
  25   0.0000       0.168835         4.5942
  26   0.0000       0.184946         5.0326
  27   0.0000       0.191046         5.1986
  28   0.0000       0.212054         5.7703

MULLIKEN ATOMIC CHARGES
-----------------------
   0 C :   -0.040480
   1 N :   -0.198499
   2 C :    0.010911
   3 N :   -0.159248
   4 C :   -0.212412
   5 H :   -0.008108
   6 H :   -0.019975
   7 H :    0.126555
   8 H :    0.130138
   9 H :    0.158678
  10 C :   -0.114104
  11 H :    0.084175
  12 H :    0.060342
  13 H :    0.045130
  14 H :    0.078440
  15 H :    0.058458
Sum of atomic charges:    0.0000000

LOEWDIN ATOMIC CHARGES
----------------------
   0 C :    0.013361
   1 N :   -0.037179
   2 C :    0.040941
   3 N :   -0.036933
   4 C :   -0.299353
   5 H :    0.000936
   6 H :   -0.001155
   7 H :    0.071723
   8 H :    0.072388
   9 H :    0.094032
  10 C :   -0.097699
  11 H :    0.041422
  12 H :    0.033162
  13 H :    0.028018
  14 H :    0.041283
  15 H :    0.035052

  Mayer bond orders larger than 0.100000
B(  0-C ,  1-N ) :   0.9944 B(  0-C , 10-C ) :   1.0700 B(  0-C , 11-H ) :   0.9574
B(  0-C , 12-H ) :   0.9680 B(  1-N ,  2-C ) :   1.1829 B(  1-N ,  7-H ) :   0.9396
B(  2-C ,  3-N ) :   1.2271 B(  2-C ,  4-C ) :   1.7549 B(  3-N ,  8-H ) :   0.9530
B(  3-N ,  9-H ) :   0.9428 B(  4-C ,  5-H ) :   0.9507 B(  4-C ,  6-H ) :   0.9545
B( 10-C , 13-H ) :   0.9738 B( 10-C , 14-H ) :   0.9664 B( 10-C , 15-H ) :   0.9726

FINAL SINGLE POINT ENERGY      -266.832299831714

DIPOLE MOMENT
-------------
                                X             Y             Z
Electronic contribution:      1.31832      -1.79550      -3.55770
Nuclear contribution   :     -1.88803       2.22658       2.57497
                        -----------------------------------------
Total Dipole Moment    :     -0.56971       0.43108      -0.98273
                        -----------------------------------------
Magnitude (a.u.)       :      1.21498
Magnitude (Debye)      :      3.08822

Rotational constants in cm-1:     0.226509     0.075782     0.067928
Rotational constants in MHz :  6790.555051  2271.890226  2036.439218

                             ****ORCA TERMINATED NORMALLY****
TOTAL RUN TIME: 0 days 0 hours 0 minutes 13 seconds 662 msec
