                         Program Version 5.0.0 -  RELEASE  -
|  1> !LC-PBE RIJCOSX def2-TZVP def2/J TightSCF xyzfile
|  2>
|  3> *xyzfile 0 1 D5.xyz
|  4>
|  5> %MaxCore 64000
|  6>
|  7> %pal nprocs 18
|  8> end
|  9>
| 10> %scf
| 11>   MaxIter 150
| 12> end
| 13>
| 14>
| 15>                          ****END OF INPUT****

CARTESIAN COORDINATES (ANGSTROEM)
---------------------------------
  C      1.963365   -1.749150   -1.896887
  N      2.738490   -2.015170   -3.097113
  C      0.611877    1.657634   -4.500288
  C      1.694991    1.541794   -5.570447
  H      2.697326    1.734659   -5.183996
  H      1.506656    2.272239   -6.358076
  S      1.780287   -0.033128   -6.428739
  C      4.049736   -2.154717   -3.152044
  C      4.658206   -1.986293   -4.318655
  N      4.764231   -2.454435   -2.050491
  H      4.287363   -2.776259   -1.217496
  H      5.750825   -2.658351   -2.125988
  H      2.345176   -1.690274   -3.971447
  H      4.109004   -1.592677   -5.071760
  H      5.649095   -2.156462   -4.427237
  O      2.569287    0.213657   -7.607360
  F      0.416880   -0.462969   -6.618595
  C      2.088520   -0.300912   -1.415204
  H      2.231272   -2.451616   -1.102643
  H      0.930249   -1.977801   -2.155438
  C      0.680356    0.655418   -3.348038
  H     -0.356865    1.549231   -4.991128
  H      0.650228    2.675438   -4.096000
  C      1.968993    0.733582   -2.535654
  H      3.051356   -0.168602   -0.911868
  H      1.316501   -0.136231   -0.657252
  O      2.505129   -0.933263   -5.482570
  H      2.824195    0.624726   -3.208464
  H      2.058919    1.730331   -2.093112
  H      0.542252   -0.344731   -3.766662
  H     -0.174219    0.829692   -2.685182

 Total Charge           Charge          ....    0
 Multiplicity           Mult            ....    1
 Number of Electrons    NEL             ....  120
 Basis Dimension        Dim             ....  542

ORBITAL ENERGIES
----------------

  NO   OCC          E(Eh)            E(eV)
   0   2.0000     -88.546233     -2409.4655
   1   2.0000     -24.627496      -670.1482
   2   2.0000     -19.004123      -517.1285
   3   2.0000     -18.990754      -516.7647
   4   2.0000     -14.192026      -386.1847
   5   2.0000     -14.179921      -385.8553
   6   2.0000     -10.185202      -277.1534
   7   2.0000     -10.153732      -276.2971
   8   2.0000     -10.140230      -275.9297
   9   2.0000     -10.138352      -275.8786
  10   2.0000     -10.130883      -275.6753
  11   2.0000     -10.116460      -275.2829
  12   2.0000     -10.110331      -275.1161
  13   2.0000      -9.990003      -271.8418
  14   2.0000      -8.157742      -221.9834
  15   2.0000      -6.178209      -168.1176
  16   2.0000      -6.171103      -167.9243
  17   2.0000      -6.170455      -167.9066
  18   2.0000      -1.558658       -42.4132
  19   2.0000      -1.290253       -35.1096
  20   2.0000      -1.183857       -32.2144
  21   2.0000      -1.123142       -30.5622
  22   2.0000      -1.037374       -28.2284
  23   2.0000      -1.028825       -27.9958
  24   2.0000      -0.972520       -26.4636
  25   2.0000      -0.930654       -25.3244
  26   2.0000      -0.889595       -24.2071
  27   2.0000      -0.869532       -23.6612
  28   2.0000      -0.826669       -22.4948
  29   2.0000      -0.792695       -21.5703
  30   2.0000      -0.764769       -20.8104
  31   2.0000      -0.762087       -20.7375
  32   2.0000      -0.746285       -20.3074
  33   2.0000      -0.726689       -19.7742
  34   2.0000      -0.698719       -19.0131
  35   2.0000      -0.666570       -18.1383
  36   2.0000      -0.653378       -17.7793
  37   2.0000      -0.642942       -17.4953
  38   2.0000      -0.626797       -17.0560
  39   2.0000      -0.620454       -16.8834
  40   2.0000      -0.612159       -16.6577
  41   2.0000      -0.600822       -16.3492
  42   2.0000      -0.588873       -16.0241
  43   2.0000      -0.572166       -15.5694
  44   2.0000      -0.565022       -15.3750
  45   2.0000      -0.539428       -14.6786
  46   2.0000      -0.536062       -14.5870
  47   2.0000      -0.522375       -14.2146
  48   2.0000      -0.511856       -13.9283
  49   2.0000      -0.503977       -13.7139
  50   2.0000      -0.494176       -13.4472
  51   2.0000      -0.484911       -13.1951
  52   2.0000      -0.473430       -12.8827
  53   2.0000      -0.462824       -12.5941
  54   2.0000      -0.460252       -12.5241
  55   2.0000      -0.453656       -12.3446
  56   2.0000      -0.447220       -12.1695
  57   2.0000      -0.440976       -11.9996
  58   2.0000      -0.362299        -9.8587
  59   2.0000      -0.254991        -6.9387
  60   0.0000       0.091011         2.4765
  61   0.0000       0.114745         3.1224
  62   0.0000       0.120868         3.2890
  63   0.0000       0.127210         3.4616
  64   0.0000       0.139329         3.7913

MULLIKEN ATOMIC CHARGES
-----------------------
   0 C :   -0.402941
   1 N :   -0.235817
   2 C :   -0.316713
   3 C :   -0.377278
   4 H :    0.236029
   5 H :    0.213744
   6 S :    0.793519
   7 C :    0.316986
   8 C :   -0.642477
   9 N :   -0.522076
  10 H :    0.238556
  11 H :    0.257947
  12 H :    0.258645
  13 H :    0.173245
  14 H :    0.116817
  15 O :   -0.366388
  16 F :   -0.065062
  17 C :   -0.188108
  18 H :    0.157611
  19 H :    0.186395
  20 C :   -0.357403
  21 H :    0.185468
  22 H :    0.174303
  23 C :   -0.356828
  24 H :    0.157891
  25 H :    0.138969
  26 O :   -0.463462
  27 H :    0.201250
  28 H :    0.156384
  29 H :    0.168599
  30 H :    0.162194
Sum of atomic charges:    0.0000000

LOEWDIN ATOMIC CHARGES
----------------------
   0 C :   -0.321739
   1 N :    0.115932
   2 C :   -0.306427
   3 C :   -0.375085
   4 H :    0.164381
   5 H :    0.154248
   6 S :    0.537554
   7 C :   -0.477557
   8 C :   -0.361231
   9 N :   -0.034196
  10 H :    0.162519
  11 H :    0.177316
  12 H :    0.175486
  13 H :    0.103379
  14 H :    0.095835
  15 O :   -0.242363
  16 F :    0.120599
  17 C :   -0.287519
  18 H :    0.134430
  19 H :    0.139801
  20 C :   -0.290790
  21 H :    0.148831
  22 H :    0.157366
  23 C :   -0.286845
  24 H :    0.147956
  25 H :    0.142444
  26 O :   -0.285375
  27 H :    0.153953
  28 H :    0.145750
  29 H :    0.141411
  30 H :    0.149934

  Mayer bond orders larger than 0.100000
B(  0-C ,  1-N ) :   0.9540 B(  0-C , 17-C ) :   0.8706 B(  0-C , 18-H ) :   1.0002
B(  0-C , 19-H ) :   0.9941 B(  1-N ,  7-C ) :   1.2103 B(  1-N , 12-H ) :   0.8929
B(  2-C ,  3-C ) :   0.9214 B(  2-C , 20-C ) :   0.9277 B(  2-C , 21-H ) :   0.9861
B(  2-C , 22-H ) :   0.9615 B(  3-C ,  4-H ) :   0.9310 B(  3-C ,  5-H ) :   0.9472
B(  3-C ,  6-S ) :   0.9288 B(  6-S , 15-O ) :   2.0066 B(  6-S , 16-F ) :   1.1867
B(  6-S , 26-O ) :   1.7409 B(  7-C ,  8-C ) :   1.6308 B(  7-C ,  9-N ) :   1.1022
B(  8-C , 13-H ) :   0.9894 B(  8-C , 14-H ) :   1.0097 B(  9-N , 10-H ) :   0.9218
B(  9-N , 11-H ) :   0.9254 B( 17-C , 23-C ) :   0.9508 B( 17-C , 24-H ) :   0.9751
B( 17-C , 25-H ) :   0.9821 B( 20-C , 23-C ) :   0.8793 B( 20-C , 29-H ) :   0.9831
B( 20-C , 30-H ) :   0.9735 B( 23-C , 27-H ) :   0.9614 B( 23-C , 28-H ) :   0.9732

FINAL SINGLE POINT ENERGY     -1070.890033096397

DIPOLE MOMENT
-------------
                                X             Y             Z
Electronic contribution:     -4.67552      -1.93517     -20.68024
Nuclear contribution   :      2.89225       3.36404      21.70199
                        -----------------------------------------
Total Dipole Moment    :     -1.78327       1.42887       1.02175
                        -----------------------------------------
Magnitude (a.u.)       :      2.50314
Magnitude (Debye)      :      6.36246

Rotational constants in cm-1:     0.029431     0.014408     0.011084
Rotational constants in MHz :   882.306106   431.946714   332.288152

                             ****ORCA TERMINATED NORMALLY****
TOTAL RUN TIME: 0 days 0 hours 1 minutes 28 seconds 516 msec
