                         Program Version 5.0.0 -  RELEASE  -
|  1> !LC-PBE RIJCOSX def2-TZVP def2/J TightSCF xyzfile
|  2>
|  3> *xyzfile 0 1 D6.xyz
|  4>
|  5> %MaxCore 64000
|  6>
|  7> %pal nprocs 18
|  8> end
|  9>
| 10> %scf
| 11>   MaxIter 150
| 12> end
| 13>
| 14>
| 15>                          ****END OF INPUT****

CARTESIAN COORDINATES (ANGSTROEM)
---------------------------------
  C      1.963365   -1.749150   -1.896887
  N      2.738490   -2.015170   -3.097113
  C      0.611877    1.657634   -4.500288
  C      1.694991    1.541794   -5.570447
  H      2.697326    1.734659   -5.183996
  H      1.506656    2.272239   -6.358076
  S      1.780287   -0.033128   -6.428739
  C      4.049736   -2.154717   -3.152044
  N      4.658206   -1.986293   -4.318655
  C      4.764231   -2.454435   -2.050491
  H      4.287363   -2.776259   -1.217496
  H      5.750825   -2.658351   -2.125988
  H      2.345176   -1.690274   -3.971447
  H      4.109004   -1.592677   -5.071760
  H      5.649095   -2.156462   -4.427237
  O      2.569287    0.213657   -7.607360
  F      0.416880   -0.462969   -6.618595
  C      2.088520   -0.300912   -1.415204
  H      2.231272   -2.451616   -1.102643
  H      0.930249   -1.977801   -2.155438
  C      0.680356    0.655418   -3.348038
  H     -0.356865    1.549231   -4.991128
  H      0.650228    2.675438   -4.096000
  C      1.968993    0.733582   -2.535654
  H      3.051356   -0.168602   -0.911868
  H      1.316501   -0.136231   -0.657252
  O      2.505129   -0.933263   -5.482570
  H      2.824195    0.624726   -3.208464
  H      2.058919    1.730331   -2.093112
  H      0.542252   -0.344731   -3.766662
  H     -0.174219    0.829692   -2.685182

 Total Charge           Charge          ....    0
 Multiplicity           Mult            ....    1
 Number of Electrons    NEL             ....  120
 Basis Dimension        Dim             ....  542

ORBITAL ENERGIES
----------------

  NO   OCC          E(Eh)            E(eV)
   0   2.0000     -88.564308     -2409.9573
   1   2.0000     -24.642470      -670.5557
   2   2.0000     -19.020107      -517.5634
   3   2.0000     -19.012398      -517.3537
   4   2.0000     -14.182439      -385.9238
   5   2.0000     -14.177955      -385.8018
   6   2.0000     -10.196815      -277.4694
   7   2.0000     -10.160217      -276.4736
   8   2.0000     -10.141848      -275.9737
   9   2.0000     -10.134241      -275.7667
  10   2.0000     -10.133475      -275.7459
  11   2.0000     -10.117450      -275.3098
  12   2.0000     -10.104787      -274.9652
  13   2.0000      -9.999441      -272.0986
  14   2.0000      -8.175671      -222.4713
  15   2.0000      -6.196022      -168.6023
  16   2.0000      -6.189259      -168.4183
  17   2.0000      -6.188310      -168.3925
  18   2.0000      -1.573477       -42.8165
  19   2.0000      -1.308076       -35.5945
  20   2.0000      -1.203494       -32.7487
  21   2.0000      -1.124367       -30.5956
  22   2.0000      -1.042392       -28.3649
  23   2.0000      -1.030813       -28.0498
  24   2.0000      -0.975116       -26.5342
  25   2.0000      -0.928574       -25.2678
  26   2.0000      -0.895967       -24.3805
  27   2.0000      -0.858702       -23.3665
  28   2.0000      -0.848793       -23.0968
  29   2.0000      -0.805173       -21.9099
  30   2.0000      -0.776874       -21.1398
  31   2.0000      -0.773386       -21.0449
  32   2.0000      -0.744600       -20.2616
  33   2.0000      -0.729004       -19.8372
  34   2.0000      -0.687580       -18.7100
  35   2.0000      -0.674907       -18.3652
  36   2.0000      -0.660717       -17.9790
  37   2.0000      -0.655762       -17.8442
  38   2.0000      -0.645328       -17.5603
  39   2.0000      -0.633370       -17.2349
  40   2.0000      -0.611755       -16.6467
  41   2.0000      -0.602747       -16.4016
  42   2.0000      -0.585389       -15.9292
  43   2.0000      -0.575261       -15.6537
  44   2.0000      -0.564910       -15.3720
  45   2.0000      -0.551841       -15.0164
  46   2.0000      -0.534080       -14.5331
  47   2.0000      -0.528093       -14.3701
  48   2.0000      -0.513953       -13.9854
  49   2.0000      -0.503947       -13.7131
  50   2.0000      -0.499143       -13.5824
  51   2.0000      -0.494630       -13.4596
  52   2.0000      -0.480642       -13.0789
  53   2.0000      -0.472412       -12.8550
  54   2.0000      -0.468943       -12.7606
  55   2.0000      -0.460213       -12.5230
  56   2.0000      -0.456362       -12.4182
  57   2.0000      -0.443208       -12.0603
  58   2.0000      -0.353505        -9.6194
  59   2.0000      -0.258442        -7.0326
  60   0.0000       0.080834         2.1996
  61   0.0000       0.108315         2.9474
  62   0.0000       0.122185         3.3248
  63   0.0000       0.127081         3.4581
  64   0.0000       0.131365         3.5746

MULLIKEN ATOMIC CHARGES
-----------------------
   0 C :   -0.366499
   1 N :   -0.246475
   2 C :   -0.317445
   3 C :   -0.378271
   4 H :    0.236865
   5 H :    0.218533
   6 S :    0.809826
   7 C :    0.303909
   8 N :   -0.491428
   9 C :   -0.645446
  10 H :    0.122000
  11 H :    0.112710
  12 H :    0.246018
  13 H :    0.267339
  14 H :    0.253818
  15 O :   -0.364693
  16 F :   -0.058491
  17 C :   -0.204453
  18 H :    0.177111
  19 H :    0.181152
  20 C :   -0.357003
  21 H :    0.187592
  22 H :    0.177567
  23 C :   -0.356946
  24 H :    0.178209
  25 H :    0.142249
  26 O :   -0.500026
  27 H :    0.180591
  28 H :    0.157927
  29 H :    0.167626
  30 H :    0.166131
Sum of atomic charges:   -0.0000000

LOEWDIN ATOMIC CHARGES
----------------------
   0 C :   -0.303875
   1 N :    0.115792
   2 C :   -0.305989
   3 C :   -0.373347
   4 H :    0.164347
   5 H :    0.155967
   6 S :    0.545626
   7 C :   -0.476923
   8 N :   -0.020025
   9 C :   -0.385371
  10 H :    0.099032
  11 H :    0.095747
  12 H :    0.163973
  13 H :    0.157929
  14 H :    0.176456
  15 O :   -0.240488
  16 F :    0.127054
  17 C :   -0.283917
  18 H :    0.145305
  19 H :    0.137098
  20 C :   -0.290730
  21 H :    0.149202
  22 H :    0.158774
  23 C :   -0.288060
  24 H :    0.154257
  25 H :    0.143105
  26 O :   -0.308274
  27 H :    0.149081
  28 H :    0.146028
  29 H :    0.140760
  30 H :    0.151466

  Mayer bond orders larger than 0.100000
B(  0-C ,  1-N ) :   0.9401 B(  0-C , 17-C ) :   0.8944 B(  0-C , 18-H ) :   0.9855
B(  0-C , 19-H ) :   0.9927 B(  1-N ,  7-C ) :   1.2020 B(  1-N , 12-H ) :   0.9007
B(  2-C ,  3-C ) :   0.9193 B(  2-C , 20-C ) :   0.9247 B(  2-C , 21-H ) :   0.9859
B(  2-C , 22-H ) :   0.9595 B(  3-C ,  4-H ) :   0.9290 B(  3-C ,  5-H ) :   0.9452
B(  3-C ,  6-S ) :   0.9310 B(  6-S , 15-O ) :   2.0080 B(  6-S , 16-F ) :   1.1990
B(  6-S , 26-O ) :   1.7043 B(  7-C ,  8-N ) :   1.1621 B(  7-C ,  9-C ) :   1.6153
B(  8-N , 13-H ) :   0.8895 B(  8-N , 14-H ) :   0.9247 B(  9-C , 10-H ) :   1.0023
B(  9-C , 11-H ) :   1.0042 B( 17-C , 23-C ) :   0.9529 B( 17-C , 24-H ) :   0.9687
B( 17-C , 25-H ) :   0.9864 B( 20-C , 23-C ) :   0.8743 B( 20-C , 29-H ) :   0.9864
B( 20-C , 30-H ) :   0.9735 B( 23-C , 27-H ) :   0.9669 B( 23-C , 28-H ) :   0.9724

FINAL SINGLE POINT ENERGY     -1070.902473122151

DIPOLE MOMENT
-------------
                                X             Y             Z
Electronic contribution:     -4.92011      -1.32460     -22.78285
Nuclear contribution   :      2.90585       3.30398      21.99296
                        -----------------------------------------
Total Dipole Moment    :     -2.01426       1.97938      -0.78990
                        -----------------------------------------
Magnitude (a.u.)       :      2.93243
Magnitude (Debye)      :      7.45364

Rotational constants in cm-1:     0.029065     0.014689     0.011200
Rotational constants in MHz :   871.338526   440.374927   335.770911

                             ****ORCA TERMINATED NORMALLY****
TOTAL RUN TIME: 0 days 0 hours 1 minutes 8 seconds 549 msec
