                         Program Version 5.0.0 -  RELEASE  -
|  1> !LC-PBE RIJCOSX def2-TZVP def2/J TightSCF xyzfile
|  2>
|  3> *xyzfile 0 1 D7.xyz
|  4>
|  5> %MaxCore 64000
|  6>
|  7> %pal nprocs 18
|  8> end
|  9>
| 10> %scf
| 11>   MaxIter 150
| 12> end
| 13>
| 14>
| 15>                          ****END OF INPUT****

CARTESIAN COORDINATES (ANGSTROEM)
---------------------------------
  C      1.963365   -1.749150   -1.896887
  C      2.738490   -2.015170   -3.097113
  C      0.611877    1.657634   -4.500288
  C      1.694991    1.541794   -5.570447
  H      2.697326    1.734659   -5.183996
  H      1.506656    2.272239   -6.358076
  S      1.780287   -0.033128   -6.428739
  C      4.049736   -2.154717   -3.152044
  N      4.658206   -1.986293   -4.318655
  N      4.764231   -2.454435   -2.050491
  H      4.287363   -2.776259   -1.217496
  H      5.750825   -2.658351   -2.125988
  H      2.345176   -1.690274   -3.971447
  H      4.109004   -1.592677   -5.071760
  H      5.649095   -2.156462   -4.427237
  O      2.569287    0.213657   -7.607360
  O      0.416880   -0.462969   -6.618595
  C      2.088520   -0.300912   -1.415204
  H      2.231272   -2.451616   -1.102643
  H      0.930249   -1.977801   -2.155438
  C      0.680356    0.655418   -3.348038
  H     -0.356865    1.549231   -4.991128
  H      0.650228    2.675438   -4.096000
  C      1.968993    0.733582   -2.535654
  H      3.051356   -0.168602   -0.911868
  H      1.316501   -0.136231   -0.657252
  F      2.505129   -0.933263   -5.482570
  H      2.824195    0.624726   -3.208464
  H      2.058919    1.730331   -2.093112
  H      0.542252   -0.344731   -3.766662
  H     -0.174219    0.829692   -2.685182

 Total Charge           Charge          ....    0
 Multiplicity           Mult            ....    1
 Number of Electrons    NEL             ....  120
 Basis Dimension        Dim             ....  542

ORBITAL ENERGIES
----------------

  NO   OCC          E(Eh)            E(eV)
   0   2.0000     -88.534009     -2409.1329
   1   2.0000     -24.599842      -669.3957
   2   2.0000     -18.996851      -516.9306
   3   2.0000     -18.996271      -516.9148
   4   2.0000     -14.214801      -386.8044
   5   2.0000     -14.209528      -386.6609
   6   2.0000     -10.176341      -276.9123
   7   2.0000     -10.163961      -276.5754
   8   2.0000     -10.138191      -275.8742
   9   2.0000     -10.117746      -275.3179
  10   2.0000     -10.109009      -275.0801
  11   2.0000     -10.099548      -274.8227
  12   2.0000     -10.091095      -274.5926
  13   2.0000     -10.027986      -272.8754
  14   2.0000      -8.145632      -221.6539
  15   2.0000      -6.166446      -167.7975
  16   2.0000      -6.158930      -167.5930
  17   2.0000      -6.158127      -167.5712
  18   2.0000      -1.520437       -41.3732
  19   2.0000      -1.292608       -35.1737
  20   2.0000      -1.194225       -32.4965
  21   2.0000      -1.138888       -30.9907
  22   2.0000      -1.041290       -28.3350
  23   2.0000      -1.020192       -27.7608
  24   2.0000      -0.980535       -26.6817
  25   2.0000      -0.929071       -25.2813
  26   2.0000      -0.900437       -24.5021
  27   2.0000      -0.861738       -23.4491
  28   2.0000      -0.832874       -22.6637
  29   2.0000      -0.788893       -21.4669
  30   2.0000      -0.747983       -20.3537
  31   2.0000      -0.737757       -20.0754
  32   2.0000      -0.730857       -19.8876
  33   2.0000      -0.720311       -19.6007
  34   2.0000      -0.696274       -18.9466
  35   2.0000      -0.690168       -18.7804
  36   2.0000      -0.654478       -17.8093
  37   2.0000      -0.642319       -17.4784
  38   2.0000      -0.637690       -17.3524
  39   2.0000      -0.615560       -16.7502
  40   2.0000      -0.610147       -16.6029
  41   2.0000      -0.599553       -16.3147
  42   2.0000      -0.590675       -16.0731
  43   2.0000      -0.573650       -15.6098
  44   2.0000      -0.562245       -15.2995
  45   2.0000      -0.542420       -14.7600
  46   2.0000      -0.539362       -14.6768
  47   2.0000      -0.528146       -14.3716
  48   2.0000      -0.523432       -14.2433
  49   2.0000      -0.501844       -13.6559
  50   2.0000      -0.492160       -13.3924
  51   2.0000      -0.474892       -12.9225
  52   2.0000      -0.474162       -12.9026
  53   2.0000      -0.464237       -12.6325
  54   2.0000      -0.462016       -12.5721
  55   2.0000      -0.448575       -12.2063
  56   2.0000      -0.438440       -11.9306
  57   2.0000      -0.432786       -11.7767
  58   2.0000      -0.400839       -10.9074
  59   2.0000      -0.276956        -7.5364
  60   0.0000       0.099606         2.7104
  61   0.0000       0.110627         3.0103
  62   0.0000       0.123108         3.3499
  63   0.0000       0.129215         3.5161
  64   0.0000       0.141161         3.8412

MULLIKEN ATOMIC CHARGES
-----------------------
   0 C :   -0.454510
   1 C :   -0.407615
   2 C :   -0.274577
   3 C :   -0.395798
   4 H :    0.214423
   5 H :    0.220812
   6 S :    0.770472
   7 C :    0.327808
   8 N :   -0.492244
   9 N :   -0.497851
  10 H :    0.264716
  11 H :    0.239466
  12 H :    0.155819
  13 H :    0.256761
  14 H :    0.241709
  15 O :   -0.392227
  16 O :   -0.376306
  17 C :   -0.210330
  18 H :    0.141300
  19 H :    0.173572
  20 C :   -0.391656
  21 H :    0.195459
  22 H :    0.165408
  23 C :   -0.306696
  24 H :    0.145988
  25 H :    0.140258
  26 F :   -0.126262
  27 H :    0.162520
  28 H :    0.154982
  29 H :    0.193063
  30 H :    0.161534
Sum of atomic charges:    0.0000000

LOEWDIN ATOMIC CHARGES
----------------------
   0 C :   -0.306827
   1 C :   -0.307680
   2 C :   -0.302334
   3 C :   -0.380705
   4 H :    0.149395
   5 H :    0.162062
   6 S :    0.532346
   7 C :   -0.465728
   8 N :   -0.023982
   9 N :   -0.026901
  10 H :    0.179877
  11 H :    0.165993
  12 H :    0.118763
  13 H :    0.168393
  14 H :    0.167554
  15 O :   -0.260756
  16 O :   -0.250811
  17 C :   -0.276894
  18 H :    0.138224
  19 H :    0.150778
  20 C :   -0.286965
  21 H :    0.156149
  22 H :    0.154108
  23 C :   -0.288395
  24 H :    0.144169
  25 H :    0.139952
  26 F :    0.063498
  27 H :    0.143276
  28 H :    0.143945
  29 H :    0.148477
  30 H :    0.151018

  Mayer bond orders larger than 0.100000
B(  0-C ,  1-C ) :   0.9309 B(  0-C , 17-C ) :   0.8908 B(  0-C , 18-H ) :   1.0036
B(  0-C , 19-H ) :   1.0040 B(  1-C ,  7-C ) :   1.6228 B(  1-C , 12-H ) :   1.0403
B(  2-C ,  3-C ) :   0.9166 B(  2-C , 20-C ) :   0.9399 B(  2-C , 21-H ) :   0.9742
B(  2-C , 22-H ) :   0.9608 B(  3-C ,  4-H ) :   0.9403 B(  3-C ,  5-H ) :   0.9402
B(  3-C ,  6-S ) :   0.9247 B(  6-S , 15-O ) :   1.9866 B(  6-S , 16-O ) :   1.9503
B(  6-S , 26-F ) :   1.0592 B(  7-C ,  8-N ) :   1.1791 B(  7-C ,  9-N ) :   1.1625
B(  8-N , 13-H ) :   0.9046 B(  8-N , 14-H ) :   0.9259 B(  9-N , 10-H ) :   0.9132
B(  9-N , 11-H ) :   0.9258 B( 17-C , 23-C ) :   0.9571 B( 17-C , 24-H ) :   0.9847
B( 17-C , 25-H ) :   0.9918 B( 20-C , 23-C ) :   0.8695 B( 20-C , 29-H ) :   0.9819
B( 20-C , 30-H ) :   0.9756 B( 23-C , 27-H ) :   0.9766 B( 23-C , 28-H ) :   0.9774

FINAL SINGLE POINT ENERGY     -1070.913317320188

DIPOLE MOMENT
-------------
                                X             Y             Z
Electronic contribution:      0.86384      -3.10917     -19.35711
Nuclear contribution   :      0.26049       3.89757      20.56096
                        -----------------------------------------
Total Dipole Moment    :      1.12433       0.78840       1.20385
                        -----------------------------------------
Magnitude (a.u.)       :      1.82618
Magnitude (Debye)      :      4.64179

Rotational constants in cm-1:     0.029090     0.014735     0.011139
Rotational constants in MHz :   872.086433   441.731892   333.928051

                             ****ORCA TERMINATED NORMALLY****
TOTAL RUN TIME: 0 days 0 hours 1 minutes 9 seconds 62 msec
