                         Program Version 5.0.0 -  RELEASE  -
|  1> !B3LYP D3BJ RIJCOSX def2-TZVP def2/J TightSCF
|  2> *xyz -1 1
|  3> C          0.96805        1.63064       -3.71575
|  4> C         -0.50835        1.72268       -4.12430
|  5> S         -1.32861        0.14674       -4.43578
|  6> H         -0.59151        2.29496       -5.04722
|  7> H         -1.11411        2.23561       -3.37436
|  8> O         -2.57135        0.47573       -5.06834
|  9> O         -1.51496       -0.40051       -3.06342
| 10> O         -0.37793       -0.62756       -5.20114
| 11> H          1.51840        1.12197       -4.47946
| 12> H          1.05062        1.08971       -2.79625
| 13> H          1.36450        2.61606       -3.58668
| 14> *
| 15> %MaxCore 64000
| 16>
| 17> %pal nprocs 4
| 18> end
| 19>
| 20> %scf
| 21>   MaxIter 150
| 22> end
| 23>
| 24>
| 25>                          ****END OF INPUT****

CARTESIAN COORDINATES (ANGSTROEM)
---------------------------------
  C      0.968050    1.630640   -3.715750
  C     -0.508350    1.722680   -4.124300
  S     -1.328610    0.146740   -4.435780
  H     -0.591510    2.294960   -5.047220
  H     -1.114110    2.235610   -3.374360
  O     -2.571350    0.475730   -5.068340
  O     -1.514960   -0.400510   -3.063420
  O     -0.377930   -0.627560   -5.201140
  H      1.518400    1.121970   -4.479460
  H      1.050620    1.089710   -2.796250
  H      1.364500    2.616060   -3.586680

 Total Charge           Charge          ....   -1
 Multiplicity           Mult            ....    1
 Number of Electrons    NEL             ....   58
 Basis Dimension        Dim             ....  222

ORBITAL ENERGIES
----------------

  NO   OCC          E(Eh)            E(eV)
   0   2.0000     -88.830422     -2417.1987
   1   2.0000     -18.900524      -514.3094
   2   2.0000     -18.897075      -514.2155
   3   2.0000     -18.880603      -513.7673
   4   2.0000     -10.021992      -272.7123
   5   2.0000     -10.018320      -272.6124
   6   2.0000      -7.873619      -214.2521
   7   2.0000      -5.837233      -158.8392
   8   2.0000      -5.836093      -158.8082
   9   2.0000      -5.835854      -158.8016
  10   2.0000      -0.918429       -24.9917
  11   2.0000      -0.793108       -21.5816
  12   2.0000      -0.762230       -20.7413
  13   2.0000      -0.622915       -16.9504
  14   2.0000      -0.499278       -13.5861
  15   2.0000      -0.373463       -10.1625
  16   2.0000      -0.310050        -8.4369
  17   2.0000      -0.307505        -8.3676
  18   2.0000      -0.267822        -7.2878
  19   2.0000      -0.254401        -6.9226
  20   2.0000      -0.249222        -6.7817
  21   2.0000      -0.222865        -6.0645
  22   2.0000      -0.209272        -5.6946
  23   2.0000      -0.146522        -3.9871
  24   2.0000      -0.145216        -3.9515
  25   2.0000      -0.113664        -3.0930
  26   2.0000      -0.103856        -2.8261
  27   2.0000      -0.089914        -2.4467
  28   2.0000      -0.058388        -1.5888
  29   0.0000       0.174824         4.7572
  30   0.0000       0.216915         5.9025
  31   0.0000       0.233956         6.3663
  32   0.0000       0.238366         6.4863
  33   0.0000       0.265895         7.2354

MULLIKEN ATOMIC CHARGES
-----------------------
   0 C :   -0.304313
   1 C :   -0.204049
   2 S :    0.843215
   3 H :    0.055432
   4 H :    0.064666
   5 O :   -0.541960
   6 O :   -0.608454
   7 O :   -0.559149
   8 H :    0.103531
   9 H :    0.096084
  10 H :    0.054997
Sum of atomic charges:   -1.0000000

LOEWDIN ATOMIC CHARGES
----------------------
   0 C :   -0.337510
   1 C :   -0.426727
   2 S :    0.413117
   3 H :    0.109944
   4 H :    0.113964
   5 O :   -0.367514
   6 O :   -0.441945
   7 O :   -0.380852
   8 H :    0.111216
   9 H :    0.110647
  10 H :    0.095660

  Mayer bond orders larger than 0.100000
B(  0-C ,  1-C ) :   0.9474 B(  0-C ,  8-H ) :   0.9749 B(  0-C ,  9-H ) :   0.9769
B(  0-C , 10-H ) :   0.9634 B(  1-C ,  2-S ) :   0.8713 B(  1-C ,  3-H ) :   0.9531
B(  1-C ,  4-H ) :   0.9626 B(  2-S ,  5-O ) :   1.8277 B(  2-S ,  6-O ) :   1.7346
B(  2-S ,  7-O ) :   1.7640

Dispersion correction           -0.016692550
FINAL SINGLE POINT ENERGY      -703.117164605245

DIPOLE MOMENT
-------------
                                X             Y             Z
Electronic contribution:     -5.64311      -5.36418      -1.94917
Nuclear contribution   :      6.64523       6.80157       2.07300
                        -----------------------------------------
Total Dipole Moment    :      1.00211       1.43739       0.12383
                        -----------------------------------------
Magnitude (a.u.)       :      1.75660
Magnitude (Debye)      :      4.46492

Rotational constants in cm-1:     0.163070     0.082807     0.081541
Rotational constants in MHz :  4888.719902  2482.497026  2444.541148

                             ****ORCA TERMINATED NORMALLY****
TOTAL RUN TIME: 0 days 0 hours 0 minutes 23 seconds 858 msec
