                         Program Version 5.0.0 -  RELEASE  -
|  1> !B3LYP D3BJ RIJCOSX def2-TZVP def2/J TightSCF
|  2> *xyz 1 1
|  3> C          1.36401        0.46874       -2.81376
|  4> N          0.42884        0.32140       -1.65531
|  5> C          0.96805        1.63064       -3.71575
|  6> H          0.74858       -0.40054       -1.00134
|  7> H         -0.46105        0.02333       -2.07773
|  8> H          0.31026        1.20137       -1.13495
|  9> H          1.29485       -0.46874       -3.36468
| 10> H          2.37622        0.59740       -2.43149
| 11> H          1.65923        1.70213       -4.52942
| 12> H          0.98421        2.54058       -3.15304
| 13> H         -0.01744        1.46536       -4.09838
| 14> *
| 15> %MaxCore 64000
| 16>
| 17> %pal nprocs 4
| 18> end
| 19>
| 20> %scf
| 21>   MaxIter 150
| 22> end
| 23>
| 24>
| 25>                          ****END OF INPUT****

CARTESIAN COORDINATES (ANGSTROEM)
---------------------------------
  C      1.364010    0.468740   -2.813760
  N      0.428840    0.321400   -1.655310
  C      0.968050    1.630640   -3.715750
  H      0.748580   -0.400540   -1.001340
  H     -0.461050    0.023330   -2.077730
  H      0.310260    1.201370   -1.134950
  H      1.294850   -0.468740   -3.364680
  H      2.376220    0.597400   -2.431490
  H      1.659230    1.702130   -4.529420
  H      0.984210    2.540580   -3.153040
  H     -0.017440    1.465360   -4.098380

 Total Charge           Charge          ....    1
 Multiplicity           Mult            ....    1
 Number of Electrons    NEL             ....   26
 Basis Dimension        Dim             ....  141

ORBITAL ENERGIES
----------------

  NO   OCC          E(Eh)            E(eV)
   0   2.0000     -14.650190      -398.6519
   1   2.0000     -10.423380      -283.6346
   2   2.0000     -10.343805      -281.4692
   3   2.0000      -1.215635       -33.0791
   4   2.0000      -0.965311       -26.2675
   5   2.0000      -0.843336       -22.9483
   6   2.0000      -0.804775       -21.8990
   7   2.0000      -0.788799       -21.4643
   8   2.0000      -0.694072       -18.8867
   9   2.0000      -0.645056       -17.5529
  10   2.0000      -0.585222       -15.9247
  11   2.0000      -0.568855       -15.4793
  12   2.0000      -0.554672       -15.0934
  13   0.0000      -0.198516        -5.4019
  14   0.0000      -0.136559        -3.7160
  15   0.0000      -0.132051        -3.5933
  16   0.0000      -0.112334        -3.0568
  17   0.0000      -0.074277        -2.0212

MULLIKEN ATOMIC CHARGES
-----------------------
   0 C :   -0.187687
   1 N :   -0.273033
   2 C :   -0.324301
   3 H :    0.325619
   4 H :    0.320413
   5 H :    0.318221
   6 H :    0.182540
   7 H :    0.183563
   8 H :    0.174842
   9 H :    0.141361
  10 H :    0.138463
Sum of atomic charges:    1.0000000

LOEWDIN ATOMIC CHARGES
----------------------
   0 C :   -0.270437
   1 N :    0.171207
   2 C :   -0.270900
   3 H :    0.219885
   4 H :    0.225632
   5 H :    0.219868
   6 H :    0.151143
   7 H :    0.150108
   8 H :    0.146897
   9 H :    0.128545
  10 H :    0.128051

  Mayer bond orders larger than 0.100000
B(  0-C ,  1-N ) :   0.8511 B(  0-C ,  2-C ) :   0.9843 B(  0-C ,  6-H ) :   0.9541
B(  0-C ,  7-H ) :   0.9511 B(  1-N ,  3-H ) :   0.8804 B(  1-N ,  4-H ) :   0.8841
B(  1-N ,  5-H ) :   0.8776 B(  2-C ,  8-H ) :   0.9602 B(  2-C ,  9-H ) :   0.9603
B(  2-C , 10-H ) :   0.9584

Dispersion correction           -0.010052209
FINAL SINGLE POINT ENERGY      -135.505124914112

DIPOLE MOMENT
-------------
                                X             Y             Z
Electronic contribution:     -0.34467      -0.94879       1.57230
Nuclear contribution   :     -0.20470       0.31427      -0.31587
                        -----------------------------------------
Total Dipole Moment    :     -0.54937      -0.63452       1.25644
                        -----------------------------------------
Magnitude (a.u.)       :      1.51098
Magnitude (Debye)      :      3.84060

Rotational constants in cm-1:     1.011480     0.279280     0.248378
Rotational constants in MHz : 30323.408050  8372.602834  7446.185305

                             ****ORCA TERMINATED NORMALLY****
TOTAL RUN TIME: 0 days 0 hours 0 minutes 13 seconds 639 msec
