                         Program Version 5.0.0 -  RELEASE  -
|  1> !B3LYP D3BJ RIJCOSX def2-TZVP def2/J TightSCF xyzfile
|  2>
|  3> *xyzfile 0 1 B.xyz
|  4>
|  5> %MaxCore 64000
|  6>
|  7> %pal nprocs 18
|  8> end
|  9>
| 10> %scf
| 11>   MaxIter 150
| 12> end
| 13>
| 14>
| 15>                          ****END OF INPUT****

CARTESIAN COORDINATES (ANGSTROEM)
---------------------------------
  C      1.364014    0.468742   -2.813764
  N      0.428844    0.321402   -1.655312
  C      0.968045    1.630639   -3.715749
  C     -0.508347    1.722679   -4.124300
  S     -1.328608    0.146737   -4.435781
  H     -0.591511    2.294958   -5.047219
  H     -1.114114    2.235610   -3.374362
  H      0.748578   -0.400542   -1.001345
  H     -0.461053    0.023332   -2.077731
  H      0.310258    1.201375   -1.134948
  O     -2.571347    0.475733   -5.068341
  O     -1.514963   -0.400512   -3.063420
  H      1.294847   -0.468742   -3.364684
  H      2.376216    0.597400   -2.431495
  H      1.578688    1.520652   -4.612733
  H      1.266653    2.575988   -3.250448
  O     -0.377928   -0.627558   -5.201141

 Total Charge           Charge          ....    0
 Multiplicity           Mult            ....    1
 Number of Electrons    NEL             ....   74
 Basis Dimension        Dim             ....  308

ORBITAL ENERGIES
----------------

  NO   OCC          E(Eh)            E(eV)
   0   2.0000     -89.001939     -2421.8659
   1   2.0000     -19.076795      -519.1060
   2   2.0000     -19.060992      -518.6759
   3   2.0000     -19.058551      -518.6095
   4   2.0000     -14.448383      -393.1605
   5   2.0000     -10.259943      -279.1872
   6   2.0000     -10.210438      -277.8402
   7   2.0000     -10.188288      -277.2374
   8   2.0000      -8.045415      -218.9269
   9   2.0000      -6.009345      -163.5226
  10   2.0000      -6.008252      -163.4928
  11   2.0000      -6.006880      -163.4555
  12   2.0000      -1.091090       -29.6901
  13   2.0000      -1.030562       -28.0430
  14   2.0000      -0.954507       -25.9735
  15   2.0000      -0.953011       -25.9328
  16   2.0000      -0.824380       -22.4325
  17   2.0000      -0.737541       -20.0695
  18   2.0000      -0.652829       -17.7644
  19   2.0000      -0.623794       -16.9743
  20   2.0000      -0.612378       -16.6636
  21   2.0000      -0.543625       -14.7928
  22   2.0000      -0.523886       -14.2557
  23   2.0000      -0.487848       -13.2750
  24   2.0000      -0.469904       -12.7867
  25   2.0000      -0.457536       -12.4502
  26   2.0000      -0.427131       -11.6228
  27   2.0000      -0.418414       -11.3856
  28   2.0000      -0.402595       -10.9552
  29   2.0000      -0.391386       -10.6502
  30   2.0000      -0.376782       -10.2528
  31   2.0000      -0.321036        -8.7358
  32   2.0000      -0.312280        -8.4976
  33   2.0000      -0.284365        -7.7380
  34   2.0000      -0.272845        -7.4245
  35   2.0000      -0.266066        -7.2400
  36   2.0000      -0.233921        -6.3653
  37   0.0000      -0.040042        -1.0896
  38   0.0000       0.009434         0.2567
  39   0.0000       0.025134         0.6839
  40   0.0000       0.056089         1.5262
  41   0.0000       0.065004         1.7688

MULLIKEN ATOMIC CHARGES
-----------------------
   0 C :   -0.190192
   1 N :   -0.286589
   2 C :   -0.187089
   3 C :   -0.302001
   4 S :    0.877684
   5 H :    0.132017
   6 H :    0.108626
   7 H :    0.274550
   8 H :    0.313081
   9 H :    0.263970
  10 O :   -0.480694
  11 O :   -0.579194
  12 H :    0.194762
  13 H :    0.135866
  14 H :    0.126305
  15 H :    0.109773
  16 O :   -0.510877
Sum of atomic charges:   -0.0000000

LOEWDIN ATOMIC CHARGES
----------------------
   0 C :   -0.269647
   1 N :    0.144796
   2 C :   -0.286953
   3 C :   -0.389850
   4 S :    0.446815
   5 H :    0.139070
   6 H :    0.124926
   7 H :    0.195916
   8 H :    0.139263
   9 H :    0.194882
  10 O :   -0.306152
  11 O :   -0.372210
  12 H :    0.152202
  13 H :    0.131649
  14 H :    0.156635
  15 H :    0.135584
  16 O :   -0.336927

  Mayer bond orders larger than 0.100000
B(  0-C ,  1-N ) :   0.8573 B(  0-C ,  2-C ) :   0.9733 B(  0-C , 12-H ) :   0.9477
B(  0-C , 13-H ) :   0.9647 B(  1-N ,  7-H ) :   0.9037 B(  1-N ,  8-H ) :   0.7194
B(  1-N ,  9-H ) :   0.9006 B(  2-C ,  3-C ) :   0.9477 B(  2-C , 14-H ) :   0.9561
B(  2-C , 15-H ) :   0.9610 B(  3-C ,  4-S ) :   0.8942 B(  3-C ,  5-H ) :   0.9568
B(  3-C ,  6-H ) :   0.9580 B(  4-S , 10-O ) :   1.9125 B(  4-S , 11-O ) :   1.4506
B(  4-S , 16-O ) :   1.7712 B(  8-H , 11-O ) :   0.2572

Dispersion correction           -0.030765305
FINAL SINGLE POINT ENERGY      -798.288777940787

DIPOLE MOMENT
-------------
                                X             Y             Z
Electronic contribution:     -6.94353      -4.17477      -4.31137
Nuclear contribution   :      9.95459       5.57517       7.68169
                        -----------------------------------------
Total Dipole Moment    :      3.01106       1.40041       3.37031
                        -----------------------------------------
Magnitude (a.u.)       :      4.73145
Magnitude (Debye)      :     12.02639

Rotational constants in cm-1:     0.102119     0.045768     0.041299
Rotational constants in MHz :  3061.441288  1372.093000  1238.124534

                             ****ORCA TERMINATED NORMALLY****
TOTAL RUN TIME: 0 days 0 hours 0 minutes 24 seconds 668 msec
