                         Program Version 5.0.0 -  RELEASE  -
|  1> !B3LYP D3BJ RIJCOSX def2-TZVP def2/J TightSCF
|  2> *xyz 0 1
|  3> C          0.96805        1.63064       -3.71575
|  4> C         -0.50835        1.72268       -4.12430
|  5> S         -1.32861        0.14674       -4.43578
|  6> H         -0.59151        2.29496       -5.04722
|  7> H         -1.11411        2.23561       -3.37436
|  8> F         -2.57135        0.47573       -5.06834
|  9> O         -1.51496       -0.40051       -3.06342
| 10> O         -0.37793       -0.62756       -5.20114
| 11> H          1.51840        1.12197       -4.47946
| 12> H          1.05062        1.08971       -2.79625
| 13> H          1.36450        2.61606       -3.58668
| 14> *
| 15> %MaxCore 64000
| 16>
| 17> %pal nprocs 4
| 18> end
| 19>
| 20> %scf
| 21>   MaxIter 150
| 22> end
| 23>
| 24>
| 25>                          ****END OF INPUT****

CARTESIAN COORDINATES (ANGSTROEM)
---------------------------------
  C      0.968050    1.630640   -3.715750
  C     -0.508350    1.722680   -4.124300
  S     -1.328610    0.146740   -4.435780
  H     -0.591510    2.294960   -5.047220
  H     -1.114110    2.235610   -3.374360
  F     -2.571350    0.475730   -5.068340
  O     -1.514960   -0.400510   -3.063420
  O     -0.377930   -0.627560   -5.201140
  H      1.518400    1.121970   -4.479460
  H      1.050620    1.089710   -2.796250
  H      1.364500    2.616060   -3.586680

 Total Charge           Charge          ....    0
 Multiplicity           Mult            ....    1
 Number of Electrons    NEL             ....   58
 Basis Dimension        Dim             ....  222

ORBITAL ENERGIES
----------------

  NO   OCC          E(Eh)            E(eV)
   0   2.0000     -89.097882     -2424.4766
   1   2.0000     -24.807439      -675.0447
   2   2.0000     -19.137187      -520.7493
   3   2.0000     -19.121237      -520.3153
   4   2.0000     -10.227024      -278.2915
   5   2.0000     -10.184297      -277.1288
   6   2.0000      -8.141657      -221.5457
   7   2.0000      -6.108358      -166.2169
   8   2.0000      -6.102048      -166.0452
   9   2.0000      -6.101798      -166.0384
  10   2.0000      -1.393126       -37.9089
  11   2.0000      -1.101648       -29.9774
  12   2.0000      -1.001213       -27.2444
  13   2.0000      -0.815976       -22.2038
  14   2.0000      -0.739725       -20.1289
  15   2.0000      -0.675886       -18.3918
  16   2.0000      -0.593317       -16.1450
  17   2.0000      -0.591440       -16.0939
  18   2.0000      -0.554505       -15.0888
  19   2.0000      -0.490682       -13.3521
  20   2.0000      -0.480561       -13.0767
  21   2.0000      -0.441618       -12.0170
  22   2.0000      -0.428811       -11.6685
  23   2.0000      -0.406856       -11.0711
  24   2.0000      -0.388379       -10.5683
  25   2.0000      -0.382104       -10.3976
  26   2.0000      -0.333772        -9.0824
  27   2.0000      -0.317635        -8.6433
  28   2.0000      -0.303730        -8.2649
  29   0.0000       0.017311         0.4711
  30   0.0000       0.032624         0.8877
  31   0.0000       0.059567         1.6209
  32   0.0000       0.066269         1.8033
  33   0.0000       0.074923         2.0388

MULLIKEN ATOMIC CHARGES
-----------------------
   0 C :   -0.325286
   1 C :   -0.218499
   2 S :    0.872861
   3 H :    0.116245
   4 H :    0.132104
   5 F :   -0.096669
   6 O :   -0.459460
   7 O :   -0.413318
   8 H :    0.136292
   9 H :    0.135657
  10 H :    0.120073
Sum of atomic charges:   -0.0000000

LOEWDIN ATOMIC CHARGES
----------------------
   0 C :   -0.295953
   1 C :   -0.393009
   2 S :    0.532940
   3 H :    0.129287
   4 H :    0.135374
   5 F :    0.107232
   6 O :   -0.321840
   7 O :   -0.265529
   8 H :    0.124168
   9 H :    0.124955
  10 H :    0.122373

  Mayer bond orders larger than 0.100000
B(  0-C ,  1-C ) :   0.9651 B(  0-C ,  8-H ) :   0.9691 B(  0-C ,  9-H ) :   0.9712
B(  0-C , 10-H ) :   0.9592 B(  1-C ,  2-S ) :   0.9133 B(  1-C ,  3-H ) :   0.9362
B(  1-C ,  4-H ) :   0.9403 B(  2-S ,  5-F ) :   1.1408 B(  2-S ,  6-O ) :   1.8730
B(  2-S ,  7-O ) :   1.9105

Dispersion correction           -0.015951969
FINAL SINGLE POINT ENERGY      -727.632938452076

DIPOLE MOMENT
-------------
                                X             Y             Z
Electronic contribution:     -8.34439      -5.16461      -3.24232
Nuclear contribution   :      8.31000       6.74109       2.87442
                        -----------------------------------------
Total Dipole Moment    :     -0.03438       1.57648      -0.36790
                        -----------------------------------------
Magnitude (a.u.)       :      1.61920
Magnitude (Debye)      :      4.11568

Rotational constants in cm-1:     0.158705     0.080192     0.078179
Rotational constants in MHz :  4757.865601  2404.095079  2343.752507

                             ****ORCA TERMINATED NORMALLY****
TOTAL RUN TIME: 0 days 0 hours 0 minutes 27 seconds 401 msec
