                         Program Version 5.0.0 -  RELEASE  -
|  1> !B3LYP D3BJ RIJCOSX def2-TZVP def2/J TightSCF
|  2> *xyz 0 1
|  3> C          1.36401        0.46874       -2.81376
|  4> C          0.42884        0.32140       -1.65531
|  5> C          0.96805        1.63064       -3.71575
|  6> H          0.74858       -0.40054       -1.00134
|  7> H         -0.46105        0.02333       -2.07773
|  8> H          0.31026        1.20137       -1.13495
|  9> H          1.29485       -0.46874       -3.36468
| 10> H          2.37622        0.59740       -2.43149
| 11> H          1.65923        1.70213       -4.52942
| 12> H          0.98421        2.54058       -3.15304
| 13> H         -0.01744        1.46536       -4.09838
| 14> *
| 15> %MaxCore 64000
| 16>
| 17> %pal nprocs 4
| 18> end
| 19>
| 20> %scf
| 21>   MaxIter 150
| 22> end
| 23>
| 24>
| 25>                          ****END OF INPUT****

CARTESIAN COORDINATES (ANGSTROEM)
---------------------------------
  C      1.364010    0.468740   -2.813760
  C      0.428840    0.321400   -1.655310
  C      0.968050    1.630640   -3.715750
  H      0.748580   -0.400540   -1.001340
  H     -0.461050    0.023330   -2.077730
  H      0.310260    1.201370   -1.134950
  H      1.294850   -0.468740   -3.364680
  H      2.376220    0.597400   -2.431490
  H      1.659230    1.702130   -4.529420
  H      0.984210    2.540580   -3.153040
  H     -0.017440    1.465360   -4.098380

 Total Charge           Charge          ....    0
 Multiplicity           Mult            ....    1
 Number of Electrons    NEL             ....   26
 Basis Dimension        Dim             ....  141

ORBITAL ENERGIES
----------------

  NO   OCC          E(Eh)            E(eV)
   0   2.0000     -10.153727      -276.2970
   1   2.0000     -10.144910      -276.0570
   2   2.0000     -10.127491      -275.5831
   3   2.0000      -0.789877       -21.4936
   4   2.0000      -0.688967       -18.7478
   5   2.0000      -0.583322       -15.8730
   6   2.0000      -0.470097       -12.7920
   7   2.0000      -0.443918       -12.0796
   8   2.0000      -0.401915       -10.9367
   9   2.0000      -0.390726       -10.6322
  10   2.0000      -0.336719        -9.1626
  11   2.0000      -0.332857        -9.0575
  12   2.0000      -0.329290        -8.9604
  13   0.0000       0.040384         1.0989
  14   0.0000       0.083596         2.2748
  15   0.0000       0.090652         2.4668
  16   0.0000       0.094385         2.5684
  17   0.0000       0.112381         3.0580

MULLIKEN ATOMIC CHARGES
-----------------------
   0 C :   -0.135158
   1 C :   -0.296867
   2 C :   -0.303882
   3 H :    0.103728
   4 H :    0.093376
   5 H :    0.093288
   6 H :    0.075314
   7 H :    0.076539
   8 H :    0.103368
   9 H :    0.095847
  10 H :    0.094446
Sum of atomic charges:   -0.0000000

LOEWDIN ATOMIC CHARGES
----------------------
   0 C :   -0.315460
   1 C :   -0.297406
   2 C :   -0.301053
   3 H :    0.105078
   4 H :    0.110783
   5 H :    0.104548
   6 H :    0.129784
   7 H :    0.125524
   8 H :    0.112755
   9 H :    0.112580
  10 H :    0.112866

  Mayer bond orders larger than 0.100000
B(  0-C ,  1-C ) :   0.9614 B(  0-C ,  2-C ) :   0.9702 B(  0-C ,  6-H ) :   0.9737
B(  0-C ,  7-H ) :   0.9717 B(  1-C ,  3-H ) :   0.9824 B(  1-C ,  4-H ) :   0.9816
B(  1-C ,  5-H ) :   0.9803 B(  2-C ,  8-H ) :   0.9793 B(  2-C ,  9-H ) :   0.9778
B(  2-C , 10-H ) :   0.9766

Dispersion correction           -0.010129921
FINAL SINGLE POINT ENERGY      -119.094808100910

DIPOLE MOMENT
-------------
                                X             Y             Z
Electronic contribution:      0.36812      -0.18464      -0.01565
Nuclear contribution   :     -0.35842       0.15752       0.02695
                        -----------------------------------------
Total Dipole Moment    :      0.00970      -0.02712       0.01130
                        -----------------------------------------
Magnitude (a.u.)       :      0.03094
Magnitude (Debye)      :      0.07864

Rotational constants in cm-1:     1.019891     0.293671     0.260247
Rotational constants in MHz : 30575.551403  8804.039097  7802.009261

                             ****ORCA TERMINATED NORMALLY****
TOTAL RUN TIME: 0 days 0 hours 0 minutes 13 seconds 527 msec
