                         Program Version 5.0.0 -  RELEASE  -
|  1> !B3LYP D3BJ RIJCOSX def2-TZVP def2/J TightSCF
|  2> *xyz 0 1
|  3> C          0.96805        1.63064       -3.71575
|  4> C         -0.50835        1.72268       -4.12430
|  5> S         -1.32861        0.14674       -4.43578
|  6> H         -0.59151        2.29496       -5.04722
|  7> H         -1.11411        2.23561       -3.37436
|  8> O         -2.57135        0.47573       -5.06834
|  9> F         -1.51496       -0.40051       -3.06342
| 10> O         -0.37793       -0.62756       -5.20114
| 11> H          1.51840        1.12197       -4.47946
| 12> H          1.05062        1.08971       -2.79625
| 13> H          1.36450        2.61606       -3.58668
| 14> *
| 15> %MaxCore 64000
| 16>
| 17> %pal nprocs 4
| 18> end
| 19>
| 20> %scf
| 21>   MaxIter 150
| 22> end
| 23>
| 24>
| 25>                          ****END OF INPUT****

CARTESIAN COORDINATES (ANGSTROEM)
---------------------------------
  C      0.968050    1.630640   -3.715750
  C     -0.508350    1.722680   -4.124300
  S     -1.328610    0.146740   -4.435780
  H     -0.591510    2.294960   -5.047220
  H     -1.114110    2.235610   -3.374360
  O     -2.571350    0.475730   -5.068340
  F     -1.514960   -0.400510   -3.063420
  O     -0.377930   -0.627560   -5.201140
  H      1.518400    1.121970   -4.479460
  H      1.050620    1.089710   -2.796250
  H      1.364500    2.616060   -3.586680

 Total Charge           Charge          ....    0
 Multiplicity           Mult            ....    1
 Number of Electrons    NEL             ....   58
 Basis Dimension        Dim             ....  222

ORBITAL ENERGIES
----------------

  NO   OCC          E(Eh)            E(eV)
   0   2.0000     -89.095105     -2424.4011
   1   2.0000     -24.778463      -674.2562
   2   2.0000     -19.140572      -520.8415
   3   2.0000     -19.137186      -520.7493
   4   2.0000     -10.226301      -278.2718
   5   2.0000     -10.185819      -277.1702
   6   2.0000      -8.138943      -221.4719
   7   2.0000      -6.105822      -166.1479
   8   2.0000      -6.099469      -165.9750
   9   2.0000      -6.098965      -165.9613
  10   2.0000      -1.346197       -36.6319
  11   2.0000      -1.117401       -30.4060
  12   2.0000      -1.027720       -27.9657
  13   2.0000      -0.817687       -22.2504
  14   2.0000      -0.719856       -19.5883
  15   2.0000      -0.668512       -18.1911
  16   2.0000      -0.574918       -15.6443
  17   2.0000      -0.559874       -15.2349
  18   2.0000      -0.546766       -14.8783
  19   2.0000      -0.491884       -13.3849
  20   2.0000      -0.476760       -12.9733
  21   2.0000      -0.457097       -12.4382
  22   2.0000      -0.433883       -11.8066
  23   2.0000      -0.405759       -11.0413
  24   2.0000      -0.402726       -10.9587
  25   2.0000      -0.383045       -10.4232
  26   2.0000      -0.343253        -9.3404
  27   2.0000      -0.333336        -9.0705
  28   2.0000      -0.323720        -8.8089
  29   0.0000       0.013087         0.3561
  30   0.0000       0.042846         1.1659
  31   0.0000       0.056327         1.5327
  32   0.0000       0.068259         1.8574
  33   0.0000       0.081200         2.2096

MULLIKEN ATOMIC CHARGES
-----------------------
   0 C :   -0.320042
   1 C :   -0.236963
   2 S :    0.880719
   3 H :    0.143617
   4 H :    0.128166
   5 O :   -0.406068
   6 F :   -0.142509
   7 O :   -0.423450
   8 H :    0.142123
   9 H :    0.114231
  10 H :    0.120175
Sum of atomic charges:   -0.0000000

LOEWDIN ATOMIC CHARGES
----------------------
   0 C :   -0.308035
   1 C :   -0.388761
   2 S :    0.542370
   3 H :    0.144370
   4 H :    0.133113
   5 O :   -0.256011
   6 F :    0.038196
   7 O :   -0.268595
   8 H :    0.124169
   9 H :    0.117649
  10 H :    0.121534

  Mayer bond orders larger than 0.100000
B(  0-C ,  1-C ) :   0.9523 B(  0-C ,  8-H ) :   0.9678 B(  0-C ,  9-H ) :   0.9721
B(  0-C , 10-H ) :   0.9617 B(  1-C ,  2-S ) :   0.9070 B(  1-C ,  3-H ) :   0.9451
B(  1-C ,  4-H ) :   0.9469 B(  2-S ,  5-O ) :   1.9515 B(  2-S ,  6-F ) :   1.0803
B(  2-S ,  7-O ) :   1.9059

Dispersion correction           -0.015883597
FINAL SINGLE POINT ENERGY      -727.656952180371

DIPOLE MOMENT
-------------
                                X             Y             Z
Electronic contribution:     -6.56331      -6.64976       0.16866
Nuclear contribution   :      7.20921       7.65416       0.78523
                        -----------------------------------------
Total Dipole Moment    :      0.64591       1.00440       0.95390
                        -----------------------------------------
Magnitude (a.u.)       :      1.52837
Magnitude (Debye)      :      3.88482

Rotational constants in cm-1:     0.153780     0.081282     0.079816
Rotational constants in MHz :  4610.199589  2436.778679  2392.820729

                             ****ORCA TERMINATED NORMALLY****
TOTAL RUN TIME: 0 days 0 hours 0 minutes 25 seconds 715 msec
