                         Program Version 5.0.0 -  RELEASE  -
|  1> !B3LYP D3BJ RIJCOSX def2-TZVP def2/J TightSCF
|  2> *xyz 0 1
|  3> C          0.96805        1.63064       -3.71575
|  4> C         -0.50835        1.72268       -4.12430
|  5> S         -1.32861        0.14674       -4.43578
|  6> H         -0.59151        2.29496       -5.04722
|  7> H         -1.11411        2.23561       -3.37436
|  8> O         -2.57135        0.47573       -5.06834
|  9> O         -1.51496       -0.40051       -3.06342
| 10> F         -0.37793       -0.62756       -5.20114
| 11> H          1.51840        1.12197       -4.47946
| 12> H          1.05062        1.08971       -2.79625
| 13> H          1.36450        2.61606       -3.58668
| 14> *
| 15> %MaxCore 64000
| 16>
| 17> %pal nprocs 4
| 18> end
| 19>
| 20> %scf
| 21>   MaxIter 150
| 22> end
| 23>
| 24>
| 25>                          ****END OF INPUT****

CARTESIAN COORDINATES (ANGSTROEM)
---------------------------------
  C      0.968050    1.630640   -3.715750
  C     -0.508350    1.722680   -4.124300
  S     -1.328610    0.146740   -4.435780
  H     -0.591510    2.294960   -5.047220
  H     -1.114110    2.235610   -3.374360
  O     -2.571350    0.475730   -5.068340
  O     -1.514960   -0.400510   -3.063420
  F     -0.377930   -0.627560   -5.201140
  H      1.518400    1.121970   -4.479460
  H      1.050620    1.089710   -2.796250
  H      1.364500    2.616060   -3.586680

 Total Charge           Charge          ....    0
 Multiplicity           Mult            ....    1
 Number of Electrons    NEL             ....   58
 Basis Dimension        Dim             ....  222

ORBITAL ENERGIES
----------------

  NO   OCC          E(Eh)            E(eV)
   0   2.0000     -89.097199     -2424.4580
   1   2.0000     -24.801334      -674.8786
   2   2.0000     -19.140963      -520.8521
   3   2.0000     -19.121467      -520.3216
   4   2.0000     -10.226930      -278.2889
   5   2.0000     -10.189393      -277.2675
   6   2.0000      -8.141007      -221.5281
   7   2.0000      -6.107887      -166.2041
   8   2.0000      -6.101326      -166.0255
   9   2.0000      -6.101089      -166.0191
  10   2.0000      -1.382723       -37.6258
  11   2.0000      -1.107725       -30.1427
  12   2.0000      -1.004109       -27.3232
  13   2.0000      -0.819892       -22.3104
  14   2.0000      -0.732974       -19.9452
  15   2.0000      -0.678025       -18.4500
  16   2.0000      -0.596608       -16.2345
  17   2.0000      -0.585429       -15.9303
  18   2.0000      -0.546404       -14.8684
  19   2.0000      -0.492461       -13.4006
  20   2.0000      -0.476042       -12.9538
  21   2.0000      -0.450454       -12.2575
  22   2.0000      -0.437393       -11.9021
  23   2.0000      -0.410856       -11.1800
  24   2.0000      -0.396583       -10.7916
  25   2.0000      -0.382070       -10.3967
  26   2.0000      -0.336888        -9.1672
  27   2.0000      -0.318239        -8.6597
  28   2.0000      -0.306641        -8.3441
  29   0.0000       0.007870         0.2142
  30   0.0000       0.042229         1.1491
  31   0.0000       0.056701         1.5429
  32   0.0000       0.068136         1.8541
  33   0.0000       0.075965         2.0671

MULLIKEN ATOMIC CHARGES
-----------------------
   0 C :   -0.333998
   1 C :   -0.223677
   2 S :    0.873952
   3 H :    0.128293
   4 H :    0.149057
   5 O :   -0.396679
   6 O :   -0.461930
   7 F :   -0.110413
   8 H :    0.114094
   9 H :    0.138338
  10 H :    0.122963
Sum of atomic charges:   -0.0000000

LOEWDIN ATOMIC CHARGES
----------------------
   0 C :   -0.310593
   1 C :   -0.386431
   2 S :    0.535677
   3 H :    0.133334
   4 H :    0.146683
   5 O :   -0.251912
   6 O :   -0.322051
   7 F :    0.093347
   8 H :    0.115831
   9 H :    0.123271
  10 H :    0.122845

  Mayer bond orders larger than 0.100000
B(  0-C ,  1-C ) :   0.9504 B(  0-C ,  8-H ) :   0.9715 B(  0-C ,  9-H ) :   0.9693
B(  0-C , 10-H ) :   0.9628 B(  1-C ,  2-S ) :   0.9076 B(  1-C ,  3-H ) :   0.9424
B(  1-C ,  4-H ) :   0.9454 B(  2-S ,  5-O ) :   1.9548 B(  2-S ,  6-O ) :   1.8685
B(  2-S ,  7-F ) :   1.1155

Dispersion correction           -0.015852589
FINAL SINGLE POINT ENERGY      -727.637650308841

DIPOLE MOMENT
-------------
                                X             Y             Z
Electronic contribution:     -4.63712      -7.00980      -3.45215
Nuclear contribution   :      6.02439       7.89075       3.01280
                        -----------------------------------------
Total Dipole Moment    :      1.38728       0.88095      -0.43934
                        -----------------------------------------
Magnitude (a.u.)       :      1.70107
Magnitude (Debye)      :      4.32377

Rotational constants in cm-1:     0.153652     0.082400     0.079295
Rotational constants in MHz :  4606.361242  2470.285703  2377.214112

                             ****ORCA TERMINATED NORMALLY****
TOTAL RUN TIME: 0 days 0 hours 0 minutes 25 seconds 853 msec
