                         Program Version 5.0.0 -  RELEASE  -
|  1> !B3LYP D3BJ RIJCOSX def2-TZVP def2/J TightSCF xyzfile
|  2>
|  3> *xyzfile 0 1 D1.xyz
|  4>
|  5> %MaxCore 64000
|  6>
|  7> %pal nprocs 18
|  8> end
|  9>
| 10> %scf
| 11>   MaxIter 150
| 12> end
| 13>
| 14>
| 15>                          ****END OF INPUT****

CARTESIAN COORDINATES (ANGSTROEM)
---------------------------------
  C      1.364014    0.468742   -2.813764
  C      0.428844    0.321402   -1.655312
  C      0.968045    1.630639   -3.715749
  C     -0.508347    1.722679   -4.124300
  S     -1.328608    0.146737   -4.435781
  H     -0.591511    2.294958   -5.047219
  H     -1.114114    2.235610   -3.374362
  H      0.748578   -0.400542   -1.001345
  H     -0.461053    0.023332   -2.077731
  H      0.310258    1.201375   -1.134948
  F     -2.571347    0.475733   -5.068341
  O     -1.514963   -0.400512   -3.063420
  H      1.294847   -0.468742   -3.364684
  H      2.376216    0.597400   -2.431495
  H      1.578688    1.520652   -4.612733
  H      1.266653    2.575988   -3.250448
  O     -0.377928   -0.627558   -5.201141

 Total Charge           Charge          ....    0
 Multiplicity           Mult            ....    1
 Number of Electrons    NEL             ....   74
 Basis Dimension        Dim             ....  308

ORBITAL ENERGIES
----------------

  NO   OCC          E(Eh)            E(eV)
   0   2.0000     -89.104023     -2424.6437
   1   2.0000     -24.810851      -675.1376
   2   2.0000     -19.142377      -520.8905
   3   2.0000     -19.129743      -520.5468
   4   2.0000     -10.227728      -278.3106
   5   2.0000     -10.188551      -277.2446
   6   2.0000     -10.152330      -276.2589
   7   2.0000     -10.095154      -274.7031
   8   2.0000      -8.148047      -221.7196
   9   2.0000      -6.114741      -166.3906
  10   2.0000      -6.108431      -166.2189
  11   2.0000      -6.108192      -166.2124
  12   2.0000      -1.396883       -38.0111
  13   2.0000      -1.111137       -30.2356
  14   2.0000      -1.015521       -27.6337
  15   2.0000      -0.828756       -22.5516
  16   2.0000      -0.774011       -21.0619
  17   2.0000      -0.723901       -19.6983
  18   2.0000      -0.676511       -18.4088
  19   2.0000      -0.608773       -16.5656
  20   2.0000      -0.598545       -16.2872
  21   2.0000      -0.578753       -15.7487
  22   2.0000      -0.547026       -14.8853
  23   2.0000      -0.505324       -13.7506
  24   2.0000      -0.493538       -13.4298
  25   2.0000      -0.460246       -12.5239
  26   2.0000      -0.456639       -12.4258
  27   2.0000      -0.422726       -11.5030
  28   2.0000      -0.404591       -11.0095
  29   2.0000      -0.400397       -10.8954
  30   2.0000      -0.385021       -10.4769
  31   2.0000      -0.356436        -9.6991
  32   2.0000      -0.347247        -9.4491
  33   2.0000      -0.322819        -8.7843
  34   2.0000      -0.321245        -8.7415
  35   2.0000      -0.314575        -8.5600
  36   2.0000      -0.278232        -7.5711
  37   0.0000       0.014858         0.4043
  38   0.0000       0.024889         0.6773
  39   0.0000       0.054635         1.4867
  40   0.0000       0.059998         1.6326
  41   0.0000       0.069137         1.8813

MULLIKEN ATOMIC CHARGES
-----------------------
   0 C :   -0.179539
   1 C :   -0.367044
   2 C :   -0.174455
   3 C :   -0.262279
   4 S :    0.863868
   5 H :    0.136318
   6 H :    0.140625
   7 H :    0.091939
   8 H :    0.185495
   9 H :    0.071072
  10 F :   -0.096385
  11 O :   -0.423237
  12 H :    0.120401
  13 H :    0.082988
  14 H :    0.105593
  15 H :    0.109012
  16 O :   -0.404372
Sum of atomic charges:   -0.0000000

LOEWDIN ATOMIC CHARGES
----------------------
   0 C :   -0.299007
   1 C :   -0.311657
   2 C :   -0.270437
   3 C :   -0.362892
   4 S :    0.546758
   5 H :    0.134756
   6 H :    0.139887
   7 H :    0.102913
   8 H :    0.085841
   9 H :    0.097753
  10 F :    0.108539
  11 O :   -0.272032
  12 H :    0.139759
  13 H :    0.130409
  14 H :    0.142403
  15 H :    0.143773
  16 O :   -0.256767

  Mayer bond orders larger than 0.100000
B(  0-C ,  1-C ) :   0.9324 B(  0-C ,  2-C ) :   0.9745 B(  0-C , 12-H ) :   0.9756
B(  0-C , 13-H ) :   0.9673 B(  1-C ,  7-H ) :   0.9773 B(  1-C ,  8-H ) :   0.9435
B(  1-C ,  9-H ) :   0.9779 B(  2-C ,  3-C ) :   0.9604 B(  2-C , 14-H ) :   0.9692
B(  2-C , 15-H ) :   0.9532 B(  3-C ,  4-S ) :   0.9264 B(  3-C ,  5-H ) :   0.9415
B(  3-C ,  6-H ) :   0.9368 B(  4-S , 10-F ) :   1.1426 B(  4-S , 11-O ) :   1.7894
B(  4-S , 16-O ) :   1.9077

Dispersion correction           -0.030142512
FINAL SINGLE POINT ENERGY      -806.196343520704

DIPOLE MOMENT
-------------
                                X             Y             Z
Electronic contribution:    -12.49482      -4.10024      -9.73570
Nuclear contribution   :     12.25227       5.48563       9.26621
                        -----------------------------------------
Total Dipole Moment    :     -0.24254       1.38539      -0.46949
                        -----------------------------------------
Magnitude (a.u.)       :      1.48275
Magnitude (Debye)      :      3.76886

Rotational constants in cm-1:     0.103176     0.044975     0.040960
Rotational constants in MHz :  3093.138469  1348.317425  1227.945122

                             ****ORCA TERMINATED NORMALLY****
TOTAL RUN TIME: 0 days 0 hours 0 minutes 19 seconds 815 msec
