                         Program Version 5.0.0 -  RELEASE  -
|  1> !B3LYP D3BJ RIJCOSX def2-TZVP def2/J TightSCF xyzfile
|  2>
|  3> *xyzfile 0 1 D3.xyz
|  4>
|  5> %MaxCore 64000
|  6>
|  7> %pal nprocs 18
|  8> end
|  9>
| 10> %scf
| 11>   MaxIter 150
| 12> end
| 13>
| 14>
| 15>                          ****END OF INPUT****

CARTESIAN COORDINATES (ANGSTROEM)
---------------------------------
  C      1.364014    0.468742   -2.813764
  C      0.428844    0.321402   -1.655312
  C      0.968045    1.630639   -3.715749
  C     -0.508347    1.722679   -4.124300
  S     -1.328608    0.146737   -4.435781
  H     -0.591511    2.294958   -5.047219
  H     -1.114114    2.235610   -3.374362
  H      0.748578   -0.400542   -1.001345
  H     -0.461053    0.023332   -2.077731
  H      0.310258    1.201375   -1.134948
  O     -2.571347    0.475733   -5.068341
  O     -1.514963   -0.400512   -3.063420
  H      1.294847   -0.468742   -3.364684
  H      2.376216    0.597400   -2.431495
  H      1.578688    1.520652   -4.612733
  H      1.266653    2.575988   -3.250448
  F     -0.377928   -0.627558   -5.201141

 Total Charge           Charge          ....    0
 Multiplicity           Mult            ....    1
 Number of Electrons    NEL             ....   74
 Basis Dimension        Dim             ....  308

ORBITAL ENERGIES
----------------

  NO   OCC          E(Eh)            E(eV)
   0   2.0000     -89.104027     -2424.6439
   1   2.0000     -24.806184      -675.0106
   2   2.0000     -19.145559      -520.9771
   3   2.0000     -19.128922      -520.5244
   4   2.0000     -10.227506      -278.3046
   5   2.0000     -10.192523      -277.3527
   6   2.0000     -10.164363      -276.5864
   7   2.0000     -10.099457      -274.8202
   8   2.0000      -8.148026      -221.7191
   9   2.0000      -6.114905      -166.3950
  10   2.0000      -6.108464      -166.2198
  11   2.0000      -6.107963      -166.2061
  12   2.0000      -1.388030       -37.7702
  13   2.0000      -1.115757       -30.3613
  14   2.0000      -1.019098       -27.7311
  15   2.0000      -0.834878       -22.7182
  16   2.0000      -0.773234       -21.0408
  17   2.0000      -0.723970       -19.7002
  18   2.0000      -0.678761       -18.4700
  19   2.0000      -0.613158       -16.6849
  20   2.0000      -0.593043       -16.1375
  21   2.0000      -0.584790       -15.9129
  22   2.0000      -0.544677       -14.8214
  23   2.0000      -0.500231       -13.6120
  24   2.0000      -0.495904       -13.4942
  25   2.0000      -0.469171       -12.7668
  26   2.0000      -0.458802       -12.4846
  27   2.0000      -0.428198       -11.6519
  28   2.0000      -0.411394       -11.1946
  29   2.0000      -0.398939       -10.8557
  30   2.0000      -0.390671       -10.6307
  31   2.0000      -0.366933        -9.9848
  32   2.0000      -0.346507        -9.4289
  33   2.0000      -0.334335        -9.0977
  34   2.0000      -0.331073        -9.0089
  35   2.0000      -0.322572        -8.7776
  36   2.0000      -0.273376        -7.4389
  37   0.0000       0.006930         0.1886
  38   0.0000       0.033240         0.9045
  39   0.0000       0.047971         1.3054
  40   0.0000       0.060771         1.6537
  41   0.0000       0.063767         1.7352

MULLIKEN ATOMIC CHARGES
-----------------------
   0 C :   -0.180416
   1 C :   -0.360576
   2 C :   -0.203397
   3 C :   -0.259703
   4 S :    0.874451
   5 H :    0.146712
   6 H :    0.155558
   7 H :    0.091857
   8 H :    0.191944
   9 H :    0.075726
  10 O :   -0.397706
  11 O :   -0.425295
  12 H :    0.088126
  13 H :    0.090686
  14 H :    0.105564
  15 H :    0.110157
  16 F :   -0.103689
Sum of atomic charges:   -0.0000000

LOEWDIN ATOMIC CHARGES
----------------------
   0 C :   -0.304085
   1 C :   -0.313191
   2 C :   -0.282975
   3 C :   -0.354868
   4 S :    0.553793
   5 H :    0.138701
   6 H :    0.150936
   7 H :    0.102830
   8 H :    0.084314
   9 H :    0.099537
  10 O :   -0.247993
  11 O :   -0.268696
  12 H :    0.128966
  13 H :    0.132665
  14 H :    0.137302
  15 H :    0.143529
  16 F :    0.099234

  Mayer bond orders larger than 0.100000
B(  0-C ,  1-C ) :   0.9263 B(  0-C ,  2-C ) :   0.9579 B(  0-C , 12-H ) :   0.9845
B(  0-C , 13-H ) :   0.9677 B(  1-C ,  7-H ) :   0.9769 B(  1-C ,  8-H ) :   0.9382
B(  1-C ,  9-H ) :   0.9769 B(  2-C ,  3-C ) :   0.9499 B(  2-C , 14-H ) :   0.9755
B(  2-C , 15-H ) :   0.9522 B(  3-C ,  4-S ) :   0.9221 B(  3-C ,  5-H ) :   0.9483
B(  3-C ,  6-H ) :   0.9405 B(  4-S , 10-O ) :   1.9630 B(  4-S , 11-O ) :   1.7772
B(  4-S , 16-F ) :   1.1199

Dispersion correction           -0.029898470
FINAL SINGLE POINT ENERGY      -806.199912236016

DIPOLE MOMENT
-------------
                                X             Y             Z
Electronic contribution:     -8.68432      -5.98152      -9.91642
Nuclear contribution   :      9.83476       6.70164       9.41257
                        -----------------------------------------
Total Dipole Moment    :      1.15044       0.72012      -0.50384
                        -----------------------------------------
Magnitude (a.u.)       :      1.44774
Magnitude (Debye)      :      3.67986

Rotational constants in cm-1:     0.099832     0.045916     0.042219
Rotational constants in MHz :  2992.874960  1376.530174  1265.693813

                             ****ORCA TERMINATED NORMALLY****
TOTAL RUN TIME: 0 days 0 hours 0 minutes 22 seconds 553 msec
