                         Program Version 5.0.0 -  RELEASE  -
|  1> !wB97X-D3 RIJCOSX def2-SVPD def2/J TightSCF CPCM(Water)
|  2> * xyz 0 1
|  3> C         -1.11600        3.62600        5.13500
|  4> O         -2.06600        3.92400        5.89200
|  5> N         -1.10700        2.39300        4.56500
|  6> C         -2.21900        1.44900        4.59700
|  7> C         -1.88400        0.00100        4.44000
|  8> O         -2.28500       -0.84500        5.27400
|  9> C         -3.26900        1.89400        3.53500
| 10> C         -2.71500        1.94900        2.08000
| 11> C         -3.70200        2.64300        1.11500
| 12> N         -2.96300        3.24000        0.04500
| 13> C         -3.44800        4.21300       -0.73800
| 14> N         -4.67600        4.71000       -0.66000
| 15> N         -2.63900        4.70900       -1.65200
| 16> O         -1.29800       -0.44500        3.42400
| 17> H         -0.30400        2.18200        4.06000
| 18> H         -2.70900        1.50900        5.57900
| 19> H         -4.13300        1.22100        3.55400
| 20> H         -3.64800        2.87600        3.83500
| 21> H         -1.75700        2.48100        2.07200
| 22> H         -2.51800        0.93600        1.70900
| 23> H         -4.43400        1.92300        0.72600
| 24> H         -4.26600        3.41200        1.65600
| 25> H         -2.05800        2.93000       -0.11500
| 26> H         -5.31200        4.40300       -0.00700
| 27> H         -4.95700        5.31000       -1.35600
| 28> H         -1.77400        4.30600       -1.78700
| 29> H         -2.91600        5.48000       -2.15200
| 30> H         -0.35752        4.30036        4.94800
| 31> *
| 32> %MaxCore 64000
| 33> %scf
| 34>   Convergence VeryTight
| 35>   MaxIter 300
| 36> end
| 37> %pal nprocs 8
| 38> end
| 39>
| 40>                          ****END OF INPUT****

CARTESIAN COORDINATES (ANGSTROEM)
---------------------------------
  C     -1.116000    3.626000    5.135000
  O     -2.066000    3.924000    5.892000
  N     -1.107000    2.393000    4.565000
  C     -2.219000    1.449000    4.597000
  C     -1.884000    0.001000    4.440000
  O     -2.285000   -0.845000    5.274000
  C     -3.269000    1.894000    3.535000
  C     -2.715000    1.949000    2.080000
  C     -3.702000    2.643000    1.115000
  N     -2.963000    3.240000    0.045000
  C     -3.448000    4.213000   -0.738000
  N     -4.676000    4.710000   -0.660000
  N     -2.639000    4.709000   -1.652000
  O     -1.298000   -0.445000    3.424000
  H     -0.304000    2.182000    4.060000
  H     -2.709000    1.509000    5.579000
  H     -4.133000    1.221000    3.554000
  H     -3.648000    2.876000    3.835000
  H     -1.757000    2.481000    2.072000
  H     -2.518000    0.936000    1.709000
  H     -4.434000    1.923000    0.726000
  H     -4.266000    3.412000    1.656000
  H     -2.058000    2.930000   -0.115000
  H     -5.312000    4.403000   -0.007000
  H     -4.957000    5.310000   -1.356000
  H     -1.774000    4.306000   -1.787000
  H     -2.916000    5.480000   -2.152000
  H     -0.357520    4.300360    4.948000

 Total Charge           Charge          ....    0
 Multiplicity           Mult            ....    1
 Number of Electrons    NEL             ....  108
 Basis Dimension        Dim             ....  401

ORBITAL ENERGIES
----------------

  NO   OCC          E(Eh)            E(eV)
   0   2.0000     -19.221063      -523.0317
   1   2.0000     -19.180430      -521.9260
   2   2.0000     -19.178372      -521.8700
   3   2.0000     -14.485823      -394.1793
   4   2.0000     -14.480676      -394.0392
   5   2.0000     -14.473367      -393.8403
   6   2.0000     -14.466760      -393.6606
   7   2.0000     -10.455245      -284.5017
   8   2.0000     -10.397569      -282.9322
   9   2.0000     -10.373982      -282.2904
  10   2.0000     -10.334842      -281.2253
  11   2.0000     -10.332557      -281.1632
  12   2.0000     -10.295394      -280.1519
  13   2.0000     -10.293546      -280.1016
  14   2.0000      -1.161594       -31.6086
  15   2.0000      -1.144066       -31.1316
  16   2.0000      -1.136624       -30.9291
  17   2.0000      -1.055419       -28.7194
  18   2.0000      -1.037185       -28.2233
  19   2.0000      -1.034769       -28.1575
  20   2.0000      -1.023054       -27.8387
  21   2.0000      -0.908039       -24.7090
  22   2.0000      -0.861298       -23.4371
  23   2.0000      -0.795180       -21.6380
  24   2.0000      -0.769062       -20.9272
  25   2.0000      -0.739903       -20.1338
  26   2.0000      -0.722089       -19.6490
  27   2.0000      -0.697615       -18.9831
  28   2.0000      -0.686557       -18.6822
  29   2.0000      -0.674571       -18.3560
  30   2.0000      -0.628783       -17.1101
  31   2.0000      -0.627866       -17.0851
  32   2.0000      -0.614636       -16.7251
  33   2.0000      -0.599711       -16.3190
  34   2.0000      -0.584187       -15.8965
  35   2.0000      -0.568857       -15.4794
  36   2.0000      -0.555422       -15.1138
  37   2.0000      -0.544672       -14.8213
  38   2.0000      -0.536458       -14.5978
  39   2.0000      -0.514355       -13.9963
  40   2.0000      -0.507479       -13.8092
  41   2.0000      -0.494322       -13.4512
  42   2.0000      -0.490538       -13.3482
  43   2.0000      -0.472927       -12.8690
  44   2.0000      -0.448115       -12.1938
  45   2.0000      -0.438812       -11.9407
  46   2.0000      -0.434522       -11.8240
  47   2.0000      -0.401583       -10.9276
  48   2.0000      -0.371159       -10.0997
  49   2.0000      -0.368819       -10.0361
  50   2.0000      -0.367862       -10.0100
  51   2.0000      -0.343119        -9.3368
  52   2.0000      -0.341110        -9.2821
  53   2.0000      -0.315032        -8.5725
  54   0.0000       0.079022         2.1503
  55   0.0000       0.085481         2.3261
  56   0.0000       0.086861         2.3636
  57   0.0000       0.096387         2.6228
  58   0.0000       0.106216         2.8903

MULLIKEN ATOMIC CHARGES
-----------------------
   0 C :    0.974826
   1 O :   -0.551117
   2 N :    0.009466
   3 C :    0.481898
   4 C :    0.578189
   5 O :   -0.688338
   6 C :    0.096773
   7 C :   -0.147215
   8 C :    0.735920
   9 N :   -0.351928
  10 C :    1.386249
  11 N :    0.133493
  12 N :    0.136528
  13 O :   -0.753443
  14 H :   -0.423910
  15 H :   -0.092244
  16 H :   -0.125672
  17 H :   -0.019953
  18 H :   -0.131794
  19 H :    0.038103
  20 H :   -0.015644
  21 H :    0.064807
  22 H :   -0.347766
  23 H :   -0.122757
  24 H :   -0.161603
  25 H :   -0.080834
  26 H :   -0.135873
  27 H :   -0.486163
Sum of atomic charges:    0.0000000

LOEWDIN ATOMIC CHARGES
----------------------
   0 C :    0.098423
   1 O :   -0.298647
   2 N :    0.061523
   3 C :   -0.036821
   4 C :   -0.277839
   5 O :   -0.347871
   6 C :    0.046484
   7 C :    0.005388
   8 C :    0.066965
   9 N :    0.052013
  10 C :    0.020735
  11 N :    0.325337
  12 N :    0.299708
  13 O :   -0.337397
  14 H :    0.015184
  15 H :    0.042431
  16 H :    0.039448
  17 H :    0.018049
  18 H :    0.019077
  19 H :    0.012356
  20 H :    0.046641
  21 H :    0.034905
  22 H :    0.033104
  23 H :   -0.002337
  24 H :    0.015246
  25 H :    0.016515
  26 H :    0.012983
  27 H :    0.018396

  Mayer bond orders larger than 0.100000
B(  0-C ,  1-O ) :   1.7087 B(  0-C ,  2-N ) :   1.1631 B(  0-C , 14-H ) :  -0.2189
B(  0-C , 27-H ) :   0.9242 B(  2-N ,  3-C ) :   0.7798 B(  2-N , 14-H ) :   1.2252
B(  2-N , 15-H ) :   0.1661 B(  3-C ,  4-C ) :   0.8365 B(  3-C ,  6-C ) :   1.0799
B(  3-C ,  7-C ) :   0.1097 B(  3-C , 14-H ) :  -0.1881 B(  3-C , 15-H ) :   0.7838
B(  3-C , 18-H ) :   0.1096 B(  4-C ,  5-O ) :   1.5078 B(  4-C , 13-O ) :   1.4965
B(  4-C , 15-H ) :   0.1192 B(  5-O , 13-O ) :   0.1746 B(  6-C ,  7-C ) :   1.1177
B(  6-C , 15-H ) :   0.2842 B(  6-C , 16-H ) :   1.0178 B(  6-C , 17-H ) :   0.9103
B(  7-C ,  8-C ) :   1.1755 B(  7-C ,  9-N ) :   0.2535 B(  7-C , 16-H ) :   0.1605
B(  7-C , 18-H ) :   1.1329 B(  7-C , 19-H ) :   0.8646 B(  8-C ,  9-N ) :   0.7968
B(  8-C , 20-H ) :   0.9156 B(  8-C , 21-H ) :   0.8555 B(  8-C , 22-H ) :  -0.2399
B(  9-N , 10-C ) :   0.9973 B(  9-N , 11-N ) :   0.2025 B(  9-N , 12-N ) :   0.2465
B(  9-N , 20-H ) :   0.1220 B(  9-N , 21-H ) :   0.1975 B(  9-N , 22-H ) :   1.3059
B( 10-C , 11-N ) :   0.9724 B( 10-C , 12-N ) :   0.9260 B( 10-C , 22-H ) :  -0.3238
B( 10-C , 23-H ) :  -0.2033 B( 10-C , 24-H ) :  -0.1312 B( 10-C , 25-H ) :  -0.1418
B( 10-C , 26-H ) :  -0.1510 B( 11-N , 12-N ) :   0.1455 B( 11-N , 23-H ) :   1.2122
B( 11-N , 24-H ) :   1.2859 B( 12-N , 25-H ) :   1.2029 B( 12-N , 26-H ) :   1.2707
B( 23-H , 24-H ) :  -0.2562 B( 25-H , 26-H ) :  -0.2253

Dispersion correction           -0.010858402
FINAL SINGLE POINT ENERGY      -719.252971616121

DIPOLE MOMENT
-------------
                                X             Y             Z
Electronic contribution:      3.29224      -0.39923       2.34348
Nuclear contribution   :     -5.33767       8.98509     -13.09976
                        -----------------------------------------
Total Dipole Moment    :     -2.04543       8.58586     -10.75628
                        -----------------------------------------
Magnitude (a.u.)       :     13.91396
Magnitude (Debye)      :     35.36648

Rotational constants in cm-1:     0.034229     0.009331     0.008177
Rotational constants in MHz :  1026.170948   279.749120   245.128404

                             ****ORCA TERMINATED NORMALLY****
TOTAL RUN TIME: 0 days 0 hours 2 minutes 19 seconds 241 msec
