                         Program Version 5.0.0 -  RELEASE  -
|  1> !wB97X-D3 RIJCOSX def2-SVPD def2/J TightSCF CPCM(Water)
|  2> * xyz 1 1
|  3> C          1.53800       -4.97700       -4.91700
|  4> O          1.24100       -3.93800       -5.55900
|  5> N          1.61300       -4.98100       -3.56100
|  6> C          1.54600       -3.85400       -2.67500
|  7> C          2.57600       -4.00200       -1.58200
|  8> O          2.16800       -4.06100       -0.39200
|  9> C          0.04700       -3.60900       -2.27600
| 10> C         -0.85300       -4.82200       -1.87400
| 11> C         -0.78200       -5.27100       -0.39100
| 12> N         -1.52400       -4.37000        0.44200
| 13> C         -1.07200       -3.51000        1.36000
| 14> N          0.20800       -3.20800        1.54900
| 15> N         -2.02800       -2.89100        2.04800
| 16> H          1.70600       -5.83000       -3.11700
| 17> H          1.85900       -2.94900       -3.20200
| 18> H          0.00100       -2.86200       -1.47700
| 19> H         -0.42000       -3.14200       -3.15400
| 20> H         -1.90000       -4.55400       -2.06900
| 21> H         -0.63000       -5.67400       -2.51900
| 22> H         -1.27300       -6.24700       -0.29200
| 23> H          0.24900       -5.42100       -0.06400
| 24> H         -2.48400       -4.35500        0.35500
| 25> H          0.84900       -3.52800        0.90500
| 26> H          0.48100       -2.72000        2.32700
| 27> H         -2.93100       -3.19700        1.89100
| 28> H         -1.82800       -2.14000        2.61300
| 29> N          3.93300       -4.04600       -1.82100
| 30> H          1.72981       -5.84953       -5.43364
| 31> H          4.27193       -4.00121       -2.74423
| 32> H          4.56315       -4.12221       -1.06845
| 33> *
| 34> %MaxCore 64000
| 35> %scf
| 36>   Convergence VeryTight
| 37>   MaxIter 300
| 38> end
| 39> %pal nprocs 8
| 40> end
| 41>
| 42>                          ****END OF INPUT****

CARTESIAN COORDINATES (ANGSTROEM)
---------------------------------
  C      1.538000   -4.977000   -4.917000
  O      1.241000   -3.938000   -5.559000
  N      1.613000   -4.981000   -3.561000
  C      1.546000   -3.854000   -2.675000
  C      2.576000   -4.002000   -1.582000
  O      2.168000   -4.061000   -0.392000
  C      0.047000   -3.609000   -2.276000
  C     -0.853000   -4.822000   -1.874000
  C     -0.782000   -5.271000   -0.391000
  N     -1.524000   -4.370000    0.442000
  C     -1.072000   -3.510000    1.360000
  N      0.208000   -3.208000    1.549000
  N     -2.028000   -2.891000    2.048000
  H      1.706000   -5.830000   -3.117000
  H      1.859000   -2.949000   -3.202000
  H      0.001000   -2.862000   -1.477000
  H     -0.420000   -3.142000   -3.154000
  H     -1.900000   -4.554000   -2.069000
  H     -0.630000   -5.674000   -2.519000
  H     -1.273000   -6.247000   -0.292000
  H      0.249000   -5.421000   -0.064000
  H     -2.484000   -4.355000    0.355000
  H      0.849000   -3.528000    0.905000
  H      0.481000   -2.720000    2.327000
  H     -2.931000   -3.197000    1.891000
  H     -1.828000   -2.140000    2.613000
  N      3.933000   -4.046000   -1.821000
  H      1.729810   -5.849530   -5.433640
  H      4.271930   -4.001210   -2.744230
  H      4.563150   -4.122210   -1.068450

 Total Charge           Charge          ....    1
 Multiplicity           Mult            ....    1
 Number of Electrons    NEL             ....  108
 Basis Dimension        Dim             ....  414

ORBITAL ENERGIES
----------------

  NO   OCC          E(Eh)            E(eV)
   0   2.0000     -19.237404      -523.4764
   1   2.0000     -19.231207      -523.3077
   2   2.0000     -14.484972      -394.1561
   3   2.0000     -14.477687      -393.9579
   4   2.0000     -14.472697      -393.8221
   5   2.0000     -14.471249      -393.7827
   6   2.0000     -14.469482      -393.7346
   7   2.0000     -10.453283      -284.4483
   8   2.0000     -10.428696      -283.7792
   9   2.0000     -10.407311      -283.1973
  10   2.0000     -10.357802      -281.8501
  11   2.0000     -10.334326      -281.2113
  12   2.0000     -10.303404      -280.3699
  13   2.0000     -10.297779      -280.2168
  14   2.0000      -1.158773       -31.5318
  15   2.0000      -1.156076       -31.4584
  16   2.0000      -1.144946       -31.1556
  17   2.0000      -1.057065       -28.7642
  18   2.0000      -1.049540       -28.5594
  19   2.0000      -1.034312       -28.1451
  20   2.0000      -1.020944       -27.7813
  21   2.0000      -0.910008       -24.7626
  22   2.0000      -0.872678       -23.7468
  23   2.0000      -0.812290       -22.1035
  24   2.0000      -0.768399       -20.9092
  25   2.0000      -0.740896       -20.1608
  26   2.0000      -0.735727       -20.0201
  27   2.0000      -0.721306       -19.6277
  28   2.0000      -0.699721       -19.0404
  29   2.0000      -0.684477       -18.6256
  30   2.0000      -0.673729       -18.3331
  31   2.0000      -0.646311       -17.5870
  32   2.0000      -0.632199       -17.2030
  33   2.0000      -0.627343       -17.0709
  34   2.0000      -0.611421       -16.6376
  35   2.0000      -0.594876       -16.1874
  36   2.0000      -0.585899       -15.9431
  37   2.0000      -0.572401       -15.5758
  38   2.0000      -0.557868       -15.1804
  39   2.0000      -0.544076       -14.8051
  40   2.0000      -0.531819       -14.4715
  41   2.0000      -0.518368       -14.1055
  42   2.0000      -0.508861       -13.8468
  43   2.0000      -0.501801       -13.6547
  44   2.0000      -0.496691       -13.5157
  45   2.0000      -0.454980       -12.3806
  46   2.0000      -0.445336       -12.1182
  47   2.0000      -0.438069       -11.9205
  48   2.0000      -0.398530       -10.8446
  49   2.0000      -0.386824       -10.5260
  50   2.0000      -0.381458       -10.3800
  51   2.0000      -0.376411       -10.2427
  52   2.0000      -0.369849       -10.0641
  53   2.0000      -0.362072        -9.8525
  54   0.0000       0.056520         1.5380
  55   0.0000       0.074889         2.0378
  56   0.0000       0.085860         2.3364
  57   0.0000       0.090103         2.4518
  58   0.0000       0.097693         2.6584

MULLIKEN ATOMIC CHARGES
-----------------------
   0 C :    0.985230
   1 O :   -0.515867
   2 N :   -0.098006
   3 C :    0.071587
   4 C :    0.773447
   5 O :   -0.701001
   6 C :    0.244719
   7 C :    0.021763
   8 C :    1.010113
   9 N :   -0.478881
  10 C :    1.427420
  11 N :    0.473565
  12 N :    0.138903
  13 H :   -0.335193
  14 H :    0.123300
  15 H :   -0.045469
  16 H :   -0.015241
  17 H :    0.082254
  18 H :   -0.154215
  19 H :   -0.100554
  20 H :   -0.188742
  21 H :   -0.270214
  22 H :   -0.417555
  23 H :   -0.283756
  24 H :   -0.086706
  25 H :   -0.162910
  26 N :    0.142051
  27 H :   -0.489549
  28 H :   -0.055856
  29 H :   -0.094639
Sum of atomic charges:    1.0000000

LOEWDIN ATOMIC CHARGES
----------------------
   0 C :    0.111140
   1 O :   -0.289141
   2 N :    0.049189
   3 C :   -0.017967
   4 C :   -0.034564
   5 O :   -0.234547
   6 C :    0.058125
   7 C :    0.019695
   8 C :    0.096659
   9 N :    0.056392
  10 C :    0.029692
  11 N :    0.337632
  12 N :    0.298209
  13 H :    0.023063
  14 H :    0.066223
  15 H :    0.018555
  16 H :    0.026467
  17 H :    0.028873
  18 H :    0.012477
  19 H :    0.040787
  20 H :    0.012593
  21 H :    0.028264
  22 H :   -0.107259
  23 H :    0.015037
  24 H :    0.010484
  25 H :    0.012790
  26 N :    0.286458
  27 H :    0.019412
  28 H :    0.011342
  29 H :    0.013920

  Mayer bond orders larger than 0.100000
B(  0-C ,  1-O ) :   1.7287 B(  0-C ,  2-N ) :   1.1266 B(  0-C , 13-H ) :  -0.2122
B(  0-C , 27-H ) :   0.9493 B(  2-N ,  3-C ) :   0.8128 B(  2-N ,  6-C ) :   0.1081
B(  2-N , 13-H ) :   1.2993 B(  2-N , 14-H ) :   0.1928 B(  3-C ,  4-C ) :   0.9010
B(  3-C ,  5-O ) :   0.1155 B(  3-C ,  6-C ) :   1.2522 B(  3-C , 13-H ) :  -0.2195
B(  3-C , 14-H ) :   0.7308 B(  3-C , 15-H ) :   0.1045 B(  3-C , 16-H ) :   0.2992
B(  4-C ,  5-O ) :   1.5827 B(  4-C , 26-N ) :   1.0587 B(  4-C , 28-H ) :  -0.1255
B(  5-O , 20-H ) :   0.1117 B(  5-O , 22-H ) :   0.1552 B(  5-O , 26-N ) :   0.1697
B(  6-C ,  7-C ) :   1.2032 B(  6-C , 14-H ) :   0.1794 B(  6-C , 15-H ) :   0.8462
B(  6-C , 16-H ) :   0.7522 B(  6-C , 17-H ) :   0.1494 B(  6-C , 18-H ) :   0.1754
B(  7-C ,  8-C ) :   1.1209 B(  7-C , 15-H ) :   0.1166 B(  7-C , 17-H ) :   0.7797
B(  7-C , 18-H ) :   0.9621 B(  7-C , 20-H ) :   0.1697 B(  8-C ,  9-N ) :   0.8566
B(  8-C , 18-H ) :   0.1044 B(  8-C , 19-H ) :   0.8376 B(  8-C , 20-H ) :   0.7651
B(  8-C , 21-H ) :  -0.2267 B(  9-N , 10-C ) :   0.9008 B(  9-N , 11-N ) :   0.1530
B(  9-N , 12-N ) :   0.2577 B(  9-N , 19-H ) :   0.1219 B(  9-N , 20-H ) :   0.2041
B(  9-N , 21-H ) :   1.4207 B( 10-C , 11-N ) :   1.0383 B( 10-C , 12-N ) :   0.9357
B( 10-C , 21-H ) :  -0.3227 B( 10-C , 22-H ) :  -0.1865 B( 10-C , 23-H ) :  -0.2198
B( 10-C , 24-H ) :  -0.1396 B( 10-C , 25-H ) :  -0.1338 B( 11-N , 12-N ) :   0.1124
B( 11-N , 22-H ) :   1.1231 B( 11-N , 23-H ) :   1.3433 B( 12-N , 24-H ) :   1.1765
B( 12-N , 25-H ) :   1.3070 B( 15-H , 16-H ) :  -0.1253 B( 16-H , 18-H ) :   0.1139
B( 22-H , 23-H ) :  -0.3118 B( 24-H , 25-H ) :  -0.2247 B( 26-N , 28-H ) :   1.2216
B( 26-N , 29-H ) :   1.1659 B( 28-H , 29-H ) :  -0.1819

Dispersion correction           -0.013729447
FINAL SINGLE POINT ENERGY      -699.874705085891

DIPOLE MOMENT
-------------
                                X             Y             Z
Electronic contribution:      3.77385       0.64387      -0.21842
Nuclear contribution   :     -5.32095      -0.93137       4.74142
                        -----------------------------------------
Total Dipole Moment    :     -1.54711      -0.28750       4.52299
                        -----------------------------------------
Magnitude (a.u.)       :      4.78891
Magnitude (Debye)      :     12.17244

Rotational constants in cm-1:     0.037789     0.011927     0.009925
Rotational constants in MHz :  1132.880235   357.567087   297.529534

                             ****ORCA TERMINATED NORMALLY****
TOTAL RUN TIME: 0 days 0 hours 2 minutes 23 seconds 596 msec
