                         Program Version 5.0.0 -  RELEASE  -
|  1> !wB97X-D3 RIJCOSX def2-SVPD def2/J TightSCF CPCM(Water)
|  2> * xyz 1 1
|  3> C         -1.11600        3.62600        5.13500
|  4> O         -2.06600        3.92400        5.89200
|  5> N         -1.10700        2.39300        4.56500
|  6> C         -2.21900        1.44900        4.59700
|  7> C         -1.88400        0.00100        4.44000
|  8> O         -2.28500       -0.84500        5.27400
|  9> C         -3.26900        1.89400        3.53500
| 10> C         -2.71500        1.94900        2.08000
| 11> C         -3.70200        2.64300        1.11500
| 12> N         -2.96300        3.24000        0.04500
| 13> C         -3.44800        4.21300       -0.73800
| 14> N         -4.67600        4.71000       -0.66000
| 15> N         -2.63900        4.70900       -1.65200
| 16> F         -1.29800       -0.44500        3.42400
| 17> H         -0.30400        2.18200        4.06000
| 18> H         -2.70900        1.50900        5.57900
| 19> H         -4.13300        1.22100        3.55400
| 20> H         -3.64800        2.87600        3.83500
| 21> H         -1.75700        2.48100        2.07200
| 22> H         -2.51800        0.93600        1.70900
| 23> H         -4.43400        1.92300        0.72600
| 24> H         -4.26600        3.41200        1.65600
| 25> H         -2.05800        2.93000       -0.11500
| 26> H         -5.31200        4.40300       -0.00700
| 27> H         -4.95700        5.31000       -1.35600
| 28> H         -1.77400        4.30600       -1.78700
| 29> H         -2.91600        5.48000       -2.15200
| 30> H         -0.35752        4.30036        4.94800
| 31> *
| 32> %MaxCore 64000
| 33> %scf
| 34>   Convergence VeryTight
| 35>   MaxIter 300
| 36> end
| 37> %pal nprocs 8
| 38> end
| 39>
| 40>                          ****END OF INPUT****

CARTESIAN COORDINATES (ANGSTROEM)
---------------------------------
  C     -1.116000    3.626000    5.135000
  O     -2.066000    3.924000    5.892000
  N     -1.107000    2.393000    4.565000
  C     -2.219000    1.449000    4.597000
  C     -1.884000    0.001000    4.440000
  O     -2.285000   -0.845000    5.274000
  C     -3.269000    1.894000    3.535000
  C     -2.715000    1.949000    2.080000
  C     -3.702000    2.643000    1.115000
  N     -2.963000    3.240000    0.045000
  C     -3.448000    4.213000   -0.738000
  N     -4.676000    4.710000   -0.660000
  N     -2.639000    4.709000   -1.652000
  F     -1.298000   -0.445000    3.424000
  H     -0.304000    2.182000    4.060000
  H     -2.709000    1.509000    5.579000
  H     -4.133000    1.221000    3.554000
  H     -3.648000    2.876000    3.835000
  H     -1.757000    2.481000    2.072000
  H     -2.518000    0.936000    1.709000
  H     -4.434000    1.923000    0.726000
  H     -4.266000    3.412000    1.656000
  H     -2.058000    2.930000   -0.115000
  H     -5.312000    4.403000   -0.007000
  H     -4.957000    5.310000   -1.356000
  H     -1.774000    4.306000   -1.787000
  H     -2.916000    5.480000   -2.152000
  H     -0.357520    4.300360    4.948000

 Total Charge           Charge          ....    1
 Multiplicity           Mult            ....    1
 Number of Electrons    NEL             ....  108
 Basis Dimension        Dim             ....  401

ORBITAL ENERGIES
----------------

  NO   OCC          E(Eh)            E(eV)
   0   2.0000     -24.880595      -677.0354
   1   2.0000     -19.272291      -524.4257
   2   2.0000     -19.230797      -523.2966
   3   2.0000     -14.488925      -394.2637
   4   2.0000     -14.482789      -394.0967
   5   2.0000     -14.482405      -394.0863
   6   2.0000     -14.475046      -393.8860
   7   2.0000     -10.492875      -285.5256
   8   2.0000     -10.457556      -284.5646
   9   2.0000     -10.408674      -283.2344
  10   2.0000     -10.375292      -282.3261
  11   2.0000     -10.341646      -281.4105
  12   2.0000     -10.314312      -280.6667
  13   2.0000     -10.307083      -280.4700
  14   2.0000      -1.434545       -39.0360
  15   2.0000      -1.163812       -31.6689
  16   2.0000      -1.160905       -31.5898
  17   2.0000      -1.152352       -31.3571
  18   2.0000      -1.058743       -28.8099
  19   2.0000      -1.054121       -28.6841
  20   2.0000      -1.038911       -28.2702
  21   2.0000      -0.930201       -25.3120
  22   2.0000      -0.885598       -24.0984
  23   2.0000      -0.816007       -22.2047
  24   2.0000      -0.779981       -21.2243
  25   2.0000      -0.771951       -21.0058
  26   2.0000      -0.748129       -20.3576
  27   2.0000      -0.733222       -19.9520
  28   2.0000      -0.721536       -19.6340
  29   2.0000      -0.695795       -18.9336
  30   2.0000      -0.685834       -18.6625
  31   2.0000      -0.664660       -18.0863
  32   2.0000      -0.641755       -17.4631
  33   2.0000      -0.633041       -17.2259
  34   2.0000      -0.630130       -17.1467
  35   2.0000      -0.629642       -17.1334
  36   2.0000      -0.605881       -16.4868
  37   2.0000      -0.589424       -16.0390
  38   2.0000      -0.574764       -15.6401
  39   2.0000      -0.561300       -15.2737
  40   2.0000      -0.552825       -15.0431
  41   2.0000      -0.538273       -14.6471
  42   2.0000      -0.522072       -14.2063
  43   2.0000      -0.506370       -13.7790
  44   2.0000      -0.498667       -13.5694
  45   2.0000      -0.482004       -13.1160
  46   2.0000      -0.460409       -12.5284
  47   2.0000      -0.455384       -12.3916
  48   2.0000      -0.443518       -12.0687
  49   2.0000      -0.421391       -11.4666
  50   2.0000      -0.403215       -10.9720
  51   2.0000      -0.377699       -10.2777
  52   2.0000      -0.374602       -10.1934
  53   2.0000      -0.366890        -9.9836
  54   0.0000       0.029113         0.7922
  55   0.0000       0.071275         1.9395
  56   0.0000       0.082200         2.2368
  57   0.0000       0.084928         2.3110
  58   0.0000       0.093226         2.5368

MULLIKEN ATOMIC CHARGES
-----------------------
   0 C :    0.990491
   1 O :   -0.541057
   2 N :   -0.017687
   3 C :    0.339457
   4 C :    1.038173
   5 O :   -0.492614
   6 C :    0.112380
   7 C :   -0.166769
   8 C :    0.687929
   9 N :   -0.358347
  10 C :    1.389465
  11 N :    0.131448
  12 N :    0.134122
  13 F :   -0.448071
  14 H :   -0.395764
  15 H :   -0.037079
  16 H :   -0.107248
  17 H :    0.034267
  18 H :   -0.116418
  19 H :    0.066049
  20 H :   -0.012609
  21 H :    0.078067
  22 H :   -0.340985
  23 H :   -0.121096
  24 H :   -0.160953
  25 H :   -0.079759
  26 H :   -0.134852
  27 H :   -0.470540
Sum of atomic charges:    1.0000000

LOEWDIN ATOMIC CHARGES
----------------------
   0 C :    0.113635
   1 O :   -0.282390
   2 N :    0.061509
   3 C :   -0.002777
   4 C :    0.039028
   5 O :   -0.152196
   6 C :    0.055243
   7 C :    0.010653
   8 C :    0.073658
   9 N :    0.053125
  10 C :    0.022314
  11 N :    0.326203
  12 N :    0.300855
  13 F :   -0.026489
  14 H :    0.026011
  15 H :    0.064245
  16 H :    0.046582
  17 H :    0.029245
  18 H :    0.023300
  19 H :    0.027602
  20 H :    0.049284
  21 H :    0.038360
  22 H :    0.034120
  23 H :   -0.001641
  24 H :    0.015819
  25 H :    0.016975
  26 H :    0.013582
  27 H :    0.024146

  Mayer bond orders larger than 0.100000
B(  0-C ,  1-O ) :   1.7086 B(  0-C ,  2-N ) :   1.1550 B(  0-C , 14-H ) :  -0.2228
B(  0-C , 27-H ) :   0.9243 B(  1-O ,  2-N ) :   0.1008 B(  2-N ,  3-C ) :   0.7565
B(  2-N , 14-H ) :   1.2535 B(  2-N , 15-H ) :   0.1731 B(  3-C ,  4-C ) :   0.9399
B(  3-C ,  6-C ) :   1.0910 B(  3-C , 13-F ) :   0.1315 B(  3-C , 14-H ) :  -0.1819
B(  3-C , 15-H ) :   0.8173 B(  3-C , 18-H ) :   0.1163 B(  4-C ,  5-O ) :   1.7871
B(  4-C , 13-F ) :   0.6516 B(  4-C , 15-H ) :   0.1022 B(  6-C ,  7-C ) :   1.0892
B(  6-C , 15-H ) :   0.2865 B(  6-C , 16-H ) :   1.0486 B(  6-C , 17-H ) :   0.8992
B(  7-C ,  8-C ) :   1.2187 B(  7-C ,  9-N ) :   0.2507 B(  7-C , 16-H ) :   0.1549
B(  7-C , 18-H ) :   1.1412 B(  7-C , 19-H ) :   0.8354 B(  8-C ,  9-N ) :   0.7914
B(  8-C , 19-H ) :   0.1086 B(  8-C , 20-H ) :   0.9163 B(  8-C , 21-H ) :   0.8554
B(  8-C , 22-H ) :  -0.2347 B(  9-N , 10-C ) :   0.9960 B(  9-N , 11-N ) :   0.2027
B(  9-N , 12-N ) :   0.2469 B(  9-N , 20-H ) :   0.1248 B(  9-N , 21-H ) :   0.1973
B(  9-N , 22-H ) :   1.3047 B( 10-C , 11-N ) :   0.9711 B( 10-C , 12-N ) :   0.9250
B( 10-C , 22-H ) :  -0.3197 B( 10-C , 23-H ) :  -0.2031 B( 10-C , 24-H ) :  -0.1317
B( 10-C , 25-H ) :  -0.1421 B( 10-C , 26-H ) :  -0.1516 B( 11-N , 12-N ) :   0.1461
B( 11-N , 23-H ) :   1.2123 B( 11-N , 24-H ) :   1.2859 B( 12-N , 25-H ) :   1.2029
B( 12-N , 26-H ) :   1.2708 B( 23-H , 24-H ) :  -0.2562 B( 25-H , 26-H ) :  -0.2254

Dispersion correction           -0.010717623
FINAL SINGLE POINT ENERGY      -743.683001512723

DIPOLE MOMENT
-------------
                                X             Y             Z
Electronic contribution:      6.25571      -8.36493       5.75795
Nuclear contribution   :     -6.71898      12.17702     -13.99561
                        -----------------------------------------
Total Dipole Moment    :     -0.46327       3.81210      -8.23766
                        -----------------------------------------
Magnitude (a.u.)       :      9.08877
Magnitude (Debye)      :     23.10181

Rotational constants in cm-1:     0.033289     0.009235     0.008067
Rotational constants in MHz :   997.965104   276.867456   241.843739

                             ****ORCA TERMINATED NORMALLY****
TOTAL RUN TIME: 0 days 0 hours 2 minutes 21 seconds 384 msec
