                         Program Version 5.0.0 -  RELEASE  -
|  1> !wB97X-D3 RIJCOSX def2-SVPD def2/J TightSCF CPCM(Water)
|  2> * xyz 0 1
|  3> C          1.53800       -4.97700       -4.91700
|  4> O          1.24100       -3.93800       -5.55900
|  5> N          1.61300       -4.98100       -3.56100
|  6> C          1.54600       -3.85400       -2.67500
|  7> C          2.57600       -4.00200       -1.58200
|  8> O          2.16800       -4.06100       -0.39200
|  9> C          0.04700       -3.60900       -2.27600
| 10> C         -0.85300       -4.82200       -1.87400
| 11> C         -0.78200       -5.27100       -0.39100
| 12> C         -1.52400       -4.37000        0.44200
| 13> C         -1.07200       -3.51000        1.36000
| 14> N          0.20800       -3.20800        1.54900
| 15> N         -2.02800       -2.89100        2.04800
| 16> H          1.70600       -5.83000       -3.11700
| 17> H          1.85900       -2.94900       -3.20200
| 18> H          0.00100       -2.86200       -1.47700
| 19> H         -0.42000       -3.14200       -3.15400
| 20> H         -1.90000       -4.55400       -2.06900
| 21> H         -0.63000       -5.67400       -2.51900
| 22> H         -1.27300       -6.24700       -0.29200
| 23> H          0.24900       -5.42100       -0.06400
| 24> H         -2.48400       -4.35500        0.35500
| 25> H          0.84900       -3.52800        0.90500
| 26> H          0.48100       -2.72000        2.32700
| 27> H         -2.93100       -3.19700        1.89100
| 28> H         -1.82800       -2.14000        2.61300
| 29> N          3.93300       -4.04600       -1.82100
| 30> H          1.72981       -5.84953       -5.43364
| 31> H          4.27193       -4.00121       -2.74423
| 32> H          4.56315       -4.12221       -1.06845
| 33> *
| 34> %MaxCore 64000
| 35> %scf
| 36>   Convergence VeryTight
| 37>   MaxIter 300
| 38> end
| 39> %pal nprocs 8
| 40> end
| 41>
| 42>                          ****END OF INPUT****

CARTESIAN COORDINATES (ANGSTROEM)
---------------------------------
  C      1.538000   -4.977000   -4.917000
  O      1.241000   -3.938000   -5.559000
  N      1.613000   -4.981000   -3.561000
  C      1.546000   -3.854000   -2.675000
  C      2.576000   -4.002000   -1.582000
  O      2.168000   -4.061000   -0.392000
  C      0.047000   -3.609000   -2.276000
  C     -0.853000   -4.822000   -1.874000
  C     -0.782000   -5.271000   -0.391000
  C     -1.524000   -4.370000    0.442000
  C     -1.072000   -3.510000    1.360000
  N      0.208000   -3.208000    1.549000
  N     -2.028000   -2.891000    2.048000
  H      1.706000   -5.830000   -3.117000
  H      1.859000   -2.949000   -3.202000
  H      0.001000   -2.862000   -1.477000
  H     -0.420000   -3.142000   -3.154000
  H     -1.900000   -4.554000   -2.069000
  H     -0.630000   -5.674000   -2.519000
  H     -1.273000   -6.247000   -0.292000
  H      0.249000   -5.421000   -0.064000
  H     -2.484000   -4.355000    0.355000
  H      0.849000   -3.528000    0.905000
  H      0.481000   -2.720000    2.327000
  H     -2.931000   -3.197000    1.891000
  H     -1.828000   -2.140000    2.613000
  N      3.933000   -4.046000   -1.821000
  H      1.729810   -5.849530   -5.433640
  H      4.271930   -4.001210   -2.744230
  H      4.563150   -4.122210   -1.068450

 Total Charge           Charge          ....    0
 Multiplicity           Mult            ....    1
 Number of Electrons    NEL             ....  108
 Basis Dimension        Dim             ....  414

ORBITAL ENERGIES
----------------

  NO   OCC          E(Eh)            E(eV)
   0   2.0000     -19.230144      -523.2788
   1   2.0000     -19.228636      -523.2378
   2   2.0000     -14.474200      -393.8630
   3   2.0000     -14.465283      -393.6204
   4   2.0000     -14.414710      -392.2442
   5   2.0000     -14.414101      -392.2276
   6   2.0000     -10.422383      -283.6075
   7   2.0000     -10.404556      -283.1224
   8   2.0000     -10.351493      -281.6785
   9   2.0000     -10.330757      -281.1142
  10   2.0000     -10.291824      -280.0548
  11   2.0000     -10.275833      -279.6196
  12   2.0000     -10.261508      -279.2298
  13   2.0000     -10.202864      -277.6340
  14   2.0000      -1.151341       -31.3296
  15   2.0000      -1.141575       -31.0638
  16   2.0000      -1.069299       -29.0971
  17   2.0000      -1.052872       -28.6501
  18   2.0000      -1.016879       -27.6707
  19   2.0000      -0.980010       -26.6674
  20   2.0000      -0.904534       -24.6136
  21   2.0000      -0.874108       -23.7857
  22   2.0000      -0.820025       -22.3140
  23   2.0000      -0.767359       -20.8809
  24   2.0000      -0.733959       -19.9720
  25   2.0000      -0.719364       -19.5749
  26   2.0000      -0.692435       -18.8421
  27   2.0000      -0.679579       -18.4923
  28   2.0000      -0.669571       -18.2200
  29   2.0000      -0.651768       -17.7355
  30   2.0000      -0.639575       -17.4037
  31   2.0000      -0.614810       -16.7298
  32   2.0000      -0.605934       -16.4883
  33   2.0000      -0.585425       -15.9302
  34   2.0000      -0.572830       -15.5875
  35   2.0000      -0.561085       -15.2679
  36   2.0000      -0.537066       -14.6143
  37   2.0000      -0.528846       -14.3906
  38   2.0000      -0.520530       -14.1644
  39   2.0000      -0.515494       -14.0273
  40   2.0000      -0.503261       -13.6944
  41   2.0000      -0.496471       -13.5097
  42   2.0000      -0.481208       -13.0943
  43   2.0000      -0.468096       -12.7375
  44   2.0000      -0.455466       -12.3938
  45   2.0000      -0.423584       -11.5263
  46   2.0000      -0.417601       -11.3635
  47   2.0000      -0.409563       -11.1448
  48   2.0000      -0.380854       -10.3636
  49   2.0000      -0.374189       -10.1822
  50   2.0000      -0.372951       -10.1485
  51   2.0000      -0.359288        -9.7767
  52   2.0000      -0.352642        -9.5959
  53   2.0000      -0.242024        -6.5858
  54   0.0000       0.061208         1.6655
  55   0.0000       0.079603         2.1661
  56   0.0000       0.092483         2.5166
  57   0.0000       0.104374         2.8402
  58   0.0000       0.109541         2.9808

MULLIKEN ATOMIC CHARGES
-----------------------
   0 C :    0.980849
   1 O :   -0.517602
   2 N :   -0.088099
   3 C :    0.096812
   4 C :    0.750118
   5 O :   -0.709218
   6 C :    0.217519
   7 C :    0.080679
   8 C :    0.517117
   9 C :    0.109521
  10 C :    0.804137
  11 N :    0.578928
  12 N :    0.140472
  13 H :   -0.340213
  14 H :    0.109278
  15 H :   -0.096416
  16 H :    0.007241
  17 H :    0.078045
  18 H :   -0.194449
  19 H :    0.011916
  20 H :   -0.232032
  21 H :   -0.619553
  22 H :   -0.475761
  23 H :   -0.411709
  24 H :   -0.088280
  25 H :   -0.202202
  26 N :    0.140212
  27 H :   -0.491840
  28 H :   -0.057709
  29 H :   -0.097762
Sum of atomic charges:   -0.0000000

LOEWDIN ATOMIC CHARGES
----------------------
   0 C :    0.108250
   1 O :   -0.292492
   2 N :    0.048671
   3 C :   -0.020459
   4 C :   -0.038185
   5 O :   -0.235139
   6 C :    0.055256
   7 C :   -0.005999
   8 C :   -0.049518
   9 C :   -0.046433
  10 C :   -0.179001
  11 N :    0.259770
  12 N :    0.206521
  13 H :    0.021853
  14 H :    0.063547
  15 H :    0.014426
  16 H :    0.020819
  17 H :    0.020893
  18 H :   -0.001838
  19 H :    0.013348
  20 H :   -0.006717
  21 H :   -0.079892
  22 H :   -0.127735
  23 H :   -0.023288
  24 H :   -0.021387
  25 H :   -0.026232
  26 N :    0.281825
  27 H :    0.018371
  28 H :    0.009023
  29 H :    0.011743

  Mayer bond orders larger than 0.100000
B(  0-C ,  1-O ) :   1.7270 B(  0-C ,  2-N ) :   1.1321 B(  0-C , 13-H ) :  -0.2113
B(  0-C , 27-H ) :   0.9487 B(  2-N ,  3-C ) :   0.8114 B(  2-N ,  6-C ) :   0.1090
B(  2-N , 13-H ) :   1.2931 B(  2-N , 14-H ) :   0.1992 B(  3-C ,  4-C ) :   0.8987
B(  3-C ,  5-O ) :   0.1052 B(  3-C ,  6-C ) :   1.2488 B(  3-C , 13-H ) :  -0.2219
B(  3-C , 14-H ) :   0.7317 B(  3-C , 16-H ) :   0.2952 B(  4-C ,  5-O ) :   1.5990
B(  4-C , 26-N ) :   1.0561 B(  4-C , 28-H ) :  -0.1210 B(  5-O , 20-H ) :   0.1195
B(  5-O , 22-H ) :   0.1841 B(  5-O , 26-N ) :   0.1688 B(  6-C ,  7-C ) :   1.2151
B(  6-C , 14-H ) :   0.1771 B(  6-C , 15-H ) :   0.8768 B(  6-C , 16-H ) :   0.7410
B(  6-C , 17-H ) :   0.1610 B(  6-C , 18-H ) :   0.1732 B(  7-C ,  8-C ) :   1.2117
B(  7-C , 15-H ) :   0.1305 B(  7-C , 17-H ) :   0.7333 B(  7-C , 18-H ) :   0.9375
B(  7-C , 19-H ) :   0.1010 B(  7-C , 20-H ) :   0.1988 B(  8-C ,  9-C ) :   1.0322
B(  8-C , 17-H ) :   0.1266 B(  8-C , 18-H ) :   0.1438 B(  8-C , 19-H ) :   0.7636
B(  8-C , 20-H ) :   0.7556 B(  8-C , 21-H ) :   0.2120 B(  9-C , 10-C ) :   1.6670
B(  9-C , 11-N ) :   0.1524 B(  9-C , 12-N ) :   0.3323 B(  9-C , 19-H ) :   0.1019
B(  9-C , 20-H ) :   0.2671 B(  9-C , 21-H ) :   0.6751 B(  9-C , 22-H ) :  -0.1786
B( 10-C , 11-N ) :   1.0636 B( 10-C , 12-N ) :   0.8464 B( 10-C , 20-H ) :  -0.1053
B( 10-C , 23-H ) :  -0.2672 B( 10-C , 24-H ) :  -0.1533 B( 11-N , 22-H ) :   1.1116
B( 11-N , 23-H ) :   1.3120 B( 12-N , 21-H ) :   0.1563 B( 12-N , 24-H ) :   1.2177
B( 12-N , 25-H ) :   1.2197 B( 15-H , 16-H ) :  -0.1179 B( 16-H , 18-H ) :   0.1206
B( 17-H , 18-H ) :  -0.1110 B( 22-H , 23-H ) :  -0.2536 B( 24-H , 25-H ) :  -0.1996
B( 26-N , 28-H ) :   1.2215 B( 26-N , 29-H ) :   1.1683 B( 28-H , 29-H ) :  -0.1823

Dispersion correction           -0.013748841
FINAL SINGLE POINT ENERGY      -683.310793498855

DIPOLE MOMENT
-------------
                                X             Y             Z
Electronic contribution:      7.61832       0.51349      -4.41090
Nuclear contribution   :     -5.63127      -0.97051       5.00531
                        -----------------------------------------
Total Dipole Moment    :      1.98705      -0.45702       0.59441
                        -----------------------------------------
Magnitude (a.u.)       :      2.12381
Magnitude (Debye)      :      5.39829

Rotational constants in cm-1:     0.038005     0.012047     0.010017
Rotational constants in MHz :  1139.369803   361.146120   300.310336

                             ****ORCA TERMINATED NORMALLY****
TOTAL RUN TIME: 0 days 0 hours 2 minutes 37 seconds 403 msec
