                         Program Version 5.0.0 -  RELEASE  -
|  1> !wB97X-D3 RIJCOSX def2-SVPD def2/J TightSCF CPCM(Water)
|  2> * xyz 1 1
|  3> C         -1.11600        3.62600        5.13500
|  4> O         -2.06600        3.92400        5.89200
|  5> N         -1.10700        2.39300        4.56500
|  6> C         -2.21900        1.44900        4.59700
|  7> C         -1.88400        0.00100        4.44000
|  8> F         -2.28500       -0.84500        5.27400
|  9> C         -3.26900        1.89400        3.53500
| 10> C         -2.71500        1.94900        2.08000
| 11> C         -3.70200        2.64300        1.11500
| 12> N         -2.96300        3.24000        0.04500
| 13> C         -3.44800        4.21300       -0.73800
| 14> N         -4.67600        4.71000       -0.66000
| 15> N         -2.63900        4.70900       -1.65200
| 16> O         -1.29800       -0.44500        3.42400
| 17> H         -0.30400        2.18200        4.06000
| 18> H         -2.70900        1.50900        5.57900
| 19> H         -4.13300        1.22100        3.55400
| 20> H         -3.64800        2.87600        3.83500
| 21> H         -1.75700        2.48100        2.07200
| 22> H         -2.51800        0.93600        1.70900
| 23> H         -4.43400        1.92300        0.72600
| 24> H         -4.26600        3.41200        1.65600
| 25> H         -2.05800        2.93000       -0.11500
| 26> H         -5.31200        4.40300       -0.00700
| 27> H         -4.95700        5.31000       -1.35600
| 28> H         -1.77400        4.30600       -1.78700
| 29> H         -2.91600        5.48000       -2.15200
| 30> H         -0.35752        4.30036        4.94800
| 31> *
| 32> %MaxCore 64000
| 33> %scf
| 34>   Convergence VeryTight
| 35>   MaxIter 300
| 36> end
| 37> %pal nprocs 8
| 38> end
| 39>
| 40>                          ****END OF INPUT****

CARTESIAN COORDINATES (ANGSTROEM)
---------------------------------
  C     -1.116000    3.626000    5.135000
  O     -2.066000    3.924000    5.892000
  N     -1.107000    2.393000    4.565000
  C     -2.219000    1.449000    4.597000
  C     -1.884000    0.001000    4.440000
  F     -2.285000   -0.845000    5.274000
  C     -3.269000    1.894000    3.535000
  C     -2.715000    1.949000    2.080000
  C     -3.702000    2.643000    1.115000
  N     -2.963000    3.240000    0.045000
  C     -3.448000    4.213000   -0.738000
  N     -4.676000    4.710000   -0.660000
  N     -2.639000    4.709000   -1.652000
  O     -1.298000   -0.445000    3.424000
  H     -0.304000    2.182000    4.060000
  H     -2.709000    1.509000    5.579000
  H     -4.133000    1.221000    3.554000
  H     -3.648000    2.876000    3.835000
  H     -1.757000    2.481000    2.072000
  H     -2.518000    0.936000    1.709000
  H     -4.434000    1.923000    0.726000
  H     -4.266000    3.412000    1.656000
  H     -2.058000    2.930000   -0.115000
  H     -5.312000    4.403000   -0.007000
  H     -4.957000    5.310000   -1.356000
  H     -1.774000    4.306000   -1.787000
  H     -2.916000    5.480000   -2.152000
  H     -0.357520    4.300360    4.948000

 Total Charge           Charge          ....    1
 Multiplicity           Mult            ....    1
 Number of Electrons    NEL             ....  108
 Basis Dimension        Dim             ....  401

ORBITAL ENERGIES
----------------

  NO   OCC          E(Eh)            E(eV)
   0   2.0000     -24.880180      -677.0241
   1   2.0000     -19.271033      -524.3915
   2   2.0000     -19.230459      -523.2874
   3   2.0000     -14.488420      -394.2500
   4   2.0000     -14.482983      -394.1020
   5   2.0000     -14.482164      -394.0797
   6   2.0000     -14.474817      -393.8798
   7   2.0000     -10.492146      -285.5058
   8   2.0000     -10.457203      -284.5550
   9   2.0000     -10.408603      -283.2325
  10   2.0000     -10.375009      -282.3183
  11   2.0000     -10.340236      -281.3721
  12   2.0000     -10.313802      -280.6528
  13   2.0000     -10.303698      -280.3779
  14   2.0000      -1.433990       -39.0209
  15   2.0000      -1.163467       -31.6596
  16   2.0000      -1.160763       -31.5860
  17   2.0000      -1.151254       -31.3272
  18   2.0000      -1.058102       -28.7924
  19   2.0000      -1.052385       -28.6368
  20   2.0000      -1.038662       -28.2634
  21   2.0000      -0.928367       -25.2622
  22   2.0000      -0.885967       -24.1084
  23   2.0000      -0.817483       -22.2448
  24   2.0000      -0.779364       -21.2076
  25   2.0000      -0.771119       -20.9832
  26   2.0000      -0.746911       -20.3245
  27   2.0000      -0.730406       -19.8754
  28   2.0000      -0.718811       -19.5598
  29   2.0000      -0.695147       -18.9159
  30   2.0000      -0.685063       -18.6415
  31   2.0000      -0.662959       -18.0400
  32   2.0000      -0.645008       -17.5516
  33   2.0000      -0.631149       -17.1744
  34   2.0000      -0.629953       -17.1419
  35   2.0000      -0.620519       -16.8852
  36   2.0000      -0.605372       -16.4730
  37   2.0000      -0.589310       -16.0359
  38   2.0000      -0.586218       -15.9518
  39   2.0000      -0.560509       -15.2522
  40   2.0000      -0.552703       -15.0398
  41   2.0000      -0.535449       -14.5703
  42   2.0000      -0.520481       -14.1630
  43   2.0000      -0.504462       -13.7271
  44   2.0000      -0.498548       -13.5662
  45   2.0000      -0.472392       -12.8545
  46   2.0000      -0.461826       -12.5669
  47   2.0000      -0.458820       -12.4851
  48   2.0000      -0.445671       -12.1273
  49   2.0000      -0.409567       -11.1449
  50   2.0000      -0.402997       -10.9661
  51   2.0000      -0.377250       -10.2655
  52   2.0000      -0.374035       -10.1780
  53   2.0000      -0.369899       -10.0655
  54   0.0000       0.028223         0.7680
  55   0.0000       0.071676         1.9504
  56   0.0000       0.082752         2.2518
  57   0.0000       0.085166         2.3175
  58   0.0000       0.093479         2.5437

MULLIKEN ATOMIC CHARGES
-----------------------
   0 C :    0.991709
   1 O :   -0.541043
   2 N :   -0.018511
   3 C :    0.321374
   4 C :    1.044403
   5 F :   -0.392382
   6 C :    0.109085
   7 C :   -0.157341
   8 C :    0.719144
   9 N :   -0.354843
  10 C :    1.389627
  11 N :    0.132718
  12 N :    0.135552
  13 O :   -0.569316
  14 H :   -0.398840
  15 H :   -0.020039
  16 H :   -0.100500
  17 H :    0.022722
  18 H :   -0.111119
  19 H :    0.051583
  20 H :   -0.012975
  21 H :    0.071133
  22 H :   -0.344667
  23 H :   -0.122200
  24 H :   -0.160880
  25 H :   -0.080231
  26 H :   -0.134982
  27 H :   -0.469179
Sum of atomic charges:    1.0000000

LOEWDIN ATOMIC CHARGES
----------------------
   0 C :    0.114050
   1 O :   -0.283578
   2 N :    0.067408
   3 C :   -0.006986
   4 C :    0.046178
   5 F :   -0.023733
   6 C :    0.057581
   7 C :    0.011774
   8 C :    0.072233
   9 N :    0.053115
  10 C :    0.021989
  11 N :    0.326013
  12 N :    0.300634
  13 O :   -0.151783
  14 H :    0.024067
  15 H :    0.063265
  16 H :    0.046634
  17 H :    0.028537
  18 H :    0.023336
  19 H :    0.020481
  20 H :    0.048681
  21 H :    0.037425
  22 H :    0.033989
  23 H :   -0.001820
  24 H :    0.015698
  25 H :    0.016884
  26 H :    0.013465
  27 H :    0.024463

  Mayer bond orders larger than 0.100000
B(  0-C ,  1-O ) :   1.7128 B(  0-C ,  2-N ) :   1.1526 B(  0-C , 14-H ) :  -0.2250
B(  0-C , 27-H ) :   0.9242 B(  1-O ,  2-N ) :   0.1001 B(  2-N ,  3-C ) :   0.7828
B(  2-N , 14-H ) :   1.2548 B(  2-N , 15-H ) :   0.1775 B(  3-C ,  4-C ) :   0.9421
B(  3-C ,  5-F ) :   0.1130 B(  3-C ,  6-C ) :   1.0982 B(  3-C ,  7-C ) :   0.1070
B(  3-C , 14-H ) :  -0.1943 B(  3-C , 15-H ) :   0.8109 B(  3-C , 18-H ) :   0.1101
B(  4-C ,  5-F ) :   0.6132 B(  4-C , 13-O ) :   1.7983 B(  6-C ,  7-C ) :   1.1243
B(  6-C , 15-H ) :   0.2792 B(  6-C , 16-H ) :   1.0188 B(  6-C , 17-H ) :   0.9053
B(  7-C ,  8-C ) :   1.1957 B(  7-C ,  9-N ) :   0.2551 B(  7-C , 16-H ) :   0.1639
B(  7-C , 18-H ) :   1.1357 B(  7-C , 19-H ) :   0.8534 B(  8-C ,  9-N ) :   0.7902
B(  8-C , 20-H ) :   0.9165 B(  8-C , 21-H ) :   0.8581 B(  8-C , 22-H ) :  -0.2392
B(  9-N , 10-C ) :   0.9957 B(  9-N , 11-N ) :   0.2028 B(  9-N , 12-N ) :   0.2474
B(  9-N , 20-H ) :   0.1235 B(  9-N , 21-H ) :   0.1958 B(  9-N , 22-H ) :   1.3074
B( 10-C , 11-N ) :   0.9713 B( 10-C , 12-N ) :   0.9256 B( 10-C , 22-H ) :  -0.3225
B( 10-C , 23-H ) :  -0.2037 B( 10-C , 24-H ) :  -0.1314 B( 10-C , 25-H ) :  -0.1421
B( 10-C , 26-H ) :  -0.1511 B( 11-N , 12-N ) :   0.1461 B( 11-N , 23-H ) :   1.2124
B( 11-N , 24-H ) :   1.2854 B( 12-N , 25-H ) :   1.2030 B( 12-N , 26-H ) :   1.2704
B( 23-H , 24-H ) :  -0.2562 B( 25-H , 26-H ) :  -0.2253

Dispersion correction           -0.010741405
FINAL SINGLE POINT ENERGY      -743.682458939852

DIPOLE MOMENT
-------------
                                X             Y             Z
Electronic contribution:      4.41930      -9.15161       9.23170
Nuclear contribution   :     -5.61306      12.62522     -16.06851
                        -----------------------------------------
Total Dipole Moment    :     -1.19376       3.47361      -6.83680
                        -----------------------------------------
Magnitude (a.u.)       :      7.76098
Magnitude (Debye)      :     19.72685

Rotational constants in cm-1:     0.033669     0.009106     0.007978
Rotational constants in MHz :  1009.359196   272.983687   239.182660

                             ****ORCA TERMINATED NORMALLY****
TOTAL RUN TIME: 0 days 0 hours 2 minutes 13 seconds 794 msec
