                         Program Version 5.0.0 -  RELEASE  -
|  1> !wB97X-D3 RIJCOSX def2-SVPD def2/J TightSCF CPCM(Water)
|  2> * xyz 0 1
|  3> C          1.53800       -4.97700       -4.91700
|  4> O          1.24100       -3.93800       -5.55900
|  5> N          1.61300       -4.98100       -3.56100
|  6> C          1.54600       -3.85400       -2.67500
|  7> C          2.57600       -4.00200       -1.58200
|  8> O          2.16800       -4.06100       -0.39200
|  9> C          0.04700       -3.60900       -2.27600
| 10> C         -0.85300       -4.82200       -1.87400
| 11> C         -0.78200       -5.27100       -0.39100
| 12> N         -1.52400       -4.37000        0.44200
| 13> C         -1.07200       -3.51000        1.36000
| 14> C          0.20800       -3.20800        1.54900
| 15> N         -2.02800       -2.89100        2.04800
| 16> H          1.70600       -5.83000       -3.11700
| 17> H          1.85900       -2.94900       -3.20200
| 18> H          0.00100       -2.86200       -1.47700
| 19> H         -0.42000       -3.14200       -3.15400
| 20> H         -1.90000       -4.55400       -2.06900
| 21> H         -0.63000       -5.67400       -2.51900
| 22> H         -1.27300       -6.24700       -0.29200
| 23> H          0.24900       -5.42100       -0.06400
| 24> H         -2.48400       -4.35500        0.35500
| 25> H          0.84900       -3.52800        0.90500
| 26> H          0.48100       -2.72000        2.32700
| 27> H         -2.93100       -3.19700        1.89100
| 28> H         -1.82800       -2.14000        2.61300
| 29> N          3.93300       -4.04600       -1.82100
| 30> H          1.72981       -5.84953       -5.43364
| 31> H          4.27193       -4.00121       -2.74423
| 32> H          4.56315       -4.12221       -1.06845
| 33> *
| 34> %MaxCore 64000
| 35> %scf
| 36>   Convergence VeryTight
| 37>   MaxIter 300
| 38> end
| 39> %pal nprocs 8
| 40> end
| 41>
| 42>                          ****END OF INPUT****

CARTESIAN COORDINATES (ANGSTROEM)
---------------------------------
  C      1.538000   -4.977000   -4.917000
  O      1.241000   -3.938000   -5.559000
  N      1.613000   -4.981000   -3.561000
  C      1.546000   -3.854000   -2.675000
  C      2.576000   -4.002000   -1.582000
  O      2.168000   -4.061000   -0.392000
  C      0.047000   -3.609000   -2.276000
  C     -0.853000   -4.822000   -1.874000
  C     -0.782000   -5.271000   -0.391000
  N     -1.524000   -4.370000    0.442000
  C     -1.072000   -3.510000    1.360000
  C      0.208000   -3.208000    1.549000
  N     -2.028000   -2.891000    2.048000
  H      1.706000   -5.830000   -3.117000
  H      1.859000   -2.949000   -3.202000
  H      0.001000   -2.862000   -1.477000
  H     -0.420000   -3.142000   -3.154000
  H     -1.900000   -4.554000   -2.069000
  H     -0.630000   -5.674000   -2.519000
  H     -1.273000   -6.247000   -0.292000
  H      0.249000   -5.421000   -0.064000
  H     -2.484000   -4.355000    0.355000
  H      0.849000   -3.528000    0.905000
  H      0.481000   -2.720000    2.327000
  H     -2.931000   -3.197000    1.891000
  H     -1.828000   -2.140000    2.613000
  N      3.933000   -4.046000   -1.821000
  H      1.729810   -5.849530   -5.433640
  H      4.271930   -4.001210   -2.744230
  H      4.563150   -4.122210   -1.068450

 Total Charge           Charge          ....    0
 Multiplicity           Mult            ....    1
 Number of Electrons    NEL             ....  108
 Basis Dimension        Dim             ....  414

ORBITAL ENERGIES
----------------

  NO   OCC          E(Eh)            E(eV)
   0   2.0000     -19.228901      -523.2450
   1   2.0000     -19.223308      -523.0928
   2   2.0000     -14.474469      -393.8703
   3   2.0000     -14.462414      -393.5423
   4   2.0000     -14.427969      -392.6050
   5   2.0000     -14.419663      -392.3790
   6   2.0000     -10.417469      -283.4737
   7   2.0000     -10.404833      -283.1299
   8   2.0000     -10.351657      -281.6829
   9   2.0000     -10.336922      -281.2820
  10   2.0000     -10.311775      -280.5977
  11   2.0000     -10.295057      -280.1427
  12   2.0000     -10.285723      -279.8888
  13   2.0000     -10.185689      -277.1667
  14   2.0000      -1.148253       -31.2456
  15   2.0000      -1.139830       -31.0164
  16   2.0000      -1.083035       -29.4709
  17   2.0000      -1.052885       -28.6504
  18   2.0000      -1.013914       -27.5900
  19   2.0000      -0.993243       -27.0275
  20   2.0000      -0.898671       -24.4541
  21   2.0000      -0.856319       -23.3016
  22   2.0000      -0.827312       -22.5123
  23   2.0000      -0.787357       -21.4251
  24   2.0000      -0.734877       -19.9970
  25   2.0000      -0.724357       -19.7108
  26   2.0000      -0.688917       -18.7464
  27   2.0000      -0.675189       -18.3728
  28   2.0000      -0.668696       -18.1961
  29   2.0000      -0.648037       -17.6340
  30   2.0000      -0.638511       -17.3748
  31   2.0000      -0.628552       -17.1038
  32   2.0000      -0.604886       -16.4598
  33   2.0000      -0.579089       -15.7578
  34   2.0000      -0.572815       -15.5871
  35   2.0000      -0.559903       -15.2357
  36   2.0000      -0.537670       -14.6307
  37   2.0000      -0.528712       -14.3870
  38   2.0000      -0.521073       -14.1791
  39   2.0000      -0.511812       -13.9271
  40   2.0000      -0.498644       -13.5688
  41   2.0000      -0.497275       -13.5315
  42   2.0000      -0.484619       -13.1872
  43   2.0000      -0.480094       -13.0640
  44   2.0000      -0.456745       -12.4287
  45   2.0000      -0.441637       -12.0176
  46   2.0000      -0.430242       -11.7075
  47   2.0000      -0.424198       -11.5430
  48   2.0000      -0.377869       -10.2823
  49   2.0000      -0.374332       -10.1861
  50   2.0000      -0.369204       -10.0465
  51   2.0000      -0.358269        -9.7490
  52   2.0000      -0.333936        -9.0869
  53   2.0000      -0.257560        -7.0086
  54   0.0000       0.063286         1.7221
  55   0.0000       0.080287         2.1847
  56   0.0000       0.092278         2.5110
  57   0.0000       0.103319         2.8115
  58   0.0000       0.107974         2.9381

MULLIKEN ATOMIC CHARGES
-----------------------
   0 C :    0.985467
   1 O :   -0.517148
   2 N :   -0.099218
   3 C :    0.047810
   4 C :    0.803650
   5 O :   -0.674123
   6 C :    0.251951
   7 C :    0.021477
   8 C :    1.065126
   9 N :   -0.494326
  10 C :    0.875378
  11 C :    1.121694
  12 N :    0.234426
  13 H :   -0.334313
  14 H :    0.120134
  15 H :   -0.069116
  16 H :   -0.023466
  17 H :    0.077786
  18 H :   -0.178690
  19 H :   -0.163456
  20 H :   -0.151971
  21 H :   -0.380814
  22 H :   -0.837996
  23 H :   -0.871816
  24 H :   -0.143415
  25 H :   -0.155889
  26 N :    0.145575
  27 H :   -0.493043
  28 H :   -0.062937
  29 H :   -0.098736
Sum of atomic charges:    0.0000000

LOEWDIN ATOMIC CHARGES
----------------------
   0 C :    0.108625
   1 O :   -0.292006
   2 N :    0.048471
   3 C :   -0.019876
   4 C :   -0.040608
   5 O :   -0.241933
   6 C :    0.057508
   7 C :    0.011209
   8 C :    0.080859
   9 N :   -0.001993
  10 C :   -0.196811
  11 C :    0.168251
  12 N :    0.219212
  13 H :    0.022037
  14 H :    0.063729
  15 H :    0.013653
  16 H :    0.022260
  17 H :    0.022655
  18 H :    0.005232
  19 H :    0.026007
  20 H :    0.005119
  21 H :    0.000242
  22 H :   -0.220940
  23 H :   -0.134066
  24 H :   -0.023989
  25 H :   -0.015755
  26 N :    0.277550
  27 H :    0.018464
  28 H :    0.006885
  29 H :    0.010008

  Mayer bond orders larger than 0.100000
B(  0-C ,  1-O ) :   1.7280 B(  0-C ,  2-N ) :   1.1300 B(  0-C , 13-H ) :  -0.2122
B(  0-C , 27-H ) :   0.9469 B(  2-N ,  3-C ) :   0.8084 B(  2-N ,  6-C ) :   0.1133
B(  2-N , 13-H ) :   1.3019 B(  2-N , 14-H ) :   0.1944 B(  3-C ,  4-C ) :   0.8885
B(  3-C ,  5-O ) :   0.1303 B(  3-C ,  6-C ) :   1.2404 B(  3-C , 13-H ) :  -0.2203
B(  3-C , 14-H ) :   0.7429 B(  3-C , 15-H ) :   0.1281 B(  3-C , 16-H ) :   0.3086
B(  4-C ,  5-O ) :   1.5849 B(  4-C , 26-N ) :   1.0520 B(  4-C , 28-H ) :  -0.1226
B(  5-O , 22-H ) :   0.2323 B(  5-O , 26-N ) :   0.1564 B(  6-C ,  7-C ) :   1.1994
B(  6-C , 14-H ) :   0.1802 B(  6-C , 15-H ) :   0.8702 B(  6-C , 16-H ) :   0.7500
B(  6-C , 17-H ) :   0.1487 B(  6-C , 18-H ) :   0.1826 B(  7-C ,  8-C ) :   1.0982
B(  7-C ,  9-N ) :   0.1059 B(  7-C , 15-H ) :   0.1255 B(  7-C , 17-H ) :   0.7866
B(  7-C , 18-H ) :   0.9455 B(  7-C , 19-H ) :   0.1015 B(  7-C , 20-H ) :   0.1722
B(  8-C ,  9-N ) :   0.8682 B(  8-C , 18-H ) :   0.1186 B(  8-C , 19-H ) :   0.8351
B(  8-C , 20-H ) :   0.7512 B(  8-C , 21-H ) :  -0.2287 B(  9-N , 10-C ) :   0.7315
B(  9-N , 11-C ) :   0.2984 B(  9-N , 12-N ) :   0.1842 B(  9-N , 19-H ) :   0.1219
B(  9-N , 20-H ) :   0.1619 B(  9-N , 21-H ) :   1.5217 B( 10-C , 11-C ) :   1.6837
B( 10-C , 12-N ) :   0.9428 B( 10-C , 21-H ) :  -0.4044 B( 10-C , 22-H ) :   0.2270
B( 10-C , 23-H ) :   0.1068 B( 10-C , 25-H ) :  -0.1189 B( 11-C , 12-N ) :   0.2779
B( 11-C , 22-H ) :  -0.1335 B( 11-C , 23-H ) :   0.5972 B( 12-N , 24-H ) :   1.0970
B( 12-N , 25-H ) :   1.2678 B( 15-H , 16-H ) :  -0.1298 B( 16-H , 18-H ) :   0.1235
B( 19-H , 20-H ) :  -0.1096 B( 22-H , 23-H ) :  -0.2267 B( 24-H , 25-H ) :  -0.2125
B( 26-N , 28-H ) :   1.2245 B( 26-N , 29-H ) :   1.1653 B( 28-H , 29-H ) :  -0.1848

Dispersion correction           -0.013745382
FINAL SINGLE POINT ENERGY      -683.290188314618

DIPOLE MOMENT
-------------
                                X             Y             Z
Electronic contribution:      5.56494      -0.79549      -5.71338
Nuclear contribution   :     -5.38076      -0.80245       5.16542
                        -----------------------------------------
Total Dipole Moment    :      0.18418      -1.59794      -0.54796
                        -----------------------------------------
Magnitude (a.u.)       :      1.69929
Magnitude (Debye)      :      4.31925

Rotational constants in cm-1:     0.038058     0.012067     0.010037
Rotational constants in MHz :  1140.953713   361.747905   300.904328

                             ****ORCA TERMINATED NORMALLY****
TOTAL RUN TIME: 0 days 0 hours 2 minutes 38 seconds 326 msec
