                         Program Version 5.0.0 -  RELEASE  -
|  1> !wB97X-D3 RIJCOSX def2-SVPD def2/J TightSCF CPCM(Water)
|  2> * xyz 0 1
|  3> C          1.53800       -4.97700       -4.91700
|  4> O          1.24100       -3.93800       -5.55900
|  5> N          1.61300       -4.98100       -3.56100
|  6> C          1.54600       -3.85400       -2.67500
|  7> C          2.57600       -4.00200       -1.58200
|  8> O          2.16800       -4.06100       -0.39200
|  9> C          0.04700       -3.60900       -2.27600
| 10> C         -0.85300       -4.82200       -1.87400
| 11> C         -0.78200       -5.27100       -0.39100
| 12> N         -1.52400       -4.37000        0.44200
| 13> C         -1.07200       -3.51000        1.36000
| 14> N          0.20800       -3.20800        1.54900
| 15> C         -2.02800       -2.89100        2.04800
| 16> H          1.70600       -5.83000       -3.11700
| 17> H          1.85900       -2.94900       -3.20200
| 18> H          0.00100       -2.86200       -1.47700
| 19> H         -0.42000       -3.14200       -3.15400
| 20> H         -1.90000       -4.55400       -2.06900
| 21> H         -0.63000       -5.67400       -2.51900
| 22> H         -1.27300       -6.24700       -0.29200
| 23> H          0.24900       -5.42100       -0.06400
| 24> H         -2.48400       -4.35500        0.35500
| 25> H          0.84900       -3.52800        0.90500
| 26> H          0.48100       -2.72000        2.32700
| 27> H         -2.93100       -3.19700        1.89100
| 28> H         -1.82800       -2.14000        2.61300
| 29> N          3.93300       -4.04600       -1.82100
| 30> H          1.72981       -5.84953       -5.43364
| 31> H          4.27193       -4.00121       -2.74423
| 32> H          4.56315       -4.12221       -1.06845
| 33> *
| 34> %MaxCore 64000
| 35> %scf
| 36>   Convergence VeryTight
| 37>   MaxIter 300
| 38> end
| 39> %pal nprocs 8
| 40> end
| 41>
| 42>                          ****END OF INPUT****

CARTESIAN COORDINATES (ANGSTROEM)
---------------------------------
  C      1.538000   -4.977000   -4.917000
  O      1.241000   -3.938000   -5.559000
  N      1.613000   -4.981000   -3.561000
  C      1.546000   -3.854000   -2.675000
  C      2.576000   -4.002000   -1.582000
  O      2.168000   -4.061000   -0.392000
  C      0.047000   -3.609000   -2.276000
  C     -0.853000   -4.822000   -1.874000
  C     -0.782000   -5.271000   -0.391000
  N     -1.524000   -4.370000    0.442000
  C     -1.072000   -3.510000    1.360000
  N      0.208000   -3.208000    1.549000
  C     -2.028000   -2.891000    2.048000
  H      1.706000   -5.830000   -3.117000
  H      1.859000   -2.949000   -3.202000
  H      0.001000   -2.862000   -1.477000
  H     -0.420000   -3.142000   -3.154000
  H     -1.900000   -4.554000   -2.069000
  H     -0.630000   -5.674000   -2.519000
  H     -1.273000   -6.247000   -0.292000
  H      0.249000   -5.421000   -0.064000
  H     -2.484000   -4.355000    0.355000
  H      0.849000   -3.528000    0.905000
  H      0.481000   -2.720000    2.327000
  H     -2.931000   -3.197000    1.891000
  H     -1.828000   -2.140000    2.613000
  N      3.933000   -4.046000   -1.821000
  H      1.729810   -5.849530   -5.433640
  H      4.271930   -4.001210   -2.744230
  H      4.563150   -4.122210   -1.068450

 Total Charge           Charge          ....    0
 Multiplicity           Mult            ....    1
 Number of Electrons    NEL             ....  108
 Basis Dimension        Dim             ....  414

ORBITAL ENERGIES
----------------

  NO   OCC          E(Eh)            E(eV)
   0   2.0000     -19.232196      -523.3347
   1   2.0000     -19.229546      -523.2625
   2   2.0000     -14.475515      -393.8988
   3   2.0000     -14.466459      -393.6523
   4   2.0000     -14.427254      -392.5856
   5   2.0000     -14.417734      -392.3265
   6   2.0000     -10.424287      -283.6593
   7   2.0000     -10.405556      -283.1496
   8   2.0000     -10.354106      -281.7496
   9   2.0000     -10.340386      -281.3762
  10   2.0000     -10.312606      -280.6203
  11   2.0000     -10.297336      -280.2048
  12   2.0000     -10.286103      -279.8991
  13   2.0000     -10.191474      -277.3241
  14   2.0000      -1.153149       -31.3788
  15   2.0000      -1.142749       -31.0958
  16   2.0000      -1.077530       -29.3211
  17   2.0000      -1.054421       -28.6922
  18   2.0000      -1.018098       -27.7039
  19   2.0000      -0.998760       -27.1776
  20   2.0000      -0.903124       -24.5753
  21   2.0000      -0.869678       -23.6651
  22   2.0000      -0.823282       -22.4026
  23   2.0000      -0.773624       -21.0514
  24   2.0000      -0.735761       -20.0211
  25   2.0000      -0.719130       -19.5685
  26   2.0000      -0.709699       -19.3119
  27   2.0000      -0.686287       -18.6748
  28   2.0000      -0.675058       -18.3693
  29   2.0000      -0.649752       -17.6807
  30   2.0000      -0.640838       -17.4381
  31   2.0000      -0.607601       -16.5337
  32   2.0000      -0.607108       -16.5203
  33   2.0000      -0.587053       -15.9745
  34   2.0000      -0.574813       -15.6415
  35   2.0000      -0.563469       -15.3328
  36   2.0000      -0.542806       -14.7705
  37   2.0000      -0.529734       -14.4148
  38   2.0000      -0.524839       -14.2816
  39   2.0000      -0.508781       -13.8446
  40   2.0000      -0.504075       -13.7166
  41   2.0000      -0.497514       -13.5380
  42   2.0000      -0.487821       -13.2743
  43   2.0000      -0.481071       -13.0906
  44   2.0000      -0.468072       -12.7369
  45   2.0000      -0.443460       -12.0672
  46   2.0000      -0.431418       -11.7395
  47   2.0000      -0.426403       -11.6030
  48   2.0000      -0.383051       -10.4233
  49   2.0000      -0.376781       -10.2527
  50   2.0000      -0.374702       -10.1962
  51   2.0000      -0.361524        -9.8376
  52   2.0000      -0.340196        -9.2572
  53   2.0000      -0.253635        -6.9018
  54   0.0000       0.059802         1.6273
  55   0.0000       0.078537         2.1371
  56   0.0000       0.091154         2.4804
  57   0.0000       0.101282         2.7560
  58   0.0000       0.108471         2.9517

MULLIKEN ATOMIC CHARGES
-----------------------
   0 C :    0.983959
   1 O :   -0.517318
   2 N :   -0.099212
   3 C :    0.084730
   4 C :    0.768982
   5 O :   -0.730943
   6 C :    0.266021
   7 C :    0.040326
   8 C :    1.062738
   9 N :   -0.279451
  10 C :    0.401469
  11 N :    0.812452
  12 C :    0.752814
  13 H :   -0.335012
  14 H :    0.120537
  15 H :   -0.060923
  16 H :   -0.022989
  17 H :    0.047963
  18 H :   -0.160236
  19 H :   -0.165421
  20 H :   -0.257025
  21 H :   -0.323677
  22 H :   -0.611291
  23 H :   -0.350737
  24 H :   -0.377473
  25 H :   -0.546962
  26 N :    0.144105
  27 H :   -0.491029
  28 H :   -0.058863
  29 H :   -0.097532
Sum of atomic charges:    0.0000000

LOEWDIN ATOMIC CHARGES
----------------------
   0 C :    0.109654
   1 O :   -0.290850
   2 N :    0.048871
   3 C :   -0.019427
   4 C :   -0.037327
   5 O :   -0.236535
   6 C :    0.055530
   7 C :    0.009022
   8 C :    0.075180
   9 N :   -0.003702
  10 C :   -0.195402
  11 N :    0.262068
  12 C :    0.130098
  13 H :    0.022434
  14 H :    0.064842
  15 H :    0.016841
  16 H :    0.023331
  17 H :    0.023747
  18 H :    0.005601
  19 H :    0.024874
  20 H :    0.003055
  21 H :    0.002956
  22 H :   -0.131840
  23 H :   -0.013281
  24 H :   -0.135424
  25 H :   -0.138865
  26 N :    0.283378
  27 H :    0.018855
  28 H :    0.009796
  29 H :    0.012519

  Mayer bond orders larger than 0.100000
B(  0-C ,  1-O ) :   1.7282 B(  0-C ,  2-N ) :   1.1285 B(  0-C , 13-H ) :  -0.2122
B(  0-C , 27-H ) :   0.9485 B(  2-N ,  3-C ) :   0.8138 B(  2-N ,  6-C ) :   0.1080
B(  2-N , 13-H ) :   1.2985 B(  2-N , 14-H ) :   0.1927 B(  3-C ,  4-C ) :   0.9042
B(  3-C ,  5-O ) :   0.1158 B(  3-C ,  6-C ) :   1.2479 B(  3-C , 13-H ) :  -0.2182
B(  3-C , 14-H ) :   0.7249 B(  3-C , 15-H ) :   0.1028 B(  3-C , 16-H ) :   0.2986
B(  4-C ,  5-O ) :   1.5806 B(  4-C , 26-N ) :   1.0559 B(  4-C , 28-H ) :  -0.1244
B(  5-O , 20-H ) :   0.1199 B(  5-O , 22-H ) :   0.2041 B(  5-O , 26-N ) :   0.1696
B(  6-C ,  7-C ) :   1.1945 B(  6-C , 14-H ) :   0.1776 B(  6-C , 15-H ) :   0.8542
B(  6-C , 16-H ) :   0.7324 B(  6-C , 17-H ) :   0.1535 B(  6-C , 18-H ) :   0.1462
B(  7-C ,  8-C ) :   1.1019 B(  7-C , 15-H ) :   0.1279 B(  7-C , 17-H ) :   0.7749
B(  7-C , 18-H ) :   0.9615 B(  7-C , 20-H ) :   0.1821 B(  8-C ,  9-N ) :   0.8689
B(  8-C , 17-H ) :   0.1020 B(  8-C , 18-H ) :   0.1049 B(  8-C , 19-H ) :   0.8226
B(  8-C , 20-H ) :   0.7175 B(  8-C , 21-H ) :  -0.2396 B(  9-N , 10-C ) :   1.0480
B(  9-N , 12-C ) :   0.2253 B(  9-N , 19-H ) :   0.1253 B(  9-N , 20-H ) :   0.2739
B(  9-N , 21-H ) :   1.2980 B( 10-C , 11-N ) :   1.1243 B( 10-C , 12-C ) :   1.7091
B( 10-C , 21-H ) :  -0.2830 B( 10-C , 23-H ) :  -0.1830 B( 10-C , 24-H ) :   0.2427
B( 10-C , 25-H ) :   0.2538 B( 11-N , 12-C ) :   0.1094 B( 11-N , 22-H ) :   0.8339
B( 11-N , 23-H ) :   1.2402 B( 12-C , 24-H ) :   0.6141 B( 12-C , 25-H ) :   0.5698
B( 15-H , 16-H ) :  -0.1175 B( 16-H , 18-H ) :   0.1109 B( 22-H , 23-H ) :  -0.2556
B( 24-H , 25-H ) :   0.1092 B( 26-N , 28-H ) :   1.2232 B( 26-N , 29-H ) :   1.1662
B( 28-H , 29-H ) :  -0.1818

Dispersion correction           -0.013786101
FINAL SINGLE POINT ENERGY      -683.294301738344

DIPOLE MOMENT
-------------
                                X             Y             Z
Electronic contribution:      8.36508      -1.22991      -6.43799
Nuclear contribution   :     -5.70417      -0.75660       5.23759
                        -----------------------------------------
Total Dipole Moment    :      2.66091      -1.98650      -1.20039
                        -----------------------------------------
Magnitude (a.u.)       :      3.53095
Magnitude (Debye)      :      8.97496

Rotational constants in cm-1:     0.037915     0.012278     0.010162
Rotational constants in MHz :  1136.675493   368.093800   304.655363

                             ****ORCA TERMINATED NORMALLY****
TOTAL RUN TIME: 0 days 0 hours 2 minutes 54 seconds 885 msec
