                         Program Version 5.0.0 -  RELEASE  -
|  1> !PBE D3BJ RIJCOSX def2-SVPD def2/J TightSCF
|  2> *xyz -1 1
|  3> C          0.69721        3.22791       -0.52513
|  4> O          1.48929        2.37470        0.19919
|  5> H          0.26505        2.70007       -1.34946
|  6> H          1.28994        4.03943       -0.89255
|  7> H         -0.08148        3.61005        0.10138
|  8> *
|  9>
| 10> %MaxCore 64000
| 11> %pal nprocs 8
| 12> end
| 13>
| 14> %scf
| 15>   MaxIter 150
| 16> end
| 17>
| 18>
| 19>                          ****END OF INPUT****

CARTESIAN COORDINATES (ANGSTROEM)
---------------------------------
  C      0.697210    3.227910   -0.525130
  O      1.489290    2.374700    0.199190
  H      0.265050    2.700070   -1.349460
  H      1.289940    4.039430   -0.892550
  H     -0.081480    3.610050    0.101380

 Total Charge           Charge          ....   -1
 Multiplicity           Mult            ....    1
 Number of Electrons    NEL             ....   18
 Basis Dimension        Dim             ....   67

ORBITAL ENERGIES
----------------

  NO   OCC          E(Eh)            E(eV)
   0   2.0000     -18.417491      -501.1654
   1   2.0000      -9.680785      -263.4275
   2   2.0000      -0.569503       -15.4970
   3   2.0000      -0.327490        -8.9114
   4   2.0000      -0.148528        -4.0417
   5   2.0000      -0.148528        -4.0417
   6   2.0000      -0.056138        -1.5276
   7   2.0000       0.092107         2.5063
   8   2.0000       0.092109         2.5064
   9   0.0000       0.182513         4.9664
  10   0.0000       0.251645         6.8476
  11   0.0000       0.251647         6.8477
  12   0.0000       0.258677         7.0389
  13   0.0000       0.295000         8.0274

MULLIKEN ATOMIC CHARGES
-----------------------
   0 C :    0.827241
   1 O :   -1.011851
   2 H :   -0.271795
   3 H :   -0.271804
   4 H :   -0.271790
Sum of atomic charges:   -1.0000000

LOEWDIN ATOMIC CHARGES
----------------------
   0 C :   -0.126393
   1 O :   -0.621949
   2 H :   -0.083885
   3 H :   -0.083888
   4 H :   -0.083885

  Mayer bond orders larger than 0.100000
B(  0-C ,  1-O ) :   1.1437 B(  0-C ,  2-H ) :   0.9131 B(  0-C ,  3-H ) :   0.9131
B(  0-C ,  4-H ) :   0.9131

Dispersion correction           -0.001470909
FINAL SINGLE POINT ENERGY      -114.883105396642

DIPOLE MOMENT
-------------
                                X             Y             Z
Electronic contribution:      1.11435      -1.20034       1.01903
Nuclear contribution   :     -1.66672       1.79535      -1.52413
                        -----------------------------------------
Total Dipole Moment    :     -0.55237       0.59501      -0.50511
                        -----------------------------------------
Magnitude (a.u.)       :      0.95618
Magnitude (Debye)      :      2.43041

Rotational constants in cm-1:     5.477728     0.937442     0.937441
Rotational constants in MHz : 164218.159175 28103.818547 28103.787504

                             ****ORCA TERMINATED NORMALLY****
TOTAL RUN TIME: 0 days 0 hours 0 minutes 1 seconds 838 msec
