                         Program Version 5.0.0 -  RELEASE  -
|  1> !PBE D3BJ RIJCOSX def2-SVPD def2/J TightSCF
|  2> *xyz 1 1
|  3> C          3.95643        0.50147       -0.37910
|  4> N          3.80389        1.96157       -0.15675
|  5> H          4.20643        2.24441        0.74536
|  6> H          2.80827        2.21132       -0.09610
|  7> H          4.28076        2.50155       -0.89104
|  8> H          3.52890        0.23799       -1.32393
|  9> H          3.45469       -0.03240        0.40073
| 10> H          4.99562        0.24661       -0.37434
| 11> *
| 12>
| 13> %MaxCore 64000
| 14> %pal nprocs 8
| 15> end
| 16>
| 17> %scf
| 18>   MaxIter 150
| 19> end
| 20>
| 21>
| 22>                          ****END OF INPUT****

CARTESIAN COORDINATES (ANGSTROEM)
---------------------------------
  C      3.956430    0.501470   -0.379100
  N      3.803890    1.961570   -0.156750
  H      4.206430    2.244410    0.745360
  H      2.808270    2.211320   -0.096100
  H      4.280760    2.501550   -0.891040
  H      3.528900    0.237990   -1.323930
  H      3.454690   -0.032400    0.400730
  H      4.995620    0.246610   -0.374340

 Total Charge           Charge          ....    1
 Multiplicity           Mult            ....    1
 Number of Electrons    NEL             ....   18
 Basis Dimension        Dim             ....   88

ORBITAL ENERGIES
----------------

  NO   OCC          E(Eh)            E(eV)
   0   2.0000     -14.349374      -390.4663
   1   2.0000     -10.153446      -276.2893
   2   2.0000      -1.141165       -31.0527
   3   2.0000      -0.871021       -23.7017
   4   2.0000      -0.765253       -20.8236
   5   2.0000      -0.754034       -20.5183
   6   2.0000      -0.671511       -18.2728
   7   2.0000      -0.582548       -15.8519
   8   2.0000      -0.580980       -15.8093
   9   0.0000      -0.228078        -6.2063
  10   0.0000      -0.163404        -4.4464
  11   0.0000      -0.160686        -4.3725
  12   0.0000      -0.152275        -4.1436
  13   0.0000      -0.107962        -2.9378

MULLIKEN ATOMIC CHARGES
-----------------------
   0 C :    0.989694
   1 N :   -0.812414
   2 H :    0.355051
   3 H :    0.363792
   4 H :    0.361851
   5 H :   -0.085531
   6 H :   -0.085172
   7 H :   -0.087271
Sum of atomic charges:    1.0000000

LOEWDIN ATOMIC CHARGES
----------------------
   0 C :    0.279102
   1 N :    0.317008
   2 H :    0.106479
   3 H :    0.108412
   4 H :    0.110393
   5 H :    0.026272
   6 H :    0.026337
   7 H :    0.025996

  Mayer bond orders larger than 0.100000
B(  0-C ,  1-N ) :   0.8312 B(  0-C ,  5-H ) :   0.8824 B(  0-C ,  6-H ) :   0.8815
B(  0-C ,  7-H ) :   0.8851 B(  1-N ,  2-H ) :   0.7762 B(  1-N ,  3-H ) :   0.7598
B(  1-N ,  4-H ) :   0.7590 B(  1-N ,  5-H ) :   0.1015 B(  1-N ,  6-H ) :   0.1005

Dispersion correction           -0.003367060
FINAL SINGLE POINT ENERGY       -96.018374946846

DIPOLE MOMENT
-------------
                                X             Y             Z
Electronic contribution:     -0.11034       1.07466       0.14015
Nuclear contribution   :      0.02154      -0.23654       0.01355
                        -----------------------------------------
Total Dipole Moment    :     -0.08880       0.83812       0.15370
                        -----------------------------------------
Magnitude (a.u.)       :      0.85672
Magnitude (Debye)      :      2.17760

Rotational constants in cm-1:     2.873586     0.687737     0.684128
Rotational constants in MHz : 86147.950763 20617.847271 20509.632222

                             ****ORCA TERMINATED NORMALLY****
TOTAL RUN TIME: 0 days 0 hours 0 minutes 2 seconds 82 msec
