                         Program Version 5.0.0 -  RELEASE  -
|  1> !PBE D3BJ RIJCOSX def2-SVPD def2/J TightSCF
|  2> *xyz 0 1
|  3> C          0.69721        3.22791       -0.52513
|  4> F          1.48929        2.37470        0.19919
|  5> H          0.26505        2.70007       -1.34946
|  6> H          1.28994        4.03943       -0.89255
|  7> H         -0.08148        3.61005        0.10138
|  8> *
|  9>
| 10> %MaxCore 64000
| 11> %pal nprocs 8
| 12> end
| 13>
| 14> %scf
| 15>   MaxIter 150
| 16> end
| 17>
| 18>
| 19>                          ****END OF INPUT****

CARTESIAN COORDINATES (ANGSTROEM)
---------------------------------
  C      0.697210    3.227910   -0.525130
  F      1.489290    2.374700    0.199190
  H      0.265050    2.700070   -1.349460
  H      1.289940    4.039430   -0.892550
  H     -0.081480    3.610050    0.101380

 Total Charge           Charge          ....    0
 Multiplicity           Mult            ....    1
 Number of Electrons    NEL             ....   18
 Basis Dimension        Dim             ....   67

ORBITAL ENERGIES
----------------

  NO   OCC          E(Eh)            E(eV)
   0   2.0000     -24.260600      -660.1645
   1   2.0000      -9.963735      -271.1270
   2   2.0000      -1.083725       -29.4897
   3   2.0000      -0.634323       -17.2608
   4   2.0000      -0.448166       -12.1952
   5   2.0000      -0.434419       -11.8211
   6   2.0000      -0.434418       -11.8211
   7   2.0000      -0.298102        -8.1118
   8   2.0000      -0.298101        -8.1117
   9   0.0000       0.009283         0.2526
  10   0.0000       0.033803         0.9198
  11   0.0000       0.082309         2.2397
  12   0.0000       0.082311         2.2398
  13   0.0000       0.128286         3.4908

MULLIKEN ATOMIC CHARGES
-----------------------
   0 C :    0.901003
   1 F :   -0.456462
   2 H :   -0.148171
   3 H :   -0.148186
   4 H :   -0.148184
Sum of atomic charges:   -0.0000000

LOEWDIN ATOMIC CHARGES
----------------------
   0 C :    0.254624
   1 F :   -0.231693
   2 H :   -0.007643
   3 H :   -0.007646
   4 H :   -0.007642

  Mayer bond orders larger than 0.100000
B(  0-C ,  1-F ) :   0.8882 B(  0-C ,  2-H ) :   0.9343 B(  0-C ,  3-H ) :   0.9343
B(  0-C ,  4-H ) :   0.9343

Dispersion correction           -0.001294438
FINAL SINGLE POINT ENERGY      -139.489735882831

DIPOLE MOMENT
-------------
                                X             Y             Z
Electronic contribution:      1.71689      -1.84939       1.57001
Nuclear contribution   :     -2.11402       2.27717      -1.93317
                        -----------------------------------------
Total Dipole Moment    :     -0.39713       0.42778      -0.36316
                        -----------------------------------------
Magnitude (a.u.)       :      0.68746
Magnitude (Debye)      :      1.74738

Rotational constants in cm-1:     5.477728     0.872600     0.872599
Rotational constants in MHz : 164218.159175 26159.886777 26159.859881

                             ****ORCA TERMINATED NORMALLY****
TOTAL RUN TIME: 0 days 0 hours 0 minutes 1 seconds 843 msec
