                         Program Version 5.0.0 -  RELEASE  -
|  1> !PBE D3BJ RIJCOSX def2-SVPD def2/J TightSCF
|  2> *xyz 0 1
|  3> C          3.95643        0.50147       -0.37910
|  4> C          3.80389        1.96157       -0.15675
|  5> H          4.20643        2.24441        0.74536
|  6> H          2.80827        2.21132       -0.09610
|  7> H          4.28076        2.50155       -0.89104
|  8> H          3.52890        0.23799       -1.32393
|  9> H          3.45469       -0.03240        0.40073
| 10> H          4.99562        0.24661       -0.37434
| 11> *
| 12>
| 13> %MaxCore 64000
| 14> %pal nprocs 8
| 15> end
| 16>
| 17> %scf
| 18>   MaxIter 150
| 19> end
| 20>
| 21>
| 22>                          ****END OF INPUT****

CARTESIAN COORDINATES (ANGSTROEM)
---------------------------------
  C      3.956430    0.501470   -0.379100
  C      3.803890    1.961570   -0.156750
  H      4.206430    2.244410    0.745360
  H      2.808270    2.211320   -0.096100
  H      4.280760    2.501550   -0.891040
  H      3.528900    0.237990   -1.323930
  H      3.454690   -0.032400    0.400730
  H      4.995620    0.246610   -0.374340

 Total Charge           Charge          ....    0
 Multiplicity           Mult            ....    1
 Number of Electrons    NEL             ....   18
 Basis Dimension        Dim             ....   88

ORBITAL ENERGIES
----------------

  NO   OCC          E(Eh)            E(eV)
   0   2.0000      -9.873667      -268.6761
   1   2.0000      -9.860919      -268.3292
   2   2.0000      -0.692351       -18.8398
   3   2.0000      -0.553687       -15.0666
   4   2.0000      -0.403038       -10.9672
   5   2.0000      -0.396756       -10.7963
   6   2.0000      -0.327315        -8.9067
   7   2.0000      -0.304908        -8.2970
   8   2.0000      -0.298800        -8.1308
   9   0.0000       0.011847         0.3224
  10   0.0000       0.045415         1.2358
  11   0.0000       0.082178         2.2362
  12   0.0000       0.083842         2.2815
  13   0.0000       0.103399         2.8136

MULLIKEN ATOMIC CHARGES
-----------------------
   0 C :    0.243838
   1 C :    0.558613
   2 H :   -0.194181
   3 H :   -0.188918
   4 H :   -0.194068
   5 H :   -0.077575
   6 H :   -0.071979
   7 H :   -0.075731
Sum of atomic charges:    0.0000000

LOEWDIN ATOMIC CHARGES
----------------------
   0 C :    0.074158
   1 C :    0.076657
   2 H :   -0.035837
   3 H :   -0.033537
   4 H :   -0.031750
   5 H :   -0.016672
   6 H :   -0.016187
   7 H :   -0.016832

  Mayer bond orders larger than 0.100000
B(  0-C ,  1-C ) :   1.5099 B(  0-C ,  2-H ) :   0.1795 B(  0-C ,  3-H ) :   0.1873
B(  0-C ,  4-H ) :   0.1846 B(  0-C ,  5-H ) :   0.8523 B(  0-C ,  6-H ) :   0.8533
B(  0-C ,  7-H ) :   0.8570 B(  1-C ,  2-H ) :   0.7609 B(  1-C ,  3-H ) :   0.7675
B(  1-C ,  4-H ) :   0.7781 B(  1-C ,  5-H ) :   0.1647 B(  1-C ,  6-H ) :   0.1673
B(  1-C ,  7-H ) :   0.1642 B(  2-H ,  3-H ) :   0.1169

Dispersion correction           -0.003358426
FINAL SINGLE POINT ENERGY       -79.633092655420

DIPOLE MOMENT
-------------
                                X             Y             Z
Electronic contribution:      0.00214       0.00999      -0.03660
Nuclear contribution   :     -0.00471       0.01526       0.05114
                        -----------------------------------------
Total Dipole Moment    :     -0.00258       0.02525       0.01454
                        -----------------------------------------
Magnitude (a.u.)       :      0.02925
Magnitude (Debye)      :      0.07434

Rotational constants in cm-1:     2.873610     0.717865     0.713933
Rotational constants in MHz : 86148.646881 21521.066032 21403.176468

                             ****ORCA TERMINATED NORMALLY****
TOTAL RUN TIME: 0 days 0 hours 0 minutes 2 seconds 534 msec
