                         Program Version 5.0.0 -  RELEASE  -
|  1> !LC-PBE RIJCOSX def2-TZVP def2/J TightSCF
|  2> *xyz -1 1
|  3> C         -5.57236       -5.80780       -0.81644
|  4> S         -6.90318       -4.61903       -0.52846
|  5> O         -8.11485       -5.25093       -0.95701
|  6> O         -6.53271       -3.42684       -1.31485
|  7> O         -6.86563       -4.29496        0.91412
|  8> C         -4.45780       -5.94187        0.22919
|  9> H         -5.17735       -5.54257       -1.79771
| 10> H         -6.07420       -6.76889       -0.92127
| 11> H         -3.75515       -6.68239       -0.09144
| 12> H         -4.88182       -6.23486        1.16689
| 13> H         -3.95908       -5.00189        0.34143
| 14> *
| 15> %MaxCore 64000
| 16>
| 17> %pal nprocs 4
| 18> end
| 19>
| 20> %scf
| 21>   MaxIter 150
| 22> end
| 23>
| 24>                          ****END OF INPUT****

CARTESIAN COORDINATES (ANGSTROEM)
---------------------------------
  C     -5.572360   -5.807800   -0.816440
  S     -6.903180   -4.619030   -0.528460
  O     -8.114850   -5.250930   -0.957010
  O     -6.532710   -3.426840   -1.314850
  O     -6.865630   -4.294960    0.914120
  C     -4.457800   -5.941870    0.229190
  H     -5.177350   -5.542570   -1.797710
  H     -6.074200   -6.768890   -0.921270
  H     -3.755150   -6.682390   -0.091440
  H     -4.881820   -6.234860    1.166890
  H     -3.959080   -5.001890    0.341430

 Total Charge           Charge          ....   -1
 Multiplicity           Mult            ....    1
 Number of Electrons    NEL             ....   58
 Basis Dimension        Dim             ....  222

ORBITAL ENERGIES
----------------

  NO   OCC          E(Eh)            E(eV)
   0   2.0000     -88.267386     -2401.8777
   1   2.0000     -18.756264      -510.3839
   2   2.0000     -18.741172      -509.9732
   3   2.0000     -18.740123      -509.9447
   4   2.0000      -9.978841      -271.5381
   5   2.0000      -9.972509      -271.3658
   6   2.0000      -7.877704      -214.3632
   7   2.0000      -5.894717      -160.4034
   8   2.0000      -5.893077      -160.3588
   9   2.0000      -5.892790      -160.3510
  10   2.0000      -1.092901       -29.7393
  11   2.0000      -0.948298       -25.8045
  12   2.0000      -0.924458       -25.1558
  13   2.0000      -0.810113       -22.0443
  14   2.0000      -0.674844       -18.3634
  15   2.0000      -0.530637       -14.4394
  16   2.0000      -0.464748       -12.6464
  17   2.0000      -0.459843       -12.5130
  18   2.0000      -0.418480       -11.3874
  19   2.0000      -0.401201       -10.9172
  20   2.0000      -0.397733       -10.8229
  21   2.0000      -0.360039        -9.7972
  22   2.0000      -0.351487        -9.5644
  23   2.0000      -0.286568        -7.7979
  24   2.0000      -0.285725        -7.7750
  25   2.0000      -0.246769        -6.7149
  26   2.0000      -0.232138        -6.3168
  27   2.0000      -0.230875        -6.2824
  28   2.0000      -0.190815        -5.1923
  29   0.0000       0.251832         6.8527
  30   0.0000       0.301025         8.1913
  31   0.0000       0.314191         8.5496
  32   0.0000       0.318296         8.6613
  33   0.0000       0.341473         9.2920

MULLIKEN ATOMIC CHARGES
-----------------------
   0 C :   -0.316873
   1 S :    0.737625
   2 O :   -0.517020
   3 O :   -0.567886
   4 O :   -0.570651
   5 C :   -0.422819
   6 H :    0.134253
   7 H :    0.128407
   8 H :    0.104413
   9 H :    0.147752
  10 H :    0.142800
Sum of atomic charges:   -1.0000000

LOEWDIN ATOMIC CHARGES
----------------------
   0 C :   -0.438776
   1 S :    0.397202
   2 O :   -0.363207
   3 O :   -0.423264
   4 O :   -0.419582
   5 C :   -0.360334
   6 H :    0.128602
   7 H :    0.126754
   8 H :    0.107775
   9 H :    0.122391
  10 H :    0.122438

  Mayer bond orders larger than 0.100000
B(  0-C ,  1-S ) :   0.8933 B(  0-C ,  5-C ) :   0.9434 B(  0-C ,  6-H ) :   0.9645
B(  0-C ,  7-H ) :   0.9610 B(  1-S ,  2-O ) :   1.8490 B(  1-S ,  3-O ) :   1.7858
B(  1-S ,  4-O ) :   1.7700 B(  5-C ,  8-H ) :   0.9704 B(  5-C ,  9-H ) :   0.9716
B(  5-C , 10-H ) :   0.9747

FINAL SINGLE POINT ENERGY      -702.096079375346

DIPOLE MOMENT
-------------
                                X             Y             Z
Electronic contribution:     -6.64191       4.26733      -0.93595
Nuclear contribution   :      8.13140      -5.68016       0.80206
                        -----------------------------------------
Total Dipole Moment    :      1.48950      -1.41283      -0.13389
                        -----------------------------------------
Magnitude (a.u.)       :      2.05733
Magnitude (Debye)      :      5.22932

Rotational constants in cm-1:     0.162101     0.080498     0.079099
Rotational constants in MHz :  4859.669771  2413.267251  2371.338602

                             ****ORCA TERMINATED NORMALLY****
TOTAL RUN TIME: 0 days 0 hours 0 minutes 30 seconds 532 msec
