                         Program Version 5.0.0 -  RELEASE  -
|  1> !LC-PBE RIJCOSX def2-TZVP def2/J TightSCF
|  2> *xyz 1 1
|  3> C         -4.38262       -1.67089        1.21620
|  4> N         -5.76354       -1.91517        0.70501
|  5> C         -3.28173       -2.19127        0.29436
|  6> H         -5.84081       -2.11520       -0.30065
|  7> H         -6.40882       -1.14866        0.93612
|  8> H         -6.17478       -2.79061        1.05143
|  9> H         -4.32862       -2.13922        2.19810
| 10> H         -4.26158       -0.59740        1.35725
| 11> H         -3.36057       -1.71407       -0.66008
| 12> H         -3.38775       -3.24919        0.17403
| 13> H         -2.32559       -1.97514        0.72329
| 14> *
| 15> %MaxCore 64000
| 16>
| 17> %pal nprocs 4
| 18> end
| 19>
| 20> %scf
| 21>   MaxIter 150
| 22> end
| 23>
| 24>                          ****END OF INPUT****

CARTESIAN COORDINATES (ANGSTROEM)
---------------------------------
  C     -4.382620   -1.670890    1.216200
  N     -5.763540   -1.915170    0.705010
  C     -3.281730   -2.191270    0.294360
  H     -5.840810   -2.115200   -0.300650
  H     -6.408820   -1.148660    0.936120
  H     -6.174780   -2.790610    1.051430
  H     -4.328620   -2.139220    2.198100
  H     -4.261580   -0.597400    1.357250
  H     -3.360570   -1.714070   -0.660080
  H     -3.387750   -3.249190    0.174030
  H     -2.325590   -1.975140    0.723290

 Total Charge           Charge          ....    1
 Multiplicity           Mult            ....    1
 Number of Electrons    NEL             ....   26
 Basis Dimension        Dim             ....  141

ORBITAL ENERGIES
----------------

  NO   OCC          E(Eh)            E(eV)
   0   2.0000     -14.550380      -395.9360
   1   2.0000     -10.370013      -282.1824
   2   2.0000     -10.285963      -279.8953
   3   2.0000      -1.390183       -37.8288
   4   2.0000      -1.141201       -31.0536
   5   2.0000      -1.011591       -27.5268
   6   2.0000      -0.945370       -25.7248
   7   2.0000      -0.923805       -25.1380
   8   2.0000      -0.845517       -23.0077
   9   2.0000      -0.781848       -21.2752
  10   2.0000      -0.717620       -19.5274
  11   2.0000      -0.698679       -19.0120
  12   2.0000      -0.677572       -18.4377
  13   0.0000      -0.105541        -2.8719
  14   0.0000      -0.047230        -1.2852
  15   0.0000      -0.043469        -1.1829
  16   0.0000      -0.023224        -0.6320
  17   0.0000       0.013681         0.3723

MULLIKEN ATOMIC CHARGES
-----------------------
   0 C :   -0.257318
   1 N :   -0.323774
   2 C :   -0.479067
   3 H :    0.342954
   4 H :    0.355588
   5 H :    0.345673
   6 H :    0.218934
   7 H :    0.217666
   8 H :    0.187251
   9 H :    0.183029
  10 H :    0.209066
Sum of atomic charges:    1.0000000

LOEWDIN ATOMIC CHARGES
----------------------
   0 C :   -0.291799
   1 N :    0.157255
   2 C :   -0.300301
   3 H :    0.227317
   4 H :    0.230492
   5 H :    0.228663
   6 H :    0.159523
   7 H :    0.160463
   8 H :    0.137480
   9 H :    0.136925
  10 H :    0.153980

  Mayer bond orders larger than 0.100000
B(  0-C ,  1-N ) :   0.8406 B(  0-C ,  2-C ) :   0.9738 B(  0-C ,  6-H ) :   0.9554
B(  0-C ,  7-H ) :   0.9553 B(  1-N ,  3-H ) :   0.8688 B(  1-N ,  4-H ) :   0.8678
B(  1-N ,  5-H ) :   0.8728 B(  2-C ,  8-H ) :   0.9534 B(  2-C ,  9-H ) :   0.9561
B(  2-C , 10-H ) :   0.9510

FINAL SINGLE POINT ENERGY      -135.125606290937

DIPOLE MOMENT
-------------
                                X             Y             Z
Electronic contribution:     -1.84439       0.23877       0.30590
Nuclear contribution   :      0.19437      -0.25358      -0.32106
                        -----------------------------------------
Total Dipole Moment    :     -1.65002      -0.01481      -0.01517
                        -----------------------------------------
Magnitude (a.u.)       :      1.65016
Magnitude (Debye)      :      4.19437

Rotational constants in cm-1:     1.030014     0.272489     0.242697
Rotational constants in MHz : 30879.030706  8169.007780  7275.865152

                             ****ORCA TERMINATED NORMALLY****
TOTAL RUN TIME: 0 days 0 hours 0 minutes 14 seconds 145 msec
