                         Program Version 5.0.0 -  RELEASE  -
|  1> !LC-PBE RIJCOSX def2-TZVP def2/J TightSCF xyzfile
|  2>
|  3> *xyzfile 0 1 B.xyz
|  4>
|  5> %MaxCore 64000
|  6>
|  7> %pal nprocs 18
|  8> end
|  9>
| 10> %scf
| 11>   MaxIter 150
| 12> end
| 13>
| 14>
| 15>                          ****END OF INPUT****

CARTESIAN COORDINATES (ANGSTROEM)
---------------------------------
  C     -4.382623   -1.670889    1.216201
  N     -5.763539   -1.915170    0.705012
  C     -3.281728   -2.191272    0.294361
  C     -5.572364   -5.807798   -0.816445
  S     -6.903179   -4.619033   -0.528458
  H     -5.840812   -2.115205   -0.300646
  H     -6.408823   -1.148656    0.936124
  H     -6.174781   -2.790606    1.051433
  O     -8.114853   -5.250932   -0.957007
  O     -6.532715   -3.426838   -1.314848
  H     -4.328618   -2.139223    2.198103
  H     -4.261583   -0.597399    1.357248
  O     -6.865632   -4.294957    0.914118
  C     -3.474641   -3.605898   -0.259608
  H     -2.354548   -2.127602    0.871433
  H     -3.166611   -1.499693   -0.545037
  C     -3.827078   -4.661097    0.786174
  H     -2.560559   -3.889391   -0.788050
  H     -4.255932   -3.570040   -1.019300
  C     -4.457800   -5.941875    0.229195
  H     -5.177347   -5.542575   -1.797714
  H     -6.074202   -6.768894   -0.921272
  H     -4.530506   -4.253640    1.511979
  H     -2.933400   -4.932302    1.356825
  H     -3.681064   -6.562236   -0.229885
  H     -4.843942   -6.512728    1.075805

 Total Charge           Charge          ....    0
 Multiplicity           Mult            ....    1
 Number of Electrons    NEL             ....   98
 Basis Dimension        Dim             ....  437

ORBITAL ENERGIES
----------------

  NO   OCC          E(Eh)            E(eV)
   0   2.0000     -88.441170     -2406.6066
   1   2.0000     -18.933561      -515.2084
   2   2.0000     -18.929487      -515.0975
   3   2.0000     -18.915731      -514.7232
   4   2.0000     -14.322359      -389.7312
   5   2.0000     -10.205179      -277.6971
   6   2.0000     -10.151016      -276.2232
   7   2.0000     -10.124956      -275.5141
   8   2.0000     -10.123415      -275.4721
   9   2.0000     -10.120731      -275.3991
  10   2.0000     -10.119040      -275.3531
  11   2.0000      -8.052312      -219.1146
  12   2.0000      -6.068908      -165.1434
  13   2.0000      -6.068448      -165.1309
  14   2.0000      -6.066793      -165.0858
  15   2.0000      -1.273393       -34.6508
  16   2.0000      -1.183532       -32.2056
  17   2.0000      -1.121633       -30.5212
  18   2.0000      -1.118683       -30.4409
  19   2.0000      -1.014489       -27.6057
  20   2.0000      -0.970825       -26.4175
  21   2.0000      -0.915752       -24.9189
  22   2.0000      -0.860289       -23.4096
  23   2.0000      -0.801182       -21.8013
  24   2.0000      -0.754613       -20.5341
  25   2.0000      -0.745468       -20.2852
  26   2.0000      -0.727907       -19.8073
  27   2.0000      -0.689850       -18.7718
  28   2.0000      -0.657864       -17.9014
  29   2.0000      -0.640510       -17.4292
  30   2.0000      -0.633132       -17.2284
  31   2.0000      -0.617575       -16.8051
  32   2.0000      -0.593493       -16.1498
  33   2.0000      -0.585671       -15.9369
  34   2.0000      -0.575712       -15.6659
  35   2.0000      -0.560678       -15.2568
  36   2.0000      -0.558449       -15.1962
  37   2.0000      -0.521793       -14.1987
  38   2.0000      -0.509689       -13.8693
  39   2.0000      -0.505903       -13.7663
  40   2.0000      -0.477734       -12.9998
  41   2.0000      -0.470561       -12.8046
  42   2.0000      -0.465983       -12.6800
  43   2.0000      -0.457057       -12.4372
  44   2.0000      -0.452511       -12.3134
  45   2.0000      -0.417373       -11.3573
  46   2.0000      -0.409384       -11.1399
  47   2.0000      -0.396435       -10.7876
  48   2.0000      -0.376636       -10.2488
  49   0.0000       0.072235         1.9656
  50   0.0000       0.110451         3.0055
  51   0.0000       0.121732         3.3125
  52   0.0000       0.123899         3.3715
  53   0.0000       0.141257         3.8438

MULLIKEN ATOMIC CHARGES
-----------------------
   0 C :   -0.340090
   1 N :   -0.308215
   2 C :   -0.251685
   3 C :   -0.422418
   4 S :    0.807631
   5 H :    0.331448
   6 H :    0.300916
   7 H :    0.323014
   8 O :   -0.449605
   9 O :   -0.588990
  10 H :    0.220208
  11 H :    0.185254
  12 O :   -0.572549
  13 C :   -0.413916
  14 H :    0.162147
  15 H :    0.173718
  16 C :   -0.352926
  17 H :    0.159277
  18 H :    0.224918
  19 C :   -0.232659
  20 H :    0.196282
  21 H :    0.197031
  22 H :    0.179757
  23 H :    0.154254
  24 H :    0.150997
  25 H :    0.166202
Sum of atomic charges:   -0.0000000

LOEWDIN ATOMIC CHARGES
----------------------
   0 C :   -0.294148
   1 N :    0.131657
   2 C :   -0.287032
   3 C :   -0.395365
   4 S :    0.438811
   5 H :    0.191667
   6 H :    0.205098
   7 H :    0.169462
   8 O :   -0.300129
   9 O :   -0.389826
  10 H :    0.148874
  11 H :    0.144688
  12 O :   -0.370466
  13 C :   -0.289194
  14 H :    0.156137
  15 H :    0.151502
  16 C :   -0.293899
  17 H :    0.149321
  18 H :    0.152404
  19 C :   -0.299764
  20 H :    0.143297
  21 H :    0.148647
  22 H :    0.142398
  23 H :    0.144497
  24 H :    0.148588
  25 H :    0.152778

  Mayer bond orders larger than 0.100000
B(  0-C ,  1-N ) :   0.8664 B(  0-C ,  2-C ) :   0.9287 B(  0-C , 10-H ) :   0.9753
B(  0-C , 11-H ) :   0.9742 B(  1-N ,  5-H ) :   0.8164 B(  1-N ,  6-H ) :   0.8964
B(  1-N ,  7-H ) :   0.7838 B(  2-C , 13-C ) :   0.9354 B(  2-C , 14-H ) :   0.9730
B(  2-C , 15-H ) :   0.9789 B(  3-C ,  4-S ) :   0.9186 B(  3-C , 19-C ) :   0.9215
B(  3-C , 20-H ) :   0.9519 B(  3-C , 21-H ) :   0.9545 B(  4-S ,  8-O ) :   1.9801
B(  4-S ,  9-O ) :   1.6004 B(  4-S , 12-O ) :   1.5654 B(  7-H , 12-O ) :   0.1692
B( 13-C , 16-C ) :   0.8748 B( 13-C , 17-H ) :   0.9744 B( 13-C , 18-H ) :   0.9724
B( 16-C , 19-C ) :   0.9464 B( 16-C , 22-H ) :   0.9719 B( 16-C , 23-H ) :   0.9669
B( 19-C , 24-H ) :   0.9695 B( 19-C , 25-H ) :   0.9780

FINAL SINGLE POINT ENERGY      -914.596844106445

DIPOLE MOMENT
-------------
                                X             Y             Z
Electronic contribution:    -13.47549      -2.89859      -3.65274
Nuclear contribution   :     16.18863       5.15617       4.97370
                        -----------------------------------------
Total Dipole Moment    :      2.71313       2.25758       1.32097
                        -----------------------------------------
Magnitude (a.u.)       :      3.76865
Magnitude (Debye)      :      9.57914

Rotational constants in cm-1:     0.048546     0.025588     0.020102
Rotational constants in MHz :  1455.374030   767.095631   602.645620

                             ****ORCA TERMINATED NORMALLY****
TOTAL RUN TIME: 0 days 0 hours 0 minutes 35 seconds 31 msec
