                         Program Version 5.0.0 -  RELEASE  -
|  1> !LC-PBE RIJCOSX def2-TZVP def2/J TightSCF
|  2> *xyz 0 1
|  3> C         -5.57236       -5.80780       -0.81644
|  4> S         -6.90318       -4.61903       -0.52846
|  5> F         -8.11485       -5.25093       -0.95701
|  6> O         -6.53271       -3.42684       -1.31485
|  7> O         -6.86563       -4.29496        0.91412
|  8> C         -4.45780       -5.94187        0.22919
|  9> H         -5.17735       -5.54257       -1.79771
| 10> H         -6.07420       -6.76889       -0.92127
| 11> H         -3.75515       -6.68239       -0.09144
| 12> H         -4.88182       -6.23486        1.16689
| 13> H         -3.95908       -5.00189        0.34143
| 14> *
| 15> %MaxCore 64000
| 16>
| 17> %pal nprocs 4
| 18> end
| 19>
| 20> %scf
| 21>   MaxIter 150
| 22> end
| 23>
| 24>                          ****END OF INPUT****

CARTESIAN COORDINATES (ANGSTROEM)
---------------------------------
  C     -5.572360   -5.807800   -0.816440
  S     -6.903180   -4.619030   -0.528460
  F     -8.114850   -5.250930   -0.957010
  O     -6.532710   -3.426840   -1.314850
  O     -6.865630   -4.294960    0.914120
  C     -4.457800   -5.941870    0.229190
  H     -5.177350   -5.542570   -1.797710
  H     -6.074200   -6.768890   -0.921270
  H     -3.755150   -6.682390   -0.091440
  H     -4.881820   -6.234860    1.166890
  H     -3.959080   -5.001890    0.341430

 Total Charge           Charge          ....    0
 Multiplicity           Mult            ....    1
 Number of Electrons    NEL             ....   58
 Basis Dimension        Dim             ....  222

ORBITAL ENERGIES
----------------

  NO   OCC          E(Eh)            E(eV)
   0   2.0000     -88.536426     -2409.1986
   1   2.0000     -24.622407      -670.0098
   2   2.0000     -18.981735      -516.5193
   3   2.0000     -18.981587      -516.5152
   4   2.0000     -10.184076      -277.1228
   5   2.0000     -10.135158      -275.7917
   6   2.0000      -8.147348      -221.7006
   7   2.0000      -6.167673      -167.8309
   8   2.0000      -6.160801      -167.6439
   9   2.0000      -6.160167      -167.6267
  10   2.0000      -1.556928       -42.3662
  11   2.0000      -1.266059       -34.4512
  12   2.0000      -1.160252       -31.5721
  13   2.0000      -1.002057       -27.2674
  14   2.0000      -0.905255       -24.6332
  15   2.0000      -0.844281       -22.9741
  16   2.0000      -0.752766       -20.4838
  17   2.0000      -0.750212       -20.4143
  18   2.0000      -0.706815       -19.2334
  19   2.0000      -0.641771       -17.4635
  20   2.0000      -0.627283       -17.0692
  21   2.0000      -0.585653       -15.9364
  22   2.0000      -0.568685       -15.4747
  23   2.0000      -0.543592       -14.7919
  24   2.0000      -0.527017       -14.3409
  25   2.0000      -0.520387       -14.1604
  26   2.0000      -0.461395       -12.5552
  27   2.0000      -0.456363       -12.4183
  28   2.0000      -0.436713       -11.8836
  29   0.0000       0.104449         2.8422
  30   0.0000       0.119362         3.2480
  31   0.0000       0.141832         3.8594
  32   0.0000       0.160910         4.3786
  33   0.0000       0.166156         4.5213

MULLIKEN ATOMIC CHARGES
-----------------------
   0 C :   -0.315770
   1 S :    0.778809
   2 F :   -0.062991
   3 O :   -0.418022
   4 O :   -0.423047
   5 C :   -0.436149
   6 H :    0.197139
   7 H :    0.166542
   8 H :    0.162973
   9 H :    0.173248
  10 H :    0.177269
Sum of atomic charges:   -0.0000000

LOEWDIN ATOMIC CHARGES
----------------------
   0 C :   -0.406760
   1 S :    0.517509
   2 F :    0.123602
   3 O :   -0.303748
   4 O :   -0.302755
   5 C :   -0.321891
   6 H :    0.151751
   7 H :    0.141407
   8 H :    0.132198
   9 H :    0.133406
  10 H :    0.135281

  Mayer bond orders larger than 0.100000
B(  0-C ,  1-S ) :   0.9164 B(  0-C ,  5-C ) :   0.9601 B(  0-C ,  6-H ) :   0.9357
B(  0-C ,  7-H ) :   0.9403 B(  1-S ,  2-F ) :   1.1993 B(  1-S ,  3-O ) :   1.9195
B(  1-S ,  4-O ) :   1.9072 B(  5-C ,  8-H ) :   0.9572 B(  5-C ,  9-H ) :   0.9612
B(  5-C , 10-H ) :   0.9635

FINAL SINGLE POINT ENERGY      -726.579938647129

DIPOLE MOMENT
-------------
                                X             Y             Z
Electronic contribution:     -9.40842       3.50817      -1.89421
Nuclear contribution   :      9.80704      -5.24335       1.35017
                        -----------------------------------------
Total Dipole Moment    :      0.39862      -1.73518      -0.54403
                        -----------------------------------------
Magnitude (a.u.)       :      1.86165
Magnitude (Debye)      :      4.73193

Rotational constants in cm-1:     0.156316     0.078308     0.076228
Rotational constants in MHz :  4686.224999  2347.601204  2285.245115

                             ****ORCA TERMINATED NORMALLY****
TOTAL RUN TIME: 0 days 0 hours 0 minutes 29 seconds 327 msec
