                         Program Version 5.0.0 -  RELEASE  -
|  1> !LC-PBE RIJCOSX def2-TZVP def2/J TightSCF
|  2> *xyz 0 1
|  3> C         -4.38262       -1.67089        1.21620
|  4> C         -5.76354       -1.91517        0.70501
|  5> C         -3.28173       -2.19127        0.29436
|  6> H         -5.84081       -2.11520       -0.30065
|  7> H         -6.40882       -1.14866        0.93612
|  8> H         -6.17478       -2.79061        1.05143
|  9> H         -4.32862       -2.13922        2.19810
| 10> H         -4.26158       -0.59740        1.35725
| 11> H         -3.36057       -1.71407       -0.66008
| 12> H         -3.38775       -3.24919        0.17403
| 13> H         -2.32559       -1.97514        0.72329
| 14> *
| 15> %MaxCore 64000
| 16>
| 17> %pal nprocs 4
| 18> end
| 19>
| 20> %scf
| 21>   MaxIter 150
| 22> end
| 23>
| 24>                          ****END OF INPUT****

CARTESIAN COORDINATES (ANGSTROEM)
---------------------------------
  C     -4.382620   -1.670890    1.216200
  C     -5.763540   -1.915170    0.705010
  C     -3.281730   -2.191270    0.294360
  H     -5.840810   -2.115200   -0.300650
  H     -6.408820   -1.148660    0.936120
  H     -6.174780   -2.790610    1.051430
  H     -4.328620   -2.139220    2.198100
  H     -4.261580   -0.597400    1.357250
  H     -3.360570   -1.714070   -0.660080
  H     -3.387750   -3.249190    0.174030
  H     -2.325590   -1.975140    0.723290

 Total Charge           Charge          ....    0
 Multiplicity           Mult            ....    1
 Number of Electrons    NEL             ....   26
 Basis Dimension        Dim             ....  141

ORBITAL ENERGIES
----------------

  NO   OCC          E(Eh)            E(eV)
   0   2.0000     -10.101754      -274.8827
   1   2.0000     -10.090325      -274.5717
   2   2.0000     -10.071115      -274.0490
   3   2.0000      -0.968157       -26.3449
   4   2.0000      -0.862029       -23.4570
   5   2.0000      -0.750033       -20.4094
   6   2.0000      -0.609912       -16.5966
   7   2.0000      -0.586374       -15.9560
   8   2.0000      -0.548698       -14.9308
   9   2.0000      -0.521077       -14.1792
  10   2.0000      -0.469998       -12.7893
  11   2.0000      -0.462738       -12.5917
  12   2.0000      -0.447313       -12.1720
  13   0.0000       0.124134         3.3778
  14   0.0000       0.166700         4.5361
  15   0.0000       0.170130         4.6295
  16   0.0000       0.179793         4.8924
  17   0.0000       0.204826         5.5736

MULLIKEN ATOMIC CHARGES
-----------------------
   0 C :   -0.205981
   1 C :   -0.457330
   2 C :   -0.447549
   3 H :    0.145834
   4 H :    0.144430
   5 H :    0.147396
   6 H :    0.123281
   7 H :    0.123112
   8 H :    0.144414
   9 H :    0.139875
  10 H :    0.142518
Sum of atomic charges:    0.0000000

LOEWDIN ATOMIC CHARGES
----------------------
   0 C :   -0.335140
   1 C :   -0.330991
   2 C :   -0.328540
   3 H :    0.116895
   4 H :    0.115632
   5 H :    0.116718
   6 H :    0.139956
   7 H :    0.139299
   8 H :    0.122457
   9 H :    0.122257
  10 H :    0.121457

  Mayer bond orders larger than 0.100000
B(  0-C ,  1-C ) :   0.9211 B(  0-C ,  2-C ) :   0.9609 B(  0-C ,  6-H ) :   0.9775
B(  0-C ,  7-H ) :   0.9809 B(  1-C ,  3-H ) :   0.9794 B(  1-C ,  4-H ) :   0.9805
B(  1-C ,  5-H ) :   0.9782 B(  2-C ,  8-H ) :   0.9749 B(  2-C ,  9-H ) :   0.9746
B(  2-C , 10-H ) :   0.9811

FINAL SINGLE POINT ENERGY      -118.732557175302

DIPOLE MOMENT
-------------
                                X             Y             Z
Electronic contribution:      0.18257       0.23672       0.33923
Nuclear contribution   :     -0.21528      -0.24783      -0.32864
                        -----------------------------------------
Total Dipole Moment    :     -0.03271      -0.01111       0.01059
                        -----------------------------------------
Magnitude (a.u.)       :      0.03613
Magnitude (Debye)      :      0.09183

Rotational constants in cm-1:     1.037566     0.286459     0.254172
Rotational constants in MHz : 31105.431429  8587.814531  7619.871198

                             ****ORCA TERMINATED NORMALLY****
TOTAL RUN TIME: 0 days 0 hours 0 minutes 13 seconds 669 msec
