                         Program Version 5.0.0 -  RELEASE  -
|  1> !LC-PBE RIJCOSX def2-TZVP def2/J TightSCF
|  2> *xyz 0 1
|  3> C         -5.57236       -5.80780       -0.81644
|  4> S         -6.90318       -4.61903       -0.52846
|  5> O         -8.11485       -5.25093       -0.95701
|  6> F         -6.53271       -3.42684       -1.31485
|  7> O         -6.86563       -4.29496        0.91412
|  8> C         -4.45780       -5.94187        0.22919
|  9> H         -5.17735       -5.54257       -1.79771
| 10> H         -6.07420       -6.76889       -0.92127
| 11> H         -3.75515       -6.68239       -0.09144
| 12> H         -4.88182       -6.23486        1.16689
| 13> H         -3.95908       -5.00189        0.34143
| 14> *
| 15> %MaxCore 64000
| 16>
| 17> %pal nprocs 4
| 18> end
| 19>
| 20> %scf
| 21>   MaxIter 150
| 22> end
| 23>
| 24>                          ****END OF INPUT****

CARTESIAN COORDINATES (ANGSTROEM)
---------------------------------
  C     -5.572360   -5.807800   -0.816440
  S     -6.903180   -4.619030   -0.528460
  O     -8.114850   -5.250930   -0.957010
  F     -6.532710   -3.426840   -1.314850
  O     -6.865630   -4.294960    0.914120
  C     -4.457800   -5.941870    0.229190
  H     -5.177350   -5.542570   -1.797710
  H     -6.074200   -6.768890   -0.921270
  H     -3.755150   -6.682390   -0.091440
  H     -4.881820   -6.234860    1.166890
  H     -3.959080   -5.001890    0.341430

 Total Charge           Charge          ....    0
 Multiplicity           Mult            ....    1
 Number of Electrons    NEL             ....   58
 Basis Dimension        Dim             ....  222

ORBITAL ENERGIES
----------------

  NO   OCC          E(Eh)            E(eV)
   0   2.0000     -88.534204     -2409.1382
   1   2.0000     -24.599222      -669.3789
   2   2.0000     -18.997040      -516.9357
   3   2.0000     -18.981499      -516.5128
   4   2.0000     -10.183399      -277.1044
   5   2.0000     -10.134976      -275.7867
   6   2.0000      -8.145112      -221.6398
   7   2.0000      -6.165611      -167.7748
   8   2.0000      -6.158703      -167.5868
   9   2.0000      -6.157789      -167.5620
  10   2.0000      -1.520365       -41.3712
  11   2.0000      -1.282364       -34.8949
  12   2.0000      -1.176138       -32.0043
  13   2.0000      -1.002053       -27.2672
  14   2.0000      -0.892175       -24.2773
  15   2.0000      -0.835286       -22.7293
  16   2.0000      -0.736287       -20.0354
  17   2.0000      -0.724300       -19.7092
  18   2.0000      -0.702547       -19.1173
  19   2.0000      -0.640558       -17.4305
  20   2.0000      -0.627908       -17.0862
  21   2.0000      -0.599055       -16.3011
  22   2.0000      -0.572299       -15.5730
  23   2.0000      -0.542303       -14.7568
  24   2.0000      -0.539711       -14.6863
  25   2.0000      -0.519362       -14.1325
  26   2.0000      -0.473878       -12.8949
  27   2.0000      -0.461070       -12.5463
  28   2.0000      -0.450153       -12.2493
  29   0.0000       0.102978         2.8022
  30   0.0000       0.123173         3.3517
  31   0.0000       0.140672         3.8279
  32   0.0000       0.164500         4.4763
  33   0.0000       0.167996         4.5714

MULLIKEN ATOMIC CHARGES
-----------------------
   0 C :   -0.320425
   1 S :    0.778494
   2 O :   -0.376611
   3 F :   -0.097089
   4 O :   -0.429663
   5 C :   -0.434185
   6 H :    0.174546
   7 H :    0.199238
   8 H :    0.162487
   9 H :    0.181940
  10 H :    0.161268
Sum of atomic charges:    0.0000000

LOEWDIN ATOMIC CHARGES
----------------------
   0 C :   -0.404669
   1 S :    0.524072
   2 O :   -0.250967
   3 F :    0.068782
   4 O :   -0.305728
   5 C :   -0.327772
   6 H :    0.143339
   7 H :    0.156141
   8 H :    0.131546
   9 H :    0.135059
  10 H :    0.130198

  Mayer bond orders larger than 0.100000
B(  0-C ,  1-S ) :   0.9128 B(  0-C ,  5-C ) :   0.9559 B(  0-C ,  6-H ) :   0.9433
B(  0-C ,  7-H ) :   0.9362 B(  1-S ,  2-O ) :   1.9777 B(  1-S ,  3-F ) :   1.1516
B(  1-S ,  4-O ) :   1.9067 B(  5-C ,  8-H ) :   0.9577 B(  5-C ,  9-H ) :   0.9604
B(  5-C , 10-H ) :   0.9664

FINAL SINGLE POINT ENERGY      -726.599235020149

DIPOLE MOMENT
-------------
                                X             Y             Z
Electronic contribution:     -6.67504       6.67146      -2.53180
Nuclear contribution   :      8.15840      -7.14411       1.72305
                        -----------------------------------------
Total Dipole Moment    :      1.48336      -0.47264      -0.80875
                        -----------------------------------------
Magnitude (a.u.)       :      1.75437
Magnitude (Debye)      :      4.45925

Rotational constants in cm-1:     0.153926     0.078297     0.077402
Rotational constants in MHz :  4614.585804  2347.272644  2320.438903

                             ****ORCA TERMINATED NORMALLY****
TOTAL RUN TIME: 0 days 0 hours 0 minutes 27 seconds 487 msec
