                         Program Version 5.0.0 -  RELEASE  -
|  1> !LC-PBE RIJCOSX def2-TZVP def2/J TightSCF
|  2> *xyz 0 1
|  3> C         -5.57236       -5.80780       -0.81644
|  4> S         -6.90318       -4.61903       -0.52846
|  5> O         -8.11485       -5.25093       -0.95701
|  6> O         -6.53271       -3.42684       -1.31485
|  7> F         -6.86563       -4.29496        0.91412
|  8> C         -4.45780       -5.94187        0.22919
|  9> H         -5.17735       -5.54257       -1.79771
| 10> H         -6.07420       -6.76889       -0.92127
| 11> H         -3.75515       -6.68239       -0.09144
| 12> H         -4.88182       -6.23486        1.16689
| 13> H         -3.95908       -5.00189        0.34143
| 14> *
| 15> %MaxCore 64000
| 16>
| 17> %pal nprocs 4
| 18> end
| 19>
| 20> %scf
| 21>   MaxIter 150
| 22> end
| 23>
| 24>                          ****END OF INPUT****

CARTESIAN COORDINATES (ANGSTROEM)
---------------------------------
  C     -5.572360   -5.807800   -0.816440
  S     -6.903180   -4.619030   -0.528460
  O     -8.114850   -5.250930   -0.957010
  O     -6.532710   -3.426840   -1.314850
  F     -6.865630   -4.294960    0.914120
  C     -4.457800   -5.941870    0.229190
  H     -5.177350   -5.542570   -1.797710
  H     -6.074200   -6.768890   -0.921270
  H     -3.755150   -6.682390   -0.091440
  H     -4.881820   -6.234860    1.166890
  H     -3.959080   -5.001890    0.341430

 Total Charge           Charge          ....    0
 Multiplicity           Mult            ....    1
 Number of Electrons    NEL             ....   58
 Basis Dimension        Dim             ....  222

ORBITAL ENERGIES
----------------

  NO   OCC          E(Eh)            E(eV)
   0   2.0000     -88.533581     -2409.1212
   1   2.0000     -24.597849      -669.3415
   2   2.0000     -18.996658      -516.9253
   3   2.0000     -18.980683      -516.4906
   4   2.0000     -10.182623      -277.0833
   5   2.0000     -10.142558      -275.9930
   6   2.0000      -8.144528      -221.6239
   7   2.0000      -6.165136      -167.7619
   8   2.0000      -6.157927      -167.5657
   9   2.0000      -6.157303      -167.5487
  10   2.0000      -1.517404       -41.2907
  11   2.0000      -1.282875       -34.9088
  12   2.0000      -1.176712       -32.0200
  13   2.0000      -1.005266       -27.3547
  14   2.0000      -0.888702       -24.1828
  15   2.0000      -0.840160       -22.8619
  16   2.0000      -0.742158       -20.1951
  17   2.0000      -0.723306       -19.6822
  18   2.0000      -0.693671       -18.8757
  19   2.0000      -0.645492       -17.5647
  20   2.0000      -0.620698       -16.8901
  21   2.0000      -0.595674       -16.2091
  22   2.0000      -0.587118       -15.9763
  23   2.0000      -0.552636       -15.0380
  24   2.0000      -0.533141       -14.5075
  25   2.0000      -0.527247       -14.3471
  26   2.0000      -0.473554       -12.8861
  27   2.0000      -0.460101       -12.5200
  28   2.0000      -0.449422       -12.2294
  29   0.0000       0.093063         2.5324
  30   0.0000       0.136876         3.7246
  31   0.0000       0.151248         4.1157
  32   0.0000       0.157757         4.2928
  33   0.0000       0.165059         4.4915

MULLIKEN ATOMIC CHARGES
-----------------------
   0 C :   -0.314311
   1 S :    0.778549
   2 O :   -0.376878
   3 O :   -0.427127
   4 F :   -0.100851
   5 C :   -0.455611
   6 H :    0.201425
   7 H :    0.190610
   8 H :    0.167260
   9 H :    0.163699
  10 H :    0.173232
Sum of atomic charges:   -0.0000000

LOEWDIN ATOMIC CHARGES
----------------------
   0 C :   -0.398940
   1 S :    0.524296
   2 O :   -0.251087
   3 O :   -0.308469
   4 F :    0.068517
   5 C :   -0.334536
   6 H :    0.156736
   7 H :    0.150137
   8 H :    0.133965
   9 H :    0.127951
  10 H :    0.131430

  Mayer bond orders larger than 0.100000
B(  0-C ,  1-S ) :   0.9173 B(  0-C ,  5-C ) :   0.9537 B(  0-C ,  6-H ) :   0.9356
B(  0-C ,  7-H ) :   0.9394 B(  1-S ,  2-O ) :   1.9762 B(  1-S ,  3-O ) :   1.9172
B(  1-S ,  4-F ) :   1.1459 B(  5-C ,  8-H ) :   0.9608 B(  5-C ,  9-H ) :   0.9635
B(  5-C , 10-H ) :   0.9624

FINAL SINGLE POINT ENERGY      -726.599549411001

DIPOLE MOMENT
-------------
                                X             Y             Z
Electronic contribution:     -7.22770       5.13626       1.33074
Nuclear contribution   :      8.50531      -6.23950      -0.59960
                        -----------------------------------------
Total Dipole Moment    :      1.27761      -1.10324       0.73113
                        -----------------------------------------
Magnitude (a.u.)       :      1.83956
Magnitude (Debye)      :      4.67578

Rotational constants in cm-1:     0.152799     0.080212     0.076962
Rotational constants in MHz :  4580.804531  2404.707790  2307.252710

                             ****ORCA TERMINATED NORMALLY****
TOTAL RUN TIME: 0 days 0 hours 0 minutes 21 seconds 182 msec
