                         Program Version 5.0.0 -  RELEASE  -
|  1> !LC-BLYP RIJCOSX def2-SVPD def2/J TightSCF
|  2> *xyz -1 1
|  3> C         -0.91495        0.61511        2.50554
|  4> C         -0.05915        1.50352        3.41058
|  5> H          0.36536        2.34431        2.86116
|  6> H         -0.69226        1.92021        4.19898
|  7> C          1.08303        0.74964        4.08571
|  8> O          2.22817        1.26348        4.01983
|  9> O          0.81003       -0.34541        4.63627
| 10> C         -0.13074       -0.19398        1.47076
| 11> H         -1.64796        1.24596        1.99108
| 12> H         -1.47818       -0.08105        3.13042
| 13> H         -0.80952       -0.78099        0.88803
| 14> H          0.55985       -0.83974        1.97175
| 15> H          0.40595        0.47288        0.82877
| 16> *
| 17>
| 18> %MaxCore 64000
| 19>
| 20> %pal nprocs 4
| 21> end
| 22>
| 23> %scf
| 24>   MaxIter 150
| 25> end
| 26>
| 27>
| 28>                          ****END OF INPUT****

CARTESIAN COORDINATES (ANGSTROEM)
---------------------------------
  C     -0.914950    0.615110    2.505540
  C     -0.059150    1.503520    3.410580
  H      0.365360    2.344310    2.861160
  H     -0.692260    1.920210    4.198980
  C      1.083030    0.749640    4.085710
  O      2.228170    1.263480    4.019830
  O      0.810030   -0.345410    4.636270
  C     -0.130740   -0.193980    1.470760
  H     -1.647960    1.245960    1.991080
  H     -1.478180   -0.081050    3.130420
  H     -0.809520   -0.780990    0.888030
  H      0.559850   -0.839740    1.971750
  H      0.405950    0.472880    0.828770

 Total Charge           Charge          ....   -1
 Multiplicity           Mult            ....    1
 Number of Electrons    NEL             ....   48
 Basis Dimension        Dim             ....  182

ORBITAL ENERGIES
----------------

  NO   OCC          E(Eh)            E(eV)
   0   2.0000     -18.700167      -508.8574
   1   2.0000     -18.699304      -508.8339
   2   2.0000      -9.977855      -271.5112
   3   2.0000      -9.937756      -270.4201
   4   2.0000      -9.930166      -270.2136
   5   2.0000      -9.914011      -269.7739
   6   2.0000      -0.911387       -24.8001
   7   2.0000      -0.815826       -22.1997
   8   2.0000      -0.742951       -20.2167
   9   2.0000      -0.648254       -17.6399
  10   2.0000      -0.550534       -14.9808
  11   2.0000      -0.435516       -11.8510
  12   2.0000      -0.413867       -11.2619
  13   2.0000      -0.394121       -10.7246
  14   2.0000      -0.360964        -9.8223
  15   2.0000      -0.338882        -9.2214
  16   2.0000      -0.319823        -8.7028
  17   2.0000      -0.311522        -8.4769
  18   2.0000      -0.296256        -8.0615
  19   2.0000      -0.276111        -7.5134
  20   2.0000      -0.267403        -7.2764
  21   2.0000      -0.154579        -4.2063
  22   2.0000      -0.147073        -4.0020
  23   2.0000      -0.133317        -3.6277
  24   0.0000       0.197408         5.3717
  25   0.0000       0.219962         5.9855
  26   0.0000       0.237099         6.4518
  27   0.0000       0.247592         6.7373
  28   0.0000       0.273759         7.4494

MULLIKEN ATOMIC CHARGES
-----------------------
   0 C :   -0.279221
   1 C :    0.342206
   2 H :   -0.085871
   3 H :   -0.114351
   4 C :    0.092545
   5 O :   -0.550295
   6 O :   -0.599682
   7 C :    0.879773
   8 H :   -0.261076
   9 H :   -0.054095
  10 H :   -0.153351
  11 H :   -0.126022
  12 H :   -0.090560
Sum of atomic charges:   -1.0000000

LOEWDIN ATOMIC CHARGES
----------------------
   0 C :   -0.103019
   1 C :   -0.015371
   2 H :    0.008231
   3 H :    0.017891
   4 C :   -0.350750
   5 O :   -0.309290
   6 O :   -0.300542
   7 C :    0.104001
   8 H :    0.003515
   9 H :    0.015282
  10 H :   -0.032263
  11 H :   -0.017749
  12 H :   -0.019937

  Mayer bond orders larger than 0.100000
B(  0-C ,  1-C ) :   1.2089 B(  0-C ,  2-H ) :   0.1601 B(  0-C ,  3-H ) :   0.1437
B(  0-C ,  7-C ) :   1.3322 B(  0-C ,  8-H ) :   0.9366 B(  0-C ,  9-H ) :   0.8610
B(  0-C , 10-H ) :   0.2606 B(  0-C , 11-H ) :   0.2408 B(  0-C , 12-H ) :   0.2254
B(  1-C ,  2-H ) :   0.8349 B(  1-C ,  3-H ) :   0.7913 B(  1-C ,  4-C ) :   1.0176
B(  1-C ,  8-H ) :   0.1138 B(  1-C ,  9-H ) :   0.1273 B(  2-H ,  4-C ) :   0.2480
B(  3-H ,  4-C ) :   0.1134 B(  4-C ,  5-O ) :   1.5880 B(  4-C ,  6-O ) :   1.6633
B(  7-C ,  8-H ) :   0.1002 B(  7-C , 10-H ) :   0.6852 B(  7-C , 11-H ) :   0.7802
B(  7-C , 12-H ) :   0.7397

FINAL SINGLE POINT ENERGY      -306.231461723167

DIPOLE MOMENT
-------------
                                X             Y             Z
Electronic contribution:      4.55287       0.22671       5.48636
Nuclear contribution   :     -6.45806       0.15825      -7.12052
                        -----------------------------------------
Total Dipole Moment    :     -1.90519       0.38496      -1.63416
                        -----------------------------------------
Magnitude (a.u.)       :      2.53937
Magnitude (Debye)      :      6.45458

Rotational constants in cm-1:     0.199323     0.080770     0.077827
Rotational constants in MHz :  5975.562678  2421.415024  2333.195390

                             ****ORCA TERMINATED NORMALLY****
TOTAL RUN TIME: 0 days 0 hours 0 minutes 19 seconds 945 msec
