                         Program Version 5.0.0 -  RELEASE  -
|  1> !LC-BLYP RIJCOSX def2-SVPD def2/J TightSCF
|  2> *xyz 1 1
|  3> C          4.60295       -2.44010        2.63478
|  4> C          3.86085       -1.59157        3.62289
|  5> N          2.75650       -2.04616        4.16633
|  6> N          4.25433       -0.36291        3.86046
|  7> H          3.56526        0.31099        4.16898
|  8> H          5.05429       -0.01606        3.33784
|  9> H          2.43970       -2.97389        3.89740
| 10> H          2.06687       -1.41253        4.54981
| 11> C          3.74469       -2.58056        1.36188
| 12> C          3.20372       -1.25600        0.82621
| 13> H          2.89894       -3.23929        1.58307
| 14> H          4.33496       -3.09552        0.60019
| 15> H          5.56156       -1.97135        2.40708
| 16> H          4.81050       -3.42255        3.06310
| 17> H          2.62184       -1.43789       -0.05313
| 18> H          4.02069       -0.60826        0.58562
| 19> H          2.58975       -0.79418        1.57097
| 20> *
| 21>
| 22> %MaxCore 64000
| 23>
| 24> %pal nprocs 4
| 25> end
| 26>
| 27> %scf
| 28>   MaxIter 150
| 29> end
| 30>
| 31>
| 32>                          ****END OF INPUT****

CARTESIAN COORDINATES (ANGSTROEM)
---------------------------------
  C      4.602950   -2.440100    2.634780
  C      3.860850   -1.591570    3.622890
  N      2.756500   -2.046160    4.166330
  N      4.254330   -0.362910    3.860460
  H      3.565260    0.310990    4.168980
  H      5.054290   -0.016060    3.337840
  H      2.439700   -2.973890    3.897400
  H      2.066870   -1.412530    4.549810
  C      3.744690   -2.580560    1.361880
  C      3.203720   -1.256000    0.826210
  H      2.898940   -3.239290    1.583070
  H      4.334960   -3.095520    0.600190
  H      5.561560   -1.971350    2.407080
  H      4.810500   -3.422550    3.063100
  H      2.621840   -1.437890   -0.053130
  H      4.020690   -0.608260    0.585620
  H      2.589750   -0.794180    1.570970

 Total Charge           Charge          ....    1
 Multiplicity           Mult            ....    1
 Number of Electrons    NEL             ....   48
 Basis Dimension        Dim             ....  208

ORBITAL ENERGIES
----------------

  NO   OCC          E(Eh)            E(eV)
   0   2.0000     -14.432546      -392.7296
   1   2.0000     -14.432406      -392.7257
   2   2.0000     -10.408922      -283.2412
   3   2.0000     -10.282027      -279.7882
   4   2.0000     -10.252751      -278.9915
   5   2.0000     -10.220514      -278.1143
   6   2.0000      -1.301595       -35.4182
   7   2.0000      -1.202042       -32.7092
   8   2.0000      -1.082726       -29.4625
   9   2.0000      -0.994273       -27.0555
  10   2.0000      -0.938850       -25.5474
  11   2.0000      -0.889966       -24.2172
  12   2.0000      -0.876870       -23.8608
  13   2.0000      -0.838160       -22.8075
  14   2.0000      -0.797170       -21.6921
  15   2.0000      -0.778318       -21.1791
  16   2.0000      -0.735232       -20.0067
  17   2.0000      -0.697847       -18.9894
  18   2.0000      -0.678622       -18.4663
  19   2.0000      -0.669338       -18.2136
  20   2.0000      -0.610269       -16.6063
  21   2.0000      -0.608436       -16.5564
  22   2.0000      -0.595907       -16.2154
  23   2.0000      -0.591794       -16.1035
  24   0.0000      -0.136384        -3.7112
  25   0.0000      -0.097461        -2.6520
  26   0.0000      -0.059851        -1.6286
  27   0.0000      -0.054500        -1.4830
  28   0.0000      -0.032224        -0.8769

MULLIKEN ATOMIC CHARGES
-----------------------
   0 C :    0.488053
   1 C :    0.046160
   2 N :    0.268885
   3 N :    0.234023
   4 H :   -0.085706
   5 H :    0.081580
   6 H :    0.068536
   7 H :   -0.135389
   8 C :   -0.178346
   9 C :    1.057258
  10 H :   -0.064729
  11 H :   -0.245080
  12 H :   -0.041305
  13 H :   -0.082053
  14 H :   -0.193015
  15 H :   -0.094073
  16 H :   -0.124799
Sum of atomic charges:    1.0000000

LOEWDIN ATOMIC CHARGES
----------------------
   0 C :    0.041398
   1 C :   -0.091899
   2 N :    0.300570
   3 N :    0.299818
   4 H :    0.052496
   5 H :    0.054279
   6 H :    0.054726
   7 H :    0.053551
   8 C :   -0.050923
   9 C :    0.130896
  10 H :    0.028692
  11 H :    0.046871
  12 H :    0.044741
  13 H :    0.054865
  14 H :    0.007069
  15 H :   -0.001030
  16 H :   -0.026121

  Mayer bond orders larger than 0.100000
B(  0-C ,  1-C ) :   1.2155 B(  0-C ,  8-C ) :   1.1402 B(  0-C , 10-H ) :   0.1161
B(  0-C , 11-H ) :   0.1258 B(  0-C , 12-H ) :   0.7266 B(  0-C , 13-H ) :   0.7569
B(  1-C ,  2-N ) :   1.2721 B(  1-C ,  3-N ) :   1.2253 B(  1-C ,  4-H ) :  -0.1087
B(  1-C ,  7-H ) :  -0.1010 B(  1-C , 12-H ) :   0.2402 B(  1-C , 13-H ) :   0.2224
B(  2-N ,  3-N ) :   0.1610 B(  2-N ,  6-H ) :   1.0198 B(  2-N ,  7-H ) :   1.2145
B(  3-N ,  4-H ) :   1.1801 B(  3-N ,  5-H ) :   0.9934 B(  4-H ,  5-H ) :  -0.1505
B(  6-H ,  7-H ) :  -0.1711 B(  8-C ,  9-C ) :   1.3374 B(  8-C , 10-H ) :   0.8534
B(  8-C , 11-H ) :   0.9494 B(  8-C , 12-H ) :   0.1493 B(  8-C , 14-H ) :   0.2621
B(  8-C , 15-H ) :   0.2224 B(  8-C , 16-H ) :   0.2684 B(  9-C , 14-H ) :   0.6842
B(  9-C , 15-H ) :   0.6999 B(  9-C , 16-H ) :   0.7231 B( 15-H , 16-H ) :   0.1127

FINAL SINGLE POINT ENERGY      -267.430114071914

DIPOLE MOMENT
-------------
                                X             Y             Z
Electronic contribution:      0.49483       0.57226       5.20916
Nuclear contribution   :     -0.82989      -0.08664      -4.26094
                        -----------------------------------------
Total Dipole Moment    :     -0.33506       0.48562       0.94822
                        -----------------------------------------
Magnitude (a.u.)       :      1.11679
Magnitude (Debye)      :      2.83865

Rotational constants in cm-1:     0.166042     0.084809     0.078793
Rotational constants in MHz :  4977.819890  2542.513379  2362.161076

                             ****ORCA TERMINATED NORMALLY****
TOTAL RUN TIME: 0 days 0 hours 0 minutes 26 seconds 917 msec
