                         Program Version 5.0.0 -  RELEASE  -
|  1> !LC-BLYP RIJCOSX def2-SVPD def2/J TightSCF
|  2> *xyz 0 1
|  3> C         -0.91495        0.61511        2.50554
|  4> C         -0.05915        1.50352        3.41058
|  5> H          0.36536        2.34431        2.86116
|  6> H         -0.69226        1.92021        4.19898
|  7> C          1.08303        0.74964        4.08571
|  8> F          2.22817        1.26348        4.01983
|  9> O          0.81003       -0.34541        4.63627
| 10> C         -0.13074       -0.19398        1.47076
| 11> H         -1.64796        1.24596        1.99108
| 12> H         -1.47818       -0.08105        3.13042
| 13> H         -0.80952       -0.78099        0.88803
| 14> H          0.55985       -0.83974        1.97175
| 15> H          0.40595        0.47288        0.82877
| 16> *
| 17>
| 18> %MaxCore 64000
| 19>
| 20> %pal nprocs 4
| 21> end
| 22>
| 23> %scf
| 24>   MaxIter 150
| 25> end
| 26>
| 27>
| 28>                          ****END OF INPUT****

CARTESIAN COORDINATES (ANGSTROEM)
---------------------------------
  C     -0.914950    0.615110    2.505540
  C     -0.059150    1.503520    3.410580
  H      0.365360    2.344310    2.861160
  H     -0.692260    1.920210    4.198980
  C      1.083030    0.749640    4.085710
  F      2.228170    1.263480    4.019830
  O      0.810030   -0.345410    4.636270
  C     -0.130740   -0.193980    1.470760
  H     -1.647960    1.245960    1.991080
  H     -1.478180   -0.081050    3.130420
  H     -0.809520   -0.780990    0.888030
  H      0.559850   -0.839740    1.971750
  H      0.405950    0.472880    0.828770

 Total Charge           Charge          ....    0
 Multiplicity           Mult            ....    1
 Number of Electrons    NEL             ....   48
 Basis Dimension        Dim             ....  182

ORBITAL ENERGIES
----------------

  NO   OCC          E(Eh)            E(eV)
   0   2.0000     -24.548610      -668.0016
   1   2.0000     -18.969687      -516.1914
   2   2.0000     -10.272050      -279.5167
   3   2.0000     -10.117803      -275.3194
   4   2.0000     -10.099852      -274.8309
   5   2.0000     -10.077361      -274.2189
   6   2.0000      -1.388457       -37.7818
   7   2.0000      -1.122202       -30.5367
   8   2.0000      -0.919749       -25.0276
   9   2.0000      -0.835535       -22.7361
  10   2.0000      -0.766992       -20.8709
  11   2.0000      -0.717057       -19.5121
  12   2.0000      -0.661281       -17.9944
  13   2.0000      -0.638822       -17.3832
  14   2.0000      -0.615746       -16.7553
  15   2.0000      -0.573217       -15.5980
  16   2.0000      -0.562191       -15.2980
  17   2.0000      -0.522843       -14.2273
  18   2.0000      -0.507363       -13.8061
  19   2.0000      -0.475599       -12.9417
  20   2.0000      -0.457009       -12.4358
  21   2.0000      -0.450062       -12.2468
  22   2.0000      -0.444253       -12.0887
  23   2.0000      -0.398758       -10.8508
  24   0.0000       0.045079         1.2267
  25   0.0000       0.066312         1.8044
  26   0.0000       0.091825         2.4987
  27   0.0000       0.097524         2.6538
  28   0.0000       0.111342         3.0298

MULLIKEN ATOMIC CHARGES
-----------------------
   0 C :   -0.210395
   1 C :    0.267505
   2 H :   -0.060183
   3 H :   -0.053308
   4 C :    0.459407
   5 F :   -0.272888
   6 O :   -0.387981
   7 C :    0.905951
   8 H :   -0.230307
   9 H :   -0.051286
  10 H :   -0.131079
  11 H :   -0.149912
  12 H :   -0.085524
Sum of atomic charges:   -0.0000000

LOEWDIN ATOMIC CHARGES
----------------------
   0 C :   -0.074727
   1 C :    0.027253
   2 H :    0.030846
   3 H :    0.047486
   4 C :   -0.055536
   5 F :   -0.010290
   6 O :   -0.110716
   7 C :    0.121670
   8 H :    0.029749
   9 H :    0.031760
  10 H :   -0.009574
  11 H :   -0.017436
  12 H :   -0.010485

  Mayer bond orders larger than 0.100000
B(  0-C ,  1-C ) :   1.2348 B(  0-C ,  2-H ) :   0.1574 B(  0-C ,  3-H ) :   0.1393
B(  0-C ,  7-C ) :   1.3546 B(  0-C ,  8-H ) :   0.9179 B(  0-C ,  9-H ) :   0.8573
B(  0-C , 10-H ) :   0.2478 B(  0-C , 11-H ) :   0.2273 B(  0-C , 12-H ) :   0.2169
B(  1-C ,  2-H ) :   0.8504 B(  1-C ,  3-H ) :   0.7961 B(  1-C ,  4-C ) :   1.0761
B(  1-C ,  8-H ) :   0.1174 B(  1-C ,  9-H ) :   0.1193 B(  2-H ,  4-C ) :   0.1315
B(  4-C ,  5-F ) :   0.8614 B(  4-C ,  6-O ) :   1.9578 B(  5-F ,  6-O ) :   0.1156
B(  7-C , 10-H ) :   0.6956 B(  7-C , 11-H ) :   0.7740 B(  7-C , 12-H ) :   0.7396

FINAL SINGLE POINT ENERGY      -330.747686749908

DIPOLE MOMENT
-------------
                                X             Y             Z
Electronic contribution:      7.95659       1.47957       7.20987
Nuclear contribution   :     -8.39104      -0.60591      -7.87060
                        -----------------------------------------
Total Dipole Moment    :     -0.43445       0.87366      -0.66073
                        -----------------------------------------
Magnitude (a.u.)       :      1.17839
Magnitude (Debye)      :      2.99522

Rotational constants in cm-1:     0.194210     0.077092     0.074391
Rotational constants in MHz :  5822.269139  2311.145895  2230.180895

                             ****ORCA TERMINATED NORMALLY****
TOTAL RUN TIME: 0 days 0 hours 0 minutes 19 seconds 951 msec
