                         Program Version 5.0.0 -  RELEASE  -
|  1> !LC-BLYP RIJCOSX def2-SVPD def2/J TightSCF
|  2> *xyz 0 1
|  3> C          4.60295       -2.44010        2.63478
|  4> C          3.86085       -1.59157        3.62289
|  5> C          2.75650       -2.04616        4.16633
|  6> N          4.25433       -0.36291        3.86046
|  7> H          3.56526        0.31099        4.16898
|  8> H          5.05429       -0.01606        3.33784
|  9> H          2.43970       -2.97389        3.89740
| 10> H          2.06687       -1.41253        4.54981
| 11> C          3.74469       -2.58056        1.36188
| 12> C          3.20372       -1.25600        0.82621
| 13> H          2.89894       -3.23929        1.58307
| 14> H          4.33496       -3.09552        0.60019
| 15> H          5.56156       -1.97135        2.40708
| 16> H          4.81050       -3.42255        3.06310
| 17> H          2.62184       -1.43789       -0.05313
| 18> H          4.02069       -0.60826        0.58562
| 19> H          2.58975       -0.79418        1.57097
| 20> *
| 21>
| 22> %MaxCore 64000
| 23>
| 24> %pal nprocs 4
| 25> end
| 26>
| 27> %scf
| 28>   MaxIter 150
| 29> end
| 30>
| 31>
| 32>                          ****END OF INPUT****

CARTESIAN COORDINATES (ANGSTROEM)
---------------------------------
  C      4.602950   -2.440100    2.634780
  C      3.860850   -1.591570    3.622890
  C      2.756500   -2.046160    4.166330
  N      4.254330   -0.362910    3.860460
  H      3.565260    0.310990    4.168980
  H      5.054290   -0.016060    3.337840
  H      2.439700   -2.973890    3.897400
  H      2.066870   -1.412530    4.549810
  C      3.744690   -2.580560    1.361880
  C      3.203720   -1.256000    0.826210
  H      2.898940   -3.239290    1.583070
  H      4.334960   -3.095520    0.600190
  H      5.561560   -1.971350    2.407080
  H      4.810500   -3.422550    3.063100
  H      2.621840   -1.437890   -0.053130
  H      4.020690   -0.608260    0.585620
  H      2.589750   -0.794180    1.570970

 Total Charge           Charge          ....    0
 Multiplicity           Mult            ....    1
 Number of Electrons    NEL             ....   48
 Basis Dimension        Dim             ....  208

ORBITAL ENERGIES
----------------

  NO   OCC          E(Eh)            E(eV)
   0   2.0000     -14.190662      -386.1475
   1   2.0000     -10.106984      -275.0250
   2   2.0000     -10.085923      -274.4519
   3   2.0000     -10.082421      -274.3566
   4   2.0000     -10.065746      -273.9029
   5   2.0000     -10.016865      -272.5727
   6   2.0000      -1.029855       -28.0238
   7   2.0000      -0.900612       -24.5069
   8   2.0000      -0.833003       -22.6672
   9   2.0000      -0.789333       -21.4788
  10   2.0000      -0.711071       -19.3492
  11   2.0000      -0.660729       -17.9793
  12   2.0000      -0.626559       -17.0496
  13   2.0000      -0.593961       -16.1625
  14   2.0000      -0.565395       -15.3852
  15   2.0000      -0.540851       -14.7173
  16   2.0000      -0.504811       -13.7366
  17   2.0000      -0.490215       -13.3394
  18   2.0000      -0.468977       -12.7615
  19   2.0000      -0.463242       -12.6055
  20   2.0000      -0.436379       -11.8745
  21   2.0000      -0.428178       -11.6513
  22   2.0000      -0.422316       -11.4918
  23   2.0000      -0.288116        -7.8400
  24   0.0000       0.070324         1.9136
  25   0.0000       0.090051         2.4504
  26   0.0000       0.099911         2.7187
  27   0.0000       0.107310         2.9201
  28   0.0000       0.122070         3.3217

MULLIKEN ATOMIC CHARGES
-----------------------
   0 C :    0.644971
   1 C :   -0.521311
   2 C :    0.534459
   3 N :    0.322931
   4 H :   -0.081821
   5 H :    0.005643
   6 H :   -0.218915
   7 H :   -0.517736
   8 C :   -0.236721
   9 C :    1.047402
  10 H :   -0.088467
  11 H :   -0.239427
  12 H :   -0.123695
  13 H :   -0.068969
  14 H :   -0.273985
  15 H :   -0.089992
  16 H :   -0.094369
Sum of atomic charges:    0.0000000

LOEWDIN ATOMIC CHARGES
----------------------
   0 C :    0.001452
   1 C :   -0.291579
   2 C :    0.164722
   3 N :    0.187838
   4 H :    0.011491
   5 H :    0.000667
   6 H :   -0.074207
   7 H :   -0.077706
   8 C :   -0.073840
   9 C :    0.112911
  10 H :    0.021063
  11 H :    0.021146
  12 H :    0.018189
  13 H :    0.033031
  14 H :   -0.015314
  15 H :   -0.015215
  16 H :   -0.024648

  Mayer bond orders larger than 0.100000
B(  0-C ,  1-C ) :   1.2488 B(  0-C ,  2-C ) :   0.1212 B(  0-C ,  8-C ) :   1.1228
B(  0-C , 10-H ) :   0.1370 B(  0-C , 11-H ) :   0.1885 B(  0-C , 12-H ) :   0.5395
B(  0-C , 13-H ) :   0.7308 B(  1-C ,  2-C ) :   1.9335 B(  1-C ,  3-N ) :   1.1013
B(  1-C ,  5-H ) :   0.1273 B(  1-C ,  7-H ) :   0.2330 B(  1-C ,  8-C ) :   0.1314
B(  1-C , 12-H ) :   0.3558 B(  1-C , 13-H ) :   0.2366 B(  2-C ,  3-N ) :   0.3128
B(  2-C ,  6-H ) :   0.7180 B(  2-C ,  7-H ) :   0.6630 B(  3-N ,  4-H ) :   1.0451
B(  3-N ,  5-H ) :   0.9275 B(  3-N ,  6-H ) :   0.1182 B(  4-H ,  5-H ) :  -0.1413
B(  8-C ,  9-C ) :   1.2896 B(  8-C , 10-H ) :   0.8726 B(  8-C , 11-H ) :   0.8835
B(  8-C , 12-H ) :   0.1925 B(  8-C , 13-H ) :   0.1036 B(  8-C , 14-H ) :   0.2734
B(  8-C , 15-H ) :   0.2349 B(  8-C , 16-H ) :   0.2978 B(  9-C , 10-H ) :   0.1125
B(  9-C , 11-H ) :   0.1010 B(  9-C , 14-H ) :   0.6783 B(  9-C , 15-H ) :   0.7011
B(  9-C , 16-H ) :   0.7349

FINAL SINGLE POINT ENERGY      -250.974999627246

DIPOLE MOMENT
-------------
                                X             Y             Z
Electronic contribution:      1.35855       0.68853       3.40849
Nuclear contribution   :     -1.05621      -0.17147      -3.92631
                        -----------------------------------------
Total Dipole Moment    :      0.30234       0.51706      -0.51782
                        -----------------------------------------
Magnitude (a.u.)       :      0.79177
Magnitude (Debye)      :      2.01251

Rotational constants in cm-1:     0.171127     0.086782     0.080643
Rotational constants in MHz :  5130.249275  2601.647634  2417.629092

                             ****ORCA TERMINATED NORMALLY****
TOTAL RUN TIME: 0 days 0 hours 0 minutes 28 seconds 145 msec
