                         Program Version 5.0.0 -  RELEASE  -
|  1> !LC-BLYP RIJCOSX def2-SVPD def2/J TightSCF
|  2> *xyz 0 1
|  3> C         -0.91495        0.61511        2.50554
|  4> C         -0.05915        1.50352        3.41058
|  5> H          0.36536        2.34431        2.86116
|  6> H         -0.69226        1.92021        4.19898
|  7> C          1.08303        0.74964        4.08571
|  8> O          2.22817        1.26348        4.01983
|  9> F          0.81003       -0.34541        4.63627
| 10> C         -0.13074       -0.19398        1.47076
| 11> H         -1.64796        1.24596        1.99108
| 12> H         -1.47818       -0.08105        3.13042
| 13> H         -0.80952       -0.78099        0.88803
| 14> H          0.55985       -0.83974        1.97175
| 15> H          0.40595        0.47288        0.82877
| 16> *
| 17>
| 18> %MaxCore 64000
| 19>
| 20> %pal nprocs 4
| 21> end
| 22>
| 23> %scf
| 24>   MaxIter 150
| 25> end
| 26>
| 27>
| 28>                          ****END OF INPUT****

CARTESIAN COORDINATES (ANGSTROEM)
---------------------------------
  C     -0.914950    0.615110    2.505540
  C     -0.059150    1.503520    3.410580
  H      0.365360    2.344310    2.861160
  H     -0.692260    1.920210    4.198980
  C      1.083030    0.749640    4.085710
  O      2.228170    1.263480    4.019830
  F      0.810030   -0.345410    4.636270
  C     -0.130740   -0.193980    1.470760
  H     -1.647960    1.245960    1.991080
  H     -1.478180   -0.081050    3.130420
  H     -0.809520   -0.780990    0.888030
  H      0.559850   -0.839740    1.971750
  H      0.405950    0.472880    0.828770

 Total Charge           Charge          ....    0
 Multiplicity           Mult            ....    1
 Number of Electrons    NEL             ....   48
 Basis Dimension        Dim             ....  182

ORBITAL ENERGIES
----------------

  NO   OCC          E(Eh)            E(eV)
   0   2.0000     -24.549965      -668.0385
   1   2.0000     -18.968159      -516.1499
   2   2.0000     -10.271040      -279.4892
   3   2.0000     -10.116843      -275.2933
   4   2.0000     -10.104866      -274.9674
   5   2.0000     -10.083085      -274.3747
   6   2.0000      -1.390024       -37.8245
   7   2.0000      -1.119606       -30.4660
   8   2.0000      -0.924871       -25.1670
   9   2.0000      -0.835861       -22.7449
  10   2.0000      -0.766503       -20.8576
  11   2.0000      -0.722796       -19.6683
  12   2.0000      -0.664162       -18.0728
  13   2.0000      -0.650746       -17.7077
  14   2.0000      -0.597237       -16.2516
  15   2.0000      -0.580456       -15.7950
  16   2.0000      -0.564333       -15.3563
  17   2.0000      -0.525237       -14.2924
  18   2.0000      -0.505204       -13.7473
  19   2.0000      -0.481828       -13.1112
  20   2.0000      -0.467883       -12.7318
  21   2.0000      -0.452606       -12.3160
  22   2.0000      -0.447851       -12.1867
  23   2.0000      -0.392096       -10.6695
  24   0.0000       0.048502         1.3198
  25   0.0000       0.064038         1.7426
  26   0.0000       0.093004         2.5308
  27   0.0000       0.097742         2.6597
  28   0.0000       0.106319         2.8931

MULLIKEN ATOMIC CHARGES
-----------------------
   0 C :   -0.220419
   1 C :    0.294715
   2 H :   -0.074972
   3 H :   -0.070683
   4 C :    0.474325
   5 O :   -0.336458
   6 F :   -0.313338
   7 C :    0.912383
   8 H :   -0.238006
   9 H :   -0.074360
  10 H :   -0.130725
  11 H :   -0.148152
  12 H :   -0.074310
Sum of atomic charges:   -0.0000000

LOEWDIN ATOMIC CHARGES
----------------------
   0 C :   -0.082776
   1 C :    0.031751
   2 H :    0.041683
   3 H :    0.044464
   4 C :   -0.061916
   5 O :   -0.113154
   6 F :   -0.007174
   7 C :    0.122095
   8 H :    0.029965
   9 H :    0.026794
  10 H :   -0.009675
  11 H :   -0.016857
  12 H :   -0.005201

  Mayer bond orders larger than 0.100000
B(  0-C ,  1-C ) :   1.2118 B(  0-C ,  2-H ) :   0.1473 B(  0-C ,  3-H ) :   0.1345
B(  0-C ,  7-C ) :   1.3560 B(  0-C ,  8-H ) :   0.9240 B(  0-C ,  9-H ) :   0.8571
B(  0-C , 10-H ) :   0.2526 B(  0-C , 11-H ) :   0.2299 B(  0-C , 12-H ) :   0.2239
B(  1-C ,  2-H ) :   0.8718 B(  1-C ,  3-H ) :   0.8035 B(  1-C ,  4-C ) :   1.0379
B(  1-C ,  8-H ) :   0.1202 B(  1-C ,  9-H ) :   0.1111 B(  2-H ,  4-C ) :   0.1658
B(  4-C ,  5-O ) :   1.9322 B(  4-C ,  6-F ) :   0.8345 B(  5-O ,  6-F ) :   0.1286
B(  7-C , 10-H ) :   0.6905 B(  7-C , 11-H ) :   0.7713 B(  7-C , 12-H ) :   0.7416

FINAL SINGLE POINT ENERGY      -330.746496795697

DIPOLE MOMENT
-------------
                                X             Y             Z
Electronic contribution:      5.51726      -1.24844       8.21583
Nuclear contribution   :     -6.78915       1.21145      -8.56691
                        -----------------------------------------
Total Dipole Moment    :     -1.27189      -0.03698      -0.35108
                        -----------------------------------------
Magnitude (a.u.)       :      1.31997
Magnitude (Debye)      :      3.35510

Rotational constants in cm-1:     0.188995     0.079574     0.075294
Rotational constants in MHz :  5665.932233  2385.568994  2257.246443

                             ****ORCA TERMINATED NORMALLY****
TOTAL RUN TIME: 0 days 0 hours 0 minutes 20 seconds 429 msec
