                         Program Version 5.0.0 -  RELEASE  -
|  1> !LC-BLYP RIJCOSX def2-SVPD def2/J TightSCF
|  2> *xyz 0 1
|  3> C          4.60295       -2.44010        2.63478
|  4> C          3.86085       -1.59157        3.62289
|  5> N          2.75650       -2.04616        4.16633
|  6> C          4.25433       -0.36291        3.86046
|  7> H          3.56526        0.31099        4.16898
|  8> H          5.05429       -0.01606        3.33784
|  9> H          2.43970       -2.97389        3.89740
| 10> H          2.06687       -1.41253        4.54981
| 11> C          3.74469       -2.58056        1.36188
| 12> C          3.20372       -1.25600        0.82621
| 13> H          2.89894       -3.23929        1.58307
| 14> H          4.33496       -3.09552        0.60019
| 15> H          5.56156       -1.97135        2.40708
| 16> H          4.81050       -3.42255        3.06310
| 17> H          2.62184       -1.43789       -0.05313
| 18> H          4.02069       -0.60826        0.58562
| 19> H          2.58975       -0.79418        1.57097
| 20> *
| 21>
| 22> %MaxCore 64000
| 23>
| 24> %pal nprocs 4
| 25> end
| 26>
| 27> %scf
| 28>   MaxIter 150
| 29> end
| 30>
| 31>
| 32>                          ****END OF INPUT****

CARTESIAN COORDINATES (ANGSTROEM)
---------------------------------
  C      4.602950   -2.440100    2.634780
  C      3.860850   -1.591570    3.622890
  N      2.756500   -2.046160    4.166330
  C      4.254330   -0.362910    3.860460
  H      3.565260    0.310990    4.168980
  H      5.054290   -0.016060    3.337840
  H      2.439700   -2.973890    3.897400
  H      2.066870   -1.412530    4.549810
  C      3.744690   -2.580560    1.361880
  C      3.203720   -1.256000    0.826210
  H      2.898940   -3.239290    1.583070
  H      4.334960   -3.095520    0.600190
  H      5.561560   -1.971350    2.407080
  H      4.810500   -3.422550    3.063100
  H      2.621840   -1.437890   -0.053130
  H      4.020690   -0.608260    0.585620
  H      2.589750   -0.794180    1.570970

 Total Charge           Charge          ....    0
 Multiplicity           Mult            ....    1
 Number of Electrons    NEL             ....   48
 Basis Dimension        Dim             ....  208

ORBITAL ENERGIES
----------------

  NO   OCC          E(Eh)            E(eV)
   0   2.0000     -14.191388      -386.1673
   1   2.0000     -10.107135      -275.0291
   2   2.0000     -10.085915      -274.4517
   3   2.0000     -10.085074      -274.4288
   4   2.0000     -10.064499      -273.8689
   5   2.0000     -10.017770      -272.5974
   6   2.0000      -1.029784       -28.0218
   7   2.0000      -0.899317       -24.4717
   8   2.0000      -0.835986       -22.7483
   9   2.0000      -0.791002       -21.5243
  10   2.0000      -0.703182       -19.1346
  11   2.0000      -0.671897       -18.2832
  12   2.0000      -0.630772       -17.1642
  13   2.0000      -0.578424       -15.7397
  14   2.0000      -0.564826       -15.3697
  15   2.0000      -0.554228       -15.0813
  16   2.0000      -0.492718       -13.4075
  17   2.0000      -0.491089       -13.3632
  18   2.0000      -0.477218       -12.9858
  19   2.0000      -0.466886       -12.7046
  20   2.0000      -0.431140       -11.7319
  21   2.0000      -0.430306       -11.7092
  22   2.0000      -0.419937       -11.4271
  23   2.0000      -0.290079        -7.8934
  24   0.0000       0.068282         1.8580
  25   0.0000       0.090671         2.4673
  26   0.0000       0.101186         2.7534
  27   0.0000       0.106191         2.8896
  28   0.0000       0.123583         3.3629

MULLIKEN ATOMIC CHARGES
-----------------------
   0 C :    0.466801
   1 C :   -0.540885
   2 N :    0.396166
   3 C :    0.576778
   4 H :   -0.475495
   5 H :   -0.150580
   6 H :   -0.040649
   7 H :   -0.165114
   8 C :   -0.176884
   9 C :    1.050575
  10 H :   -0.055128
  11 H :   -0.313969
  12 H :    0.028296
  13 H :   -0.145253
  14 H :   -0.183471
  15 H :   -0.113827
  16 H :   -0.157362
Sum of atomic charges:   -0.0000000

LOEWDIN ATOMIC CHARGES
----------------------
   0 C :    0.000345
   1 C :   -0.295625
   2 N :    0.191413
   3 C :    0.164006
   4 H :   -0.076982
   5 H :   -0.076635
   6 H :    0.002433
   7 H :    0.011689
   8 C :   -0.076701
   9 C :    0.114541
  10 H :    0.013449
  11 H :    0.022057
  12 H :    0.029512
  13 H :    0.025491
  14 H :   -0.015863
  15 H :   -0.008547
  16 H :   -0.024583

  Mayer bond orders larger than 0.100000
B(  0-C ,  1-C ) :   1.3373 B(  0-C ,  3-C ) :   0.1357 B(  0-C ,  8-C ) :   1.1336
B(  0-C , 10-H ) :   0.1441 B(  0-C , 11-H ) :   0.2051 B(  0-C , 12-H ) :   0.7415
B(  0-C , 13-H ) :   0.7168 B(  1-C ,  2-N ) :   1.1827 B(  1-C ,  3-C ) :   2.0254
B(  1-C ,  4-H ) :   0.3077 B(  1-C ,  5-H ) :   0.1343 B(  1-C , 12-H ) :   0.2260
B(  1-C , 13-H ) :   0.2681 B(  2-N ,  3-C ) :   0.2936 B(  2-N ,  6-H ) :   1.0187
B(  2-N ,  7-H ) :   1.0951 B(  3-C ,  4-H ) :   0.5980 B(  3-C ,  5-H ) :   0.8071
B(  3-C , 12-H ) :  -0.1220 B(  6-H ,  7-H ) :  -0.1529 B(  8-C ,  9-C ) :   1.3013
B(  8-C , 10-H ) :   0.8347 B(  8-C , 11-H ) :   0.9245 B(  8-C , 12-H ) :   0.1812
B(  8-C , 14-H ) :   0.2700 B(  8-C , 15-H ) :   0.2276 B(  8-C , 16-H ) :   0.3018
B(  9-C , 10-H ) :   0.1078 B(  9-C , 14-H ) :   0.6801 B(  9-C , 15-H ) :   0.7116
B(  9-C , 16-H ) :   0.7306 B( 15-H , 16-H ) :   0.1352

FINAL SINGLE POINT ENERGY      -250.975026329726

DIPOLE MOMENT
-------------
                                X             Y             Z
Electronic contribution:      0.08936      -0.73124       3.68236
Nuclear contribution   :     -0.70193       0.22667      -3.99866
                        -----------------------------------------
Total Dipole Moment    :     -0.61257      -0.50457      -0.31629
                        -----------------------------------------
Magnitude (a.u.)       :      0.85433
Magnitude (Debye)      :      2.17153

Rotational constants in cm-1:     0.170665     0.086587     0.081284
Rotational constants in MHz :  5116.404877  2595.819690  2436.831753

                             ****ORCA TERMINATED NORMALLY****
TOTAL RUN TIME: 0 days 0 hours 0 minutes 29 seconds 580 msec
