                         Program Version 5.0.0 -  RELEASE  -
|  1> !LC-BLYP RIJCOSX def2-SVPD def2/J TightSCF xyzfile
|  2>
|  3> *xyzfile 0 1 D1.xyz
|  4>
|  5> %MaxCore 64000
|  6>
|  7> %pal nprocs 4
|  8> end
|  9>
| 10> %scf
| 11>   MaxIter 150
| 12> end
| 13>
| 14>
| 15>                          ****END OF INPUT****

CARTESIAN COORDINATES (ANGSTROEM)
---------------------------------
  C      4.602954   -2.440100    2.634780
  C     -0.914947    0.615112    2.505538
  C     -0.059146    1.503524    3.410578
  H      0.365364    2.344315    2.861161
  H     -0.692261    1.920207    4.198985
  C      1.083027    0.749640    4.085705
  C      3.860851   -1.591565    3.622893
  C      2.756502   -2.046159    4.166333
  N      4.254325   -0.362905    3.860455
  H      3.565256    0.310994    4.168983
  H      5.054292   -0.016059    3.337838
  H      2.439696   -2.973894    3.897395
  H      2.066869   -1.412532    4.549813
  F      2.228167    1.263475    4.019826
  O      0.810034   -0.345411    4.636269
  C      3.744685   -2.580557    1.361882
  C      0.772139    0.636882    0.562129
  C     -0.130740   -0.193985    1.470763
  H     -0.840563   -0.760165    0.856377
  H      0.466691   -0.938942    2.006959
  H     -1.647961    1.245963    1.991076
  H     -1.478180   -0.081046    3.130424
  C      3.203721   -1.256004    0.826211
  H      2.898939   -3.239289    1.583074
  H      4.334962   -3.095523    0.600188
  C      2.107815   -1.442385   -0.216865
  H      2.786775   -0.672760    1.650711
  H      4.021008   -0.652993    0.414046
  C      1.390662   -0.145912   -0.602422
  H      1.372179   -2.152184    0.176151
  H      2.523302   -1.906787   -1.117115
  H      1.561361    1.100094    1.161831
  H      0.195516    1.468325    0.142758
  H      0.602893   -0.398214   -1.319716
  H      2.087247    0.508272   -1.137335
  H      5.561557   -1.971347    2.407084
  H      4.810498   -3.422552    3.063099

 Total Charge           Charge          ....    0
 Multiplicity           Mult            ....    1
 Number of Electrons    NEL             ....  118
 Basis Dimension        Dim             ....  482

ORBITAL ENERGIES
----------------

  NO   OCC          E(Eh)            E(eV)
   0   2.0000     -24.574644      -668.7101
   1   2.0000     -18.981563      -516.5146
   2   2.0000     -14.166096      -385.4791
   3   2.0000     -10.286274      -279.9037
   4   2.0000     -10.124202      -275.4935
   5   2.0000     -10.101658      -274.8801
   6   2.0000     -10.086277      -274.4615
   7   2.0000     -10.086134      -274.4577
   8   2.0000     -10.085231      -274.4331
   9   2.0000     -10.080950      -274.3166
  10   2.0000     -10.074628      -274.1446
  11   2.0000     -10.072831      -274.0957
  12   2.0000     -10.072418      -274.0844
  13   2.0000     -10.070824      -274.0411
  14   2.0000      -9.984086      -271.6808
  15   2.0000      -1.416495       -38.5448
  16   2.0000      -1.140425       -31.0326
  17   2.0000      -1.011523       -27.5249
  18   2.0000      -0.938130       -25.5278
  19   2.0000      -0.912042       -24.8179
  20   2.0000      -0.886704       -24.1284
  21   2.0000      -0.848684       -23.0939
  22   2.0000      -0.825001       -22.4494
  23   2.0000      -0.794122       -21.6092
  24   2.0000      -0.782953       -21.3052
  25   2.0000      -0.753445       -20.5023
  26   2.0000      -0.720005       -19.5923
  27   2.0000      -0.697445       -18.9785
  28   2.0000      -0.687126       -18.6976
  29   2.0000      -0.673890       -18.3375
  30   2.0000      -0.658869       -17.9287
  31   2.0000      -0.643747       -17.5172
  32   2.0000      -0.631213       -17.1762
  33   2.0000      -0.604944       -16.4614
  34   2.0000      -0.592475       -16.1221
  35   2.0000      -0.587848       -15.9961
  36   2.0000      -0.577449       -15.7132
  37   2.0000      -0.558537       -15.1986
  38   2.0000      -0.550368       -14.9763
  39   2.0000      -0.534223       -14.5369
  40   2.0000      -0.530332       -14.4311
  41   2.0000      -0.513981       -13.9861
  42   2.0000      -0.507301       -13.8044
  43   2.0000      -0.495703       -13.4888
  44   2.0000      -0.489660       -13.3243
  45   2.0000      -0.474399       -12.9091
  46   2.0000      -0.471438       -12.8285
  47   2.0000      -0.462702       -12.5908
  48   2.0000      -0.454705       -12.3731
  49   2.0000      -0.444104       -12.0847
  50   2.0000      -0.442835       -12.0502
  51   2.0000      -0.434470       -11.8225
  52   2.0000      -0.423533       -11.5249
  53   2.0000      -0.418467       -11.3871
  54   2.0000      -0.409303       -11.1377
  55   2.0000      -0.406721       -11.0674
  56   2.0000      -0.402166       -10.9435
  57   2.0000      -0.375155       -10.2085
  58   2.0000      -0.266167        -7.2428
  59   0.0000       0.030089         0.8188
  60   0.0000       0.061300         1.6681
  61   0.0000       0.079065         2.1515
  62   0.0000       0.081544         2.2189
  63   0.0000       0.084756         2.3063

MULLIKEN ATOMIC CHARGES
-----------------------
   0 C :    1.047276
   1 C :    0.720886
   2 C :    0.357344
   3 H :    0.120032
   4 H :   -0.264055
   5 C :    0.306938
   6 C :   -0.727589
   7 C :    1.336611
   8 N :    0.703599
   9 H :   -0.474759
  10 H :    0.096350
  11 H :   -0.318444
  12 H :   -1.214528
  13 F :   -0.349058
  14 O :   -0.348575
  15 C :    0.241550
  16 C :   -0.011071
  17 C :    0.068544
  18 H :   -0.261806
  19 H :   -0.213807
  20 H :   -0.148742
  21 H :   -0.005190
  22 C :    0.365183
  23 H :    0.006098
  24 H :   -0.371278
  25 C :    0.171717
  26 H :   -0.554391
  27 H :   -0.054077
  28 C :    0.989674
  29 H :    0.125963
  30 H :   -0.451125
  31 H :    0.052751
  32 H :   -0.641070
  33 H :    0.004906
  34 H :   -0.097292
  35 H :   -0.132958
  36 H :   -0.075608
Sum of atomic charges:    0.0000000

LOEWDIN ATOMIC CHARGES
----------------------
   0 C :    0.007924
   1 C :   -0.023709
   2 C :    0.044203
   3 H :    0.028991
   4 H :    0.049826
   5 C :    0.012436
   6 C :   -0.270255
   7 C :    0.195622
   8 N :    0.205791
   9 H :   -0.074977
  10 H :    0.003659
  11 H :   -0.064786
  12 H :   -0.173308
  13 F :   -0.006031
  14 O :   -0.087384
  15 C :   -0.030132
  16 C :   -0.048862
  17 C :   -0.037454
  18 H :    0.038911
  19 H :    0.018147
  20 H :    0.034462
  21 H :    0.035712
  22 C :   -0.043697
  23 H :    0.023154
  24 H :    0.026075
  25 C :   -0.047998
  26 H :   -0.013883
  27 H :    0.038767
  28 C :   -0.039168
  29 H :    0.022447
  30 H :    0.030359
  31 H :    0.010592
  32 H :    0.029134
  33 H :    0.027364
  34 H :    0.028090
  35 H :    0.017342
  36 H :    0.032637

  Mayer bond orders larger than 0.100000
B(  0-C ,  6-C ) :   1.2346 B(  0-C ,  8-N ) :   0.1243 B(  0-C , 15-C ) :   1.0488
B(  0-C , 23-H ) :   0.1008 B(  0-C , 35-H ) :   0.3668 B(  0-C , 36-H ) :   0.5373
B(  1-C ,  2-C ) :   1.1498 B(  1-C ,  3-H ) :   0.1187 B(  1-C ,  4-H ) :   0.1806
B(  1-C ,  5-C ) :   0.1047 B(  1-C , 17-C ) :   1.2052 B(  1-C , 19-H ) :   0.1036
B(  1-C , 20-H ) :   0.6721 B(  1-C , 21-H ) :   0.5534 B(  1-C , 28-C ) :   0.1400
B(  2-C ,  3-H ) :   0.8014 B(  2-C ,  4-H ) :   0.6079 B(  2-C ,  5-C ) :   1.2193
B(  2-C , 17-C ) :   0.1934 B(  2-C , 20-H ) :   0.1888 B(  2-C , 21-H ) :   0.1129
B(  3-H ,  4-H ) :  -0.1084 B(  3-H ,  5-C ) :   0.1844 B(  4-H ,  5-C ) :   0.2839
B(  5-C , 13-F ) :   0.8138 B(  5-C , 14-O ) :   1.9465 B(  6-C ,  7-C ) :   2.0211
B(  6-C ,  8-N ) :   0.9809 B(  6-C , 10-H ) :   0.1806 B(  6-C , 12-H ) :   0.4192
B(  6-C , 15-C ) :   0.2015 B(  6-C , 35-H ) :   0.4556 B(  6-C , 36-H ) :   0.2798
B(  7-C ,  8-N ) :   0.4211 B(  7-C , 11-H ) :   0.4925 B(  7-C , 12-H ) :  -0.4799
B(  8-N ,  9-H ) :   0.9845 B(  8-N , 10-H ) :   0.8837 B(  8-N , 11-H ) :   0.3295
B(  8-N , 12-H ) :  -0.2880 B(  9-H , 10-H ) :  -0.2566 B(  9-H , 13-F ) :   0.1128
B( 11-H , 12-H ) :  -0.1598 B( 12-H , 14-O ) :   0.2481 B( 13-F , 14-O ) :   0.1513
B( 15-C , 22-C ) :   1.1240 B( 15-C , 23-H ) :   0.8181 B( 15-C , 24-H ) :   0.8547
B( 15-C , 25-C ) :   0.1361 B( 15-C , 26-H ) :   0.2310 B( 15-C , 27-H ) :   0.1138
B( 15-C , 35-H ) :   0.2278 B( 15-C , 36-H ) :   0.1970 B( 16-C , 17-C ) :   1.2502
B( 16-C , 18-H ) :   0.2021 B( 16-C , 19-H ) :   0.1657 B( 16-C , 25-C ) :   0.2200
B( 16-C , 28-C ) :   1.0404 B( 16-C , 31-H ) :   0.8013 B( 16-C , 32-H ) :   1.0429
B( 16-C , 33-H ) :   0.1674 B( 16-C , 34-H ) :   0.3532 B( 17-C , 18-H ) :   0.8059
B( 17-C , 19-H ) :   0.8673 B( 17-C , 20-H ) :   0.2224 B( 17-C , 21-H ) :   0.3221
B( 17-C , 31-H ) :   0.1286 B( 17-C , 32-H ) :   0.1237 B( 20-H , 21-H ) :  -0.1677
B( 22-C , 23-H ) :   0.1452 B( 22-C , 24-H ) :   0.2869 B( 22-C , 25-C ) :   1.1818
B( 22-C , 26-H ) :   0.7806 B( 22-C , 27-H ) :   0.6567 B( 22-C , 29-H ) :   0.1454
B( 22-C , 30-H ) :   0.2788 B( 22-C , 31-H ) :  -0.1081 B( 23-H , 24-H ) :  -0.1072
B( 23-H , 30-H ) :  -0.1208 B( 25-C , 26-H ) :   0.1386 B( 25-C , 27-H ) :   0.1174
B( 25-C , 28-C ) :   1.1139 B( 25-C , 29-H ) :   0.7796 B( 25-C , 30-H ) :   0.8703
B( 25-C , 33-H ) :   0.2758 B( 25-C , 34-H ) :   0.1649 B( 26-H , 27-H ) :   0.1844
B( 26-H , 31-H ) :   0.2319 B( 26-H , 32-H ) :  -0.1706 B( 28-C , 29-H ) :   0.1059
B( 28-C , 33-H ) :   0.5624 B( 28-C , 34-H ) :   0.5170 B( 33-H , 34-H ) :  -0.1545

FINAL SINGLE POINT ENERGY      -698.039234987419

DIPOLE MOMENT
-------------
                                X             Y             Z
Electronic contribution:      1.16903       7.38439      14.93212
Nuclear contribution   :     -1.66567      -5.90236     -15.95042
                        -----------------------------------------
Total Dipole Moment    :     -0.49664       1.48202      -1.01831
                        -----------------------------------------
Magnitude (a.u.)       :      1.86547
Magnitude (Debye)      :      4.74166

Rotational constants in cm-1:     0.021600     0.017292     0.011381
Rotational constants in MHz :   647.565282   518.410024   341.193038

                             ****ORCA TERMINATED NORMALLY****
TOTAL RUN TIME: 0 days 0 hours 5 minutes 3 seconds 813 msec
