                         Program Version 5.0.0 -  RELEASE  -
|  1> !LC-BLYP RIJCOSX def2-SVPD def2/J TightSCF xyzfile
|  2>
|  3> *xyzfile 0 1 D2.xyz
|  4>
|  5> %MaxCore 64000
|  6>
|  7> %pal nprocs 4
|  8> end
|  9>
| 10> %scf
| 11>   MaxIter 150
| 12> end
| 13>
| 14>
| 15>                          ****END OF INPUT****

CARTESIAN COORDINATES (ANGSTROEM)
---------------------------------
  C      4.602954   -2.440100    2.634780
  C     -0.914947    0.615112    2.505538
  C     -0.059146    1.503524    3.410578
  H      0.365364    2.344315    2.861161
  H     -0.692261    1.920207    4.198985
  C      1.083027    0.749640    4.085705
  C      3.860851   -1.591565    3.622893
  N      2.756502   -2.046159    4.166333
  C      4.254325   -0.362905    3.860455
  H      3.565256    0.310994    4.168983
  H      5.054292   -0.016059    3.337838
  H      2.439696   -2.973894    3.897395
  H      2.066869   -1.412532    4.549813
  F      2.228167    1.263475    4.019826
  O      0.810034   -0.345411    4.636269
  C      3.744685   -2.580557    1.361882
  C      0.772139    0.636882    0.562129
  C     -0.130740   -0.193985    1.470763
  H     -0.840563   -0.760165    0.856377
  H      0.466691   -0.938942    2.006959
  H     -1.647961    1.245963    1.991076
  H     -1.478180   -0.081046    3.130424
  C      3.203721   -1.256004    0.826211
  H      2.898939   -3.239289    1.583074
  H      4.334962   -3.095523    0.600188
  C      2.107815   -1.442385   -0.216865
  H      2.786775   -0.672760    1.650711
  H      4.021008   -0.652993    0.414046
  C      1.390662   -0.145912   -0.602422
  H      1.372179   -2.152184    0.176151
  H      2.523302   -1.906787   -1.117115
  H      1.561361    1.100094    1.161831
  H      0.195516    1.468325    0.142758
  H      0.602893   -0.398214   -1.319716
  H      2.087247    0.508272   -1.137335
  H      5.561557   -1.971347    2.407084
  H      4.810498   -3.422552    3.063099

 Total Charge           Charge          ....    0
 Multiplicity           Mult            ....    1
 Number of Electrons    NEL             ....  118
 Basis Dimension        Dim             ....  482

ORBITAL ENERGIES
----------------

  NO   OCC          E(Eh)            E(eV)
   0   2.0000     -24.564936      -668.4459
   1   2.0000     -18.992910      -516.8234
   2   2.0000     -14.154677      -385.1683
   3   2.0000     -10.293717      -280.1063
   4   2.0000     -10.127062      -275.5714
   5   2.0000     -10.105189      -274.9762
   6   2.0000     -10.089891      -274.5599
   7   2.0000     -10.087727      -274.5010
   8   2.0000     -10.087132      -274.4848
   9   2.0000     -10.081439      -274.3299
  10   2.0000     -10.076407      -274.1930
  11   2.0000     -10.075181      -274.1596
  12   2.0000     -10.071652      -274.0636
  13   2.0000     -10.069191      -273.9966
  14   2.0000      -9.992605      -271.9126
  15   2.0000      -1.408865       -38.3372
  16   2.0000      -1.150592       -31.3092
  17   2.0000      -1.004458       -27.3327
  18   2.0000      -0.940860       -25.6021
  19   2.0000      -0.912691       -24.8356
  20   2.0000      -0.885715       -24.1015
  21   2.0000      -0.850367       -23.1397
  22   2.0000      -0.819408       -22.2972
  23   2.0000      -0.807414       -21.9709
  24   2.0000      -0.774932       -21.0870
  25   2.0000      -0.754833       -20.5400
  26   2.0000      -0.719367       -19.5750
  27   2.0000      -0.692256       -18.8372
  28   2.0000      -0.682041       -18.5593
  29   2.0000      -0.669794       -18.2260
  30   2.0000      -0.663409       -18.0523
  31   2.0000      -0.653234       -17.7754
  32   2.0000      -0.630838       -17.1660
  33   2.0000      -0.606014       -16.4905
  34   2.0000      -0.596312       -16.2265
  35   2.0000      -0.587430       -15.9848
  36   2.0000      -0.569606       -15.4998
  37   2.0000      -0.560597       -15.2546
  38   2.0000      -0.549819       -14.9613
  39   2.0000      -0.540229       -14.7004
  40   2.0000      -0.532176       -14.4812
  41   2.0000      -0.514884       -14.0107
  42   2.0000      -0.510479       -13.8909
  43   2.0000      -0.500581       -13.6215
  44   2.0000      -0.483698       -13.1621
  45   2.0000      -0.476640       -12.9700
  46   2.0000      -0.473074       -12.8730
  47   2.0000      -0.468412       -12.7462
  48   2.0000      -0.453596       -12.3430
  49   2.0000      -0.448281       -12.1984
  50   2.0000      -0.443167       -12.0592
  51   2.0000      -0.430369       -11.7109
  52   2.0000      -0.423532       -11.5249
  53   2.0000      -0.418497       -11.3879
  54   2.0000      -0.413524       -11.2526
  55   2.0000      -0.409572       -11.1450
  56   2.0000      -0.402629       -10.9561
  57   2.0000      -0.392465       -10.6795
  58   2.0000      -0.267354        -7.2751
  59   0.0000       0.024905         0.6777
  60   0.0000       0.062866         1.7107
  61   0.0000       0.075384         2.0513
  62   0.0000       0.081416         2.2154
  63   0.0000       0.085156         2.3172

MULLIKEN ATOMIC CHARGES
-----------------------
   0 C :    0.820992
   1 C :    0.712035
   2 C :    0.326269
   3 H :    0.114274
   4 H :   -0.242560
   5 C :    0.419503
   6 C :   -0.654954
   7 N :    0.730387
   8 C :    1.251357
   9 H :   -1.011570
  10 H :   -0.184476
  11 H :    0.036497
  12 H :   -0.683747
  13 F :   -0.355029
  14 O :   -0.383683
  15 C :    0.362296
  16 C :   -0.005478
  17 C :    0.056561
  18 H :   -0.274951
  19 H :   -0.210696
  20 H :   -0.151708
  21 H :   -0.014835
  22 C :    0.477132
  23 H :    0.011895
  24 H :   -0.433265
  25 C :    0.190889
  26 H :   -0.687153
  27 H :   -0.091254
  28 C :    0.984592
  29 H :    0.098186
  30 H :   -0.464671
  31 H :    0.035339
  32 H :   -0.609796
  33 H :    0.012620
  34 H :   -0.094985
  35 H :    0.086337
  36 H :   -0.172350
Sum of atomic charges:   -0.0000000

LOEWDIN ATOMIC CHARGES
----------------------
   0 C :    0.006826
   1 C :   -0.024379
   2 C :    0.046421
   3 H :    0.031780
   4 H :    0.051077
   5 C :    0.019396
   6 C :   -0.270518
   7 N :    0.222203
   8 C :    0.179729
   9 H :   -0.143665
  10 H :   -0.071682
  11 H :    0.006733
  12 H :   -0.114457
  13 F :   -0.009776
  14 O :   -0.085585
  15 C :   -0.030941
  16 C :   -0.047307
  17 C :   -0.039668
  18 H :    0.038670
  19 H :    0.015209
  20 H :    0.035191
  21 H :    0.034757
  22 C :   -0.039079
  23 H :    0.016571
  24 H :    0.027439
  25 C :   -0.050551
  26 H :   -0.013849
  27 H :    0.044468
  28 C :   -0.038481
  29 H :    0.019945
  30 H :    0.029747
  31 H :    0.012988
  32 H :    0.029696
  33 H :    0.027132
  34 H :    0.029168
  35 H :    0.028487
  36 H :    0.026303

  Mayer bond orders larger than 0.100000
B(  0-C ,  6-C ) :   1.3477 B(  0-C ,  8-C ) :   0.1480 B(  0-C , 15-C ) :   1.0665
B(  0-C , 22-C ) :   0.1002 B(  0-C , 23-H ) :   0.1173 B(  0-C , 24-H ) :   0.1335
B(  0-C , 35-H ) :   0.6725 B(  0-C , 36-H ) :   0.3978 B(  1-C ,  2-C ) :   1.1488
B(  1-C ,  3-H ) :   0.1146 B(  1-C ,  4-H ) :   0.1783 B(  1-C ,  5-C ) :   0.1105
B(  1-C , 17-C ) :   1.2034 B(  1-C , 19-H ) :   0.1050 B(  1-C , 20-H ) :   0.6767
B(  1-C , 21-H ) :   0.5619 B(  1-C , 28-C ) :   0.1374 B(  2-C ,  3-H ) :   0.8232
B(  2-C ,  4-H ) :   0.5990 B(  2-C ,  5-C ) :   1.2244 B(  2-C , 17-C ) :   0.1855
B(  2-C , 20-H ) :   0.1845 B(  2-C , 21-H ) :   0.1181 B(  3-H ,  5-C ) :   0.1896
B(  4-H ,  5-C ) :   0.2822 B(  5-C , 13-F ) :   0.8336 B(  5-C , 14-O ) :   1.8119
B(  6-C ,  7-N ) :   1.0422 B(  6-C ,  8-C ) :   1.9820 B(  6-C ,  9-H ) :   0.4203
B(  6-C , 10-H ) :   0.3041 B(  6-C , 15-C ) :   0.1214 B(  6-C , 24-H ) :  -0.1355
B(  6-C , 35-H ) :   0.2219 B(  6-C , 36-H ) :   0.3658 B(  7-N ,  8-C ) :   0.4200
B(  7-N , 10-H ) :   0.1050 B(  7-N , 11-H ) :   0.9451 B(  7-N , 12-H ) :   1.0342
B(  8-C ,  9-H ) :  -0.3365 B(  8-C , 10-H ) :   0.5868 B(  8-C , 35-H ) :  -0.1018
B(  9-H , 13-F ) :   0.2249 B(  9-H , 24-H ) :  -0.1161 B( 11-H , 12-H ) :  -0.2791
B( 12-H , 14-O ) :   0.1999 B( 13-F , 14-O ) :   0.1431 B( 15-C , 22-C ) :   1.1242
B( 15-C , 23-H ) :   0.7726 B( 15-C , 24-H ) :   0.8125 B( 15-C , 25-C ) :   0.1561
B( 15-C , 26-H ) :   0.1980 B( 15-C , 27-H ) :   0.1070 B( 15-C , 35-H ) :   0.1648
B( 15-C , 36-H ) :   0.2298 B( 16-C , 17-C ) :   1.2495 B( 16-C , 18-H ) :   0.1961
B( 16-C , 19-H ) :   0.1629 B( 16-C , 25-C ) :   0.2232 B( 16-C , 28-C ) :   1.0482
B( 16-C , 31-H ) :   0.8042 B( 16-C , 32-H ) :   1.0272 B( 16-C , 33-H ) :   0.1648
B( 16-C , 34-H ) :   0.3564 B( 17-C , 18-H ) :   0.8151 B( 17-C , 19-H ) :   0.8752
B( 17-C , 20-H ) :   0.2218 B( 17-C , 21-H ) :   0.3150 B( 17-C , 31-H ) :   0.1249
B( 17-C , 32-H ) :   0.1290 B( 20-H , 21-H ) :  -0.1645 B( 22-C , 23-H ) :   0.1385
B( 22-C , 24-H ) :   0.2312 B( 22-C , 25-C ) :   1.1513 B( 22-C , 26-H ) :   0.6804
B( 22-C , 27-H ) :   0.6532 B( 22-C , 29-H ) :   0.1464 B( 22-C , 30-H ) :   0.2810
B( 25-C , 26-H ) :   0.1230 B( 25-C , 27-H ) :   0.1249 B( 25-C , 28-C ) :   1.1213
B( 25-C , 29-H ) :   0.7825 B( 25-C , 30-H ) :   0.8626 B( 25-C , 33-H ) :   0.2725
B( 25-C , 34-H ) :   0.1584 B( 26-H , 27-H ) :   0.2405 B( 26-H , 31-H ) :   0.2231
B( 26-H , 32-H ) :  -0.1521 B( 28-C , 29-H ) :   0.1043 B( 28-C , 33-H ) :   0.5684
B( 28-C , 34-H ) :   0.5151 B( 33-H , 34-H ) :  -0.1505

FINAL SINGLE POINT ENERGY      -698.049168381450

DIPOLE MOMENT
-------------
                                X             Y             Z
Electronic contribution:      0.06188       6.25816      15.10392
Nuclear contribution   :     -1.39991      -5.60370     -16.00470
                        -----------------------------------------
Total Dipole Moment    :     -1.33803       0.65446      -0.90078
                        -----------------------------------------
Magnitude (a.u.)       :      1.74070
Magnitude (Debye)      :      4.42451

Rotational constants in cm-1:     0.021622     0.017313     0.011402
Rotational constants in MHz :   648.226014   519.043632   341.814105

                             ****ORCA TERMINATED NORMALLY****
TOTAL RUN TIME: 0 days 0 hours 4 minutes 36 seconds 971 msec
