                         Program Version 5.0.0 -  RELEASE  -
|  1> !M062X D3Zero RIJCOSX def2-SVPD def2/J TightSCF
|  2> *xyz -1 1
|  3> C         -0.96015       -0.52236       -0.48987
|  4> O          0.26170       -0.58031        0.13861
|  5> H         -0.85050       -0.82220       -1.51113
|  6> H         -1.33436        0.47929       -0.45044
|  7> H         -1.64624       -1.17908        0.00297
|  8> *
|  9>
| 10> %MaxCore 64000
| 11>
| 12> %pal nprocs 4
| 13> end
| 14>
| 15> %scf
| 16>   MaxIter 150
| 17> end
| 18>
| 19>
| 20>                          ****END OF INPUT****

CARTESIAN COORDINATES (ANGSTROEM)
---------------------------------
  C     -0.960150   -0.522360   -0.489870
  O      0.261700   -0.580310    0.138610
  H     -0.850500   -0.822200   -1.511130
  H     -1.334360    0.479290   -0.450440
  H     -1.646240   -1.179080    0.002970

 Total Charge           Charge          ....   -1
 Multiplicity           Mult            ....    1
 Number of Electrons    NEL             ....   18
 Basis Dimension        Dim             ....   67

ORBITAL ENERGIES
----------------

  NO   OCC          E(Eh)            E(eV)
   0   2.0000     -19.277341      -524.5631
   1   2.0000     -10.334418      -281.2138
   2   2.0000      -0.753666       -20.5083
   3   2.0000      -0.476653       -12.9704
   4   2.0000      -0.262602        -7.1458
   5   2.0000      -0.262590        -7.1454
   6   2.0000      -0.162417        -4.4196
   7   2.0000      -0.012741        -0.3467
   8   2.0000      -0.012723        -0.3462
   9   0.0000       0.217635         5.9222
  10   0.0000       0.296749         8.0750
  11   0.0000       0.296757         8.0752
  12   0.0000       0.304975         8.2988
  13   0.0000       0.338796         9.2191

MULLIKEN ATOMIC CHARGES
-----------------------
   0 C :    0.762800
   1 O :   -1.046415
   2 H :   -0.239148
   3 H :   -0.238613
   4 H :   -0.238625
Sum of atomic charges:   -1.0000000

LOEWDIN ATOMIC CHARGES
----------------------
   0 C :   -0.104953
   1 O :   -0.665531
   2 H :   -0.076558
   3 H :   -0.076432
   4 H :   -0.076526

  Mayer bond orders larger than 0.100000
B(  0-C ,  1-O ) :   1.1869 B(  0-C ,  2-H ) :   0.9208 B(  0-C ,  3-H ) :   0.9217
B(  0-C ,  4-H ) :   0.9211

Dispersion correction           -0.000000448
FINAL SINGLE POINT ENERGY      -114.953781362393

DIPOLE MOMENT
-------------
                                X             Y             Z
Electronic contribution:      1.64530      -0.07781       0.84590
Nuclear contribution   :     -2.56864       0.12183      -1.32123
                        -----------------------------------------
Total Dipole Moment    :     -0.92334       0.04402      -0.47533
                        -----------------------------------------
Magnitude (a.u.)       :      1.03944
Magnitude (Debye)      :      2.64205

Rotational constants in cm-1:     5.477744     0.932677     0.932677
Rotational constants in MHz : 164218.635293 27960.967920 27960.945417

                             ****ORCA TERMINATED NORMALLY****
TOTAL RUN TIME: 0 days 0 hours 0 minutes 4 seconds 4 msec
