                         Program Version 5.0.0 -  RELEASE  -
|  1> !M062X D3Zero RIJCOSX def2-SVPD def2/J TightSCF
|  2> *xyz 1 1
|  3> C          4.36645       -0.13321       -1.41606
|  4> C          3.05650       -0.32080       -0.70738
|  5> N          2.38983        0.71129       -0.24391
|  6> N          2.51600       -1.50772       -0.55023
|  7> H          2.96768       -2.32291       -0.95631
|  8> H          1.54987       -1.49063       -0.24988
|  9> H          2.74307        1.64947       -0.41280
| 10> H          1.44036        0.50278        0.03703
| 11> H          4.74975       -1.08632       -1.71533
| 12> H          5.06373        0.34075       -0.75722
| 13> H          4.21960        0.47966       -2.28077
| 14> *
| 15>
| 16> %MaxCore 64000
| 17>
| 18> %pal nprocs 4
| 19> end
| 20>
| 21> %scf
| 22>   MaxIter 150
| 23> end
| 24>
| 25>
| 26>                          ****END OF INPUT****

CARTESIAN COORDINATES (ANGSTROEM)
---------------------------------
  C      4.366450   -0.133210   -1.416060
  C      3.056500   -0.320800   -0.707380
  N      2.389830    0.711290   -0.243910
  N      2.516000   -1.507720   -0.550230
  H      2.967680   -2.322910   -0.956310
  H      1.549870   -1.490630   -0.249880
  H      2.743070    1.649470   -0.412800
  H      1.440360    0.502780    0.037030
  H      4.749750   -1.086320   -1.715330
  H      5.063730    0.340750   -0.757220
  H      4.219600    0.479660   -2.280770

 Total Charge           Charge          ....    1
 Multiplicity           Mult            ....    1
 Number of Electrons    NEL             ....   32
 Basis Dimension        Dim             ....  136

ORBITAL ENERGIES
----------------

  NO   OCC          E(Eh)            E(eV)
   0   2.0000     -15.017284      -408.6411
   1   2.0000     -15.014714      -408.5711
   2   2.0000     -10.887469      -296.2631
   3   2.0000     -10.753700      -292.6230
   4   2.0000      -1.321587       -35.9622
   5   2.0000      -1.207108       -32.8471
   6   2.0000      -1.046510       -28.4770
   7   2.0000      -0.920711       -25.0538
   8   2.0000      -0.861971       -23.4554
   9   2.0000      -0.848230       -23.0815
  10   2.0000      -0.781080       -21.2543
  11   2.0000      -0.739568       -20.1247
  12   2.0000      -0.687167       -18.6988
  13   2.0000      -0.671410       -18.2700
  14   2.0000      -0.648025       -17.6337
  15   2.0000      -0.562829       -15.3154
  16   0.0000      -0.179996        -4.8979
  17   0.0000      -0.144438        -3.9304
  18   0.0000      -0.100978        -2.7478
  19   0.0000      -0.093807        -2.5526
  20   0.0000      -0.072409        -1.9703

MULLIKEN ATOMIC CHARGES
-----------------------
   0 C :    0.548468
   1 C :    0.285688
   2 N :    0.036440
   3 N :   -0.076994
   4 H :    0.047585
   5 H :   -0.026113
   6 H :    0.025836
   7 H :   -0.077707
   8 H :    0.097280
   9 H :    0.079441
  10 H :    0.060076
Sum of atomic charges:    1.0000000

LOEWDIN ATOMIC CHARGES
----------------------
   0 C :    0.242598
   1 C :   -0.063384
   2 N :    0.270087
   3 N :    0.274181
   4 H :    0.062085
   5 H :    0.046010
   6 H :    0.066231
   7 H :    0.044873
   8 H :    0.008415
   9 H :    0.024196
  10 H :    0.024708

  Mayer bond orders larger than 0.100000
B(  0-C ,  1-C ) :   1.3543 B(  0-C ,  8-H ) :   0.7560 B(  0-C ,  9-H ) :   0.7252
B(  0-C , 10-H ) :   0.8113 B(  1-C ,  2-N ) :   1.1449 B(  1-C ,  3-N ) :   1.0102
B(  1-C ,  5-H ) :  -0.1485 B(  1-C ,  7-H ) :  -0.1185 B(  1-C ,  8-H ) :   0.2677
B(  1-C ,  9-H ) :   0.2125 B(  1-C , 10-H ) :   0.1507 B(  2-N ,  3-N ) :   0.2051
B(  2-N ,  6-H ) :   1.1111 B(  2-N ,  7-H ) :   1.1975 B(  3-N ,  4-H ) :   1.0992
B(  3-N ,  5-H ) :   1.2153 B(  4-H ,  5-H ) :  -0.1603 B(  6-H ,  7-H ) :  -0.1504
B(  8-H ,  9-H ) :   0.1020

Dispersion correction           -0.000086462
FINAL SINGLE POINT ENERGY      -189.484570996860

DIPOLE MOMENT
-------------
                                X             Y             Z
Electronic contribution:     -1.73057      -0.26588       1.09784
Nuclear contribution   :      1.22976       0.25273      -1.15956
                        -----------------------------------------
Total Dipole Moment    :     -0.50081      -0.01315      -0.06172
                        -----------------------------------------
Magnitude (a.u.)       :      0.50477
Magnitude (Debye)      :      1.28303

Rotational constants in cm-1:     0.347067     0.291236     0.163306
Rotational constants in MHz : 10404.811357  8731.035118  4895.793931

                             ****ORCA TERMINATED NORMALLY****
TOTAL RUN TIME: 0 days 0 hours 0 minutes 11 seconds 463 msec
