                         Program Version 5.0.0 -  RELEASE  -
|  1> !M062X D3Zero RIJCOSX def2-SVPD def2/J TightSCF
|  2> *xyz 0 1
|  3> C         -0.96015       -0.52236       -0.48987
|  4> F          0.26170       -0.58031        0.13861
|  5> H         -0.85050       -0.82220       -1.51113
|  6> H         -1.33436        0.47929       -0.45044
|  7> H         -1.64624       -1.17908        0.00297
|  8> *
|  9>
| 10> %MaxCore 64000
| 11>
| 12> %pal nprocs 4
| 13> end
| 14>
| 15> %scf
| 16>   MaxIter 150
| 17> end
| 18>
| 19>
| 20>                          ****END OF INPUT****

CARTESIAN COORDINATES (ANGSTROEM)
---------------------------------
  C     -0.960150   -0.522360   -0.489870
  F      0.261700   -0.580310    0.138610
  H     -0.850500   -0.822200   -1.511130
  H     -1.334360    0.479290   -0.450440
  H     -1.646240   -1.179080    0.002970

 Total Charge           Charge          ....    0
 Multiplicity           Mult            ....    1
 Number of Electrons    NEL             ....   18
 Basis Dimension        Dim             ....   67

ORBITAL ENERGIES
----------------

  NO   OCC          E(Eh)            E(eV)
   0   2.0000     -25.240139      -686.8191
   1   2.0000     -10.622526      -289.0536
   2   2.0000      -1.315613       -35.7997
   3   2.0000      -0.797045       -21.6887
   4   2.0000      -0.576429       -15.6854
   5   2.0000      -0.576367       -15.6837
   6   2.0000      -0.576187       -15.6789
   7   2.0000      -0.430028       -11.7016
   8   2.0000      -0.430016       -11.7013
   9   0.0000       0.040141         1.0923
  10   0.0000       0.093556         2.5458
  11   0.0000       0.120731         3.2853
  12   0.0000       0.120745         3.2856
  13   0.0000       0.156337         4.2542

MULLIKEN ATOMIC CHARGES
-----------------------
   0 C :    0.804358
   1 F :   -0.518212
   2 H :   -0.095814
   3 H :   -0.095097
   4 H :   -0.095234
Sum of atomic charges:   -0.0000000

LOEWDIN ATOMIC CHARGES
----------------------
   0 C :    0.284338
   1 F :   -0.268624
   2 H :   -0.005298
   3 H :   -0.005198
   4 H :   -0.005219

  Mayer bond orders larger than 0.100000
B(  0-C ,  1-F ) :   0.7944 B(  0-C ,  2-H ) :   0.9559 B(  0-C ,  3-H ) :   0.9560
B(  0-C ,  4-H ) :   0.9553

Dispersion correction           -0.000000633
FINAL SINGLE POINT ENERGY      -139.580615165049

DIPOLE MOMENT
-------------
                                X             Y             Z
Electronic contribution:      2.58945      -0.12294       1.33144
Nuclear contribution   :     -3.25854       0.15455      -1.67609
                        -----------------------------------------
Total Dipole Moment    :     -0.66909       0.03160      -0.34465
                        -----------------------------------------
Magnitude (a.u.)       :      0.75330
Magnitude (Debye)      :      1.91474

Rotational constants in cm-1:     5.477744     0.868130     0.868129
Rotational constants in MHz : 164218.635293 26025.869915 26025.850419

                             ****ORCA TERMINATED NORMALLY****
TOTAL RUN TIME: 0 days 0 hours 0 minutes 3 seconds 409 msec
