                         Program Version 5.0.0 -  RELEASE  -
|  1> !M062X D3Zero RIJCOSX def2-SVPD def2/J TightSCF
|  2> *xyz 0 1
|  3> C          4.36645       -0.13321       -1.41606
|  4> C          3.05650       -0.32080       -0.70738
|  5> C          2.38983        0.71129       -0.24391
|  6> N          2.51600       -1.50772       -0.55023
|  7> H          2.96768       -2.32291       -0.95631
|  8> H          1.54987       -1.49063       -0.24988
|  9> H          2.74307        1.64947       -0.41280
| 10> H          1.44036        0.50278        0.03703
| 11> H          4.74975       -1.08632       -1.71533
| 12> H          5.06373        0.34075       -0.75722
| 13> H          4.21960        0.47966       -2.28077
| 14> *
| 15>
| 16> %MaxCore 64000
| 17>
| 18> %pal nprocs 4
| 19> end
| 20>
| 21> %scf
| 22>   MaxIter 150
| 23> end
| 24>
| 25>
| 26>                          ****END OF INPUT****

CARTESIAN COORDINATES (ANGSTROEM)
---------------------------------
  C      4.366450   -0.133210   -1.416060
  C      3.056500   -0.320800   -0.707380
  C      2.389830    0.711290   -0.243910
  N      2.516000   -1.507720   -0.550230
  H      2.967680   -2.322910   -0.956310
  H      1.549870   -1.490630   -0.249880
  H      2.743070    1.649470   -0.412800
  H      1.440360    0.502780    0.037030
  H      4.749750   -1.086320   -1.715330
  H      5.063730    0.340750   -0.757220
  H      4.219600    0.479660   -2.280770

 Total Charge           Charge          ....    0
 Multiplicity           Mult            ....    1
 Number of Electrons    NEL             ....   32
 Basis Dimension        Dim             ....  136

ORBITAL ENERGIES
----------------

  NO   OCC          E(Eh)            E(eV)
   0   2.0000     -14.761853      -401.6905
   1   2.0000     -10.570697      -287.6433
   2   2.0000     -10.543831      -286.9122
   3   2.0000     -10.479252      -285.1549
   4   2.0000      -1.031328       -28.0639
   5   2.0000      -0.844042       -22.9675
   6   2.0000      -0.777516       -21.1573
   7   2.0000      -0.640363       -17.4252
   8   2.0000      -0.606918       -16.5151
   9   2.0000      -0.539374       -14.6771
  10   2.0000      -0.501280       -13.6405
  11   2.0000      -0.466334       -12.6896
  12   2.0000      -0.455382       -12.3916
  13   2.0000      -0.421609       -11.4726
  14   2.0000      -0.403653       -10.9840
  15   2.0000      -0.240276        -6.5382
  16   0.0000       0.038214         1.0399
  17   0.0000       0.072441         1.9712
  18   0.0000       0.076736         2.0881
  19   0.0000       0.078246         2.1292
  20   0.0000       0.111023         3.0211

MULLIKEN ATOMIC CHARGES
-----------------------
   0 C :    0.784541
   1 C :   -0.470010
   2 C :    0.372487
   3 N :    0.052080
   4 H :   -0.087841
   5 H :   -0.041464
   6 H :   -0.225335
   7 H :   -0.363082
   8 H :   -0.055854
   9 H :    0.035431
  10 H :   -0.000953
Sum of atomic charges:   -0.0000000

LOEWDIN ATOMIC CHARGES
----------------------
   0 C :    0.173796
   1 C :   -0.292479
   2 C :    0.160097
   3 N :    0.149094
   4 H :    0.004866
   5 H :    0.005444
   6 H :   -0.074357
   7 H :   -0.088624
   8 H :   -0.026201
   9 H :   -0.005819
  10 H :   -0.005816

  Mayer bond orders larger than 0.100000
B(  0-C ,  1-C ) :   1.1528 B(  0-C ,  8-H ) :   0.6953 B(  0-C ,  9-H ) :   0.7173
B(  0-C , 10-H ) :   0.7956 B(  1-C ,  2-C ) :   1.8849 B(  1-C ,  3-N ) :   1.0548
B(  1-C ,  6-H ) :   0.1421 B(  1-C ,  7-H ) :   0.2411 B(  1-C ,  8-H ) :   0.3318
B(  1-C ,  9-H ) :   0.2189 B(  1-C , 10-H ) :   0.1591 B(  2-C ,  3-N ) :   0.2584
B(  2-C ,  6-H ) :   0.8589 B(  2-C ,  7-H ) :   0.7844 B(  3-N ,  4-H ) :   1.1464
B(  3-N ,  5-H ) :   1.1292 B(  4-H ,  5-H ) :  -0.1450

Dispersion correction           -0.000085320
FINAL SINGLE POINT ENERGY      -173.031423352397

DIPOLE MOMENT
-------------
                                X             Y             Z
Electronic contribution:     -1.00549      -1.14348       0.66972
Nuclear contribution   :      1.07959       0.48266      -1.05101
                        -----------------------------------------
Total Dipole Moment    :      0.07410      -0.66082      -0.38129
                        -----------------------------------------
Magnitude (a.u.)       :      0.76652
Magnitude (Debye)      :      1.94834

Rotational constants in cm-1:     0.369235     0.294626     0.169175
Rotational constants in MHz : 11069.394850  8832.653024  5071.734673

                             ****ORCA TERMINATED NORMALLY****
TOTAL RUN TIME: 0 days 0 hours 0 minutes 11 seconds 976 msec
