                         Program Version 5.0.0 -  RELEASE  -
|  1> !M062X D3Zero RIJCOSX def2-SVPD def2/J TightSCF
|  2> *xyz 0 1
|  3> C          4.36645       -0.13321       -1.41606
|  4> C          3.05650       -0.32080       -0.70738
|  5> N          2.38983        0.71129       -0.24391
|  6> C          2.51600       -1.50772       -0.55023
|  7> H          2.96768       -2.32291       -0.95631
|  8> H          1.54987       -1.49063       -0.24988
|  9> H          2.74307        1.64947       -0.41280
| 10> H          1.44036        0.50278        0.03703
| 11> H          4.74975       -1.08632       -1.71533
| 12> H          5.06373        0.34075       -0.75722
| 13> H          4.21960        0.47966       -2.28077
| 14> *
| 15>
| 16> %MaxCore 64000
| 17>
| 18> %pal nprocs 4
| 19> end
| 20>
| 21> %scf
| 22>   MaxIter 150
| 23> end
| 24>
| 25>
| 26>                          ****END OF INPUT****

CARTESIAN COORDINATES (ANGSTROEM)
---------------------------------
  C      4.366450   -0.133210   -1.416060
  C      3.056500   -0.320800   -0.707380
  N      2.389830    0.711290   -0.243910
  C      2.516000   -1.507720   -0.550230
  H      2.967680   -2.322910   -0.956310
  H      1.549870   -1.490630   -0.249880
  H      2.743070    1.649470   -0.412800
  H      1.440360    0.502780    0.037030
  H      4.749750   -1.086320   -1.715330
  H      5.063730    0.340750   -0.757220
  H      4.219600    0.479660   -2.280770

 Total Charge           Charge          ....    0
 Multiplicity           Mult            ....    1
 Number of Electrons    NEL             ....   32
 Basis Dimension        Dim             ....  136

ORBITAL ENERGIES
----------------

  NO   OCC          E(Eh)            E(eV)
   0   2.0000     -14.760498      -401.6536
   1   2.0000     -10.571382      -287.6619
   2   2.0000     -10.543472      -286.9025
   3   2.0000     -10.483325      -285.2658
   4   2.0000      -1.031504       -28.0686
   5   2.0000      -0.843214       -22.9450
   6   2.0000      -0.779118       -21.2009
   7   2.0000      -0.640568       -17.4307
   8   2.0000      -0.607131       -16.5209
   9   2.0000      -0.539687       -14.6856
  10   2.0000      -0.503112       -13.6904
  11   2.0000      -0.464524       -12.6403
  12   2.0000      -0.457762       -12.4563
  13   2.0000      -0.421626       -11.4730
  14   2.0000      -0.402294       -10.9470
  15   2.0000      -0.243919        -6.6374
  16   0.0000       0.037924         1.0320
  17   0.0000       0.073323         1.9952
  18   0.0000       0.077370         2.1053
  19   0.0000       0.082034         2.2322
  20   0.0000       0.113432         3.0866

MULLIKEN ATOMIC CHARGES
-----------------------
   0 C :    0.800513
   1 C :   -0.607834
   2 N :    0.169755
   3 C :    0.381650
   4 H :   -0.164063
   5 H :   -0.386133
   6 H :   -0.131937
   7 H :   -0.097389
   8 H :    0.073793
   9 H :   -0.011789
  10 H :   -0.026565
Sum of atomic charges:    0.0000000

LOEWDIN ATOMIC CHARGES
----------------------
   0 C :    0.171735
   1 C :   -0.300734
   2 N :    0.147411
   3 C :    0.169780
   4 H :   -0.079416
   5 H :   -0.086584
   6 H :    0.009255
   7 H :    0.004511
   8 H :   -0.013384
   9 H :   -0.012385
  10 H :   -0.010188

  Mayer bond orders larger than 0.100000
B(  0-C ,  1-C ) :   1.3617 B(  0-C ,  8-H ) :   0.7705 B(  0-C ,  9-H ) :   0.6612
B(  0-C , 10-H ) :   0.6874 B(  1-C ,  2-N ) :   1.1762 B(  1-C ,  3-C ) :   1.8227
B(  1-C ,  5-H ) :   0.2214 B(  1-C ,  8-H ) :   0.2519 B(  1-C ,  9-H ) :   0.2847
B(  1-C , 10-H ) :   0.2859 B(  2-N ,  3-C ) :   0.2492 B(  2-N ,  6-H ) :   1.1581
B(  2-N ,  7-H ) :   1.1197 B(  3-C ,  4-H ) :   0.9652 B(  3-C ,  5-H ) :   0.7565
B(  6-H ,  7-H ) :  -0.1254

Dispersion correction           -0.000085309
FINAL SINGLE POINT ENERGY      -173.034591302464

DIPOLE MOMENT
-------------
                                X             Y             Z
Electronic contribution:     -1.13714       0.74975       0.94581
Nuclear contribution   :      1.10788      -0.01499      -1.11971
                        -----------------------------------------
Total Dipole Moment    :     -0.02926       0.73475      -0.17390
                        -----------------------------------------
Magnitude (a.u.)       :      0.75562
Magnitude (Debye)      :      1.92063

Rotational constants in cm-1:     0.367851     0.295709     0.169239
Rotational constants in MHz : 11027.892768  8865.123922  5073.656136

                             ****ORCA TERMINATED NORMALLY****
TOTAL RUN TIME: 0 days 0 hours 0 minutes 11 seconds 970 msec
