                         Program Version 5.0.0 -  RELEASE  -
|  1> !M062X D3Zero RIJCOSX def2-SVPD def2/J TightSCF xyzfile
|  2>
|  3> *xyzfile 0 1 D1.xyz
|  4>
|  5> %MaxCore 64000
|  6>
|  7> %pal nprocs 4
|  8> end
|  9>
| 10> %scf
| 11>   MaxIter 150
| 12> end
| 13>
| 14>
| 15>                          ****END OF INPUT****

CARTESIAN COORDINATES (ANGSTROEM)
---------------------------------
  C      4.366454   -0.133215   -1.416062
  C      4.508292   -0.931872   -2.724249
  H      4.753716   -1.972051   -2.488408
  C      3.294164   -0.918214   -3.656570
  H      5.385637   -0.536236   -3.242640
  H      2.483463   -1.477378   -3.185764
  H      3.553092   -1.478495   -4.560331
  C      2.772335    0.460100   -4.051448
  H      2.608762    1.065107   -3.155194
  C      1.465354    0.410537   -4.853644
  H      3.532940    0.988848   -4.635671
  C      0.326171   -0.375613   -4.192580
  H      1.666704   -0.022269   -5.839323
  H      1.138198    1.439246   -5.035449
  C     -0.017405    0.080588   -2.778406
  H      0.585573   -1.439385   -4.168057
  H     -0.560005   -0.311425   -4.831461
  H      0.902090    0.201296   -2.206729
  C     -0.903495   -0.873945   -1.987388
  H     -0.479549    1.074657   -2.811915
  H     -0.502554   -1.892096   -2.081204
  H     -1.917039   -0.895427   -2.406277
  C     -0.960148   -0.522365   -0.489867
  H     -1.690392   -1.208130   -0.021677
  H     -1.414490    0.486329   -0.406677
  F      0.261703   -0.580307    0.138611
  C      3.056503   -0.320797   -0.707384
  C      2.389825    0.711285   -0.243909
  N      2.515999   -1.507721   -0.550229
  H      2.967683   -2.322915   -0.956305
  H      1.549872   -1.490634   -0.249876
  H      2.743071    1.649471   -0.412802
  H      1.440364    0.502778    0.037031
  H      4.487835    0.932997   -1.611569
  H      5.169672   -0.414432   -0.729817

 Total Charge           Charge          ....    0
 Multiplicity           Mult            ....    1
 Number of Electrons    NEL             ....  104
 Basis Dimension        Dim             ....  439

ORBITAL ENERGIES
----------------

  NO   OCC          E(Eh)            E(eV)
   0   2.0000     -25.275835      -687.7904
   1   2.0000     -14.737007      -401.0143
   2   2.0000     -10.644769      -289.6589
   3   2.0000     -10.563189      -287.4390
   4   2.0000     -10.552599      -287.1508
   5   2.0000     -10.543957      -286.9156
   6   2.0000     -10.543518      -286.9037
   7   2.0000     -10.541554      -286.8503
   8   2.0000     -10.541184      -286.8402
   9   2.0000     -10.538671      -286.7718
  10   2.0000     -10.537150      -286.7304
  11   2.0000     -10.535026      -286.6726
  12   2.0000     -10.457884      -284.5735
  13   2.0000      -1.358630       -36.9702
  14   2.0000      -1.014249       -27.5991
  15   2.0000      -0.911997       -24.8167
  16   2.0000      -0.888404       -24.1747
  17   2.0000      -0.860653       -23.4196
  18   2.0000      -0.821046       -22.3418
  19   2.0000      -0.792350       -21.5609
  20   2.0000      -0.771033       -20.9809
  21   2.0000      -0.720375       -19.6024
  22   2.0000      -0.696762       -18.9599
  23   2.0000      -0.664680       -18.0869
  24   2.0000      -0.633328       -17.2337
  25   2.0000      -0.622303       -16.9337
  26   2.0000      -0.616335       -16.7713
  27   2.0000      -0.607642       -16.5348
  28   2.0000      -0.599641       -16.3171
  29   2.0000      -0.562069       -15.2947
  30   2.0000      -0.547733       -14.9046
  31   2.0000      -0.533019       -14.5042
  32   2.0000      -0.513741       -13.9796
  33   2.0000      -0.507601       -13.8125
  34   2.0000      -0.498076       -13.5533
  35   2.0000      -0.490076       -13.3356
  36   2.0000      -0.468165       -12.7394
  37   2.0000      -0.458291       -12.4707
  38   2.0000      -0.445729       -12.1289
  39   2.0000      -0.437310       -11.8998
  40   2.0000      -0.430146       -11.7049
  41   2.0000      -0.423184       -11.5154
  42   2.0000      -0.414043       -11.2667
  43   2.0000      -0.404704       -11.0125
  44   2.0000      -0.401996       -10.9389
  45   2.0000      -0.392191       -10.6721
  46   2.0000      -0.374638       -10.1944
  47   2.0000      -0.373525       -10.1641
  48   2.0000      -0.364529        -9.9193
  49   2.0000      -0.361235        -9.8297
  50   2.0000      -0.358551        -9.7567
  51   2.0000      -0.225341        -6.1319
  52   0.0000       0.033768         0.9189
  53   0.0000       0.043916         1.1950
  54   0.0000       0.050895         1.3849
  55   0.0000       0.052052         1.4164
  56   0.0000       0.070078         1.9069

MULLIKEN ATOMIC CHARGES
-----------------------
   0 C :    0.519146
   1 C :    0.547065
   2 H :   -0.013588
   3 C :   -0.111541
   4 H :   -0.149057
   5 H :    0.020445
   6 H :   -0.243947
   7 C :   -0.036717
   8 H :    0.138224
   9 C :    0.754253
  10 H :   -0.428156
  11 C :    0.085890
  12 H :   -0.022190
  13 H :   -0.008687
  14 C :    0.613517
  15 H :    0.182741
  16 H :   -0.485995
  17 H :   -1.003998
  18 C :    0.056896
  19 H :   -0.003868
  20 H :    0.017736
  21 H :   -0.185287
  22 C :    1.113594
  23 H :   -0.108796
  24 H :    0.007671
  25 F :   -0.827025
  26 C :   -0.615669
  27 C :    0.710582
  28 N :    0.418711
  29 H :   -0.098301
  30 H :   -0.335677
  31 H :   -0.299488
  32 H :   -0.278381
  33 H :    0.428491
  34 H :   -0.358594
Sum of atomic charges:   -0.0000000

LOEWDIN ATOMIC CHARGES
----------------------
   0 C :    0.021188
   1 C :   -0.024173
   2 H :    0.013198
   3 C :   -0.030550
   4 H :    0.019532
   5 H :   -0.012963
   6 H :    0.026363
   7 C :   -0.027007
   8 H :    0.003362
   9 C :   -0.025961
  10 H :    0.024725
  11 C :   -0.034916
  12 H :    0.021310
  13 H :    0.022230
  14 C :   -0.025392
  15 H :    0.011343
  16 H :    0.020765
  17 H :   -0.029613
  18 C :   -0.013840
  19 H :    0.038529
  20 H :    0.028068
  21 H :    0.033784
  22 C :    0.177226
  23 H :    0.035636
  24 H :    0.045766
  25 F :   -0.242607
  26 C :   -0.245341
  27 C :    0.191503
  28 N :    0.194429
  29 H :    0.005160
  30 H :   -0.060372
  31 H :   -0.072454
  32 H :   -0.133490
  33 H :    0.020002
  34 H :    0.024562

  Mayer bond orders larger than 0.100000
B(  0-C ,  1-C ) :   1.1921 B(  0-C ,  2-H ) :   0.1396 B(  0-C ,  4-H ) :   0.2213
B(  0-C , 26-C ) :   1.1674 B(  0-C , 31-H ) :  -0.1637 B(  0-C , 33-H ) :   0.7337
B(  0-C , 34-H ) :   0.6090 B(  1-C ,  2-H ) :   0.6137 B(  1-C ,  3-C ) :   1.2525
B(  1-C ,  4-H ) :   0.7455 B(  1-C , 26-C ) :   0.1885 B(  1-C , 33-H ) :   0.1473
B(  2-H ,  3-C ) :   0.2952 B(  2-H ,  4-H ) :  -0.1970 B(  3-C ,  4-H ) :   0.1907
B(  3-C ,  5-H ) :   0.8522 B(  3-C ,  6-H ) :   0.9138 B(  3-C ,  7-C ) :   1.2620
B(  3-C ,  8-H ) :   0.1247 B(  3-C , 10-H ) :   0.1716 B(  5-H ,  7-C ) :   0.1284
B(  5-H , 15-H ) :   0.1919 B(  5-H , 16-H ) :  -0.1214 B(  6-H ,  7-C ) :   0.1294
B(  7-C ,  8-H ) :   0.8472 B(  7-C ,  9-C ) :   1.1328 B(  7-C , 10-H ) :   1.0209
B(  7-C , 11-C ) :   0.1650 B(  7-C , 12-H ) :   0.1022 B(  7-C , 13-H ) :   0.2668
B(  8-H , 17-H ) :   0.2405 B(  9-C , 11-C ) :   1.1258 B(  9-C , 12-H ) :   0.7296
B(  9-C , 13-H ) :   0.6602 B( 11-C , 12-H ) :   0.1917 B( 11-C , 13-H ) :   0.1293
B( 11-C , 14-C ) :   1.1692 B( 11-C , 15-H ) :   0.7908 B( 11-C , 16-H ) :   1.0668
B( 11-C , 17-H ) :   0.1578 B( 11-C , 19-H ) :   0.1121 B( 12-H , 13-H ) :  -0.1528
B( 14-C , 15-H ) :   0.1412 B( 14-C , 16-H ) :   0.2436 B( 14-C , 17-H ) :   0.1939
B( 14-C , 18-C ) :   1.1651 B( 14-C , 19-H ) :   0.6643 B( 14-C , 20-H ) :   0.1229
B( 14-C , 21-H ) :   0.2473 B( 14-C , 26-C ) :  -0.1056 B( 14-C , 27-C ) :   0.1841
B( 15-H , 16-H ) :  -0.1260 B( 17-H , 18-C ) :   0.1440 B( 17-H , 19-H ) :   0.2420
B( 17-H , 26-C ) :   0.1185 B( 17-H , 27-C ) :  -0.1576 B( 17-H , 32-H ) :   0.1322
B( 18-C , 20-H ) :   0.8965 B( 18-C , 21-H ) :   0.8720 B( 18-C , 22-C ) :   1.1308
B( 18-C , 23-H ) :   0.2118 B( 18-C , 24-H ) :   0.1182 B( 18-C , 25-F ) :   0.1395
B( 22-C , 23-H ) :   0.7491 B( 22-C , 24-H ) :   0.7988 B( 22-C , 25-F ) :   0.5828
B( 24-H , 25-F ) :   0.1508 B( 25-F , 27-C ) :  -0.1142 B( 25-F , 30-H ) :   0.1246
B( 26-C , 27-C ) :   2.1467 B( 26-C , 28-N ) :   0.9687 B( 26-C , 30-H ) :  -0.1159
B( 26-C , 31-H ) :   0.1585 B( 26-C , 32-H ) :   0.6581 B( 26-C , 34-H ) :   0.4246
B( 27-C , 28-N ) :   0.3830 B( 27-C , 31-H ) :   1.0311 B( 28-N , 29-H ) :   1.1026
B( 28-N , 30-H ) :   1.1304 B( 28-N , 31-H ) :   0.1771 B( 29-H , 30-H ) :  -0.2488
B( 31-H , 32-H ) :  -0.3051 B( 33-H , 34-H ) :  -0.1577

Dispersion correction           -0.002139516
FINAL SINGLE POINT ENERGY      -586.274282691436

DIPOLE MOMENT
-------------
                                X             Y             Z
Electronic contribution:     -2.70698      -1.59697      10.44201
Nuclear contribution   :      1.82572       1.04089     -11.09065
                        -----------------------------------------
Total Dipole Moment    :     -0.88126      -0.55607      -0.64863
                        -----------------------------------------
Magnitude (a.u.)       :      1.22742
Magnitude (Debye)      :      3.11986

Rotational constants in cm-1:     0.028436     0.022359     0.014416
Rotational constants in MHz :   852.496561   670.291843   432.183951

                             ****ORCA TERMINATED NORMALLY****
TOTAL RUN TIME: 0 days 0 hours 3 minutes 21 seconds 26 msec
