                         Program Version 5.0.0 -  RELEASE  -
|  1> !TPSS D3BJ RIJCOSX def2-TZVPD def2/J TightSCF
|  2> *xyz -1 1
|  3> C         -5.57236       -5.80780       -0.81644
|  4> S         -6.90318       -4.61903       -0.52846
|  5> O         -8.11485       -5.25093       -0.95701
|  6> O         -6.53271       -3.42684       -1.31485
|  7> O         -6.86563       -4.29496        0.91412
|  8> C         -4.45780       -5.94187        0.22919
|  9> H         -5.17735       -5.54257       -1.79771
| 10> H         -6.07420       -6.76889       -0.92127
| 11> H         -3.75515       -6.68239       -0.09144
| 12> H         -4.88182       -6.23486        1.16689
| 13> H         -3.95908       -5.00189        0.34143
| 14> *
| 15> %MaxCore 64000
| 16>
| 17> %pal nprocs 4
| 18> end
| 19>
| 20> %scf
| 21>   MaxIter 150
| 22> end
| 23>
| 24>                          ****END OF INPUT****

CARTESIAN COORDINATES (ANGSTROEM)
---------------------------------
  C     -5.572360   -5.807800   -0.816440
  S     -6.903180   -4.619030   -0.528460
  O     -8.114850   -5.250930   -0.957010
  O     -6.532710   -3.426840   -1.314850
  O     -6.865630   -4.294960    0.914120
  C     -4.457800   -5.941870    0.229190
  H     -5.177350   -5.542570   -1.797710
  H     -6.074200   -6.768890   -0.921270
  H     -3.755150   -6.682390   -0.091440
  H     -4.881820   -6.234860    1.166890
  H     -3.959080   -5.001890    0.341430

 Total Charge           Charge          ....   -1
 Multiplicity           Mult            ....    1
 Number of Electrons    NEL             ....   58
 Basis Dimension        Dim             ....  285

ORBITAL ENERGIES
----------------

  NO   OCC          E(Eh)            E(eV)
   0   2.0000     -88.326359     -2403.4824
   1   2.0000     -18.666415      -507.9390
   2   2.0000     -18.653256      -507.5809
   3   2.0000     -18.652465      -507.5594
   4   2.0000      -9.844888      -267.8930
   5   2.0000      -9.843325      -267.8505
   6   2.0000      -7.675131      -208.8509
   7   2.0000      -5.654664      -153.8712
   8   2.0000      -5.653805      -153.8479
   9   2.0000      -5.653621      -153.8428
  10   2.0000      -0.844855       -22.9897
  11   2.0000      -0.721598       -19.6357
  12   2.0000      -0.699423       -19.0323
  13   2.0000      -0.574071       -15.6213
  14   2.0000      -0.457370       -12.4457
  15   2.0000      -0.330654        -8.9975
  16   2.0000      -0.275714        -7.5026
  17   2.0000      -0.264415        -7.1951
  18   2.0000      -0.229502        -6.2451
  19   2.0000      -0.212118        -5.7720
  20   2.0000      -0.209513        -5.7011
  21   2.0000      -0.184060        -5.0085
  22   2.0000      -0.180393        -4.9087
  23   2.0000      -0.103875        -2.8266
  24   2.0000      -0.101409        -2.7595
  25   2.0000      -0.073939        -2.0120
  26   2.0000      -0.063174        -1.7191
  27   2.0000      -0.055792        -1.5182
  28   2.0000      -0.019107        -0.5199
  29   0.0000       0.113148         3.0789
  30   0.0000       0.137324         3.7368
  31   0.0000       0.143890         3.9154
  32   0.0000       0.152267         4.1434
  33   0.0000       0.168495         4.5850

MULLIKEN ATOMIC CHARGES
-----------------------
   0 C :   -0.418105
   1 S :    1.328605
   2 O :   -0.734357
   3 O :   -0.773403
   4 O :   -0.781418
   5 C :   -0.812980
   6 H :    0.238317
   7 H :    0.228082
   8 H :    0.229065
   9 H :    0.254710
  10 H :    0.241483
Sum of atomic charges:   -1.0000000

LOEWDIN ATOMIC CHARGES
----------------------
   0 C :   -0.316482
   1 S :    0.337790
   2 O :   -0.371992
   3 O :   -0.407824
   4 O :   -0.400773
   5 C :   -0.138991
   6 H :    0.072929
   7 H :    0.069105
   8 H :    0.044216
   9 H :    0.053681
  10 H :    0.058340

  Mayer bond orders larger than 0.100000
B(  0-C ,  1-S ) :   0.8706 B(  0-C ,  2-O ) :   0.1613 B(  0-C ,  3-O ) :   0.1476
B(  0-C ,  4-O ) :   0.1266 B(  0-C ,  5-C ) :   0.8758 B(  0-C ,  6-H ) :   0.9434
B(  0-C ,  7-H ) :   0.9473 B(  1-S ,  2-O ) :   1.4297 B(  1-S ,  3-O ) :   1.4074
B(  1-S ,  4-O ) :   1.3794 B(  5-C ,  8-H ) :   0.9434 B(  5-C ,  9-H ) :   0.9506
B(  5-C , 10-H ) :   0.9619

Dispersion correction           -0.011938165
FINAL SINGLE POINT ENERGY      -703.375249454406

DIPOLE MOMENT
-------------
                                X             Y             Z
Electronic contribution:     -6.74947       4.37991      -0.90764
Nuclear contribution   :      8.13140      -5.68016       0.80206
                        -----------------------------------------
Total Dipole Moment    :      1.38193      -1.30024      -0.10558
                        -----------------------------------------
Magnitude (a.u.)       :      1.90040
Magnitude (Debye)      :      4.83043

Rotational constants in cm-1:     0.162101     0.080498     0.079099
Rotational constants in MHz :  4859.669771  2413.267251  2371.338602

                             ****ORCA TERMINATED NORMALLY****
TOTAL RUN TIME: 0 days 0 hours 0 minutes 28 seconds 381 msec
