                         Program Version 5.0.0 -  RELEASE  -
|  1> !TPSS D3BJ RIJCOSX def2-TZVPD def2/J TightSCF
|  2> *xyz 1 1
|  3> C         -4.38262       -1.67089        1.21620
|  4> N         -5.76354       -1.91517        0.70501
|  5> C         -3.28173       -2.19127        0.29436
|  6> H         -5.84081       -2.11520       -0.30065
|  7> H         -6.40882       -1.14866        0.93612
|  8> H         -6.17478       -2.79061        1.05143
|  9> H         -4.32862       -2.13922        2.19810
| 10> H         -4.26158       -0.59740        1.35725
| 11> H         -3.36057       -1.71407       -0.66008
| 12> H         -3.38775       -3.24919        0.17403
| 13> H         -2.32559       -1.97514        0.72329
| 14> *
| 15> %MaxCore 64000
| 16>
| 17> %pal nprocs 4
| 18> end
| 19>
| 20> %scf
| 21>   MaxIter 150
| 22> end
| 23>
| 24>                          ****END OF INPUT****

CARTESIAN COORDINATES (ANGSTROEM)
---------------------------------
  C     -4.382620   -1.670890    1.216200
  N     -5.763540   -1.915170    0.705010
  C     -3.281730   -2.191270    0.294360
  H     -5.840810   -2.115200   -0.300650
  H     -6.408820   -1.148660    0.936120
  H     -6.174780   -2.790610    1.051430
  H     -4.328620   -2.139220    2.198100
  H     -4.261580   -0.597400    1.357250
  H     -3.360570   -1.714070   -0.660080
  H     -3.387750   -3.249190    0.174030
  H     -2.325590   -1.975140    0.723290

 Total Charge           Charge          ....    1
 Multiplicity           Mult            ....    1
 Number of Electrons    NEL             ....   26
 Basis Dimension        Dim             ....  183

ORBITAL ENERGIES
----------------

  NO   OCC          E(Eh)            E(eV)
   0   2.0000     -14.435355      -392.8060
   1   2.0000     -10.239692      -278.6362
   2   2.0000     -10.160990      -276.4946
   3   2.0000      -1.154976       -31.4285
   4   2.0000      -0.913046       -24.8453
   5   2.0000      -0.801106       -21.7992
   6   2.0000      -0.751833       -20.4584
   7   2.0000      -0.730979       -19.8910
   8   2.0000      -0.661375       -17.9969
   9   2.0000      -0.601424       -16.3656
  10   2.0000      -0.546217       -14.8633
  11   2.0000      -0.530012       -14.4224
  12   2.0000      -0.514379       -13.9970
  13   0.0000      -0.213846        -5.8190
  14   0.0000      -0.159722        -4.3462
  15   0.0000      -0.156746        -4.2653
  16   0.0000      -0.142664        -3.8821
  17   0.0000      -0.116177        -3.1613

MULLIKEN ATOMIC CHARGES
-----------------------
   0 C :   -0.166832
   1 N :   -0.257767
   2 C :   -0.858304
   3 H :    0.326707
   4 H :    0.325105
   5 H :    0.350094
   6 H :    0.219475
   7 H :    0.226568
   8 H :    0.309970
   9 H :    0.300295
  10 H :    0.224689
Sum of atomic charges:    1.0000000

LOEWDIN ATOMIC CHARGES
----------------------
   0 C :   -0.183744
   1 N :    0.183481
   2 C :   -0.045982
   3 H :    0.176137
   4 H :    0.180693
   5 H :    0.177879
   6 H :    0.131777
   7 H :    0.130640
   8 H :    0.080024
   9 H :    0.079250
  10 H :    0.089845

  Mayer bond orders larger than 0.100000
B(  0-C ,  1-N ) :   1.0052 B(  0-C ,  2-C ) :   0.9473 B(  0-C ,  6-H ) :   0.9321
B(  0-C ,  7-H ) :   0.9068 B(  1-N ,  3-H ) :   0.8667 B(  1-N ,  4-H ) :   0.8692
B(  1-N ,  5-H ) :   0.8514 B(  2-C ,  8-H ) :   0.9141 B(  2-C ,  9-H ) :   0.9333
B(  2-C , 10-H ) :   0.9727

Dispersion correction           -0.007377888
FINAL SINGLE POINT ENERGY      -135.610465009047

DIPOLE MOMENT
-------------
                                X             Y             Z
Electronic contribution:     -1.76506       0.24124       0.30747
Nuclear contribution   :      0.19437      -0.25358      -0.32106
                        -----------------------------------------
Total Dipole Moment    :     -1.57069      -0.01234      -0.01360
                        -----------------------------------------
Magnitude (a.u.)       :      1.57080
Magnitude (Debye)      :      3.99265

Rotational constants in cm-1:     1.030014     0.272489     0.242697
Rotational constants in MHz : 30879.030706  8169.007780  7275.865152

                             ****ORCA TERMINATED NORMALLY****
TOTAL RUN TIME: 0 days 0 hours 0 minutes 12 seconds 735 msec
