                         Program Version 5.0.0 -  RELEASE  -
|  1> !TPSS D3BJ RIJCOSX def2-TZVPD def2/J TightSCF xyzfile
|  2>
|  3> *xyzfile 0 1 B.xyz
|  4>
|  5> %MaxCore 64000
|  6>
|  7> %pal nprocs 4
|  8> end
|  9>
| 10> %scf
| 11>   MaxIter 150
| 12> end
| 13>
| 14>
| 15>                          ****END OF INPUT****

CARTESIAN COORDINATES (ANGSTROEM)
---------------------------------
  C     -4.382623   -1.670889    1.216201
  N     -5.763539   -1.915170    0.705012
  C     -3.281728   -2.191272    0.294361
  C     -5.572364   -5.807798   -0.816445
  S     -6.903179   -4.619033   -0.528458
  H     -5.840812   -2.115205   -0.300646
  H     -6.408823   -1.148656    0.936124
  H     -6.174781   -2.790606    1.051433
  O     -8.114853   -5.250932   -0.957007
  O     -6.532715   -3.426838   -1.314848
  H     -4.328618   -2.139223    2.198103
  H     -4.261583   -0.597399    1.357248
  O     -6.865632   -4.294957    0.914118
  C     -3.474641   -3.605898   -0.259608
  H     -2.354548   -2.127602    0.871433
  H     -3.166611   -1.499693   -0.545037
  C     -3.827078   -4.661097    0.786174
  H     -2.560559   -3.889391   -0.788050
  H     -4.255932   -3.570040   -1.019300
  C     -4.457800   -5.941875    0.229195
  H     -5.177347   -5.542575   -1.797714
  H     -6.074202   -6.768894   -0.921272
  H     -4.530506   -4.253640    1.511979
  H     -2.933400   -4.932302    1.356825
  H     -3.681064   -6.562236   -0.229885
  H     -4.843942   -6.512728    1.075805

 Total Charge           Charge          ....    0
 Multiplicity           Mult            ....    1
 Number of Electrons    NEL             ....   98
 Basis Dimension        Dim             ....  560

ORBITAL ENERGIES
----------------

  NO   OCC          E(Eh)            E(eV)
   0   2.0000     -88.496726     -2408.1184
   1   2.0000     -18.838648      -512.6257
   2   2.0000     -18.835019      -512.5269
   3   2.0000     -18.823783      -512.2212
   4   2.0000     -14.205058      -386.5393
   5   2.0000     -10.072198      -274.0784
   6   2.0000     -10.020075      -272.6601
   7   2.0000      -9.994624      -271.9675
   8   2.0000      -9.989382      -271.8249
   9   2.0000      -9.989184      -271.8195
  10   2.0000      -9.988561      -271.8026
  11   2.0000      -7.846236      -213.5069
  12   2.0000      -5.826047      -158.5348
  13   2.0000      -5.825098      -158.5090
  14   2.0000      -5.824041      -158.4802
  15   2.0000      -1.021186       -27.7879
  16   2.0000      -0.944445       -25.6997
  17   2.0000      -0.891651       -24.2631
  18   2.0000      -0.888479       -24.1767
  19   2.0000      -0.773791       -21.0559
  20   2.0000      -0.734798       -19.9949
  21   2.0000      -0.687462       -18.7068
  22   2.0000      -0.639017       -17.3885
  23   2.0000      -0.587802       -15.9949
  24   2.0000      -0.554097       -15.0777
  25   2.0000      -0.539837       -14.6897
  26   2.0000      -0.527971       -14.3668
  27   2.0000      -0.491004       -13.3609
  28   2.0000      -0.468571       -12.7505
  29   2.0000      -0.446425       -12.1479
  30   2.0000      -0.441316       -12.0088
  31   2.0000      -0.424734       -11.5576
  32   2.0000      -0.405961       -11.0468
  33   2.0000      -0.394302       -10.7295
  34   2.0000      -0.388546       -10.5729
  35   2.0000      -0.381333       -10.3766
  36   2.0000      -0.371369       -10.1055
  37   2.0000      -0.350277        -9.5315
  38   2.0000      -0.339620        -9.2415
  39   2.0000      -0.335221        -9.1218
  40   2.0000      -0.308754        -8.4016
  41   2.0000      -0.303941        -8.2707
  42   2.0000      -0.295422        -8.0388
  43   2.0000      -0.280895        -7.6435
  44   2.0000      -0.272530        -7.4159
  45   2.0000      -0.238573        -6.4919
  46   2.0000      -0.235042        -6.3958
  47   2.0000      -0.228913        -6.2290
  48   2.0000      -0.203071        -5.5259
  49   0.0000      -0.041299        -1.1238
  50   0.0000      -0.008767        -0.2386
  51   0.0000      -0.002514        -0.0684
  52   0.0000       0.001521         0.0414
  53   0.0000       0.018675         0.5082

MULLIKEN ATOMIC CHARGES
-----------------------
   0 C :   -0.543691
   1 N :   -0.164869
   2 C :   -0.189684
   3 C :   -0.702791
   4 S :    1.475879
   5 H :    0.368800
   6 H :    0.282679
   7 H :    0.339755
   8 O :   -0.726215
   9 O :   -0.891723
  10 H :    0.335628
  11 H :    0.151966
  12 O :   -0.913457
  13 C :   -0.496347
  14 H :    0.135435
  15 H :    0.176161
  16 C :   -0.334717
  17 H :    0.118973
  18 H :    0.479819
  19 C :   -0.269882
  20 H :    0.387381
  21 H :    0.157421
  22 H :    0.405556
  23 H :    0.120762
  24 H :    0.109012
  25 H :    0.188150
Sum of atomic charges:    0.0000000

LOEWDIN ATOMIC CHARGES
----------------------
   0 C :   -0.155560
   1 N :    0.155621
   2 C :   -0.173395
   3 C :   -0.232453
   4 S :    0.443114
   5 H :    0.099794
   6 H :    0.168309
   7 H :    0.061299
   8 O :   -0.294382
   9 O :   -0.374606
  10 H :    0.120560
  11 H :    0.116684
  12 O :   -0.356364
  13 C :   -0.193085
  14 H :    0.114141
  15 H :    0.112231
  16 C :   -0.203669
  17 H :    0.117082
  18 H :    0.084161
  19 C :   -0.207493
  20 H :    0.093221
  21 H :    0.091840
  22 H :    0.082652
  23 H :    0.112960
  24 H :    0.108017
  25 H :    0.109322

  Mayer bond orders larger than 0.100000
B(  0-C ,  1-N ) :   1.0373 B(  0-C ,  2-C ) :   1.0664 B(  0-C , 10-H ) :   0.8367
B(  0-C , 11-H ) :   0.9071 B(  0-C , 16-C ) :   0.2842 B(  1-N ,  5-H ) :   0.7908
B(  1-N ,  6-H ) :   0.8615 B(  1-N ,  7-H ) :   0.8616 B(  2-C , 13-C ) :   1.1329
B(  2-C , 14-H ) :   0.9009 B(  2-C , 15-H ) :   0.9005 B(  3-C ,  4-S ) :   0.8531
B(  3-C ,  8-O ) :   0.2286 B(  3-C ,  9-O ) :   0.1653 B(  3-C , 13-C ) :   0.1668
B(  3-C , 19-C ) :   1.0297 B(  3-C , 20-H ) :   0.8062 B(  3-C , 21-H ) :   0.9672
B(  4-S ,  8-O ) :   1.1966 B(  4-S ,  9-O ) :   1.2453 B(  4-S , 12-O ) :   1.2837
B(  9-O , 12-O ) :   0.1407 B(  9-O , 18-H ) :  -0.1147 B( 13-C , 16-C ) :   0.6611
B( 13-C , 17-H ) :   0.8925 B( 13-C , 18-H ) :   0.8699 B( 13-C , 19-C ) :   0.1687
B( 16-C , 19-C ) :   1.2365 B( 16-C , 22-H ) :   0.8186 B( 16-C , 23-H ) :   0.8814
B( 19-C , 24-H ) :   0.9004 B( 19-C , 25-H ) :   0.8647

Dispersion correction           -0.038992160
FINAL SINGLE POINT ENERGY      -916.642718570188

DIPOLE MOMENT
-------------
                                X             Y             Z
Electronic contribution:    -13.61608      -2.95240      -3.70060
Nuclear contribution   :     16.18863       5.15617       4.97370
                        -----------------------------------------
Total Dipole Moment    :      2.57255       2.20377       1.27310
                        -----------------------------------------
Magnitude (a.u.)       :      3.61875
Magnitude (Debye)      :      9.19814

Rotational constants in cm-1:     0.048546     0.025588     0.020102
Rotational constants in MHz :  1455.374030   767.095631   602.645620

                             ****ORCA TERMINATED NORMALLY****
TOTAL RUN TIME: 0 days 0 hours 1 minutes 26 seconds 606 msec
