                         Program Version 5.0.0 -  RELEASE  -
|  1> !TPSS D3BJ RIJCOSX def2-TZVPD def2/J TightSCF
|  2> *xyz 0 1
|  3> C         -5.57236       -5.80780       -0.81644
|  4> S         -6.90318       -4.61903       -0.52846
|  5> F         -8.11485       -5.25093       -0.95701
|  6> O         -6.53271       -3.42684       -1.31485
|  7> O         -6.86563       -4.29496        0.91412
|  8> C         -4.45780       -5.94187        0.22919
|  9> H         -5.17735       -5.54257       -1.79771
| 10> H         -6.07420       -6.76889       -0.92127
| 11> H         -3.75515       -6.68239       -0.09144
| 12> H         -4.88182       -6.23486        1.16689
| 13> H         -3.95908       -5.00189        0.34143
| 14> *
| 15> %MaxCore 64000
| 16>
| 17> %pal nprocs 4
| 18> end
| 19>
| 20> %scf
| 21>   MaxIter 150
| 22> end
| 23>
| 24>                          ****END OF INPUT****

CARTESIAN COORDINATES (ANGSTROEM)
---------------------------------
  C     -5.572360   -5.807800   -0.816440
  S     -6.903180   -4.619030   -0.528460
  F     -8.114850   -5.250930   -0.957010
  O     -6.532710   -3.426840   -1.314850
  O     -6.865630   -4.294960    0.914120
  C     -4.457800   -5.941870    0.229190
  H     -5.177350   -5.542570   -1.797710
  H     -6.074200   -6.768890   -0.921270
  H     -3.755150   -6.682390   -0.091440
  H     -4.881820   -6.234860    1.166890
  H     -3.959080   -5.001890    0.341430

 Total Charge           Charge          ....    0
 Multiplicity           Mult            ....    1
 Number of Electrons    NEL             ....   58
 Basis Dimension        Dim             ....  285

ORBITAL ENERGIES
----------------

  NO   OCC          E(Eh)            E(eV)
   0   2.0000     -88.585776     -2410.5415
   1   2.0000     -24.531412      -667.5337
   2   2.0000     -18.886520      -513.9283
   3   2.0000     -18.886410      -513.9253
   4   2.0000     -10.046512      -273.3795
   5   2.0000     -10.006133      -272.2807
   6   2.0000      -7.935192      -215.9275
   7   2.0000      -5.918440      -161.0489
   8   2.0000      -5.911672      -160.8648
   9   2.0000      -5.911365      -160.8564
  10   2.0000      -1.308996       -35.6196
  11   2.0000      -1.019485       -27.7416
  12   2.0000      -0.928052       -25.2536
  13   2.0000      -0.762983       -20.7618
  14   2.0000      -0.681781       -18.5522
  15   2.0000      -0.625549       -17.0221
  16   2.0000      -0.535635       -14.5754
  17   2.0000      -0.531220       -14.4552
  18   2.0000      -0.504543       -13.7293
  19   2.0000      -0.450706       -12.2643
  20   2.0000      -0.431851       -11.7513
  21   2.0000      -0.398759       -10.8508
  22   2.0000      -0.386005       -10.5037
  23   2.0000      -0.367137        -9.9903
  24   2.0000      -0.354628        -9.6499
  25   2.0000      -0.334733        -9.1085
  26   2.0000      -0.284211        -7.7338
  27   2.0000      -0.280119        -7.6224
  28   2.0000      -0.257247        -7.0000
  29   0.0000      -0.023564        -0.6412
  30   0.0000      -0.012362        -0.3364
  31   0.0000       0.010639         0.2895
  32   0.0000       0.016667         0.4535
  33   0.0000       0.024878         0.6770

MULLIKEN ATOMIC CHARGES
-----------------------
   0 C :   -0.329260
   1 S :    1.180064
   2 F :   -0.117952
   3 O :   -0.599295
   4 O :   -0.612323
   5 C :   -0.808588
   6 H :    0.258490
   7 H :    0.268016
   8 H :    0.219023
   9 H :    0.275839
  10 H :    0.265986
Sum of atomic charges:   -0.0000000

LOEWDIN ATOMIC CHARGES
----------------------
   0 C :   -0.273553
   1 S :    0.580644
   2 F :   -0.040117
   3 O :   -0.285610
   4 O :   -0.283957
   5 C :   -0.093166
   6 H :    0.094307
   7 H :    0.086312
   8 H :    0.071381
   9 H :    0.069050
  10 H :    0.074708

  Mayer bond orders larger than 0.100000
B(  0-C ,  1-S ) :   0.8655 B(  0-C ,  3-O ) :   0.1140 B(  0-C ,  4-O ) :   0.1071
B(  0-C ,  5-C ) :   0.9845 B(  0-C ,  6-H ) :   0.9293 B(  0-C ,  7-H ) :   0.8745
B(  1-S ,  2-F ) :   1.0394 B(  1-S ,  3-O ) :   1.6313 B(  1-S ,  4-O ) :   1.6094
B(  3-O ,  4-O ) :   0.1250 B(  5-C ,  8-H ) :   0.9447 B(  5-C ,  9-H ) :   0.9241
B(  5-C , 10-H ) :   0.9406

Dispersion correction           -0.011411662
FINAL SINGLE POINT ENERGY      -727.893762282075

DIPOLE MOMENT
-------------
                                X             Y             Z
Electronic contribution:     -9.40435       3.65066      -1.82811
Nuclear contribution   :      9.80704      -5.24335       1.35017
                        -----------------------------------------
Total Dipole Moment    :      0.40269      -1.59269      -0.47794
                        -----------------------------------------
Magnitude (a.u.)       :      1.71092
Magnitude (Debye)      :      4.34881

Rotational constants in cm-1:     0.156316     0.078308     0.076228
Rotational constants in MHz :  4686.224999  2347.601204  2285.245115

                             ****ORCA TERMINATED NORMALLY****
TOTAL RUN TIME: 0 days 0 hours 0 minutes 22 seconds 144 msec
