                         Program Version 5.0.0 -  RELEASE  -
|  1> !TPSS D3BJ RIJCOSX def2-TZVPD def2/J TightSCF
|  2> *xyz 0 1
|  3> C         -4.38262       -1.67089        1.21620
|  4> C         -5.76354       -1.91517        0.70501
|  5> C         -3.28173       -2.19127        0.29436
|  6> H         -5.84081       -2.11520       -0.30065
|  7> H         -6.40882       -1.14866        0.93612
|  8> H         -6.17478       -2.79061        1.05143
|  9> H         -4.32862       -2.13922        2.19810
| 10> H         -4.26158       -0.59740        1.35725
| 11> H         -3.36057       -1.71407       -0.66008
| 12> H         -3.38775       -3.24919        0.17403
| 13> H         -2.32559       -1.97514        0.72329
| 14> *
| 15> %MaxCore 64000
| 16>
| 17> %pal nprocs 4
| 18> end
| 19>
| 20> %scf
| 21>   MaxIter 150
| 22> end
| 23>
| 24>                          ****END OF INPUT****

CARTESIAN COORDINATES (ANGSTROEM)
---------------------------------
  C     -4.382620   -1.670890    1.216200
  C     -5.763540   -1.915170    0.705010
  C     -3.281730   -2.191270    0.294360
  H     -5.840810   -2.115200   -0.300650
  H     -6.408820   -1.148660    0.936120
  H     -6.174780   -2.790610    1.051430
  H     -4.328620   -2.139220    2.198100
  H     -4.261580   -0.597400    1.357250
  H     -3.360570   -1.714070   -0.660080
  H     -3.387750   -3.249190    0.174030
  H     -2.325590   -1.975140    0.723290

 Total Charge           Charge          ....    0
 Multiplicity           Mult            ....    1
 Number of Electrons    NEL             ....   26
 Basis Dimension        Dim             ....  183

ORBITAL ENERGIES
----------------

  NO   OCC          E(Eh)            E(eV)
   0   2.0000      -9.972238      -271.3584
   1   2.0000      -9.963939      -271.1326
   2   2.0000      -9.944605      -270.6065
   3   2.0000      -0.730884       -19.8884
   4   2.0000      -0.640310       -17.4237
   5   2.0000      -0.543177       -14.7806
   6   2.0000      -0.420824       -11.4512
   7   2.0000      -0.400253       -10.8914
   8   2.0000      -0.370218       -10.0741
   9   2.0000      -0.347578        -9.4581
  10   2.0000      -0.303936        -8.2705
  11   2.0000      -0.296590        -8.0706
  12   2.0000      -0.287321        -7.8184
  13   0.0000       0.004112         0.1119
  14   0.0000       0.029276         0.7966
  15   0.0000       0.031979         0.8702
  16   0.0000       0.050694         1.3795
  17   0.0000       0.075195         2.0462

MULLIKEN ATOMIC CHARGES
-----------------------
   0 C :    0.196680
   1 C :   -1.126526
   2 C :   -0.947774
   3 H :    0.325219
   4 H :    0.243085
   5 H :    0.286822
   6 H :    0.128463
   7 H :    0.154207
   8 H :    0.266430
   9 H :    0.259428
  10 H :    0.213967
Sum of atomic charges:    0.0000000

LOEWDIN ATOMIC CHARGES
----------------------
   0 C :   -0.297329
   1 C :   -0.119916
   2 C :   -0.107810
   3 H :    0.048837
   4 H :    0.049788
   5 H :    0.048586
   6 H :    0.098257
   7 H :    0.096684
   8 H :    0.062977
   9 H :    0.063074
  10 H :    0.056851

  Mayer bond orders larger than 0.100000
B(  0-C ,  1-C ) :   0.8641 B(  0-C ,  2-C ) :   0.7922 B(  0-C ,  6-H ) :   0.9472
B(  0-C ,  7-H ) :   0.9404 B(  1-C ,  2-C ) :   0.2438 B(  1-C ,  3-H ) :   0.9116
B(  1-C ,  4-H ) :   0.9588 B(  1-C ,  5-H ) :   0.9505 B(  2-C ,  8-H ) :   0.9639
B(  2-C ,  9-H ) :   0.9747 B(  2-C , 10-H ) :   0.9825

Dispersion correction           -0.007403613
FINAL SINGLE POINT ENERGY      -119.194312317033

DIPOLE MOMENT
-------------
                                X             Y             Z
Electronic contribution:      0.18978       0.24051       0.34002
Nuclear contribution   :     -0.21528      -0.24783      -0.32864
                        -----------------------------------------
Total Dipole Moment    :     -0.02550      -0.00732       0.01137
                        -----------------------------------------
Magnitude (a.u.)       :      0.02886
Magnitude (Debye)      :      0.07337

Rotational constants in cm-1:     1.037566     0.286459     0.254172
Rotational constants in MHz : 31105.431429  8587.814531  7619.871198

                             ****ORCA TERMINATED NORMALLY****
TOTAL RUN TIME: 0 days 0 hours 0 minutes 13 seconds 802 msec
