                         Program Version 5.0.0 -  RELEASE  -
|  1> !TPSS D3BJ RIJCOSX def2-TZVPD def2/J TightSCF
|  2> *xyz 0 1
|  3> C         -5.57236       -5.80780       -0.81644
|  4> S         -6.90318       -4.61903       -0.52846
|  5> O         -8.11485       -5.25093       -0.95701
|  6> F         -6.53271       -3.42684       -1.31485
|  7> O         -6.86563       -4.29496        0.91412
|  8> C         -4.45780       -5.94187        0.22919
|  9> H         -5.17735       -5.54257       -1.79771
| 10> H         -6.07420       -6.76889       -0.92127
| 11> H         -3.75515       -6.68239       -0.09144
| 12> H         -4.88182       -6.23486        1.16689
| 13> H         -3.95908       -5.00189        0.34143
| 14> *
| 15> %MaxCore 64000
| 16>
| 17> %pal nprocs 4
| 18> end
| 19>
| 20> %scf
| 21>   MaxIter 150
| 22> end
| 23>
| 24>                          ****END OF INPUT****

CARTESIAN COORDINATES (ANGSTROEM)
---------------------------------
  C     -5.572360   -5.807800   -0.816440
  S     -6.903180   -4.619030   -0.528460
  O     -8.114850   -5.250930   -0.957010
  F     -6.532710   -3.426840   -1.314850
  O     -6.865630   -4.294960    0.914120
  C     -4.457800   -5.941870    0.229190
  H     -5.177350   -5.542570   -1.797710
  H     -6.074200   -6.768890   -0.921270
  H     -3.755150   -6.682390   -0.091440
  H     -4.881820   -6.234860    1.166890
  H     -3.959080   -5.001890    0.341430

 Total Charge           Charge          ....    0
 Multiplicity           Mult            ....    1
 Number of Electrons    NEL             ....   58
 Basis Dimension        Dim             ....  285

ORBITAL ENERGIES
----------------

  NO   OCC          E(Eh)            E(eV)
   0   2.0000     -88.583380     -2410.4763
   1   2.0000     -24.509813      -666.9459
   2   2.0000     -18.900093      -514.2977
   3   2.0000     -18.886255      -513.9211
   4   2.0000     -10.045838      -273.3612
   5   2.0000     -10.005379      -272.2602
   6   2.0000      -7.932926      -215.8659
   7   2.0000      -5.916220      -160.9885
   8   2.0000      -5.909453      -160.8044
   9   2.0000      -5.909117      -160.7953
  10   2.0000      -1.273424       -34.6516
  11   2.0000      -1.036218       -28.1969
  12   2.0000      -0.942798       -25.6548
  13   2.0000      -0.762695       -20.7540
  14   2.0000      -0.669561       -18.2197
  15   2.0000      -0.617720       -16.8090
  16   2.0000      -0.522592       -14.2205
  17   2.0000      -0.505914       -13.7666
  18   2.0000      -0.498595       -13.5675
  19   2.0000      -0.448910       -12.2155
  20   2.0000      -0.432338       -11.7645
  21   2.0000      -0.406764       -11.0686
  22   2.0000      -0.388964       -10.5843
  23   2.0000      -0.364848        -9.9280
  24   2.0000      -0.360122        -9.7994
  25   2.0000      -0.341136        -9.2828
  26   2.0000      -0.296946        -8.0803
  27   2.0000      -0.284424        -7.7396
  28   2.0000      -0.269653        -7.3376
  29   0.0000      -0.023413        -0.6371
  30   0.0000      -0.007942        -0.2161
  31   0.0000       0.010004         0.2722
  32   0.0000       0.016662         0.4534
  33   0.0000       0.024936         0.6785

MULLIKEN ATOMIC CHARGES
-----------------------
   0 C :   -0.330372
   1 S :    1.188754
   2 O :   -0.577101
   3 F :   -0.158798
   4 O :   -0.614410
   5 C :   -0.794370
   6 H :    0.293521
   7 H :    0.237587
   8 H :    0.217358
   9 H :    0.272517
  10 H :    0.265314
Sum of atomic charges:   -0.0000000

LOEWDIN ATOMIC CHARGES
----------------------
   0 C :   -0.268551
   1 S :    0.582081
   2 O :   -0.254020
   3 F :   -0.074617
   4 O :   -0.282856
   5 C :   -0.099016
   6 H :    0.090324
   7 H :    0.096551
   8 H :    0.069994
   9 H :    0.070160
  10 H :    0.069950

  Mayer bond orders larger than 0.100000
B(  0-C ,  1-S ) :   0.8673 B(  0-C ,  2-O ) :   0.1292 B(  0-C ,  5-C ) :   0.9726
B(  0-C ,  6-H ) :   0.8645 B(  0-C ,  7-H ) :   0.9356 B(  1-S ,  2-O ) :   1.6603
B(  1-S ,  3-F ) :   0.9919 B(  1-S ,  4-O ) :   1.6059 B(  2-O ,  4-O ) :   0.1275
B(  5-C ,  8-H ) :   0.9552 B(  5-C ,  9-H ) :   0.9395 B(  5-C , 10-H ) :   0.9256

Dispersion correction           -0.011392294
FINAL SINGLE POINT ENERGY      -727.911704908264

DIPOLE MOMENT
-------------
                                X             Y             Z
Electronic contribution:     -6.77814       6.69666      -2.44269
Nuclear contribution   :      8.15840      -7.14411       1.72305
                        -----------------------------------------
Total Dipole Moment    :      1.38026      -0.44744      -0.71964
                        -----------------------------------------
Magnitude (a.u.)       :      1.61963
Magnitude (Debye)      :      4.11677

Rotational constants in cm-1:     0.153926     0.078297     0.077402
Rotational constants in MHz :  4614.585804  2347.272644  2320.438903

                             ****ORCA TERMINATED NORMALLY****
TOTAL RUN TIME: 0 days 0 hours 0 minutes 24 seconds 411 msec
