                         Program Version 5.0.0 -  RELEASE  -
|  1> !TPSS D3BJ RIJCOSX def2-TZVPD def2/J TightSCF
|  2> *xyz 0 1
|  3> C         -5.57236       -5.80780       -0.81644
|  4> S         -6.90318       -4.61903       -0.52846
|  5> O         -8.11485       -5.25093       -0.95701
|  6> O         -6.53271       -3.42684       -1.31485
|  7> F         -6.86563       -4.29496        0.91412
|  8> C         -4.45780       -5.94187        0.22919
|  9> H         -5.17735       -5.54257       -1.79771
| 10> H         -6.07420       -6.76889       -0.92127
| 11> H         -3.75515       -6.68239       -0.09144
| 12> H         -4.88182       -6.23486        1.16689
| 13> H         -3.95908       -5.00189        0.34143
| 14> *
| 15> %MaxCore 64000
| 16>
| 17> %pal nprocs 4
| 18> end
| 19>
| 20> %scf
| 21>   MaxIter 150
| 22> end
| 23>
| 24>                          ****END OF INPUT****

CARTESIAN COORDINATES (ANGSTROEM)
---------------------------------
  C     -5.572360   -5.807800   -0.816440
  S     -6.903180   -4.619030   -0.528460
  O     -8.114850   -5.250930   -0.957010
  O     -6.532710   -3.426840   -1.314850
  F     -6.865630   -4.294960    0.914120
  C     -4.457800   -5.941870    0.229190
  H     -5.177350   -5.542570   -1.797710
  H     -6.074200   -6.768890   -0.921270
  H     -3.755150   -6.682390   -0.091440
  H     -4.881820   -6.234860    1.166890
  H     -3.959080   -5.001890    0.341430

 Total Charge           Charge          ....    0
 Multiplicity           Mult            ....    1
 Number of Electrons    NEL             ....   58
 Basis Dimension        Dim             ....  285

ORBITAL ENERGIES
----------------

  NO   OCC          E(Eh)            E(eV)
   0   2.0000     -88.582946     -2410.4645
   1   2.0000     -24.508628      -666.9137
   2   2.0000     -18.899830      -514.2905
   3   2.0000     -18.885644      -513.9045
   4   2.0000     -10.045242      -273.3449
   5   2.0000     -10.011925      -272.4383
   6   2.0000      -7.932529      -215.8551
   7   2.0000      -5.915889      -160.9795
   8   2.0000      -5.908935      -160.7903
   9   2.0000      -5.908788      -160.7863
  10   2.0000      -1.270792       -34.5800
  11   2.0000      -1.036792       -28.2126
  12   2.0000      -0.943478       -25.6733
  13   2.0000      -0.765432       -20.8285
  14   2.0000      -0.666999       -18.1500
  15   2.0000      -0.622064       -16.9272
  16   2.0000      -0.527070       -14.3423
  17   2.0000      -0.505316       -13.7503
  18   2.0000      -0.491428       -13.3724
  19   2.0000      -0.453347       -12.3362
  20   2.0000      -0.425998       -11.5920
  21   2.0000      -0.406784       -11.0692
  22   2.0000      -0.398489       -10.8434
  23   2.0000      -0.372929       -10.1479
  24   2.0000      -0.360477        -9.8091
  25   2.0000      -0.342388        -9.3169
  26   2.0000      -0.297574        -8.0974
  27   2.0000      -0.282867        -7.6972
  28   2.0000      -0.269435        -7.3317
  29   0.0000      -0.030578        -0.8321
  30   0.0000       0.004266         0.1161
  31   0.0000       0.012920         0.3516
  32   0.0000       0.017433         0.4744
  33   0.0000       0.022639         0.6160

MULLIKEN ATOMIC CHARGES
-----------------------
   0 C :   -0.239374
   1 S :    1.188688
   2 O :   -0.577778
   3 O :   -0.607786
   4 F :   -0.172287
   5 C :   -0.863895
   6 H :    0.246334
   7 H :    0.249208
   8 H :    0.213453
   9 H :    0.287001
  10 H :    0.276437
Sum of atomic charges:    0.0000000

LOEWDIN ATOMIC CHARGES
----------------------
   0 C :   -0.264352
   1 S :    0.581172
   2 O :   -0.253855
   3 O :   -0.287076
   4 F :   -0.073723
   5 C :   -0.102250
   6 H :    0.100845
   7 H :    0.092430
   8 H :    0.070447
   9 H :    0.065775
  10 H :    0.070587

  Mayer bond orders larger than 0.100000
B(  0-C ,  1-S ) :   0.8396 B(  0-C ,  2-O ) :   0.1259 B(  0-C ,  3-O ) :   0.1047
B(  0-C ,  5-C ) :   0.9233 B(  0-C ,  6-H ) :   0.9241 B(  0-C ,  7-H ) :   0.9253
B(  1-S ,  2-O ) :   1.6605 B(  1-S ,  3-O ) :   1.6278 B(  1-S ,  4-F ) :   0.9860
B(  2-O ,  3-O ) :   0.1215 B(  5-C ,  8-H ) :   0.9641 B(  5-C ,  9-H ) :   0.9106
B(  5-C , 10-H ) :   0.9419

Dispersion correction           -0.011341550
FINAL SINGLE POINT ENERGY      -727.911945400835

DIPOLE MOMENT
-------------
                                X             Y             Z
Electronic contribution:     -7.31549       5.22098       1.27084
Nuclear contribution   :      8.50531      -6.23950      -0.59960
                        -----------------------------------------
Total Dipole Moment    :      1.18982      -1.01852       0.67124
                        -----------------------------------------
Magnitude (a.u.)       :      1.70400
Magnitude (Debye)      :      4.33123

Rotational constants in cm-1:     0.152799     0.080212     0.076962
Rotational constants in MHz :  4580.804531  2404.707790  2307.252710

                             ****ORCA TERMINATED NORMALLY****
TOTAL RUN TIME: 0 days 0 hours 0 minutes 24 seconds 888 msec
