                         Program Version 5.0.0 -  RELEASE  -
|  1> !TPSS D3BJ RIJCOSX def2-TZVPD def2/J TightSCF xyzfile
|  2>
|  3> *xyzfile 0 1 D1.xyz
|  4>
|  5> %MaxCore 64000
|  6>
|  7> %pal nprocs 4
|  8> end
|  9>
| 10> %scf
| 11>   MaxIter 150
| 12> end
| 13>
| 14>
| 15>                          ****END OF INPUT****

CARTESIAN COORDINATES (ANGSTROEM)
---------------------------------
  C     -4.382623   -1.670889    1.216201
  C     -5.763539   -1.915170    0.705012
  C     -3.281728   -2.191272    0.294361
  C     -5.572364   -5.807798   -0.816445
  S     -6.903179   -4.619033   -0.528458
  H     -5.840812   -2.115205   -0.300646
  H     -6.408823   -1.148656    0.936124
  H     -6.174781   -2.790606    1.051433
  F     -8.114853   -5.250932   -0.957007
  O     -6.532715   -3.426838   -1.314848
  H     -4.328618   -2.139223    2.198103
  H     -4.261583   -0.597399    1.357248
  O     -6.865632   -4.294957    0.914118
  C     -3.474641   -3.605898   -0.259608
  H     -2.354548   -2.127602    0.871433
  H     -3.166611   -1.499693   -0.545037
  C     -3.827078   -4.661097    0.786174
  H     -2.560559   -3.889391   -0.788050
  H     -4.255932   -3.570040   -1.019300
  C     -4.457800   -5.941875    0.229195
  H     -5.177347   -5.542575   -1.797714
  H     -6.074202   -6.768894   -0.921272
  H     -4.530506   -4.253640    1.511979
  H     -2.933400   -4.932302    1.356825
  H     -3.681064   -6.562236   -0.229885
  H     -4.843942   -6.512728    1.075805

 Total Charge           Charge          ....    0
 Multiplicity           Mult            ....    1
 Number of Electrons    NEL             ....   98
 Basis Dimension        Dim             ....  560

ORBITAL ENERGIES
----------------

  NO   OCC          E(Eh)            E(eV)
   0   2.0000     -88.592051     -2410.7123
   1   2.0000     -24.535330      -667.6403
   2   2.0000     -18.894666      -514.1500
   3   2.0000     -18.893624      -514.1216
   4   2.0000     -10.047279      -273.4004
   5   2.0000     -10.012960      -272.4665
   6   2.0000      -9.981759      -271.6175
   7   2.0000      -9.971511      -271.3386
   8   2.0000      -9.963442      -271.1190
   9   2.0000      -9.949752      -270.7465
  10   2.0000      -9.894592      -269.2455
  11   2.0000      -7.941779      -216.1068
  12   2.0000      -5.924908      -161.2249
  13   2.0000      -5.918344      -161.0463
  14   2.0000      -5.917952      -161.0356
  15   2.0000      -1.313244       -35.7352
  16   2.0000      -1.032385       -28.0926
  17   2.0000      -0.941160       -25.6103
  18   2.0000      -0.775626       -21.1058
  19   2.0000      -0.736968       -20.0539
  20   2.0000      -0.696923       -18.9642
  21   2.0000      -0.671456       -18.2712
  22   2.0000      -0.637446       -17.3458
  23   2.0000      -0.594375       -16.1738
  24   2.0000      -0.560805       -15.2603
  25   2.0000      -0.538821       -14.6621
  26   2.0000      -0.530333       -14.4311
  27   2.0000      -0.506416       -13.7803
  28   2.0000      -0.495292       -13.4776
  29   2.0000      -0.450310       -12.2536
  30   2.0000      -0.449299       -12.2261
  31   2.0000      -0.424173       -11.5423
  32   2.0000      -0.419996       -11.4287
  33   2.0000      -0.399885       -10.8814
  34   2.0000      -0.392314       -10.6754
  35   2.0000      -0.372488       -10.1359
  36   2.0000      -0.370593       -10.0843
  37   2.0000      -0.347911        -9.4671
  38   2.0000      -0.340715        -9.2713
  39   2.0000      -0.336740        -9.1632
  40   2.0000      -0.306950        -8.3525
  41   2.0000      -0.301575        -8.2063
  42   2.0000      -0.296728        -8.0744
  43   2.0000      -0.294297        -8.0082
  44   2.0000      -0.285996        -7.7823
  45   2.0000      -0.273502        -7.4424
  46   2.0000      -0.260310        -7.0834
  47   2.0000      -0.252790        -6.8788
  48   2.0000      -0.231891        -6.3101
  49   0.0000      -0.026124        -0.7109
  50   0.0000      -0.016881        -0.4593
  51   0.0000       0.006967         0.1896
  52   0.0000       0.007947         0.2162
  53   0.0000       0.013166         0.3583

MULLIKEN ATOMIC CHARGES
-----------------------
   0 C :   -0.018462
   1 C :   -1.689566
   2 C :   -0.463703
   3 C :   -0.675437
   4 S :    1.210850
   5 H :    0.669045
   6 H :    0.231230
   7 H :    0.643663
   8 F :   -0.104401
   9 O :   -0.682353
  10 H :    0.259961
  11 H :    0.047986
  12 O :   -0.693375
  13 C :   -0.347417
  14 H :    0.104715
  15 H :    0.162881
  16 C :   -0.335432
  17 H :    0.125597
  18 H :    0.364286
  19 C :   -0.214246
  20 H :    0.378898
  21 H :    0.217635
  22 H :    0.389049
  23 H :    0.118325
  24 H :    0.107254
  25 H :    0.193018
Sum of atomic charges:   -0.0000000

LOEWDIN ATOMIC CHARGES
----------------------
   0 C :   -0.233580
   1 C :   -0.118731
   2 C :   -0.196707
   3 C :   -0.214867
   4 S :    0.637646
   5 H :    0.021047
   6 H :    0.063695
   7 H :   -0.007964
   8 F :   -0.028144
   9 O :   -0.289872
  10 H :    0.100223
  11 H :    0.099778
  12 O :   -0.279680
  13 C :   -0.194256
  14 H :    0.100934
  15 H :    0.108664
  16 C :   -0.192645
  17 H :    0.110228
  18 H :    0.082961
  19 C :   -0.197271
  20 H :    0.101431
  21 H :    0.092069
  22 H :    0.092658
  23 H :    0.116390
  24 H :    0.115557
  25 H :    0.110436

  Mayer bond orders larger than 0.100000
B(  0-C ,  1-C ) :   0.5200 B(  0-C ,  2-C ) :   1.0194 B(  0-C , 10-H ) :   0.7906
B(  0-C , 11-H ) :   0.9780 B(  0-C , 16-C ) :   0.2681 B(  1-C ,  2-C ) :   0.1888
B(  1-C ,  5-H ) :   0.5706 B(  1-C ,  6-H ) :   0.8678 B(  1-C ,  7-H ) :   0.8085
B(  1-C ,  9-O ) :   0.1835 B(  1-C , 12-O ) :   0.1943 B(  2-C , 13-C ) :   1.1560
B(  2-C , 14-H ) :   0.9014 B(  2-C , 15-H ) :   0.8899 B(  2-C , 16-C ) :   0.1072
B(  2-C , 18-H ) :   0.1447 B(  3-C ,  4-S ) :   0.8711 B(  3-C ,  8-F ) :   0.1280
B(  3-C ,  9-O ) :   0.1513 B(  3-C , 13-C ) :   0.2066 B(  3-C , 19-C ) :   1.0597
B(  3-C , 20-H ) :   0.8146 B(  3-C , 21-H ) :   0.8857 B(  4-S ,  8-F ) :   0.8821
B(  4-S ,  9-O ) :   1.6079 B(  4-S , 12-O ) :   1.6552 B(  5-H ,  9-O ) :  -0.1670
B(  7-H , 12-O ) :  -0.2999 B(  9-O , 12-O ) :   0.2032 B( 13-C , 16-C ) :   0.7370
B( 13-C , 17-H ) :   0.8942 B( 13-C , 18-H ) :   0.8799 B( 13-C , 19-C ) :   0.1413
B( 16-C , 19-C ) :   1.1687 B( 16-C , 22-H ) :   0.8388 B( 16-C , 23-H ) :   0.8693
B( 19-C , 24-H ) :   0.8955 B( 19-C , 25-H ) :   0.8613

Dispersion correction           -0.038481753
FINAL SINGLE POINT ENERGY      -924.524709735986

DIPOLE MOMENT
-------------
                                X             Y             Z
Electronic contribution:    -18.96308      -8.56830      -6.69152
Nuclear contribution   :     19.08524       6.89775       6.14221
                        -----------------------------------------
Total Dipole Moment    :      0.12216      -1.67055      -0.54931
                        -----------------------------------------
Magnitude (a.u.)       :      1.76278
Magnitude (Debye)      :      4.48063

Rotational constants in cm-1:     0.049343     0.024787     0.019726
Rotational constants in MHz :  1479.262779   743.087234   591.370705

                             ****ORCA TERMINATED NORMALLY****
TOTAL RUN TIME: 0 days 0 hours 1 minutes 38 seconds 543 msec
