                         Program Version 5.0.0 -  RELEASE  -
|  1> !TPSS D3BJ RIJCOSX def2-TZVPD def2/J TightSCF xyzfile
|  2>
|  3> *xyzfile 0 1 D2.xyz
|  4>
|  5> %MaxCore 64000
|  6>
|  7> %pal nprocs 4
|  8> end
|  9>
| 10> %scf
| 11>   MaxIter 150
| 12> end
| 13>
| 14>
| 15>                          ****END OF INPUT****

CARTESIAN COORDINATES (ANGSTROEM)
---------------------------------
  C     -4.382623   -1.670889    1.216201
  C     -5.763539   -1.915170    0.705012
  C     -3.281728   -2.191272    0.294361
  C     -5.572364   -5.807798   -0.816445
  S     -6.903179   -4.619033   -0.528458
  H     -5.840812   -2.115205   -0.300646
  H     -6.408823   -1.148656    0.936124
  H     -6.174781   -2.790606    1.051433
  O     -8.114853   -5.250932   -0.957007
  F     -6.532715   -3.426838   -1.314848
  H     -4.328618   -2.139223    2.198103
  H     -4.261583   -0.597399    1.357248
  O     -6.865632   -4.294957    0.914118
  C     -3.474641   -3.605898   -0.259608
  H     -2.354548   -2.127602    0.871433
  H     -3.166611   -1.499693   -0.545037
  C     -3.827078   -4.661097    0.786174
  H     -2.560559   -3.889391   -0.788050
  H     -4.255932   -3.570040   -1.019300
  C     -4.457800   -5.941875    0.229195
  H     -5.177347   -5.542575   -1.797714
  H     -6.074202   -6.768894   -0.921272
  H     -4.530506   -4.253640    1.511979
  H     -2.933400   -4.932302    1.356825
  H     -3.681064   -6.562236   -0.229885
  H     -4.843942   -6.512728    1.075805

 Total Charge           Charge          ....    0
 Multiplicity           Mult            ....    1
 Number of Electrons    NEL             ....   98
 Basis Dimension        Dim             ....  560

ORBITAL ENERGIES
----------------

  NO   OCC          E(Eh)            E(eV)
   0   2.0000     -88.587428     -2410.5865
   1   2.0000     -24.513288      -667.0405
   2   2.0000     -18.903324      -514.3856
   3   2.0000     -18.890600      -514.0394
   4   2.0000     -10.045951      -273.3642
   5   2.0000     -10.012602      -272.4567
   6   2.0000      -9.988456      -271.7997
   7   2.0000      -9.986900      -271.7574
   8   2.0000      -9.976479      -271.4738
   9   2.0000      -9.963820      -271.1293
  10   2.0000      -9.915398      -269.8117
  11   2.0000      -7.937295      -215.9848
  12   2.0000      -5.920526      -161.1057
  13   2.0000      -5.913887      -160.9250
  14   2.0000      -5.913377      -160.9112
  15   2.0000      -1.280775       -34.8516
  16   2.0000      -1.041888       -28.3512
  17   2.0000      -0.952473       -25.9181
  18   2.0000      -0.778342       -21.1798
  19   2.0000      -0.745752       -20.2929
  20   2.0000      -0.699974       -19.0473
  21   2.0000      -0.673651       -18.3310
  22   2.0000      -0.638172       -17.3655
  23   2.0000      -0.605127       -16.4663
  24   2.0000      -0.565521       -15.3886
  25   2.0000      -0.526257       -14.3202
  26   2.0000      -0.515143       -14.0177
  27   2.0000      -0.507382       -13.8066
  28   2.0000      -0.504134       -13.7182
  29   2.0000      -0.453665       -12.3448
  30   2.0000      -0.445970       -12.1355
  31   2.0000      -0.425125       -11.5682
  32   2.0000      -0.416781       -11.3412
  33   2.0000      -0.414359       -11.2753
  34   2.0000      -0.395014       -10.7489
  35   2.0000      -0.383956       -10.4480
  36   2.0000      -0.362910        -9.8753
  37   2.0000      -0.356413        -9.6985
  38   2.0000      -0.352531        -9.5928
  39   2.0000      -0.346885        -9.4392
  40   2.0000      -0.320638        -8.7250
  41   2.0000      -0.316653        -8.6166
  42   2.0000      -0.313929        -8.5424
  43   2.0000      -0.295974        -8.0539
  44   2.0000      -0.291555        -7.9336
  45   2.0000      -0.283039        -7.7019
  46   2.0000      -0.276997        -7.5375
  47   2.0000      -0.274772        -7.4769
  48   2.0000      -0.240163        -6.5352
  49   0.0000      -0.021690        -0.5902
  50   0.0000      -0.012161        -0.3309
  51   0.0000      -0.000883        -0.0240
  52   0.0000       0.005856         0.1593
  53   0.0000       0.013693         0.3726

MULLIKEN ATOMIC CHARGES
-----------------------
   0 C :   -0.000054
   1 C :   -1.796815
   2 C :   -0.468501
   3 C :   -0.646876
   4 S :    1.238197
   5 H :    0.673163
   6 H :    0.229381
   7 H :    0.747121
   8 O :   -0.632664
   9 F :   -0.211934
  10 H :    0.261400
  11 H :    0.043430
  12 O :   -0.686801
  13 C :   -0.348987
  14 H :    0.106781
  15 H :    0.163954
  16 C :   -0.318735
  17 H :    0.126386
  18 H :    0.332499
  19 C :   -0.206422
  20 H :    0.435843
  21 H :    0.139809
  22 H :    0.389315
  23 H :    0.114106
  24 H :    0.118796
  25 H :    0.197607
Sum of atomic charges:   -0.0000000

LOEWDIN ATOMIC CHARGES
----------------------
   0 C :   -0.230894
   1 C :   -0.117099
   2 C :   -0.197132
   3 C :   -0.210900
   4 S :    0.622982
   5 H :    0.031202
   6 H :    0.065574
   7 H :   -0.009489
   8 O :   -0.238062
   9 F :   -0.096248
  10 H :    0.103346
  11 H :    0.101580
  12 O :   -0.276112
  13 C :   -0.196102
  14 H :    0.103630
  15 H :    0.108496
  16 C :   -0.194598
  17 H :    0.112464
  18 H :    0.080824
  19 C :   -0.199667
  20 H :    0.097794
  21 H :    0.102011
  22 H :    0.092623
  23 H :    0.117388
  24 H :    0.113933
  25 H :    0.112457

  Mayer bond orders larger than 0.100000
B(  0-C ,  1-C ) :   0.5221 B(  0-C ,  2-C ) :   1.0155 B(  0-C , 10-H ) :   0.7932
B(  0-C , 11-H ) :   0.9852 B(  0-C , 16-C ) :   0.2649 B(  1-C ,  2-C ) :   0.2080
B(  1-C ,  4-S ) :   0.1575 B(  1-C ,  5-H ) :   0.5023 B(  1-C ,  6-H ) :   0.8574
B(  1-C ,  7-H ) :   0.6171 B(  1-C ,  9-F ) :   0.2061 B(  1-C , 12-O ) :   0.2731
B(  2-C , 13-C ) :   1.1614 B(  2-C , 14-H ) :   0.8929 B(  2-C , 15-H ) :   0.8952
B(  2-C , 16-C ) :   0.1017 B(  2-C , 18-H ) :   0.1351 B(  3-C ,  4-S ) :   0.8689
B(  3-C ,  8-O ) :   0.1918 B(  3-C , 13-C ) :   0.1922 B(  3-C , 19-C ) :   1.0203
B(  3-C , 20-H ) :   0.7332 B(  3-C , 21-H ) :   0.9709 B(  4-S ,  8-O ) :   1.3255
B(  4-S ,  9-F ) :   0.9999 B(  4-S , 12-O ) :   1.6144 B(  5-H ,  9-F ) :  -0.1323
B(  7-H , 12-O ) :  -0.3319 B(  9-F , 12-O ) :   0.1077 B( 13-C , 16-C ) :   0.7396
B( 13-C , 17-H ) :   0.8979 B( 13-C , 18-H ) :   0.8934 B( 13-C , 19-C ) :   0.1263
B( 16-C , 19-C ) :   1.1784 B( 16-C , 22-H ) :   0.8383 B( 16-C , 23-H ) :   0.8599
B( 19-C , 24-H ) :   0.9152 B( 19-C , 25-H ) :   0.8620

Dispersion correction           -0.038105237
FINAL SINGLE POINT ENERGY      -924.541019086584

DIPOLE MOMENT
-------------
                                X             Y             Z
Electronic contribution:    -16.03619      -5.33723      -7.17369
Nuclear contribution   :     17.25367       4.78608       6.55647
                        -----------------------------------------
Total Dipole Moment    :      1.21748      -0.55115      -0.61722
                        -----------------------------------------
Magnitude (a.u.)       :      1.47207
Magnitude (Debye)      :      3.74170

Rotational constants in cm-1:     0.048508     0.025517     0.020225
Rotational constants in MHz :  1454.219007   764.979652   606.316599

                             ****ORCA TERMINATED NORMALLY****
TOTAL RUN TIME: 0 days 0 hours 1 minutes 27 seconds 344 msec
