                         Program Version 5.0.0 -  RELEASE  -
|  1> !TPSS D3BJ RIJCOSX def2-TZVPD def2/J TightSCF xyzfile
|  2>
|  3> *xyzfile 0 1 D3.xyz
|  4>
|  5> %MaxCore 64000
|  6>
|  7> %pal nprocs 4
|  8> end
|  9>
| 10> %scf
| 11>   MaxIter 150
| 12> end
| 13>
| 14>
| 15>                          ****END OF INPUT****

CARTESIAN COORDINATES (ANGSTROEM)
---------------------------------
  C     -4.382623   -1.670889    1.216201
  C     -5.763539   -1.915170    0.705012
  C     -3.281728   -2.191272    0.294361
  C     -5.572364   -5.807798   -0.816445
  S     -6.903179   -4.619033   -0.528458
  H     -5.840812   -2.115205   -0.300646
  H     -6.408823   -1.148656    0.936124
  H     -6.174781   -2.790606    1.051433
  O     -8.114853   -5.250932   -0.957007
  O     -6.532715   -3.426838   -1.314848
  H     -4.328618   -2.139223    2.198103
  H     -4.261583   -0.597399    1.357248
  F     -6.865632   -4.294957    0.914118
  C     -3.474641   -3.605898   -0.259608
  H     -2.354548   -2.127602    0.871433
  H     -3.166611   -1.499693   -0.545037
  C     -3.827078   -4.661097    0.786174
  H     -2.560559   -3.889391   -0.788050
  H     -4.255932   -3.570040   -1.019300
  C     -4.457800   -5.941875    0.229195
  H     -5.177347   -5.542575   -1.797714
  H     -6.074202   -6.768894   -0.921272
  H     -4.530506   -4.253640    1.511979
  H     -2.933400   -4.932302    1.356825
  H     -3.681064   -6.562236   -0.229885
  H     -4.843942   -6.512728    1.075805

 Total Charge           Charge          ....    0
 Multiplicity           Mult            ....    1
 Number of Electrons    NEL             ....   98
 Basis Dimension        Dim             ....  560

ORBITAL ENERGIES
----------------

  NO   OCC          E(Eh)            E(eV)
   0   2.0000     -88.586794     -2410.5692
   1   2.0000     -24.513377      -667.0429
   2   2.0000     -18.903046      -514.3780
   3   2.0000     -18.888985      -513.9954
   4   2.0000     -10.045235      -273.3447
   5   2.0000     -10.016857      -272.5725
   6   2.0000      -9.994775      -271.9717
   7   2.0000      -9.980483      -271.5828
   8   2.0000      -9.973802      -271.4009
   9   2.0000      -9.964184      -271.1392
  10   2.0000      -9.917171      -269.8600
  11   2.0000      -7.936726      -215.9693
  12   2.0000      -5.920090      -161.0938
  13   2.0000      -5.913165      -160.9054
  14   2.0000      -5.912822      -160.8961
  15   2.0000      -1.280528       -34.8449
  16   2.0000      -1.042028       -28.3550
  17   2.0000      -0.951338       -25.8872
  18   2.0000      -0.780954       -21.2508
  19   2.0000      -0.744679       -20.2638
  20   2.0000      -0.699944       -19.0465
  21   2.0000      -0.672997       -18.3132
  22   2.0000      -0.639297       -17.3962
  23   2.0000      -0.605057       -16.4644
  24   2.0000      -0.569317       -15.4919
  25   2.0000      -0.528642       -14.3851
  26   2.0000      -0.522941       -14.2299
  27   2.0000      -0.504349       -13.7240
  28   2.0000      -0.495887       -13.4938
  29   2.0000      -0.453297       -12.3348
  30   2.0000      -0.446044       -12.1375
  31   2.0000      -0.426669       -11.6102
  32   2.0000      -0.413606       -11.2548
  33   2.0000      -0.409750       -11.1499
  34   2.0000      -0.403699       -10.9852
  35   2.0000      -0.385712       -10.4958
  36   2.0000      -0.362843        -9.8735
  37   2.0000      -0.356110        -9.6903
  38   2.0000      -0.351791        -9.5727
  39   2.0000      -0.348111        -9.4726
  40   2.0000      -0.321468        -8.7476
  41   2.0000      -0.316542        -8.6135
  42   2.0000      -0.308890        -8.4053
  43   2.0000      -0.295609        -8.0439
  44   2.0000      -0.293348        -7.9824
  45   2.0000      -0.285065        -7.7570
  46   2.0000      -0.271157        -7.3786
  47   2.0000      -0.269370        -7.3299
  48   2.0000      -0.250203        -6.8084
  49   0.0000      -0.029660        -0.8071
  50   0.0000      -0.003899        -0.1061
  51   0.0000       0.002039         0.0555
  52   0.0000       0.005066         0.1379
  53   0.0000       0.014778         0.4021

MULLIKEN ATOMIC CHARGES
-----------------------
   0 C :    0.009177
   1 C :   -1.851328
   2 C :   -0.473318
   3 C :   -0.561320
   4 S :    1.264493
   5 H :    0.769542
   6 H :    0.255524
   7 H :    0.645599
   8 O :   -0.641382
   9 O :   -0.677127
  10 H :    0.265513
  11 H :    0.043358
  12 F :   -0.227197
  13 C :   -0.314621
  14 H :    0.109410
  15 H :    0.169443
  16 C :   -0.307650
  17 H :    0.121584
  18 H :    0.381253
  19 C :   -0.304485
  20 H :    0.384515
  21 H :    0.162959
  22 H :    0.355613
  23 H :    0.103659
  24 H :    0.117717
  25 H :    0.199067
Sum of atomic charges:    0.0000000

LOEWDIN ATOMIC CHARGES
----------------------
   0 C :   -0.232840
   1 C :   -0.115479
   2 C :   -0.194998
   3 C :   -0.205072
   4 S :    0.621885
   5 H :    0.020974
   6 H :    0.065774
   7 H :    0.008052
   8 O :   -0.237957
   9 O :   -0.288854
  10 H :    0.099754
  11 H :    0.102393
  12 F :   -0.092165
  13 C :   -0.194433
  14 H :    0.102315
  15 H :    0.110443
  16 C :   -0.196220
  17 H :    0.112508
  18 H :    0.083605
  19 C :   -0.206237
  20 H :    0.108142
  21 H :    0.097951
  22 H :    0.090134
  23 H :    0.117405
  24 H :    0.114394
  25 H :    0.108526

  Mayer bond orders larger than 0.100000
B(  0-C ,  1-C ) :   0.5070 B(  0-C ,  2-C ) :   1.0182 B(  0-C , 10-H ) :   0.7927
B(  0-C , 11-H ) :   0.9731 B(  0-C , 16-C ) :   0.2461 B(  1-C ,  2-C ) :   0.1915
B(  1-C ,  4-S ) :   0.1335 B(  1-C ,  5-H ) :   0.3930 B(  1-C ,  6-H ) :   0.8231
B(  1-C ,  7-H ) :   0.7267 B(  1-C ,  9-O ) :   0.2722 B(  1-C , 12-F ) :   0.2193
B(  2-C , 13-C ) :   1.1708 B(  2-C , 14-H ) :   0.9041 B(  2-C , 15-H ) :   0.8860
B(  2-C , 16-C ) :   0.1299 B(  2-C , 18-H ) :   0.1337 B(  3-C ,  4-S ) :   0.8207
B(  3-C ,  8-O ) :   0.1983 B(  3-C ,  9-O ) :   0.1577 B(  3-C , 13-C ) :   0.1856
B(  3-C , 19-C ) :   1.0350 B(  3-C , 20-H ) :   0.7989 B(  3-C , 21-H ) :   0.9923
B(  4-S ,  8-O ) :   1.3222 B(  4-S ,  9-O ) :   1.5611 B(  4-S , 12-F ) :   1.0660
B(  5-H ,  9-O ) :  -0.2221 B(  7-H , 12-F ) :  -0.2347 B(  9-O , 12-F ) :   0.1059
B( 13-C , 16-C ) :   0.7048 B( 13-C , 17-H ) :   0.8898 B( 13-C , 18-H ) :   0.8861
B( 13-C , 19-C ) :   0.1138 B( 16-C , 19-C ) :   1.1327 B( 16-C , 22-H ) :   0.8532
B( 16-C , 23-H ) :   0.8784 B( 19-C , 24-H ) :   0.8923 B( 19-C , 25-H ) :   0.8981

Dispersion correction           -0.038063473
FINAL SINGLE POINT ENERGY      -924.540381907243

DIPOLE MOMENT
-------------
                                X             Y             Z
Electronic contribution:    -16.58919      -6.79224      -3.47457
Nuclear contribution   :     17.63907       5.79106       3.97609
                        -----------------------------------------
Total Dipole Moment    :      1.04988      -1.00117       0.50153
                        -----------------------------------------
Magnitude (a.u.)       :      1.53497
Magnitude (Debye)      :      3.90158

Rotational constants in cm-1:     0.048663     0.025472     0.020259
Rotational constants in MHz :  1458.892793   763.621130   607.350055

                             ****ORCA TERMINATED NORMALLY****
TOTAL RUN TIME: 0 days 0 hours 1 minutes 34 seconds 758 msec
