                         Program Version 5.0.0 -  RELEASE  -
|  1> !B3LYP D3BJ RIJCOSX def2-SVPD def2/J TightSCF
|  2> *xyz -1 1
|  3> C          0.28725       -1.71177       -2.52740
|  4> O          0.71050       -0.92751       -1.48177
|  5> H          0.92384       -1.55316       -3.37267
|  6> H         -0.71828       -1.45137       -2.78433
|  7> H          0.32655       -2.74158       -2.23955
|  8> *
|  9> %MaxCore 64000
| 10>
| 11> %pal nprocs 4
| 12> end
| 13>
| 14> %scf
| 15>   MaxIter 150
| 16> end
| 17>
| 18>
| 19>                          ****END OF INPUT****

CARTESIAN COORDINATES (ANGSTROEM)
---------------------------------
  C      0.287250   -1.711770   -2.527400
  O      0.710500   -0.927510   -1.481770
  H      0.923840   -1.553160   -3.372670
  H     -0.718280   -1.451370   -2.784330
  H      0.326550   -2.741580   -2.239550

 Total Charge           Charge          ....   -1
 Multiplicity           Mult            ....    1
 Number of Electrons    NEL             ....   18
 Basis Dimension        Dim             ....   67

ORBITAL ENERGIES
----------------

  NO   OCC          E(Eh)            E(eV)
   0   2.0000     -18.786352      -511.2026
   1   2.0000      -9.970266      -271.3047
   2   2.0000      -0.646405       -17.5896
   3   2.0000      -0.390569       -10.6279
   4   2.0000      -0.195728        -5.3260
   5   2.0000      -0.195712        -5.3256
   6   2.0000      -0.097980        -2.6662
   7   2.0000       0.050791         1.3821
   8   2.0000       0.050800         1.3823
   9   0.0000       0.196699         5.3524
  10   0.0000       0.267993         7.2925
  11   0.0000       0.267995         7.2925
  12   0.0000       0.276424         7.5219
  13   0.0000       0.312789         8.5114

MULLIKEN ATOMIC CHARGES
-----------------------
   0 C :    1.031871
   1 O :   -1.028538
   2 H :   -0.334249
   3 H :   -0.334724
   4 H :   -0.334359
Sum of atomic charges:   -1.0000000

LOEWDIN ATOMIC CHARGES
----------------------
   0 C :   -0.106045
   1 O :   -0.644439
   2 H :   -0.083162
   3 H :   -0.083191
   4 H :   -0.083163

  Mayer bond orders larger than 0.100000
B(  0-C ,  1-O ) :   1.1500 B(  0-C ,  2-H ) :   0.8687 B(  0-C ,  3-H ) :   0.8687
B(  0-C ,  4-H ) :   0.8687

Dispersion correction           -0.002430483
FINAL SINGLE POINT ENERGY      -114.957999826705

DIPOLE MOMENT
-------------
                                X             Y             Z
Electronic contribution:      0.57156       1.05914       1.41215
Nuclear contribution   :     -0.89006      -1.64923      -2.19886
                        -----------------------------------------
Total Dipole Moment    :     -0.31850      -0.59009      -0.78671
                        -----------------------------------------
Magnitude (a.u.)       :      1.03371
Magnitude (Debye)      :      2.62749

Rotational constants in cm-1:     5.477712     0.934243     0.934241
Rotational constants in MHz : 164217.678885 28007.889263 28007.851448

                             ****ORCA TERMINATED NORMALLY****
TOTAL RUN TIME: 0 days 0 hours 0 minutes 3 seconds 405 msec
