                         Program Version 5.0.0 -  RELEASE  -
|  1> !B3LYP D3BJ RIJCOSX def2-SVPD def2/J TightSCF
|  2> *xyz 1 1
|  3> C          3.48828        1.60092       -1.52204
|  4> N          2.81029        0.42878       -1.01420
|  5> C          3.29098       -0.41802       -0.12908
|  6> N          2.51754       -1.43202        0.23936
|  7> N          4.53549       -0.28441        0.39580
|  8> H          5.04363        0.57189        0.22290
|  9> H          4.72335       -0.73327        1.28180
| 10> H          1.93479        0.10230       -1.40379
| 11> H          1.67464       -1.50562       -0.31610
| 12> H          2.92850       -2.21850        0.72549
| 13> H          2.85802        2.09943       -2.22855
| 14> H          4.39853        1.30677       -2.00144
| 15> H          3.70992        2.26379       -0.71187
| 16> *
| 17> %MaxCore 64000
| 18>
| 19> %pal nprocs 4
| 20> end
| 21>
| 22> %scf
| 23>   MaxIter 150
| 24> end
| 25>
| 26>
| 27>                          ****END OF INPUT****

CARTESIAN COORDINATES (ANGSTROEM)
---------------------------------
  C      3.488280    1.600920   -1.522040
  N      2.810290    0.428780   -1.014200
  C      3.290980   -0.418020   -0.129080
  N      2.517540   -1.432020    0.239360
  N      4.535490   -0.284410    0.395800
  H      5.043630    0.571890    0.222900
  H      4.723350   -0.733270    1.281800
  H      1.934790    0.102300   -1.403790
  H      1.674640   -1.505620   -0.316100
  H      2.928500   -2.218500    0.725490
  H      2.858020    2.099430   -2.228550
  H      4.398530    1.306770   -2.001440
  H      3.709920    2.263790   -0.711870

 Total Charge           Charge          ....    1
 Multiplicity           Mult            ....    1
 Number of Electrons    NEL             ....   40
 Basis Dimension        Dim             ....  164

ORBITAL ENERGIES
----------------

  NO   OCC          E(Eh)            E(eV)
   0   2.0000     -14.565054      -396.3353
   1   2.0000     -14.558298      -396.1514
   2   2.0000     -14.557972      -396.1426
   3   2.0000     -10.521988      -286.3178
   4   2.0000     -10.393502      -282.8216
   5   2.0000      -1.216509       -33.1029
   6   2.0000      -1.104290       -30.0493
   7   2.0000      -1.090887       -29.6845
   8   2.0000      -0.909572       -24.7507
   9   2.0000      -0.829151       -22.5623
  10   2.0000      -0.785569       -21.3764
  11   2.0000      -0.761409       -20.7190
  12   2.0000      -0.700208       -19.0536
  13   2.0000      -0.689966       -18.7749
  14   2.0000      -0.664635       -18.0856
  15   2.0000      -0.651066       -17.7164
  16   2.0000      -0.596309       -16.2264
  17   2.0000      -0.585846       -15.9417
  18   2.0000      -0.485766       -13.2184
  19   2.0000      -0.463393       -12.6096
  20   0.0000      -0.179781        -4.8921
  21   0.0000      -0.164112        -4.4657
  22   0.0000      -0.127097        -3.4585
  23   0.0000      -0.117172        -3.1884
  24   0.0000      -0.088673        -2.4129

MULLIKEN ATOMIC CHARGES
-----------------------
   0 C :    1.296843
   1 N :   -0.491356
   2 C :    1.085888
   3 N :    0.119565
   4 N :    0.055039
   5 H :   -0.072385
   6 H :   -0.096610
   7 H :   -0.225111
   8 H :   -0.004022
   9 H :   -0.120774
  10 H :   -0.410549
  11 H :   -0.062334
  12 H :   -0.074195
Sum of atomic charges:    1.0000000

LOEWDIN ATOMIC CHARGES
----------------------
   0 C :    0.261449
   1 N :    0.019688
   2 C :   -0.041513
   3 N :    0.269815
   4 N :    0.289250
   5 H :    0.013713
   6 H :    0.034112
   7 H :    0.053365
   8 H :    0.031783
   9 H :    0.044090
  10 H :    0.013193
  11 H :    0.005944
  12 H :    0.005110

  Mayer bond orders larger than 0.100000
B(  0-C ,  1-N ) :   0.9989 B(  0-C ,  7-H ) :  -0.1268 B(  0-C , 10-H ) :   0.7721
B(  0-C , 11-H ) :   0.7866 B(  0-C , 12-H ) :   0.7718 B(  1-N ,  2-C ) :   1.0632
B(  1-N ,  3-N ) :   0.2335 B(  1-N ,  4-N ) :   0.2028 B(  1-N ,  7-H ) :   1.2684
B(  1-N , 10-H ) :   0.2010 B(  1-N , 11-H ) :   0.1684 B(  1-N , 12-H ) :   0.1774
B(  2-C ,  3-N ) :   0.9853 B(  2-C ,  4-N ) :   1.0213 B(  2-C ,  5-H ) :  -0.1158
B(  2-C ,  7-H ) :  -0.2319 B(  2-C ,  9-H ) :  -0.1095 B(  3-N ,  4-N ) :   0.1403
B(  3-N ,  8-H ) :   1.0668 B(  3-N ,  9-H ) :   1.1965 B(  4-N ,  5-H ) :   1.0734
B(  4-N ,  6-H ) :   1.1744 B(  5-H ,  6-H ) :  -0.1393 B(  8-H ,  9-H ) :  -0.1417

Dispersion correction           -0.015047153
FINAL SINGLE POINT ENERGY      -244.785900563312

DIPOLE MOMENT
-------------
                                X             Y             Z
Electronic contribution:     -0.68344      -2.28729       1.33657
Nuclear contribution   :      0.56176       1.95858      -1.15445
                        -----------------------------------------
Total Dipole Moment    :     -0.12168      -0.32871       0.18212
                        -----------------------------------------
Magnitude (a.u.)       :      0.39500
Magnitude (Debye)      :      1.00400

Rotational constants in cm-1:     0.309570     0.135399     0.096056
Rotational constants in MHz :  9280.673410  4059.171112  2879.675555

                             ****ORCA TERMINATED NORMALLY****
TOTAL RUN TIME: 0 days 0 hours 0 minutes 13 seconds 883 msec
