                         Program Version 5.0.0 -  RELEASE  -
|  1> !B3LYP D3BJ RIJCOSX def2-SVPD def2/J TightSCF
|  2> *xyz 0 1
|  3> C          0.28725       -1.71177       -2.52740
|  4> F          0.71050       -0.92751       -1.48177
|  5> H          0.92384       -1.55316       -3.37267
|  6> H         -0.71828       -1.45137       -2.78433
|  7> H          0.32655       -2.74158       -2.23955
|  8> *
|  9> %MaxCore 64000
| 10>
| 11> %pal nprocs 4
| 12> end
| 13>
| 14> %scf
| 15>   MaxIter 150
| 16> end
| 17>
| 18>
| 19>                          ****END OF INPUT****

CARTESIAN COORDINATES (ANGSTROEM)
---------------------------------
  C      0.287250   -1.711770   -2.527400
  F      0.710500   -0.927510   -1.481770
  H      0.923840   -1.553160   -3.372670
  H     -0.718280   -1.451370   -2.784330
  H      0.326550   -2.741580   -2.239550

 Total Charge           Charge          ....    0
 Multiplicity           Mult            ....    1
 Number of Electrons    NEL             ....   18
 Basis Dimension        Dim             ....   67

ORBITAL ENERGIES
----------------

  NO   OCC          E(Eh)            E(eV)
   0   2.0000     -24.681912      -671.6290
   1   2.0000     -10.256509      -279.0938
   2   2.0000      -1.180842       -32.1323
   3   2.0000      -0.702281       -19.1100
   4   2.0000      -0.499614       -13.5952
   5   2.0000      -0.491646       -13.3784
   6   2.0000      -0.491634       -13.3781
   7   2.0000      -0.353995        -9.6327
   8   2.0000      -0.353975        -9.6321
   9   0.0000       0.023639         0.6432
  10   0.0000       0.057518         1.5651
  11   0.0000       0.098800         2.6885
  12   0.0000       0.098801         2.6885
  13   0.0000       0.144119         3.9217

MULLIKEN ATOMIC CHARGES
-----------------------
   0 C :    1.088080
   1 F :   -0.483097
   2 H :   -0.201448
   3 H :   -0.202076
   4 H :   -0.201459
Sum of atomic charges:   -0.0000000

LOEWDIN ATOMIC CHARGES
----------------------
   0 C :    0.276246
   1 F :   -0.250501
   2 H :   -0.008569
   3 H :   -0.008609
   4 H :   -0.008566

  Mayer bond orders larger than 0.100000
B(  0-C ,  1-F ) :   0.8416 B(  0-C ,  2-H ) :   0.9053 B(  0-C ,  3-H ) :   0.9054
B(  0-C ,  4-H ) :   0.9052

Dispersion correction           -0.002119797
FINAL SINGLE POINT ENERGY      -139.581878476481

DIPOLE MOMENT
-------------
                                X             Y             Z
Electronic contribution:      0.90182       1.67118       2.22805
Nuclear contribution   :     -1.12906      -2.09208      -2.78929
                        -----------------------------------------
Total Dipole Moment    :     -0.22723      -0.42090      -0.56124
                        -----------------------------------------
Magnitude (a.u.)       :      0.73741
Magnitude (Debye)      :      1.87436

Rotational constants in cm-1:     5.477712     0.869598     0.869597
Rotational constants in MHz : 164217.678885 26069.889584 26069.856821

                             ****ORCA TERMINATED NORMALLY****
TOTAL RUN TIME: 0 days 0 hours 0 minutes 3 seconds 411 msec
