                         Program Version 5.0.0 -  RELEASE  -
|  1> !B3LYP D3BJ RIJCOSX def2-SVPD def2/J TightSCF
|  2> *xyz 0 1
|  3> C          3.48828        1.60092       -1.52204
|  4> C          2.81029        0.42878       -1.01420
|  5> C          3.29098       -0.41802       -0.12908
|  6> N          2.51754       -1.43202        0.23936
|  7> N          4.53549       -0.28441        0.39580
|  8> H          5.04363        0.57189        0.22290
|  9> H          4.72335       -0.73327        1.28180
| 10> H          1.93479        0.10230       -1.40379
| 11> H          1.67464       -1.50562       -0.31610
| 12> H          2.92850       -2.21850        0.72549
| 13> H          2.85802        2.09943       -2.22855
| 14> H          4.39853        1.30677       -2.00144
| 15> H          3.70992        2.26379       -0.71187
| 16> *
| 17> %MaxCore 64000
| 18>
| 19> %pal nprocs 4
| 20> end
| 21>
| 22> %scf
| 23>   MaxIter 150
| 24> end
| 25>
| 26>
| 27>                          ****END OF INPUT****

CARTESIAN COORDINATES (ANGSTROEM)
---------------------------------
  C      3.488280    1.600920   -1.522040
  C      2.810290    0.428780   -1.014200
  C      3.290980   -0.418020   -0.129080
  N      2.517540   -1.432020    0.239360
  N      4.535490   -0.284410    0.395800
  H      5.043630    0.571890    0.222900
  H      4.723350   -0.733270    1.281800
  H      1.934790    0.102300   -1.403790
  H      1.674640   -1.505620   -0.316100
  H      2.928500   -2.218500    0.725490
  H      2.858020    2.099430   -2.228550
  H      4.398530    1.306770   -2.001440
  H      3.709920    2.263790   -0.711870

 Total Charge           Charge          ....    0
 Multiplicity           Mult            ....    1
 Number of Electrons    NEL             ....   40
 Basis Dimension        Dim             ....  164

ORBITAL ENERGIES
----------------

  NO   OCC          E(Eh)            E(eV)
   0   2.0000     -14.332107      -389.9965
   1   2.0000     -14.324603      -389.7923
   2   2.0000     -10.219615      -278.0899
   3   2.0000     -10.150061      -276.1972
   4   2.0000     -10.107421      -275.0369
   5   2.0000      -0.949099       -25.8263
   6   2.0000      -0.861558       -23.4442
   7   2.0000      -0.748772       -20.3751
   8   2.0000      -0.651888       -17.7388
   9   2.0000      -0.582577       -15.8527
  10   2.0000      -0.536484       -14.5985
  11   2.0000      -0.507564       -13.8115
  12   2.0000      -0.466581       -12.6963
  13   2.0000      -0.429134       -11.6773
  14   2.0000      -0.411831       -11.2065
  15   2.0000      -0.374081       -10.1793
  16   2.0000      -0.367125        -9.9900
  17   2.0000      -0.343770        -9.3544
  18   2.0000      -0.265690        -7.2298
  19   2.0000      -0.161355        -4.3907
  20   0.0000       0.014015         0.3814
  21   0.0000       0.040844         1.1114
  22   0.0000       0.052759         1.4356
  23   0.0000       0.072042         1.9604
  24   0.0000       0.081230         2.2104

MULLIKEN ATOMIC CHARGES
-----------------------
   0 C :    1.082651
   1 C :   -0.543462
   2 C :    0.526150
   3 N :    0.180848
   4 N :    0.044204
   5 H :   -0.060565
   6 H :   -0.224617
   7 H :   -0.449917
   8 H :    0.012590
   9 H :   -0.231794
  10 H :   -0.163239
  11 H :   -0.093278
  12 H :   -0.079570
Sum of atomic charges:   -0.0000000

LOEWDIN ATOMIC CHARGES
----------------------
   0 C :    0.093082
   1 C :   -0.063900
   2 C :   -0.234421
   3 N :    0.176960
   4 N :    0.209637
   5 H :   -0.019144
   6 H :   -0.017400
   7 H :   -0.059108
   8 H :   -0.002831
   9 H :   -0.010854
  10 H :   -0.020154
  11 H :   -0.025294
  12 H :   -0.026573

  Mayer bond orders larger than 0.100000
B(  0-C ,  1-C ) :   1.1664 B(  0-C ,  7-H ) :   0.1658 B(  0-C , 10-H ) :   0.7030
B(  0-C , 11-H ) :   0.6284 B(  0-C , 12-H ) :   0.5844 B(  1-C ,  2-C ) :   1.4844
B(  1-C ,  3-N ) :   0.3036 B(  1-C ,  4-N ) :   0.2097 B(  1-C ,  5-H ) :  -0.1303
B(  1-C ,  7-H ) :   0.9496 B(  1-C , 10-H ) :   0.3411 B(  1-C , 11-H ) :   0.2808
B(  1-C , 12-H ) :   0.3548 B(  2-C ,  3-N ) :   1.0043 B(  2-C ,  4-N ) :   0.9841
B(  2-C ,  7-H ) :   0.2223 B(  3-N ,  8-H ) :   1.0513 B(  3-N ,  9-H ) :   1.1451
B(  4-N ,  5-H ) :   1.0434 B(  4-N ,  6-H ) :   1.1863 B(  5-H ,  6-H ) :  -0.1180
B(  7-H , 10-H ) :  -0.1516 B(  8-H ,  9-H ) :  -0.1327

Dispersion correction           -0.015831365
FINAL SINGLE POINT ENERGY      -228.323435557798

DIPOLE MOMENT
-------------
                                X             Y             Z
Electronic contribution:     -0.24501      -2.55533       1.79225
Nuclear contribution   :      0.45569       2.05070      -1.27895
                        -----------------------------------------
Total Dipole Moment    :      0.21068      -0.50463       0.51330
                        -----------------------------------------
Magnitude (a.u.)       :      0.75001
Magnitude (Debye)      :      1.90639

Rotational constants in cm-1:     0.314404     0.136412     0.097030
Rotational constants in MHz :  9425.600285  4089.541372  2908.875289

                             ****ORCA TERMINATED NORMALLY****
TOTAL RUN TIME: 0 days 0 hours 0 minutes 16 seconds 999 msec
