                         Program Version 5.0.0 -  RELEASE  -
|  1> !B3LYP D3BJ RIJCOSX def2-SVPD def2/J TightSCF
|  2> *xyz 0 1
|  3> C          3.48828        1.60092       -1.52204
|  4> N          2.81029        0.42878       -1.01420
|  5> C          3.29098       -0.41802       -0.12908
|  6> C          2.51754       -1.43202        0.23936
|  7> N          4.53549       -0.28441        0.39580
|  8> H          5.04363        0.57189        0.22290
|  9> H          4.72335       -0.73327        1.28180
| 10> H          1.93479        0.10230       -1.40379
| 11> H          1.67464       -1.50562       -0.31610
| 12> H          2.92850       -2.21850        0.72549
| 13> H          2.85802        2.09943       -2.22855
| 14> H          4.39853        1.30677       -2.00144
| 15> H          3.70992        2.26379       -0.71187
| 16> *
| 17> %MaxCore 64000
| 18>
| 19> %pal nprocs 4
| 20> end
| 21>
| 22> %scf
| 23>   MaxIter 150
| 24> end
| 25>
| 26>
| 27>                          ****END OF INPUT****

CARTESIAN COORDINATES (ANGSTROEM)
---------------------------------
  C      3.488280    1.600920   -1.522040
  N      2.810290    0.428780   -1.014200
  C      3.290980   -0.418020   -0.129080
  C      2.517540   -1.432020    0.239360
  N      4.535490   -0.284410    0.395800
  H      5.043630    0.571890    0.222900
  H      4.723350   -0.733270    1.281800
  H      1.934790    0.102300   -1.403790
  H      1.674640   -1.505620   -0.316100
  H      2.928500   -2.218500    0.725490
  H      2.858020    2.099430   -2.228550
  H      4.398530    1.306770   -2.001440
  H      3.709920    2.263790   -0.711870

 Total Charge           Charge          ....    0
 Multiplicity           Mult            ....    1
 Number of Electrons    NEL             ....   40
 Basis Dimension        Dim             ....  164

ORBITAL ENERGIES
----------------

  NO   OCC          E(Eh)            E(eV)
   0   2.0000     -14.331402      -389.9773
   1   2.0000     -14.330892      -389.9634
   2   2.0000     -10.225964      -278.2626
   3   2.0000     -10.218663      -278.0639
   4   2.0000     -10.092754      -274.6378
   5   2.0000      -0.960450       -26.1352
   6   2.0000      -0.874409       -23.7939
   7   2.0000      -0.744216       -20.2512
   8   2.0000      -0.661165       -17.9912
   9   2.0000      -0.596843       -16.2409
  10   2.0000      -0.533545       -14.5185
  11   2.0000      -0.493061       -13.4169
  12   2.0000      -0.480317       -13.0701
  13   2.0000      -0.457492       -12.4490
  14   2.0000      -0.409028       -11.1302
  15   2.0000      -0.387818       -10.5531
  16   2.0000      -0.378125       -10.2893
  17   2.0000      -0.365668        -9.9503
  18   2.0000      -0.260520        -7.0891
  19   2.0000      -0.161098        -4.3837
  20   0.0000       0.009435         0.2567
  21   0.0000       0.044109         1.2003
  22   0.0000       0.045735         1.2445
  23   0.0000       0.067551         1.8381
  24   0.0000       0.082287         2.2391

MULLIKEN ATOMIC CHARGES
-----------------------
   0 C :    1.321163
   1 N :   -0.396845
   2 C :    0.525162
   3 C :    0.585580
   4 N :    0.119213
   5 H :   -0.207167
   6 H :   -0.099335
   7 H :   -0.264514
   8 H :   -0.328786
   9 H :   -0.526638
  10 H :   -0.464302
  11 H :   -0.123710
  12 H :   -0.139821
Sum of atomic charges:    0.0000000

LOEWDIN ATOMIC CHARGES
----------------------
   0 C :    0.207586
   1 N :   -0.045282
   2 C :   -0.234010
   3 C :    0.139946
   4 N :    0.206430
   5 H :   -0.031847
   6 H :    0.000761
   7 H :    0.025443
   8 H :   -0.109897
   9 H :   -0.102778
  10 H :   -0.013797
  11 H :   -0.020947
  12 H :   -0.021608

  Mayer bond orders larger than 0.100000
B(  0-C ,  1-N ) :   0.9921 B(  0-C ,  7-H ) :  -0.1400 B(  0-C , 10-H ) :   0.7518
B(  0-C , 11-H ) :   0.7841 B(  0-C , 12-H ) :   0.7732 B(  1-N ,  2-C ) :   1.1091
B(  1-N ,  3-C ) :   0.2270 B(  1-N ,  4-N ) :   0.1169 B(  1-N ,  7-H ) :   1.2290
B(  1-N , 10-H ) :   0.1986 B(  1-N , 11-H ) :   0.1942 B(  1-N , 12-H ) :   0.1809
B(  2-C ,  3-C ) :   1.6011 B(  2-C ,  4-N ) :   0.9530 B(  2-C ,  7-H ) :  -0.1536
B(  2-C ,  8-H ) :   0.2650 B(  2-C ,  9-H ) :   0.2263 B(  3-C ,  4-N ) :   0.2393
B(  3-C ,  8-H ) :   0.7456 B(  3-C ,  9-H ) :   0.6563 B(  4-N ,  5-H ) :   1.0760
B(  4-N ,  6-H ) :   1.1382 B(  5-H ,  6-H ) :  -0.1315

Dispersion correction           -0.015695707
FINAL SINGLE POINT ENERGY      -228.309086535813

DIPOLE MOMENT
-------------
                                X             Y             Z
Electronic contribution:      0.09712      -0.72328       0.64033
Nuclear contribution   :      0.39640       1.67380      -1.02505
                        -----------------------------------------
Total Dipole Moment    :      0.49352       0.95053      -0.38472
                        -----------------------------------------
Magnitude (a.u.)       :      1.13801
Magnitude (Debye)      :      2.89259

Rotational constants in cm-1:     0.316500     0.141146     0.099607
Rotational constants in MHz :  9488.425850  4231.454938  2986.155520

                             ****ORCA TERMINATED NORMALLY****
TOTAL RUN TIME: 0 days 0 hours 0 minutes 15 seconds 391 msec
