                         Program Version 5.0.0 -  RELEASE  -
|  1> !B3LYP D3BJ RIJCOSX def2-SVPD def2/J TightSCF
|  2> *xyz 0 1
|  3> C          3.48828        1.60092       -1.52204
|  4> N          2.81029        0.42878       -1.01420
|  5> C          3.29098       -0.41802       -0.12908
|  6> N          2.51754       -1.43202        0.23936
|  7> C          4.53549       -0.28441        0.39580
|  8> H          5.04363        0.57189        0.22290
|  9> H          4.72335       -0.73327        1.28180
| 10> H          1.93479        0.10230       -1.40379
| 11> H          1.67464       -1.50562       -0.31610
| 12> H          2.92850       -2.21850        0.72549
| 13> H          2.85802        2.09943       -2.22855
| 14> H          4.39853        1.30677       -2.00144
| 15> H          3.70992        2.26379       -0.71187
| 16> *
| 17> %MaxCore 64000
| 18>
| 19> %pal nprocs 4
| 20> end
| 21>
| 22> %scf
| 23>   MaxIter 150
| 24> end
| 25>
| 26>
| 27>                          ****END OF INPUT****

CARTESIAN COORDINATES (ANGSTROEM)
---------------------------------
  C      3.488280    1.600920   -1.522040
  N      2.810290    0.428780   -1.014200
  C      3.290980   -0.418020   -0.129080
  N      2.517540   -1.432020    0.239360
  C      4.535490   -0.284410    0.395800
  H      5.043630    0.571890    0.222900
  H      4.723350   -0.733270    1.281800
  H      1.934790    0.102300   -1.403790
  H      1.674640   -1.505620   -0.316100
  H      2.928500   -2.218500    0.725490
  H      2.858020    2.099430   -2.228550
  H      4.398530    1.306770   -2.001440
  H      3.709920    2.263790   -0.711870

 Total Charge           Charge          ....    0
 Multiplicity           Mult            ....    1
 Number of Electrons    NEL             ....   40
 Basis Dimension        Dim             ....  164

ORBITAL ENERGIES
----------------

  NO   OCC          E(Eh)            E(eV)
   0   2.0000     -14.338458      -390.1693
   1   2.0000     -14.332425      -390.0051
   2   2.0000     -10.228766      -278.3389
   3   2.0000     -10.211872      -277.8792
   4   2.0000     -10.096617      -274.7429
   5   2.0000      -0.970075       -26.3971
   6   2.0000      -0.879183       -23.9238
   7   2.0000      -0.714394       -19.4397
   8   2.0000      -0.694862       -18.9082
   9   2.0000      -0.566656       -15.4195
  10   2.0000      -0.543906       -14.8004
  11   2.0000      -0.528938       -14.3931
  12   2.0000      -0.459118       -12.4932
  13   2.0000      -0.451234       -12.2787
  14   2.0000      -0.416361       -11.3298
  15   2.0000      -0.387470       -10.5436
  16   2.0000      -0.370312       -10.0767
  17   2.0000      -0.366087        -9.9617
  18   2.0000      -0.253222        -6.8905
  19   2.0000      -0.167342        -4.5536
  20   0.0000       0.008412         0.2289
  21   0.0000       0.034167         0.9297
  22   0.0000       0.050348         1.3700
  23   0.0000       0.070482         1.9179
  24   0.0000       0.087022         2.3680

MULLIKEN ATOMIC CHARGES
-----------------------
   0 C :    1.281629
   1 N :   -0.425291
   2 C :    0.419199
   3 N :    0.161132
   4 C :    0.619240
   5 H :   -0.281162
   6 H :   -0.523857
   7 H :   -0.381062
   8 H :   -0.158043
   9 H :   -0.118013
  10 H :   -0.490827
  11 H :   -0.046610
  12 H :   -0.056335
Sum of atomic charges:   -0.0000000

LOEWDIN ATOMIC CHARGES
----------------------
   0 C :    0.214887
   1 N :   -0.047263
   2 C :   -0.246554
   3 N :    0.189794
   4 C :    0.166312
   5 H :   -0.129661
   6 H :   -0.112746
   7 H :    0.012036
   8 H :   -0.017139
   9 H :    0.010907
  10 H :   -0.015395
  11 H :   -0.012940
  12 H :   -0.012237

  Mayer bond orders larger than 0.100000
B(  0-C ,  1-N ) :   1.0101 B(  0-C ,  7-H ) :  -0.1394 B(  0-C , 10-H ) :   0.7659
B(  0-C , 11-H ) :   0.7888 B(  0-C , 12-H ) :   0.7777 B(  1-N ,  2-C ) :   1.0688
B(  1-N ,  3-N ) :   0.1549 B(  1-N ,  4-C ) :   0.3273 B(  1-N ,  7-H ) :   1.3115
B(  1-N , 10-H ) :   0.1884 B(  1-N , 11-H ) :   0.1629 B(  1-N , 12-H ) :   0.1664
B(  2-C ,  3-N ) :   0.9436 B(  2-C ,  4-C ) :   1.7311 B(  2-C ,  5-H ) :   0.3279
B(  2-C ,  6-H ) :   0.2847 B(  2-C ,  7-H ) :  -0.2191 B(  3-N ,  4-C ) :   0.2657
B(  3-N ,  8-H ) :   1.0933 B(  3-N ,  9-H ) :   1.1701 B(  4-C ,  5-H ) :   0.6694
B(  4-C ,  6-H ) :   0.6481 B(  5-H ,  6-H ) :   0.2022 B(  8-H ,  9-H ) :  -0.1292

Dispersion correction           -0.015789210
FINAL SINGLE POINT ENERGY      -228.311509152502

DIPOLE MOMENT
-------------
                                X             Y             Z
Electronic contribution:     -1.83816      -1.94989       0.40482
Nuclear contribution   :      0.80512       1.90624      -0.99336
                        -----------------------------------------
Total Dipole Moment    :     -1.03304      -0.04365      -0.58854
                        -----------------------------------------
Magnitude (a.u.)       :      1.18973
Magnitude (Debye)      :      3.02406

Rotational constants in cm-1:     0.332728     0.136065     0.098521
Rotational constants in MHz :  9974.927067  4079.126590  2953.598000

                             ****ORCA TERMINATED NORMALLY****
TOTAL RUN TIME: 0 days 0 hours 0 minutes 15 seconds 629 msec
