                         Program Version 5.0.0 -  RELEASE  -
|  1> !B3LYP D3BJ RIJCOSX def2-SVPD def2/J TightSCF xyzfile
|  2>
|  3> *xyzfile 0 1 D1.xyz
|  4>
|  5> %MaxCore 64000
|  6>
|  7> %pal nprocs 4
|  8> end
|  9>
| 10> %scf
| 11>   MaxIter 150
| 12> end
| 13>
| 14>
| 15>                          ****END OF INPUT****

CARTESIAN COORDINATES (ANGSTROEM)
---------------------------------
  C      3.488276    1.600919   -1.522040
  C      4.342970    1.313419   -2.756826
  C      2.810285    0.428783   -1.014196
  H      5.132033    0.604994   -2.484466
  C      3.535896    0.749253   -3.924604
  H      4.841247    2.242136   -3.054083
  H      2.991617   -0.132199   -3.574137
  H      4.225505    0.392784   -4.695962
  C      2.564776    1.750890   -4.544523
  H      1.918749    2.171679   -3.769419
  C      1.686235    1.161657   -5.650111
  H      3.132494    2.594775   -4.951604
  C      0.839616   -0.037582   -5.220473
  H      2.323886    0.866395   -6.490796
  H      1.029518    1.951850   -6.029329
  C     -0.151019    0.254955   -4.094256
  H      1.499442   -0.857141   -4.922958
  H      0.290097   -0.410143   -6.091131
  H      0.328265    0.833022   -3.299125
  C     -0.721843   -0.999513   -3.439309
  H     -0.957367    0.884951   -4.485450
  H     -1.083403   -1.697555   -4.205656
  H     -1.581056   -0.723848   -2.820490
  C      0.287250   -1.711771   -2.527405
  H      1.131780   -2.067380   -3.159396
  H     -0.204137   -2.637326   -2.170480
  F      0.710505   -0.927506   -1.481767
  H      2.714548    2.331455   -1.760302
  H      4.090991    2.063151   -0.733382
  C      3.290978   -0.418021   -0.129083
  N      2.517536   -1.432017    0.239360
  N      4.535490   -0.284410    0.395800
  H      5.043627    0.571888    0.222899
  H      4.723346   -0.733273    1.281800
  H      1.934787    0.102305   -1.403788
  H      1.674638   -1.505616   -0.316095
  H      2.928503   -2.218502    0.725494

 Total Charge           Charge          ....    0
 Multiplicity           Mult            ....    1
 Number of Electrons    NEL             ....  112
 Basis Dimension        Dim             ....  467

ORBITAL ENERGIES
----------------

  NO   OCC          E(Eh)            E(eV)
   0   2.0000     -24.715200      -672.5348
   1   2.0000     -14.316874      -389.5819
   2   2.0000     -14.300139      -389.1266
   3   2.0000     -10.275110      -279.6000
   4   2.0000     -10.204444      -277.6770
   5   2.0000     -10.195178      -277.4249
   6   2.0000     -10.179822      -277.0070
   7   2.0000     -10.175639      -276.8932
   8   2.0000     -10.170732      -276.7597
   9   2.0000     -10.163075      -276.5513
  10   2.0000     -10.157599      -276.4023
  11   2.0000     -10.152271      -276.2573
  12   2.0000     -10.146024      -276.0873
  13   2.0000     -10.080160      -274.2951
  14   2.0000      -1.221072       -33.2271
  15   2.0000      -0.932368       -25.3710
  16   2.0000      -0.845556       -23.0087
  17   2.0000      -0.812140       -22.0994
  18   2.0000      -0.787495       -21.4288
  19   2.0000      -0.758384       -20.6367
  20   2.0000      -0.725252       -19.7351
  21   2.0000      -0.686954       -18.6930
  22   2.0000      -0.661884       -18.0108
  23   2.0000      -0.628390       -17.0994
  24   2.0000      -0.600103       -16.3296
  25   2.0000      -0.586870       -15.9695
  26   2.0000      -0.562183       -15.2978
  27   2.0000      -0.545028       -14.8310
  28   2.0000      -0.535324       -14.5669
  29   2.0000      -0.522105       -14.2072
  30   2.0000      -0.514527       -14.0010
  31   2.0000      -0.497284       -13.5318
  32   2.0000      -0.485874       -13.2213
  33   2.0000      -0.463763       -12.6196
  34   2.0000      -0.456120       -12.4117
  35   2.0000      -0.443989       -12.0816
  36   2.0000      -0.437695       -11.9103
  37   2.0000      -0.424131       -11.5412
  38   2.0000      -0.413620       -11.2552
  39   2.0000      -0.404141       -10.9972
  40   2.0000      -0.396421       -10.7872
  41   2.0000      -0.377620       -10.2756
  42   2.0000      -0.373358       -10.1596
  43   2.0000      -0.365609        -9.9487
  44   2.0000      -0.361910        -9.8481
  45   2.0000      -0.359143        -9.7728
  46   2.0000      -0.340322        -9.2606
  47   2.0000      -0.331800        -9.0287
  48   2.0000      -0.322419        -8.7735
  49   2.0000      -0.320336        -8.7168
  50   2.0000      -0.317021        -8.6266
  51   2.0000      -0.302368        -8.2278
  52   2.0000      -0.296203        -8.0601
  53   2.0000      -0.290648        -7.9089
  54   2.0000      -0.248908        -6.7731
  55   2.0000      -0.146608        -3.9894
  56   0.0000       0.015228         0.4144
  57   0.0000       0.026126         0.7109
  58   0.0000       0.029267         0.7964
  59   0.0000       0.035439         0.9644
  60   0.0000       0.048434         1.3179

MULLIKEN ATOMIC CHARGES
-----------------------
   0 C :    0.679836
   1 C :    0.678353
   2 C :    0.358915
   3 H :   -0.179215
   4 C :    0.454603
   5 H :   -0.173025
   6 H :   -0.476951
   7 H :   -0.188259
   8 C :    0.153011
   9 H :   -0.060196
  10 C :    0.840366
  11 H :   -0.340064
  12 C :    0.187720
  13 H :   -0.119465
  14 H :   -0.234370
  15 C :    0.419276
  16 H :   -0.143592
  17 H :   -0.326927
  18 H :   -0.414362
  19 C :    0.476621
  20 H :   -0.206648
  21 H :   -0.153484
  22 H :   -0.142729
  23 C :    1.085309
  24 H :   -0.186083
  25 H :   -0.340647
  26 F :   -0.572317
  27 H :   -0.087661
  28 H :   -0.309416
  29 C :    0.315842
  30 N :    0.430149
  31 N :    0.133455
  32 H :   -0.090721
  33 H :   -0.292808
  34 H :   -0.699061
  35 H :   -0.181864
  36 H :   -0.293593
Sum of atomic charges:    0.0000000

LOEWDIN ATOMIC CHARGES
----------------------
   0 C :   -0.041261
   1 C :   -0.021841
   2 C :   -0.008948
   3 H :    0.015344
   4 C :   -0.023681
   5 H :    0.012339
   6 H :   -0.005792
   7 H :    0.021731
   8 C :   -0.026470
   9 H :   -0.002891
  10 C :   -0.024130
  11 H :    0.022244
  12 C :   -0.028350
  13 H :    0.019098
  14 H :    0.018328
  15 C :   -0.016644
  16 H :   -0.005430
  17 H :    0.020195
  18 H :    0.005716
  19 C :   -0.003323
  20 H :    0.026834
  21 H :    0.032460
  22 H :    0.025208
  23 C :    0.166284
  24 H :    0.032278
  25 H :    0.034374
  26 F :   -0.215174
  27 H :    0.001579
  28 H :    0.001251
  29 C :   -0.197641
  30 N :    0.201224
  31 N :    0.207225
  32 H :   -0.027083
  33 H :   -0.020983
  34 H :   -0.108596
  35 H :   -0.073097
  36 H :   -0.012375

  Mayer bond orders larger than 0.100000
B(  0-C ,  1-C ) :   1.0495 B(  0-C ,  2-C ) :   0.9263 B(  0-C ,  3-H ) :   0.1536
B(  0-C ,  5-H ) :   0.2223 B(  0-C , 27-H ) :   0.7513 B(  0-C , 28-H ) :   0.5284
B(  0-C , 29-C ) :   0.1112 B(  0-C , 34-H ) :   0.6344 B(  1-C ,  3-H ) :   0.6508
B(  1-C ,  4-C ) :   1.2234 B(  1-C ,  5-H ) :   0.7077 B(  1-C ,  6-H ) :   0.1554
B(  1-C ,  7-H ) :   0.1212 B(  2-C , 27-H ) :   0.3153 B(  2-C , 28-H ) :   0.3885
B(  2-C , 29-C ) :   1.7724 B(  2-C , 30-N ) :   0.3116 B(  2-C , 31-N ) :   0.2224
B(  2-C , 32-H ) :  -0.1964 B(  2-C , 34-H ) :  -0.4491 B(  3-H ,  4-C ) :   0.2669
B(  3-H ,  5-H ) :  -0.1208 B(  4-C ,  5-H ) :   0.1439 B(  4-C ,  6-H ) :   0.7048
B(  4-C ,  7-H ) :   0.6648 B(  4-C ,  8-C ) :   1.1649 B(  4-C , 11-H ) :   0.1706
B(  6-H ,  8-C ) :   0.1879 B(  7-H ,  8-C ) :   0.1724 B(  8-C ,  9-H ) :   0.8021
B(  8-C , 10-C ) :   1.1268 B(  8-C , 11-H ) :   0.8398 B(  8-C , 12-C ) :   0.1412
B(  8-C , 13-H ) :   0.1338 B(  8-C , 14-H ) :   0.3505 B( 10-C , 12-C ) :   1.1731
B( 10-C , 13-H ) :   0.6161 B( 10-C , 14-H ) :   0.5768 B( 10-C , 17-H ) :   0.1026
B( 12-C , 13-H ) :   0.2847 B( 12-C , 14-H ) :   0.1303 B( 12-C , 15-C ) :   1.1648
B( 12-C , 16-H ) :   0.8386 B( 12-C , 17-H ) :   0.7794 B( 12-C , 18-H ) :   0.1873
B( 12-C , 20-H ) :   0.2095 B( 13-H , 14-H ) :  -0.1655 B( 15-C , 16-H ) :   0.1240
B( 15-C , 17-H ) :   0.2573 B( 15-C , 18-H ) :   0.7596 B( 15-C , 19-C ) :   1.1694
B( 15-C , 20-H ) :   0.7309 B( 15-C , 21-H ) :   0.1229 B( 15-C , 22-H ) :   0.2619
B( 18-H , 19-C ) :   0.1719 B( 18-H , 34-H ) :   0.1058 B( 19-C , 21-H ) :   0.7177
B( 19-C , 22-H ) :   0.6566 B( 19-C , 23-C ) :   1.1903 B( 19-C , 24-H ) :   0.1332
B( 19-C , 25-H ) :   0.1644 B( 19-C , 26-F ) :   0.1124 B( 21-H , 23-C ) :   0.1856
B( 22-H , 23-C ) :   0.1636 B( 23-C , 24-H ) :   0.7657 B( 23-C , 25-H ) :   0.8100
B( 23-C , 26-F ) :   0.5878 B( 24-H , 26-F ) :   0.1502 B( 26-F , 34-H ) :  -0.1128
B( 27-H , 34-H ) :  -0.1879 B( 28-H , 34-H ) :   0.1347 B( 29-C , 30-N ) :   0.7966
B( 29-C , 31-N ) :   0.9031 B( 29-C , 34-H ) :   0.5340 B( 30-N , 31-N ) :   0.1028
B( 30-N , 35-H ) :   1.0887 B( 30-N , 36-H ) :   1.1632 B( 31-N , 32-H ) :   1.0422
B( 31-N , 33-H ) :   1.2221 B( 31-N , 34-H ) :  -0.1084 B( 32-H , 33-H ) :  -0.1415
B( 35-H , 36-H ) :  -0.1399

Dispersion correction           -0.065309319
FINAL SINGLE POINT ENERGY      -641.543605191497

DIPOLE MOMENT
-------------
                                X             Y             Z
Electronic contribution:     -1.60256      -4.85299      10.68386
Nuclear contribution   :      1.15699       3.94991     -10.89335
                        -----------------------------------------
Total Dipole Moment    :     -0.44557      -0.90308      -0.20950
                        -----------------------------------------
Magnitude (a.u.)       :      1.02858
Magnitude (Debye)      :      2.61444

Rotational constants in cm-1:     0.026548     0.016177     0.010851
Rotational constants in MHz :   795.884848   484.988695   325.313537

                             ****ORCA TERMINATED NORMALLY****
TOTAL RUN TIME: 0 days 0 hours 3 minutes 28 seconds 484 msec
