                         Program Version 5.0.0 -  RELEASE  -
|  1> !wB97X-D3 RIJCOSX def2-SVPD def2/J TightSCF
|  2> *xyz -1 1
|  3> C         -1.78916       -0.63923        4.55750
|  4> C         -2.79070       -0.78527        5.70281
|  5> H         -2.86731       -1.83565        6.00167
|  6> H         -3.77455       -0.48658        5.33481
|  7> C         -2.45380        0.05510        6.94145
|  8> C         -2.07842        1.48042        6.56410
|  9> H         -1.62558       -0.38216        7.49891
| 10> H         -3.32527        0.08775        7.59917
| 11> O         -0.90125        1.85816        6.82810
| 12> O         -2.93658        2.17731        5.96415
| 13> H         -2.09421       -1.25377        3.73641
| 14> H         -0.81933       -0.94475        4.89064
| 15> H         -1.75281        0.38306        4.24366
| 16> *
| 17> %MaxCore 64000
| 18>
| 19> %pal nprocs 18
| 20> end
| 21>
| 22> %scf
| 23>   MaxIter 150
| 24> end
| 25>
| 26>
| 27>                          ****END OF INPUT****

CARTESIAN COORDINATES (ANGSTROEM)
---------------------------------
  C     -1.789160   -0.639230    4.557500
  C     -2.790700   -0.785270    5.702810
  H     -2.867310   -1.835650    6.001670
  H     -3.774550   -0.486580    5.334810
  C     -2.453800    0.055100    6.941450
  C     -2.078420    1.480420    6.564100
  H     -1.625580   -0.382160    7.498910
  H     -3.325270    0.087750    7.599170
  O     -0.901250    1.858160    6.828100
  O     -2.936580    2.177310    5.964150
  H     -2.094210   -1.253770    3.736410
  H     -0.819330   -0.944750    4.890640
  H     -1.752810    0.383060    4.243660

 Total Charge           Charge          ....   -1
 Multiplicity           Mult            ....    1
 Number of Electrons    NEL             ....   48
 Basis Dimension        Dim             ....  182

ORBITAL ENERGIES
----------------

  NO   OCC          E(Eh)            E(eV)
   0   2.0000     -18.985226      -516.6143
   1   2.0000     -18.983912      -516.5785
   2   2.0000     -10.179540      -276.9994
   3   2.0000     -10.143834      -276.0278
   4   2.0000     -10.132184      -275.7108
   5   2.0000     -10.117447      -275.3097
   6   2.0000      -0.928979       -25.2788
   7   2.0000      -0.831982       -22.6394
   8   2.0000      -0.749419       -20.3927
   9   2.0000      -0.651305       -17.7229
  10   2.0000      -0.552290       -15.0286
  11   2.0000      -0.431887       -11.7522
  12   2.0000      -0.407918       -11.1000
  13   2.0000      -0.391803       -10.6615
  14   2.0000      -0.354162        -9.6372
  15   2.0000      -0.335742        -9.1360
  16   2.0000      -0.310286        -8.4433
  17   2.0000      -0.305370        -8.3095
  18   2.0000      -0.293435        -7.9848
  19   2.0000      -0.269671        -7.3381
  20   2.0000      -0.261119        -7.1054
  21   2.0000      -0.145805        -3.9676
  22   2.0000      -0.140711        -3.8289
  23   2.0000      -0.126639        -3.4460
  24   0.0000       0.215730         5.8703
  25   0.0000       0.238574         6.4919
  26   0.0000       0.254623         6.9287
  27   0.0000       0.266652         7.2560
  28   0.0000       0.291526         7.9328

MULLIKEN ATOMIC CHARGES
-----------------------
   0 C :    0.592151
   1 C :   -0.419027
   2 H :   -0.169546
   3 H :    0.004452
   4 C :    0.177278
   5 C :    0.385946
   6 H :   -0.025564
   7 H :   -0.018124
   8 O :   -0.688253
   9 O :   -0.726924
  10 H :   -0.080990
  11 H :   -0.026704
  12 H :   -0.004694
Sum of atomic charges:   -1.0000000

LOEWDIN ATOMIC CHARGES
----------------------
   0 C :    0.111928
   1 C :   -0.087073
   2 H :   -0.000845
   3 H :    0.012221
   4 C :   -0.006394
   5 C :   -0.310713
   6 H :    0.004510
   7 H :    0.010707
   8 O :   -0.335503
   9 O :   -0.327227
  10 H :   -0.035395
  11 H :   -0.018803
  12 H :   -0.017413

  Mayer bond orders larger than 0.100000
B(  0-C ,  1-C ) :   1.3048 B(  0-C , 10-H ) :   0.7776 B(  0-C , 11-H ) :   0.8060
B(  0-C , 12-H ) :   0.8426 B(  1-C ,  2-H ) :   0.9926 B(  1-C ,  3-H ) :   0.9176
B(  1-C ,  4-C ) :   1.1670 B(  1-C ,  6-H ) :   0.1368 B(  1-C ,  7-H ) :   0.1243
B(  1-C , 10-H ) :   0.2050 B(  1-C , 11-H ) :   0.1855 B(  1-C , 12-H ) :   0.2016
B(  3-H ,  4-C ) :   0.1035 B(  4-C ,  5-C ) :   1.0231 B(  4-C ,  6-H ) :   0.8778
B(  4-C ,  7-H ) :   0.8330 B(  5-C ,  6-H ) :   0.2131 B(  5-C ,  7-H ) :   0.1216
B(  5-C ,  8-O ) :   1.5002 B(  5-C ,  9-O ) :   1.5336

Dispersion correction           -0.003483604
FINAL SINGLE POINT ENERGY      -306.862877738687

DIPOLE MOMENT
-------------
                                X             Y             Z
Electronic contribution:      0.61542       6.34314       2.68209
Nuclear contribution   :     -1.12936      -8.75108      -3.05770
                        -----------------------------------------
Total Dipole Moment    :     -0.51394      -2.40794      -0.37562
                        -----------------------------------------
Magnitude (a.u.)       :      2.49066
Magnitude (Debye)      :      6.33075

Rotational constants in cm-1:     0.189092     0.083831     0.082013
Rotational constants in MHz :  5668.846461  2513.177001  2458.689996

                             ****ORCA TERMINATED NORMALLY****
TOTAL RUN TIME: 0 days 0 hours 0 minutes 10 seconds 640 msec
