                         Program Version 5.0.0 -  RELEASE  -
|  1> !wB97X-D3 RIJCOSX def2-SVPD def2/J TightSCF
|  2> *xyz 1 1
|  3> C         -0.69912        3.48945        3.75516
|  4> H         -0.96672        4.34901        3.14049
|  5> N         -1.08067        3.79296        5.15686
|  6> C          0.77696        3.13839        3.61741
|  7> H         -1.33146        2.65651        3.44632
|  8> H          1.37140        3.88834        4.14974
|  9> H          1.04693        3.23206        2.56133
| 10> C          1.11892        1.73117        4.11516
| 11> H         -0.87449        4.76274        5.42734
| 12> H         -0.68079        3.13476        5.83900
| 13> H         -2.05755        3.53169        5.34620
| 14> H          0.52974        1.01235        3.58499
| 15> H          0.90870        1.66226        5.16204
| 16> H          2.15725        1.53562        3.94624
| 17> *
| 18> %MaxCore 64000
| 19>
| 20> %pal nprocs 18
| 21> end
| 22>
| 23> %scf
| 24>   MaxIter 150
| 25> end
| 26>
| 27>
| 28>                          ****END OF INPUT****

CARTESIAN COORDINATES (ANGSTROEM)
---------------------------------
  C     -0.699120    3.489450    3.755160
  H     -0.966720    4.349010    3.140490
  N     -1.080670    3.792960    5.156860
  C      0.776960    3.138390    3.617410
  H     -1.331460    2.656510    3.446320
  H      1.371400    3.888340    4.149740
  H      1.046930    3.232060    2.561330
  C      1.118920    1.731170    4.115160
  H     -0.874490    4.762740    5.427340
  H     -0.680790    3.134760    5.839000
  H     -2.057550    3.531690    5.346200
  H      0.529740    1.012350    3.584990
  H      0.908700    1.662260    5.162040
  H      2.157250    1.535620    3.946240

 Total Charge           Charge          ....    1
 Multiplicity           Mult            ....    1
 Number of Electrons    NEL             ....   34
 Basis Dimension        Dim             ....  160

ORBITAL ENERGIES
----------------

  NO   OCC          E(Eh)            E(eV)
   0   2.0000     -14.770283      -401.9198
   1   2.0000     -10.537330      -286.7353
   2   2.0000     -10.467551      -284.8366
   3   2.0000     -10.433114      -283.8995
   4   2.0000      -1.322850       -35.9966
   5   2.0000      -1.084595       -29.5133
   6   2.0000      -0.992533       -27.0082
   7   2.0000      -0.917285       -24.9606
   8   2.0000      -0.891821       -24.2677
   9   2.0000      -0.864118       -23.5139
  10   2.0000      -0.794232       -21.6121
  11   2.0000      -0.730347       -19.8738
  12   2.0000      -0.706003       -19.2113
  13   2.0000      -0.681919       -18.5560
  14   2.0000      -0.619255       -16.8508
  15   2.0000      -0.613502       -16.6942
  16   2.0000      -0.607449       -16.5295
  17   0.0000      -0.110334        -3.0023
  18   0.0000      -0.054082        -1.4717
  19   0.0000      -0.051392        -1.3985
  20   0.0000      -0.037306        -1.0151
  21   0.0000      -0.013603        -0.3702

MULLIKEN ATOMIC CHARGES
-----------------------
   0 C :    0.565953
   1 H :   -0.044921
   2 N :   -0.937429
   3 C :   -0.349723
   4 H :    0.021426
   5 H :   -0.025327
   6 H :    0.030795
   7 C :    0.642834
   8 H :    0.454428
   9 H :    0.362922
  10 H :    0.402181
  11 H :    0.032248
  12 H :   -0.165286
  13 H :    0.009900
Sum of atomic charges:    1.0000000

LOEWDIN ATOMIC CHARGES
----------------------
   0 C :    0.088933
   1 H :    0.053748
   2 N :    0.325771
   3 C :   -0.047278
   4 H :    0.052723
   5 H :    0.034505
   6 H :    0.045709
   7 C :    0.145507
   8 H :    0.116481
   9 H :    0.093099
  10 H :    0.109067
  11 H :   -0.000956
  12 H :   -0.023720
  13 H :    0.006410

  Mayer bond orders larger than 0.100000
B(  0-C ,  1-H ) :   0.9228 B(  0-C ,  2-N ) :   0.6688 B(  0-C ,  3-C ) :   1.1664
B(  0-C ,  4-H ) :   0.9022 B(  1-H ,  2-N ) :   0.1090 B(  2-N ,  8-H ) :   0.6602
B(  2-N ,  9-H ) :   0.7608 B(  2-N , 10-H ) :   0.6994 B(  3-C ,  5-H ) :   0.9598
B(  3-C ,  6-H ) :   0.9372 B(  3-C ,  7-C ) :   1.2544 B(  3-C , 11-H ) :   0.1529
B(  3-C , 12-H ) :   0.1667 B(  3-C , 13-H ) :   0.1834 B(  7-C , 11-H ) :   0.8139
B(  7-C , 12-H ) :   0.8439 B(  7-C , 13-H ) :   0.8303 B( 11-H , 12-H ) :   0.1048

Dispersion correction           -0.002828484
FINAL SINGLE POINT ENERGY      -174.685045435975

DIPOLE MOMENT
-------------
                                X             Y             Z
Electronic contribution:     -1.68157       1.68078       0.73928
Nuclear contribution   :      0.19356      -0.71099       0.46987
                        -----------------------------------------
Total Dipole Moment    :     -1.48801       0.96978       1.20915
                        -----------------------------------------
Magnitude (a.u.)       :      2.14865
Magnitude (Debye)      :      5.46142

Rotational constants in cm-1:     0.465349     0.150671     0.132807
Rotational constants in MHz : 13950.800968  4516.999758  3981.442177

                             ****ORCA TERMINATED NORMALLY****
TOTAL RUN TIME: 0 days 0 hours 0 minutes 7 seconds 780 msec
