                         Program Version 5.0.0 -  RELEASE  -
|  1> !wB97X-D3 RIJCOSX def2-SVPD def2/J TightSCF
|  2> *xyz 0 1
|  3> C         -1.78916       -0.63923        4.55750
|  4> C         -2.79070       -0.78527        5.70281
|  5> H         -2.86731       -1.83565        6.00167
|  6> H         -3.77455       -0.48658        5.33481
|  7> C         -2.45380        0.05510        6.94145
|  8> C         -2.07842        1.48042        6.56410
|  9> H         -1.62558       -0.38216        7.49891
| 10> H         -3.32527        0.08775        7.59917
| 11> F         -0.90125        1.85816        6.82810
| 12> O         -2.93658        2.17731        5.96415
| 13> H         -2.09421       -1.25377        3.73641
| 14> H         -0.81933       -0.94475        4.89064
| 15> H         -1.75281        0.38306        4.24366
| 16> *
| 17> %MaxCore 64000
| 18>
| 19> %pal nprocs 18
| 20> end
| 21>
| 22> %scf
| 23>   MaxIter 150
| 24> end
| 25>
| 26>
| 27>                          ****END OF INPUT****

CARTESIAN COORDINATES (ANGSTROEM)
---------------------------------
  C     -1.789160   -0.639230    4.557500
  C     -2.790700   -0.785270    5.702810
  H     -2.867310   -1.835650    6.001670
  H     -3.774550   -0.486580    5.334810
  C     -2.453800    0.055100    6.941450
  C     -2.078420    1.480420    6.564100
  H     -1.625580   -0.382160    7.498910
  H     -3.325270    0.087750    7.599170
  F     -0.901250    1.858160    6.828100
  O     -2.936580    2.177310    5.964150
  H     -2.094210   -1.253770    3.736410
  H     -0.819330   -0.944750    4.890640
  H     -1.752810    0.383060    4.243660

 Total Charge           Charge          ....    0
 Multiplicity           Mult            ....    1
 Number of Electrons    NEL             ....   48
 Basis Dimension        Dim             ....  182

ORBITAL ENERGIES
----------------

  NO   OCC          E(Eh)            E(eV)
   0   2.0000     -24.872532      -676.8160
   1   2.0000     -19.256033      -523.9833
   2   2.0000     -10.475768      -285.0601
   3   2.0000     -10.321977      -280.8753
   4   2.0000     -10.307481      -280.4808
   5   2.0000     -10.283943      -279.8403
   6   2.0000      -1.418907       -38.6104
   7   2.0000      -1.141829       -31.0708
   8   2.0000      -0.928952       -25.2781
   9   2.0000      -0.841011       -22.8851
  10   2.0000      -0.770638       -20.9701
  11   2.0000      -0.719362       -19.5748
  12   2.0000      -0.655643       -17.8409
  13   2.0000      -0.637016       -17.3341
  14   2.0000      -0.616189       -16.7674
  15   2.0000      -0.570016       -15.5109
  16   2.0000      -0.559061       -15.2128
  17   2.0000      -0.519305       -14.1310
  18   2.0000      -0.506230       -13.7752
  19   2.0000      -0.471535       -12.8311
  20   2.0000      -0.455967       -12.4075
  21   2.0000      -0.444305       -12.0902
  22   2.0000      -0.441654       -12.0180
  23   2.0000      -0.394008       -10.7215
  24   0.0000       0.047603         1.2953
  25   0.0000       0.086134         2.3438
  26   0.0000       0.112845         3.0707
  27   0.0000       0.116415         3.1678
  28   0.0000       0.131450         3.5769

MULLIKEN ATOMIC CHARGES
-----------------------
   0 C :    0.573275
   1 C :   -0.381302
   2 H :   -0.113311
   3 H :    0.023690
   4 C :    0.048033
   5 C :    0.774075
   6 H :    0.030072
   7 H :    0.053319
   8 F :   -0.387137
   9 O :   -0.535016
  10 H :   -0.035985
  11 H :   -0.018977
  12 H :   -0.030737
Sum of atomic charges:    0.0000000

LOEWDIN ATOMIC CHARGES
----------------------
   0 C :    0.127637
   1 C :   -0.059167
   2 H :    0.025100
   3 H :    0.028904
   4 C :    0.037937
   5 C :   -0.005442
   6 H :    0.026441
   7 H :    0.041414
   8 F :   -0.042310
   9 O :   -0.139436
  10 H :   -0.012061
  11 H :   -0.010973
  12 H :   -0.018043

  Mayer bond orders larger than 0.100000
B(  0-C ,  1-C ) :   1.3206 B(  0-C , 10-H ) :   0.7973 B(  0-C , 11-H ) :   0.8174
B(  0-C , 12-H ) :   0.8522 B(  1-C ,  2-H ) :   0.9919 B(  1-C ,  3-H ) :   0.9221
B(  1-C ,  4-C ) :   1.1907 B(  1-C ,  6-H ) :   0.1291 B(  1-C ,  7-H ) :   0.1195
B(  1-C , 10-H ) :   0.1877 B(  1-C , 11-H ) :   0.1707 B(  1-C , 12-H ) :   0.1844
B(  4-C ,  5-C ) :   1.0912 B(  4-C ,  6-H ) :   0.8988 B(  4-C ,  7-H ) :   0.8440
B(  5-C ,  8-F ) :   0.7054 B(  5-C ,  9-O ) :   1.8224

Dispersion correction           -0.003394302
FINAL SINGLE POINT ENERGY      -331.395510309476

DIPOLE MOMENT
-------------
                                X             Y             Z
Electronic contribution:      2.81281       8.94147       4.28854
Nuclear contribution   :     -2.53960     -10.05333      -3.90042
                        -----------------------------------------
Total Dipole Moment    :      0.27322      -1.11186       0.38812
                        -----------------------------------------
Magnitude (a.u.)       :      1.20893
Magnitude (Debye)      :      3.07286

Rotational constants in cm-1:     0.183043     0.080991     0.078218
Rotational constants in MHz :  5487.486217  2428.040459  2344.904824

                             ****ORCA TERMINATED NORMALLY****
TOTAL RUN TIME: 0 days 0 hours 0 minutes 10 seconds 717 msec
