                         Program Version 5.0.0 -  RELEASE  -
|  1> !wB97X-D3 RIJCOSX def2-SVPD def2/J TightSCF
|  2> *xyz 0 1
|  3> C         -0.69912        3.48945        3.75516
|  4> H         -0.96672        4.34901        3.14049
|  5> C         -1.08067        3.79296        5.15686
|  6> C          0.77696        3.13839        3.61741
|  7> H         -1.33146        2.65651        3.44632
|  8> H          1.37140        3.88834        4.14974
|  9> H          1.04693        3.23206        2.56133
| 10> C          1.11892        1.73117        4.11516
| 11> H         -0.87449        4.76274        5.42734
| 12> H         -0.68079        3.13476        5.83900
| 13> H         -2.05755        3.53169        5.34620
| 14> H          0.52974        1.01235        3.58499
| 15> H          0.90870        1.66226        5.16204
| 16> H          2.15725        1.53562        3.94624
| 17> *
| 18> %MaxCore 64000
| 19>
| 20> %pal nprocs 18
| 21> end
| 22>
| 23> %scf
| 24>   MaxIter 150
| 25> end
| 26>
| 27>
| 28>                          ****END OF INPUT****

CARTESIAN COORDINATES (ANGSTROEM)
---------------------------------
  C     -0.699120    3.489450    3.755160
  H     -0.966720    4.349010    3.140490
  C     -1.080670    3.792960    5.156860
  C      0.776960    3.138390    3.617410
  H     -1.331460    2.656510    3.446320
  H      1.371400    3.888340    4.149740
  H      1.046930    3.232060    2.561330
  C      1.118920    1.731170    4.115160
  H     -0.874490    4.762740    5.427340
  H     -0.680790    3.134760    5.839000
  H     -2.057550    3.531690    5.346200
  H      0.529740    1.012350    3.584990
  H      0.908700    1.662260    5.162040
  H      2.157250    1.535620    3.946240

 Total Charge           Charge          ....    0
 Multiplicity           Mult            ....    1
 Number of Electrons    NEL             ....   34
 Basis Dimension        Dim             ....  160

ORBITAL ENERGIES
----------------

  NO   OCC          E(Eh)            E(eV)
   0   2.0000     -10.278804      -279.7005
   1   2.0000     -10.274492      -279.5831
   2   2.0000     -10.269091      -279.4362
   3   2.0000     -10.249556      -278.9046
   4   2.0000      -0.912991       -24.8437
   5   2.0000      -0.838872       -22.8269
   6   2.0000      -0.751111       -20.4388
   7   2.0000      -0.674237       -18.3469
   8   2.0000      -0.570281       -15.5181
   9   2.0000      -0.561021       -15.2661
  10   2.0000      -0.527723       -14.3601
  11   2.0000      -0.484764       -13.1911
  12   2.0000      -0.475442       -12.9374
  13   2.0000      -0.459920       -12.5150
  14   2.0000      -0.417193       -11.3524
  15   2.0000      -0.414333       -11.2746
  16   2.0000      -0.409364       -11.1393
  17   0.0000       0.097357         2.6492
  18   0.0000       0.121716         3.3121
  19   0.0000       0.123518         3.3611
  20   0.0000       0.130405         3.5485
  21   0.0000       0.174374         4.7450

MULLIKEN ATOMIC CHARGES
-----------------------
   0 C :   -0.220519
   1 H :   -0.125907
   2 C :    1.003402
   3 C :   -0.278995
   4 H :    0.001655
   5 H :   -0.080138
   6 H :   -0.070052
   7 C :    0.657123
   8 H :   -0.117449
   9 H :   -0.445874
  10 H :   -0.147082
  11 H :    0.028629
  12 H :   -0.176004
  13 H :   -0.028788
Sum of atomic charges:    0.0000000

LOEWDIN ATOMIC CHARGES
----------------------
   0 C :   -0.077792
   1 H :    0.021992
   2 C :    0.115737
   3 C :   -0.081629
   4 H :    0.022661
   5 H :    0.023262
   6 H :    0.015093
   7 C :    0.120838
   8 H :   -0.022842
   9 H :   -0.042949
  10 H :   -0.032271
  11 H :   -0.016060
  12 H :   -0.027263
  13 H :   -0.018776

  Mayer bond orders larger than 0.100000
B(  0-C ,  1-H ) :   0.9648 B(  0-C ,  2-C ) :   1.2100 B(  0-C ,  3-C ) :   1.1538
B(  0-C ,  4-H ) :   0.8849 B(  0-C ,  5-H ) :   0.1231 B(  0-C ,  8-H ) :   0.1827
B(  0-C ,  9-H ) :   0.2423 B(  0-C , 10-H ) :   0.1904 B(  1-H ,  3-C ) :   0.1057
B(  2-C ,  4-H ) :   0.1119 B(  2-C ,  8-H ) :   0.7630 B(  2-C ,  9-H ) :   0.5874
B(  2-C , 10-H ) :   0.6171 B(  3-C ,  5-H ) :   0.9478 B(  3-C ,  6-H ) :   0.9567
B(  3-C ,  7-C ) :   1.2396 B(  3-C , 11-H ) :   0.1860 B(  3-C , 12-H ) :   0.1868
B(  3-C , 13-H ) :   0.1893 B(  7-C , 11-H ) :   0.7896 B(  7-C , 12-H ) :   0.8606
B(  7-C , 13-H ) :   0.8021 B(  9-H , 10-H ) :   0.3122

Dispersion correction           -0.002731080
FINAL SINGLE POINT ENERGY      -158.286309537736

DIPOLE MOMENT
-------------
                                X             Y             Z
Electronic contribution:      0.12239       0.46963      -0.75556
Nuclear contribution   :     -0.14518      -0.47660       0.76944
                        -----------------------------------------
Total Dipole Moment    :     -0.02279      -0.00696       0.01388
                        -----------------------------------------
Magnitude (a.u.)       :      0.02758
Magnitude (Debye)      :      0.07010

Rotational constants in cm-1:     0.472466     0.157481     0.138592
Rotational constants in MHz : 14164.171374  4721.163669  4154.874787

                             ****ORCA TERMINATED NORMALLY****
TOTAL RUN TIME: 0 days 0 hours 0 minutes 8 seconds 32 msec
