                         Program Version 5.0.0 -  RELEASE  -
|  1> !wB97X-D3 RIJCOSX def2-SVPD def2/J TightSCF
|  2> *xyz 0 1
|  3> C         -1.78916       -0.63923        4.55750
|  4> C         -2.79070       -0.78527        5.70281
|  5> H         -2.86731       -1.83565        6.00167
|  6> H         -3.77455       -0.48658        5.33481
|  7> C         -2.45380        0.05510        6.94145
|  8> C         -2.07842        1.48042        6.56410
|  9> H         -1.62558       -0.38216        7.49891
| 10> H         -3.32527        0.08775        7.59917
| 11> O         -0.90125        1.85816        6.82810
| 12> F         -2.93658        2.17731        5.96415
| 13> H         -2.09421       -1.25377        3.73641
| 14> H         -0.81933       -0.94475        4.89064
| 15> H         -1.75281        0.38306        4.24366
| 16> *
| 17> %MaxCore 64000
| 18>
| 19> %pal nprocs 18
| 20> end
| 21>
| 22> %scf
| 23>   MaxIter 150
| 24> end
| 25>
| 26>
| 27>                          ****END OF INPUT****

CARTESIAN COORDINATES (ANGSTROEM)
---------------------------------
  C     -1.789160   -0.639230    4.557500
  C     -2.790700   -0.785270    5.702810
  H     -2.867310   -1.835650    6.001670
  H     -3.774550   -0.486580    5.334810
  C     -2.453800    0.055100    6.941450
  C     -2.078420    1.480420    6.564100
  H     -1.625580   -0.382160    7.498910
  H     -3.325270    0.087750    7.599170
  O     -0.901250    1.858160    6.828100
  F     -2.936580    2.177310    5.964150
  H     -2.094210   -1.253770    3.736410
  H     -0.819330   -0.944750    4.890640
  H     -1.752810    0.383060    4.243660

 Total Charge           Charge          ....    0
 Multiplicity           Mult            ....    1
 Number of Electrons    NEL             ....   48
 Basis Dimension        Dim             ....  182

ORBITAL ENERGIES
----------------

  NO   OCC          E(Eh)            E(eV)
   0   2.0000     -24.875911      -676.9079
   1   2.0000     -19.254136      -523.9317
   2   2.0000     -10.475281      -285.0469
   3   2.0000     -10.321343      -280.8580
   4   2.0000     -10.310985      -280.5762
   5   2.0000     -10.286227      -279.9025
   6   2.0000      -1.424408       -38.7601
   7   2.0000      -1.136645       -30.9297
   8   2.0000      -0.932196       -25.3664
   9   2.0000      -0.840857       -22.8809
  10   2.0000      -0.771437       -20.9919
  11   2.0000      -0.724089       -19.7035
  12   2.0000      -0.660703       -17.9786
  13   2.0000      -0.647636       -17.6231
  14   2.0000      -0.599979       -16.3262
  15   2.0000      -0.578138       -15.7319
  16   2.0000      -0.560129       -15.2419
  17   2.0000      -0.519627       -14.1398
  18   2.0000      -0.502462       -13.6727
  19   2.0000      -0.472617       -12.8606
  20   2.0000      -0.463926       -12.6241
  21   2.0000      -0.446342       -12.1456
  22   2.0000      -0.443629       -12.0718
  23   2.0000      -0.387131       -10.5344
  24   0.0000       0.050661         1.3785
  25   0.0000       0.083783         2.2799
  26   0.0000       0.113596         3.0911
  27   0.0000       0.117673         3.2021
  28   0.0000       0.127096         3.4585

MULLIKEN ATOMIC CHARGES
-----------------------
   0 C :    0.590326
   1 C :   -0.406876
   2 H :   -0.117864
   3 H :    0.001400
   4 C :    0.074964
   5 C :    0.790292
   6 H :    0.012499
   7 H :    0.047450
   8 O :   -0.502873
   9 F :   -0.417766
  10 H :   -0.043907
  11 H :    0.000511
  12 H :   -0.028156
Sum of atomic charges:    0.0000000

LOEWDIN ATOMIC CHARGES
----------------------
   0 C :    0.128873
   1 C :   -0.066169
   2 H :    0.025552
   3 H :    0.023257
   4 C :    0.040915
   5 C :   -0.010453
   6 H :    0.037387
   7 H :    0.035909
   8 O :   -0.144780
   9 F :   -0.034703
  10 H :   -0.012726
  11 H :   -0.005240
  12 H :   -0.017819

  Mayer bond orders larger than 0.100000
B(  0-C ,  1-C ) :   1.3217 B(  0-C , 10-H ) :   0.7905 B(  0-C , 11-H ) :   0.8158
B(  0-C , 12-H ) :   0.8470 B(  1-C ,  2-H ) :   0.9941 B(  1-C ,  3-H ) :   0.9247
B(  1-C ,  4-C ) :   1.1643 B(  1-C ,  6-H ) :   0.1235 B(  1-C ,  7-H ) :   0.1164
B(  1-C , 10-H ) :   0.1951 B(  1-C , 11-H ) :   0.1777 B(  1-C , 12-H ) :   0.1836
B(  4-C ,  5-C ) :   1.0546 B(  4-C ,  6-H ) :   0.9247 B(  4-C ,  7-H ) :   0.8488
B(  5-C ,  6-H ) :   0.1391 B(  5-C ,  8-O ) :   1.8170 B(  5-C ,  9-F ) :   0.6878
B(  8-O ,  9-F ) :   0.1018

Dispersion correction           -0.003400970
FINAL SINGLE POINT ENERGY      -331.392997165309

DIPOLE MOMENT
-------------
                                X             Y             Z
Electronic contribution:     -0.65003       9.45887       2.81169
Nuclear contribution   :     -0.24054     -10.41383      -2.92452
                        -----------------------------------------
Total Dipole Moment    :     -0.89058      -0.95497      -0.11283
                        -----------------------------------------
Magnitude (a.u.)       :      1.31066
Magnitude (Debye)      :      3.33143

Rotational constants in cm-1:     0.180403     0.081943     0.079197
Rotational constants in MHz :  5408.335479  2456.587956  2374.272438

                             ****ORCA TERMINATED NORMALLY****
TOTAL RUN TIME: 0 days 0 hours 0 minutes 11 seconds 623 msec
