                         Program Version 5.0.0 -  RELEASE  -
|  1> !M062X D3Zero RIJCOSX def2-SVPD def2/J TightSCF
|  2> *xyz -1 1
|  3> C          2.49556        1.81615       -2.13636
|  4> C          1.87218        0.42790       -2.07750
|  5> H          2.61427       -0.36583       -2.19889
|  6> H          1.38995        0.27309       -1.11236
|  7> S          0.57902        0.14047       -3.29794
|  8> O          0.22886       -1.24687       -3.12787
|  9> O         -0.43927        1.11897       -3.01455
| 10> O          1.24788        0.40347       -4.59565
| 11> H          2.96535        1.95613       -3.08747
| 12> H          3.22581        1.91242       -1.36024
| 13> H          1.73350        2.55528       -2.00274
| 14> *
| 15>
| 16> %MaxCore 64000
| 17>
| 18> %pal nprocs 4
| 19> end
| 20>
| 21> %scf
| 22>   MaxIter 150
| 23> end
| 24>
| 25>
| 26>                          ****END OF INPUT****

CARTESIAN COORDINATES (ANGSTROEM)
---------------------------------
  C      2.495560    1.816150   -2.136360
  C      1.872180    0.427900   -2.077500
  H      2.614270   -0.365830   -2.198890
  H      1.389950    0.273090   -1.112360
  S      0.579020    0.140470   -3.297940
  O      0.228860   -1.246870   -3.127870
  O     -0.439270    1.118970   -3.014550
  O      1.247880    0.403470   -4.595650
  H      2.965350    1.956130   -3.087470
  H      3.225810    1.912420   -1.360240
  H      1.733500    2.555280   -2.002740

 Total Charge           Charge          ....   -1
 Multiplicity           Mult            ....    1
 Number of Electrons    NEL             ....   58
 Basis Dimension        Dim             ....  176

ORBITAL ENERGIES
----------------

  NO   OCC          E(Eh)            E(eV)
   0   2.0000     -89.935853     -2447.2790
   1   2.0000     -19.418966      -528.4169
   2   2.0000     -19.418839      -528.4135
   3   2.0000     -19.404378      -528.0200
   4   2.0000     -10.410495      -283.2840
   5   2.0000     -10.406061      -283.1633
   6   2.0000      -8.259377      -224.7491
   7   2.0000      -6.184719      -168.2948
   8   2.0000      -6.184534      -168.2897
   9   2.0000      -6.184247      -168.2819
  10   2.0000      -1.051600       -28.6155
  11   2.0000      -0.909937       -24.7606
  12   2.0000      -0.881793       -23.9948
  13   2.0000      -0.722223       -19.6527
  14   2.0000      -0.587894       -15.9974
  15   2.0000      -0.462635       -12.5889
  16   2.0000      -0.397344       -10.8123
  17   2.0000      -0.388897       -10.5824
  18   2.0000      -0.355184        -9.6650
  19   2.0000      -0.345390        -9.3986
  20   2.0000      -0.329082        -8.9548
  21   2.0000      -0.296162        -8.0590
  22   2.0000      -0.276405        -7.5214
  23   2.0000      -0.228979        -6.2308
  24   2.0000      -0.226602        -6.1661
  25   2.0000      -0.190803        -5.1920
  26   2.0000      -0.177019        -4.8169
  27   2.0000      -0.164475        -4.4756
  28   2.0000      -0.138027        -3.7559
  29   0.0000       0.158288         4.3072
  30   0.0000       0.178703         4.8627
  31   0.0000       0.182167         4.9570
  32   0.0000       0.188958         5.1418
  33   0.0000       0.209660         5.7052

MULLIKEN ATOMIC CHARGES
-----------------------
   0 C :    0.732444
   1 C :   -0.334249
   2 H :   -0.093667
   3 H :   -0.053998
   4 S :    1.453660
   5 O :   -0.832626
   6 O :   -0.830367
   7 O :   -0.865166
   8 H :   -0.044195
   9 H :   -0.094601
  10 H :   -0.037234
Sum of atomic charges:   -1.0000000

LOEWDIN ATOMIC CHARGES
----------------------
   0 C :    0.101739
   1 C :   -0.139556
   2 H :    0.005681
   3 H :    0.000759
   4 S :    0.890717
   5 O :   -0.590114
   6 O :   -0.587163
   7 O :   -0.609697
   8 H :   -0.020313
   9 H :   -0.033785
  10 H :   -0.018267

  Mayer bond orders larger than 0.100000
B(  0-C ,  1-C ) :   1.2859 B(  0-C ,  8-H ) :   0.8339 B(  0-C ,  9-H ) :   0.7493
B(  0-C , 10-H ) :   0.8139 B(  1-C ,  2-H ) :   1.0255 B(  1-C ,  3-H ) :   0.9868
B(  1-C ,  4-S ) :   0.9018 B(  1-C ,  8-H ) :   0.1905 B(  1-C ,  9-H ) :   0.2111
B(  1-C , 10-H ) :   0.1995 B(  4-S ,  5-O ) :   1.3015 B(  4-S ,  6-O ) :   1.2723
B(  4-S ,  7-O ) :   1.2493

Dispersion correction           -0.000144423
FINAL SINGLE POINT ENERGY      -702.626938040814

DIPOLE MOMENT
-------------
                                X             Y             Z
Electronic contribution:     -5.62675      -3.56655      -4.02806
Nuclear contribution   :      6.89220       4.11756       5.35566
                        -----------------------------------------
Total Dipole Moment    :      1.26545       0.55101       1.32760
                        -----------------------------------------
Magnitude (a.u.)       :      1.91507
Magnitude (Debye)      :      4.86773

Rotational constants in cm-1:     0.162183     0.084017     0.082390
Rotational constants in MHz :  4862.117324  2518.774315  2469.980309

                             ****ORCA TERMINATED NORMALLY****
TOTAL RUN TIME: 0 days 0 hours 0 minutes 17 seconds 322 msec
