                         Program Version 5.0.0 -  RELEASE  -
|  1> !M062X D3Zero RIJCOSX def2-SVPD def2/J TightSCF
|  2> *xyz 1 1
|  3> C          3.38093        2.08304       -3.35013
|  4> N          4.53592        1.18245       -3.42852
|  5> C          2.49556        1.81615       -2.13636
|  6> C          4.67196        0.12227       -4.22060
|  7> N          5.86602       -0.50785       -4.22428
|  8> N          3.69888       -0.31284       -4.98699
|  9> H          2.73141       -0.05009       -4.84900
| 10> H          3.89005       -1.05517       -5.64373
| 11> H          5.25193        1.30346       -2.72101
| 12> H          6.69516       -0.06232       -3.85160
| 13> H          5.97538       -1.39688       -4.69141
| 14> H          2.80646        1.98651       -4.26848
| 15> H          3.77871        3.09828       -3.30738
| 16> H          2.11090        0.81901       -2.18783
| 17> H          1.68276        2.51198       -2.12786
| 18> H          3.07216        1.93031       -1.24227
| 19> *
| 20>
| 21> %MaxCore 64000
| 22>
| 23> %pal nprocs 4
| 24> end
| 25>
| 26> %scf
| 27>   MaxIter 150
| 28> end
| 29>
| 30>
| 31>                          ****END OF INPUT****

CARTESIAN COORDINATES (ANGSTROEM)
---------------------------------
  C      3.380930    2.083040   -3.350130
  N      4.535920    1.182450   -3.428520
  C      2.495560    1.816150   -2.136360
  C      4.671960    0.122270   -4.220600
  N      5.866020   -0.507850   -4.224280
  N      3.698880   -0.312840   -4.986990
  H      2.731410   -0.050090   -4.849000
  H      3.890050   -1.055170   -5.643730
  H      5.251930    1.303460   -2.721010
  H      6.695160   -0.062320   -3.851600
  H      5.975380   -1.396880   -4.691410
  H      2.806460    1.986510   -4.268480
  H      3.778710    3.098280   -3.307380
  H      2.110900    0.819010   -2.187830
  H      1.682760    2.511980   -2.127860
  H      3.072160    1.930310   -1.242270

 Total Charge           Charge          ....    1
 Multiplicity           Mult            ....    1
 Number of Electrons    NEL             ....   48
 Basis Dimension        Dim             ....  200

ORBITAL ENERGIES
----------------

  NO   OCC          E(Eh)            E(eV)
   0   2.0000     -14.989661      -407.8894
   1   2.0000     -14.984932      -407.7607
   2   2.0000     -14.981069      -407.6556
   3   2.0000     -10.892845      -296.4094
   4   2.0000     -10.758006      -292.7402
   5   2.0000     -10.686385      -290.7913
   6   2.0000      -1.317035       -35.8384
   7   2.0000      -1.199128       -32.6299
   8   2.0000      -1.182851       -32.1870
   9   2.0000      -1.018580       -27.7170
  10   2.0000      -0.922644       -25.1064
  11   2.0000      -0.883138       -24.0314
  12   2.0000      -0.865329       -23.5468
  13   2.0000      -0.817455       -22.2441
  14   2.0000      -0.768452       -20.9106
  15   2.0000      -0.763459       -20.7748
  16   2.0000      -0.713440       -19.4137
  17   2.0000      -0.704978       -19.1834
  18   2.0000      -0.672333       -18.2951
  19   2.0000      -0.624257       -16.9869
  20   2.0000      -0.594145       -16.1675
  21   2.0000      -0.576824       -15.6962
  22   2.0000      -0.542464       -14.7612
  23   2.0000      -0.507326       -13.8050
  24   0.0000      -0.132711        -3.6113
  25   0.0000      -0.127667        -3.4740
  26   0.0000      -0.096741        -2.6324
  27   0.0000      -0.089947        -2.4476
  28   0.0000      -0.064669        -1.7597

MULLIKEN ATOMIC CHARGES
-----------------------
   0 C :    0.291102
   1 N :   -0.540823
   2 C :    0.607457
   3 C :    1.622200
   4 N :   -0.176314
   5 N :   -0.112684
   6 H :   -0.046699
   7 H :   -0.068084
   8 H :   -0.248850
   9 H :   -0.057863
  10 H :   -0.010363
  11 H :   -0.091095
  12 H :   -0.180873
  13 H :   -0.041623
  14 H :    0.069518
  15 H :   -0.015007
Sum of atomic charges:    1.0000000

LOEWDIN ATOMIC CHARGES
----------------------
   0 C :    0.047642
   1 N :    0.029592
   2 C :    0.160046
   3 C :   -0.021603
   4 N :    0.250353
   5 N :    0.271479
   6 H :    0.035176
   7 H :    0.044019
   8 H :    0.061779
   9 H :    0.038012
  10 H :    0.034763
  11 H :    0.021576
  12 H :    0.040871
  13 H :   -0.012201
  14 H :    0.003981
  15 H :   -0.005485

  Mayer bond orders larger than 0.100000
B(  0-C ,  1-N ) :   0.8769 B(  0-C ,  2-C ) :   1.2608 B(  0-C ,  8-H ) :  -0.2188
B(  0-C , 11-H ) :   0.8690 B(  0-C , 12-H ) :   0.9436 B(  0-C , 13-H ) :   0.1972
B(  0-C , 14-H ) :   0.1622 B(  0-C , 15-H ) :   0.2110 B(  1-N ,  3-C ) :   0.9483
B(  1-N ,  4-N ) :   0.2463 B(  1-N ,  5-N ) :   0.2505 B(  1-N ,  8-H ) :   1.3821
B(  1-N , 11-H ) :   0.1392 B(  1-N , 12-H ) :   0.1597 B(  2-C , 13-H ) :   0.8362
B(  2-C , 14-H ) :   0.8040 B(  2-C , 15-H ) :   0.8118 B(  3-C ,  4-N ) :   0.7272
B(  3-C ,  5-N ) :   0.8690 B(  3-C ,  6-H ) :  -0.1853 B(  3-C ,  7-H ) :  -0.1606
B(  3-C ,  8-H ) :  -0.2754 B(  3-C ,  9-H ) :  -0.1842 B(  3-C , 10-H ) :  -0.1098
B(  4-N ,  5-N ) :   0.1748 B(  4-N ,  9-H ) :   1.2120 B(  4-N , 10-H ) :   1.1722
B(  5-N ,  6-H ) :   1.1764 B(  5-N ,  7-H ) :   1.2396 B(  6-H ,  7-H ) :  -0.2006
B(  9-H , 10-H ) :  -0.1775

Dispersion correction           -0.000317811
FINAL SINGLE POINT ENERGY      -284.068109460906

DIPOLE MOMENT
-------------
                                X             Y             Z
Electronic contribution:      3.55161      -2.64473      -2.81829
Nuclear contribution   :     -2.93277       1.85779       2.25966
                        -----------------------------------------
Total Dipole Moment    :      0.61884      -0.78694      -0.55863
                        -----------------------------------------
Magnitude (a.u.)       :      1.14643
Magnitude (Debye)      :      2.91400

Rotational constants in cm-1:     0.245511     0.068839     0.059711
Rotational constants in MHz :  7360.233487  2063.743353  1790.088408

                             ****ORCA TERMINATED NORMALLY****
TOTAL RUN TIME: 0 days 0 hours 0 minutes 23 seconds 579 msec
