                         Program Version 5.0.0 -  RELEASE  -
|  1> !M062X D3Zero RIJCOSX def2-SVPD def2/J TightSCF
|  2> *xyz 0 1
|  3> C          2.49556        1.81615       -2.13636
|  4> C          1.87218        0.42790       -2.07750
|  5> H          2.61427       -0.36583       -2.19889
|  6> H          1.38995        0.27309       -1.11236
|  7> S          0.57902        0.14047       -3.29794
|  8> F          0.22886       -1.24687       -3.12787
|  9> O         -0.43927        1.11897       -3.01455
| 10> O          1.24788        0.40347       -4.59565
| 11> H          2.96535        1.95613       -3.08747
| 12> H          3.22581        1.91242       -1.36024
| 13> H          1.73350        2.55528       -2.00274
| 14> *
| 15>
| 16> %MaxCore 64000
| 17>
| 18> %pal nprocs 4
| 19> end
| 20>
| 21> %scf
| 22>   MaxIter 150
| 23> end
| 24>
| 25>
| 26>                          ****END OF INPUT****

CARTESIAN COORDINATES (ANGSTROEM)
---------------------------------
  C      2.495560    1.816150   -2.136360
  C      1.872180    0.427900   -2.077500
  H      2.614270   -0.365830   -2.198890
  H      1.389950    0.273090   -1.112360
  S      0.579020    0.140470   -3.297940
  F      0.228860   -1.246870   -3.127870
  O     -0.439270    1.118970   -3.014550
  O      1.247880    0.403470   -4.595650
  H      2.965350    1.956130   -3.087470
  H      3.225810    1.912420   -1.360240
  H      1.733500    2.555280   -2.002740

 Total Charge           Charge          ....    0
 Multiplicity           Mult            ....    1
 Number of Electrons    NEL             ....   58
 Basis Dimension        Dim             ....  176

ORBITAL ENERGIES
----------------

  NO   OCC          E(Eh)            E(eV)
   0   2.0000     -90.198278     -2454.4199
   1   2.0000     -25.382870      -690.7030
   2   2.0000     -19.655213      -534.8455
   3   2.0000     -19.640159      -534.4359
   4   2.0000     -10.615218      -288.8548
   5   2.0000     -10.570801      -287.6461
   6   2.0000      -8.522889      -231.9196
   7   2.0000      -6.451292      -175.5486
   8   2.0000      -6.445992      -175.4044
   9   2.0000      -6.444922      -175.3752
  10   2.0000      -1.521486       -41.4017
  11   2.0000      -1.229826       -33.4653
  12   2.0000      -1.118760       -30.4430
  13   2.0000      -0.916639       -24.9430
  14   2.0000      -0.838541       -22.8178
  15   2.0000      -0.766336       -20.8531
  16   2.0000      -0.693481       -18.8706
  17   2.0000      -0.684779       -18.6338
  18   2.0000      -0.643384       -17.5074
  19   2.0000      -0.570088       -15.5129
  20   2.0000      -0.566216       -15.4075
  21   2.0000      -0.524578       -14.2745
  22   2.0000      -0.501942       -13.6585
  23   2.0000      -0.477827       -13.0023
  24   2.0000      -0.462689       -12.5904
  25   2.0000      -0.453281       -12.3344
  26   2.0000      -0.408937       -11.1277
  27   2.0000      -0.390726       -10.6322
  28   2.0000      -0.381361       -10.3774
  29   0.0000       0.009149         0.2490
  30   0.0000       0.036199         0.9850
  31   0.0000       0.042644         1.1604
  32   0.0000       0.044495         1.2108
  33   0.0000       0.073637         2.0038

MULLIKEN ATOMIC CHARGES
-----------------------
   0 C :    0.691949
   1 C :   -0.427611
   2 H :   -0.010107
   3 H :    0.030385
   4 S :    1.621547
   5 F :   -0.436379
   6 O :   -0.690883
   7 O :   -0.725524
   8 H :   -0.008554
   9 H :   -0.041187
  10 H :   -0.003636
Sum of atomic charges:    0.0000000

LOEWDIN ATOMIC CHARGES
----------------------
   0 C :    0.147581
   1 C :   -0.101828
   2 H :    0.024081
   3 H :    0.019322
   4 S :    1.154920
   5 F :   -0.266413
   6 O :   -0.475359
   7 O :   -0.497297
   8 H :   -0.002198
   9 H :   -0.002227
  10 H :   -0.000581

  Mayer bond orders larger than 0.100000
B(  0-C ,  1-C ) :   1.3575 B(  0-C ,  8-H ) :   0.8368 B(  0-C ,  9-H ) :   0.7695
B(  0-C , 10-H ) :   0.8168 B(  1-C ,  2-H ) :   1.0096 B(  1-C ,  3-H ) :   0.9715
B(  1-C ,  4-S ) :   0.9507 B(  1-C ,  8-H ) :   0.1838 B(  1-C ,  9-H ) :   0.1990
B(  1-C , 10-H ) :   0.1907 B(  4-S ,  5-F ) :   0.6306 B(  4-S ,  6-O ) :   1.4962
B(  4-S ,  7-O ) :   1.4695

Dispersion correction           -0.000139490
FINAL SINGLE POINT ENERGY      -727.106738108960

DIPOLE MOMENT
-------------
                                X             Y             Z
Electronic contribution:     -6.76271      -6.39484      -4.02834
Nuclear contribution   :      7.60530       5.82028       5.38743
                        -----------------------------------------
Total Dipole Moment    :      0.84258      -0.57456       1.35909
                        -----------------------------------------
Magnitude (a.u.)       :      1.69918
Magnitude (Debye)      :      4.31896

Rotational constants in cm-1:     0.157861     0.081452     0.078859
Rotational constants in MHz :  4732.562506  2441.865430  2364.129821

                             ****ORCA TERMINATED NORMALLY****
TOTAL RUN TIME: 0 days 0 hours 0 minutes 18 seconds 27 msec
