                         Program Version 5.0.0 -  RELEASE  -
|  1> !M062X D3Zero RIJCOSX def2-SVPD def2/J TightSCF
|  2> *xyz 0 1
|  3> C          3.38093        2.08304       -3.35013
|  4> C          4.53592        1.18245       -3.42852
|  5> C          2.49556        1.81615       -2.13636
|  6> C          4.67196        0.12227       -4.22060
|  7> N          5.86602       -0.50785       -4.22428
|  8> N          3.69888       -0.31284       -4.98699
|  9> H          2.73141       -0.05009       -4.84900
| 10> H          3.89005       -1.05517       -5.64373
| 11> H          5.25193        1.30346       -2.72101
| 12> H          6.69516       -0.06232       -3.85160
| 13> H          5.97538       -1.39688       -4.69141
| 14> H          2.80646        1.98651       -4.26848
| 15> H          3.77871        3.09828       -3.30738
| 16> H          2.11090        0.81901       -2.18783
| 17> H          1.68276        2.51198       -2.12786
| 18> H          3.07216        1.93031       -1.24227
| 19> *
| 20>
| 21> %MaxCore 64000
| 22>
| 23> %pal nprocs 4
| 24> end
| 25>
| 26> %scf
| 27>   MaxIter 150
| 28> end
| 29>
| 30>
| 31>                          ****END OF INPUT****

CARTESIAN COORDINATES (ANGSTROEM)
---------------------------------
  C      3.380930    2.083040   -3.350130
  C      4.535920    1.182450   -3.428520
  C      2.495560    1.816150   -2.136360
  C      4.671960    0.122270   -4.220600
  N      5.866020   -0.507850   -4.224280
  N      3.698880   -0.312840   -4.986990
  H      2.731410   -0.050090   -4.849000
  H      3.890050   -1.055170   -5.643730
  H      5.251930    1.303460   -2.721010
  H      6.695160   -0.062320   -3.851600
  H      5.975380   -1.396880   -4.691410
  H      2.806460    1.986510   -4.268480
  H      3.778710    3.098280   -3.307380
  H      2.110900    0.819010   -2.187830
  H      1.682760    2.511980   -2.127860
  H      3.072160    1.930310   -1.242270

 Total Charge           Charge          ....    0
 Multiplicity           Mult            ....    1
 Number of Electrons    NEL             ....   48
 Basis Dimension        Dim             ....  200

ORBITAL ENERGIES
----------------

  NO   OCC          E(Eh)            E(eV)
   0   2.0000     -14.765079      -401.7782
   1   2.0000     -14.757373      -401.5685
   2   2.0000     -10.595954      -288.3306
   3   2.0000     -10.523566      -286.3608
   4   2.0000     -10.515822      -286.1501
   5   2.0000     -10.472917      -284.9826
   6   2.0000      -1.060981       -28.8708
   7   2.0000      -0.960999       -26.1501
   8   2.0000      -0.861057       -23.4305
   9   2.0000      -0.778703       -21.1896
  10   2.0000      -0.695506       -18.9257
  11   2.0000      -0.654800       -17.8180
  12   2.0000      -0.619066       -16.8456
  13   2.0000      -0.578497       -15.7417
  14   2.0000      -0.549244       -14.9457
  15   2.0000      -0.510623       -13.8948
  16   2.0000      -0.482941       -13.1415
  17   2.0000      -0.464026       -12.6268
  18   2.0000      -0.443854       -12.0779
  19   2.0000      -0.413612       -11.2550
  20   2.0000      -0.387479       -10.5438
  21   2.0000      -0.381027       -10.3683
  22   2.0000      -0.329351        -8.9621
  23   2.0000      -0.209277        -5.6947
  24   0.0000       0.034222         0.9312
  25   0.0000       0.058372         1.5884
  26   0.0000       0.070210         1.9105
  27   0.0000       0.084134         2.2894
  28   0.0000       0.098092         2.6692

MULLIKEN ATOMIC CHARGES
-----------------------
   0 C :   -0.161125
   1 C :   -0.347665
   2 C :    0.618776
   3 C :    1.121497
   4 N :   -0.119510
   5 N :   -0.064352
   6 H :   -0.074592
   7 H :   -0.216337
   8 H :   -0.331566
   9 H :   -0.070555
  10 H :   -0.118086
  11 H :   -0.101911
  12 H :   -0.047321
  13 H :   -0.080238
  14 H :    0.015475
  15 H :   -0.022488
Sum of atomic charges:   -0.0000000

LOEWDIN ATOMIC CHARGES
----------------------
   0 C :   -0.099665
   1 C :   -0.032596
   2 C :    0.114773
   3 C :   -0.221253
   4 N :    0.167576
   5 N :    0.184965
   6 H :    0.003668
   7 H :   -0.004037
   8 H :   -0.049228
   9 H :    0.004768
  10 H :   -0.014221
  11 H :   -0.000032
  12 H :    0.013488
  13 H :   -0.023254
  14 H :   -0.025975
  15 H :   -0.018980

  Mayer bond orders larger than 0.100000
B(  0-C ,  1-C ) :   1.1685 B(  0-C ,  2-C ) :   1.2091 B(  0-C ,  8-H ) :   0.2100
B(  0-C , 11-H ) :   0.8820 B(  0-C , 12-H ) :   0.8778 B(  0-C , 13-H ) :   0.1991
B(  0-C , 14-H ) :   0.1698 B(  0-C , 15-H ) :   0.2100 B(  1-C ,  3-C ) :   1.6086
B(  1-C ,  4-N ) :   0.4428 B(  1-C ,  5-N ) :   0.2605 B(  1-C ,  8-H ) :   0.8712
B(  1-C , 11-H ) :   0.2635 B(  1-C , 12-H ) :   0.1508 B(  2-C , 13-H ) :   0.8591
B(  2-C , 14-H ) :   0.8109 B(  2-C , 15-H ) :   0.8012 B(  3-C ,  4-N ) :   0.6412
B(  3-C ,  5-N ) :   0.9034 B(  3-C ,  7-H ) :  -0.1959 B(  3-C ,  8-H ) :   0.1051
B(  3-C ,  9-H ) :  -0.1597 B(  4-N ,  5-N ) :   0.1106 B(  4-N ,  9-H ) :   1.2133
B(  4-N , 10-H ) :   1.1699 B(  5-N ,  6-H ) :   1.1551 B(  5-N ,  7-H ) :   1.3347
B(  6-H ,  7-H ) :  -0.1957 B(  9-H , 10-H ) :  -0.1688

Dispersion correction           -0.000315935
FINAL SINGLE POINT ENERGY      -267.601415380515

DIPOLE MOMENT
-------------
                                X             Y             Z
Electronic contribution:      2.98750      -2.77560      -2.88384
Nuclear contribution   :     -2.84307       1.95814       2.32378
                        -----------------------------------------
Total Dipole Moment    :      0.14442      -0.81746      -0.56006
                        -----------------------------------------
Magnitude (a.u.)       :      1.00138
Magnitude (Debye)      :      2.54532

Rotational constants in cm-1:     0.248902     0.068887     0.059904
Rotational constants in MHz :  7461.898926  2065.183281  1795.882140

                             ****ORCA TERMINATED NORMALLY****
TOTAL RUN TIME: 0 days 0 hours 0 minutes 24 seconds 365 msec
