                         Program Version 5.0.0 -  RELEASE  -
|  1> !M062X D3Zero RIJCOSX def2-SVPD def2/J TightSCF
|  2> *xyz 0 1
|  3> C          2.49556        1.81615       -2.13636
|  4> C          1.87218        0.42790       -2.07750
|  5> H          2.61427       -0.36583       -2.19889
|  6> H          1.38995        0.27309       -1.11236
|  7> S          0.57902        0.14047       -3.29794
|  8> O          0.22886       -1.24687       -3.12787
|  9> F         -0.43927        1.11897       -3.01455
| 10> O          1.24788        0.40347       -4.59565
| 11> H          2.96535        1.95613       -3.08747
| 12> H          3.22581        1.91242       -1.36024
| 13> H          1.73350        2.55528       -2.00274
| 14> *
| 15>
| 16> %MaxCore 64000
| 17>
| 18> %pal nprocs 4
| 19> end
| 20>
| 21> %scf
| 22>   MaxIter 150
| 23> end
| 24>
| 25>
| 26>                          ****END OF INPUT****

CARTESIAN COORDINATES (ANGSTROEM)
---------------------------------
  C      2.495560    1.816150   -2.136360
  C      1.872180    0.427900   -2.077500
  H      2.614270   -0.365830   -2.198890
  H      1.389950    0.273090   -1.112360
  S      0.579020    0.140470   -3.297940
  O      0.228860   -1.246870   -3.127870
  F     -0.439270    1.118970   -3.014550
  O      1.247880    0.403470   -4.595650
  H      2.965350    1.956130   -3.087470
  H      3.225810    1.912420   -1.360240
  H      1.733500    2.555280   -2.002740

 Total Charge           Charge          ....    0
 Multiplicity           Mult            ....    1
 Number of Electrons    NEL             ....   58
 Basis Dimension        Dim             ....  176

ORBITAL ENERGIES
----------------

  NO   OCC          E(Eh)            E(eV)
   0   2.0000     -90.198507     -2454.4261
   1   2.0000     -25.383003      -690.7066
   2   2.0000     -19.655553      -534.8548
   3   2.0000     -19.640771      -534.4525
   4   2.0000     -10.615180      -288.8537
   5   2.0000     -10.574045      -287.7344
   6   2.0000      -8.523079      -231.9248
   7   2.0000      -6.451558      -175.5558
   8   2.0000      -6.446108      -175.4075
   9   2.0000      -6.445115      -175.3805
  10   2.0000      -1.521885       -41.4126
  11   2.0000      -1.229294       -33.4508
  12   2.0000      -1.119881       -30.4735
  13   2.0000      -0.919753       -25.0277
  14   2.0000      -0.835220       -22.7275
  15   2.0000      -0.769438       -20.9375
  16   2.0000      -0.697493       -18.9797
  17   2.0000      -0.691387       -18.8136
  18   2.0000      -0.635821       -17.3016
  19   2.0000      -0.570296       -15.5185
  20   2.0000      -0.560985       -15.2652
  21   2.0000      -0.534201       -14.5363
  22   2.0000      -0.507531       -13.8106
  23   2.0000      -0.479434       -13.0461
  24   2.0000      -0.468303       -12.7432
  25   2.0000      -0.450367       -12.2551
  26   2.0000      -0.408428       -11.1139
  27   2.0000      -0.390295       -10.6205
  28   2.0000      -0.383573       -10.4376
  29   0.0000       0.007670         0.2087
  30   0.0000       0.037495         1.0203
  31   0.0000       0.041666         1.1338
  32   0.0000       0.044885         1.2214
  33   0.0000       0.073093         1.9890

MULLIKEN ATOMIC CHARGES
-----------------------
   0 C :    0.721241
   1 C :   -0.402098
   2 H :   -0.017537
   3 H :    0.015933
   4 S :    1.591221
   5 O :   -0.685634
   6 F :   -0.423613
   7 O :   -0.727527
   8 H :   -0.005641
   9 H :   -0.042270
  10 H :   -0.024075
Sum of atomic charges:   -0.0000000

LOEWDIN ATOMIC CHARGES
----------------------
   0 C :    0.132228
   1 C :   -0.090277
   2 H :    0.038394
   3 H :    0.019750
   4 S :    1.152475
   5 O :   -0.476056
   6 F :   -0.264295
   7 O :   -0.495336
   8 H :   -0.004551
   9 H :   -0.004369
  10 H :   -0.007962

  Mayer bond orders larger than 0.100000
B(  0-C ,  1-C ) :   1.3097 B(  0-C ,  8-H ) :   0.8449 B(  0-C ,  9-H ) :   0.7638
B(  0-C , 10-H ) :   0.8109 B(  1-C ,  2-H ) :   1.0256 B(  1-C ,  3-H ) :   0.9888
B(  1-C ,  4-S ) :   0.9771 B(  1-C ,  8-H ) :   0.1856 B(  1-C ,  9-H ) :   0.1980
B(  1-C , 10-H ) :   0.1873 B(  4-S ,  5-O ) :   1.5314 B(  4-S ,  6-F ) :   0.6218
B(  4-S ,  7-O ) :   1.4842

Dispersion correction           -0.000150730
FINAL SINGLE POINT ENERGY      -727.106613750809

DIPOLE MOMENT
-------------
                                X             Y             Z
Electronic contribution:     -7.88617      -2.37447      -3.82949
Nuclear contribution   :      8.30151       3.35500       5.26935
                        -----------------------------------------
Total Dipole Moment    :      0.41534       0.98054       1.43986
                        -----------------------------------------
Magnitude (a.u.)       :      1.79085
Magnitude (Debye)      :      4.55199

Rotational constants in cm-1:     0.152913     0.083043     0.080351
Rotational constants in MHz :  4584.227971  2489.580280  2408.872860

                             ****ORCA TERMINATED NORMALLY****
TOTAL RUN TIME: 0 days 0 hours 0 minutes 18 seconds 270 msec
