                         Program Version 5.0.0 -  RELEASE  -
|  1> !M062X D3Zero RIJCOSX def2-SVPD def2/J TightSCF
|  2> *xyz 0 1
|  3> C          3.38093        2.08304       -3.35013
|  4> N          4.53592        1.18245       -3.42852
|  5> C          2.49556        1.81615       -2.13636
|  6> C          4.67196        0.12227       -4.22060
|  7> C          5.86602       -0.50785       -4.22428
|  8> N          3.69888       -0.31284       -4.98699
|  9> H          2.73141       -0.05009       -4.84900
| 10> H          3.89005       -1.05517       -5.64373
| 11> H          5.25193        1.30346       -2.72101
| 12> H          6.69516       -0.06232       -3.85160
| 13> H          5.97538       -1.39688       -4.69141
| 14> H          2.80646        1.98651       -4.26848
| 15> H          3.77871        3.09828       -3.30738
| 16> H          2.11090        0.81901       -2.18783
| 17> H          1.68276        2.51198       -2.12786
| 18> H          3.07216        1.93031       -1.24227
| 19> *
| 20>
| 21> %MaxCore 64000
| 22>
| 23> %pal nprocs 4
| 24> end
| 25>
| 26> %scf
| 27>   MaxIter 150
| 28> end
| 29>
| 30>
| 31>                          ****END OF INPUT****

CARTESIAN COORDINATES (ANGSTROEM)
---------------------------------
  C      3.380930    2.083040   -3.350130
  N      4.535920    1.182450   -3.428520
  C      2.495560    1.816150   -2.136360
  C      4.671960    0.122270   -4.220600
  C      5.866020   -0.507850   -4.224280
  N      3.698880   -0.312840   -4.986990
  H      2.731410   -0.050090   -4.849000
  H      3.890050   -1.055170   -5.643730
  H      5.251930    1.303460   -2.721010
  H      6.695160   -0.062320   -3.851600
  H      5.975380   -1.396880   -4.691410
  H      2.806460    1.986510   -4.268480
  H      3.778710    3.098280   -3.307380
  H      2.110900    0.819010   -2.187830
  H      1.682760    2.511980   -2.127860
  H      3.072160    1.930310   -1.242270

 Total Charge           Charge          ....    0
 Multiplicity           Mult            ....    1
 Number of Electrons    NEL             ....   48
 Basis Dimension        Dim             ....  200

ORBITAL ENERGIES
----------------

  NO   OCC          E(Eh)            E(eV)
   0   2.0000     -14.764563      -401.7642
   1   2.0000     -14.760785      -401.6614
   2   2.0000     -10.599589      -288.4295
   3   2.0000     -10.591563      -288.2111
   4   2.0000     -10.544057      -286.9184
   5   2.0000     -10.458660      -284.5946
   6   2.0000      -1.068497       -29.0753
   7   2.0000      -0.980809       -26.6892
   8   2.0000      -0.860185       -23.4068
   9   2.0000      -0.781441       -21.2641
  10   2.0000      -0.706696       -19.2302
  11   2.0000      -0.680981       -18.5304
  12   2.0000      -0.618580       -16.8324
  13   2.0000      -0.569847       -15.5063
  14   2.0000      -0.550885       -14.9903
  15   2.0000      -0.515038       -14.0149
  16   2.0000      -0.497246       -13.5307
  17   2.0000      -0.469137       -12.7659
  18   2.0000      -0.454146       -12.3580
  19   2.0000      -0.430940       -11.7265
  20   2.0000      -0.425914       -11.5897
  21   2.0000      -0.418417       -11.3857
  22   2.0000      -0.316244        -8.6054
  23   2.0000      -0.207983        -5.6595
  24   0.0000       0.029608         0.8057
  25   0.0000       0.061088         1.6623
  26   0.0000       0.065046         1.7700
  27   0.0000       0.069503         1.8913
  28   0.0000       0.096774         2.6333

MULLIKEN ATOMIC CHARGES
-----------------------
   0 C :    0.297388
   1 N :   -0.427043
   2 C :    0.637449
   3 C :    0.878758
   4 C :    0.418491
   5 N :   -0.001030
   6 H :   -0.151761
   7 H :   -0.093836
   8 H :   -0.306818
   9 H :   -0.413266
  10 H :   -0.365995
  11 H :   -0.133570
  12 H :   -0.248853
  13 H :   -0.072102
  14 H :    0.032390
  15 H :   -0.050200
Sum of atomic charges:   -0.0000000

LOEWDIN ATOMIC CHARGES
----------------------
   0 C :    0.016359
   1 N :   -0.027270
   2 C :    0.129987
   3 C :   -0.236111
   4 C :    0.144256
   5 N :    0.184329
   6 H :   -0.010345
   7 H :    0.013325
   8 H :    0.036988
   9 H :   -0.107526
  10 H :   -0.111298
  11 H :    0.007279
  12 H :    0.016604
  13 H :   -0.019712
  14 H :   -0.018366
  15 H :   -0.018499

  Mayer bond orders larger than 0.100000
B(  0-C ,  1-N ) :   0.9068 B(  0-C ,  2-C ) :   1.2365 B(  0-C ,  8-H ) :  -0.2344
B(  0-C , 11-H ) :   0.8793 B(  0-C , 12-H ) :   0.9415 B(  0-C , 13-H ) :   0.2152
B(  0-C , 14-H ) :   0.1767 B(  0-C , 15-H ) :   0.2252 B(  1-N ,  3-C ) :   0.9665
B(  1-N ,  4-C ) :   0.2363 B(  1-N ,  5-N ) :   0.1928 B(  1-N ,  8-H ) :   1.3240
B(  1-N , 11-H ) :   0.1528 B(  1-N , 12-H ) :   0.1623 B(  2-C , 13-H ) :   0.8415
B(  2-C , 14-H ) :   0.7916 B(  2-C , 15-H ) :   0.8047 B(  3-C ,  4-C ) :   1.3959
B(  3-C ,  5-N ) :   0.9525 B(  3-C ,  6-H ) :  -0.1245 B(  3-C ,  7-H ) :  -0.1060
B(  3-C ,  8-H ) :  -0.2667 B(  3-C , 10-H ) :   0.2055 B(  4-C ,  5-N ) :   0.1909
B(  4-C ,  9-H ) :   0.9188 B(  4-C , 10-H ) :   0.7570 B(  5-N ,  6-H ) :   1.1956
B(  5-N ,  7-H ) :   1.2041 B(  6-H ,  7-H ) :  -0.1934

Dispersion correction           -0.000312996
FINAL SINGLE POINT ENERGY      -267.590252247179

DIPOLE MOMENT
-------------
                                X             Y             Z
Electronic contribution:      1.50538      -1.10281      -2.04027
Nuclear contribution   :     -2.56090       1.59955       2.15496
                        -----------------------------------------
Total Dipole Moment    :     -1.05553       0.49674       0.11470
                        -----------------------------------------
Magnitude (a.u.)       :      1.17220
Magnitude (Debye)      :      2.97948

Rotational constants in cm-1:     0.249834     0.071381     0.061833
Rotational constants in MHz :  7489.842787  2139.945635  1853.706310

                             ****ORCA TERMINATED NORMALLY****
TOTAL RUN TIME: 0 days 0 hours 0 minutes 25 seconds 653 msec
