                         Program Version 5.0.0 -  RELEASE  -
|  1> !M062X D3Zero RIJCOSX def2-SVPD def2/J TightSCF
|  2> *xyz 0 1
|  3> C          2.49556        1.81615       -2.13636
|  4> C          1.87218        0.42790       -2.07750
|  5> H          2.61427       -0.36583       -2.19889
|  6> H          1.38995        0.27309       -1.11236
|  7> S          0.57902        0.14047       -3.29794
|  8> O          0.22886       -1.24687       -3.12787
|  9> O         -0.43927        1.11897       -3.01455
| 10> F          1.24788        0.40347       -4.59565
| 11> H          2.96535        1.95613       -3.08747
| 12> H          3.22581        1.91242       -1.36024
| 13> H          1.73350        2.55528       -2.00274
| 14> *
| 15>
| 16> %MaxCore 64000
| 17>
| 18> %pal nprocs 4
| 19> end
| 20>
| 21> %scf
| 22>   MaxIter 150
| 23> end
| 24>
| 25>
| 26>                          ****END OF INPUT****

CARTESIAN COORDINATES (ANGSTROEM)
---------------------------------
  C      2.495560    1.816150   -2.136360
  C      1.872180    0.427900   -2.077500
  H      2.614270   -0.365830   -2.198890
  H      1.389950    0.273090   -1.112360
  S      0.579020    0.140470   -3.297940
  O      0.228860   -1.246870   -3.127870
  O     -0.439270    1.118970   -3.014550
  F      1.247880    0.403470   -4.595650
  H      2.965350    1.956130   -3.087470
  H      3.225810    1.912420   -1.360240
  H      1.733500    2.555280   -2.002740

 Total Charge           Charge          ....    0
 Multiplicity           Mult            ....    1
 Number of Electrons    NEL             ....   58
 Basis Dimension        Dim             ....  176

ORBITAL ENERGIES
----------------

  NO   OCC          E(Eh)            E(eV)
   0   2.0000     -90.196721     -2454.3775
   1   2.0000     -25.360311      -690.0891
   2   2.0000     -19.655282      -534.8474
   3   2.0000     -19.654936      -534.8380
   4   2.0000     -10.613886      -288.8185
   5   2.0000     -10.574463      -287.7458
   6   2.0000      -8.521072      -231.8702
   7   2.0000      -6.449340      -175.4955
   8   2.0000      -6.444405      -175.3612
   9   2.0000      -6.443295      -175.3310
  10   2.0000      -1.484089       -40.3841
  11   2.0000      -1.240512       -33.7560
  12   2.0000      -1.142278       -31.0830
  13   2.0000      -0.918496       -24.9935
  14   2.0000      -0.818343       -22.2682
  15   2.0000      -0.762719       -20.7546
  16   2.0000      -0.676751       -18.4153
  17   2.0000      -0.666047       -18.1241
  18   2.0000      -0.635508       -17.2930
  19   2.0000      -0.573480       -15.6052
  20   2.0000      -0.558562       -15.1992
  21   2.0000      -0.539376       -14.6772
  22   2.0000      -0.511470       -13.9178
  23   2.0000      -0.482527       -13.1302
  24   2.0000      -0.473241       -12.8776
  25   2.0000      -0.451367       -12.2823
  26   2.0000      -0.418874       -11.3981
  27   2.0000      -0.399732       -10.8773
  28   2.0000      -0.397167       -10.8075
  29   0.0000       0.010835         0.2948
  30   0.0000       0.038768         1.0549
  31   0.0000       0.042624         1.1599
  32   0.0000       0.044359         1.2071
  33   0.0000       0.075222         2.0469

MULLIKEN ATOMIC CHARGES
-----------------------
   0 C :    0.715971
   1 C :   -0.403939
   2 H :   -0.023614
   3 H :    0.024512
   4 S :    1.604520
   5 O :   -0.698585
   6 O :   -0.705926
   7 F :   -0.442888
   8 H :   -0.027532
   9 H :   -0.043710
  10 H :    0.001190
Sum of atomic charges:    0.0000000

LOEWDIN ATOMIC CHARGES
----------------------
   0 C :    0.131940
   1 C :   -0.089719
   2 H :    0.025951
   3 H :    0.033319
   4 S :    1.149502
   5 O :   -0.476408
   6 O :   -0.474000
   7 F :   -0.283430
   8 H :   -0.008960
   9 H :   -0.004352
  10 H :   -0.003842

  Mayer bond orders larger than 0.100000
B(  0-C ,  1-C ) :   1.3092 B(  0-C ,  8-H ) :   0.8311 B(  0-C ,  9-H ) :   0.7649
B(  0-C , 10-H ) :   0.8255 B(  1-C ,  2-H ) :   1.0338 B(  1-C ,  3-H ) :   0.9853
B(  1-C ,  4-S ) :   0.9783 B(  1-C ,  8-H ) :   0.1773 B(  1-C ,  9-H ) :   0.1994
B(  1-C , 10-H ) :   0.1923 B(  4-S ,  5-O ) :   1.5271 B(  4-S ,  6-O ) :   1.5063
B(  4-S ,  7-F ) :   0.5850

Dispersion correction           -0.000150936
FINAL SINGLE POINT ENERGY      -727.125945719741

DIPOLE MOMENT
-------------
                                X             Y             Z
Electronic contribution:     -5.01134      -3.58180      -6.53319
Nuclear contribution   :      6.54345       4.10057       6.91691
                        -----------------------------------------
Total Dipole Moment    :      1.53210       0.51877       0.38371
                        -----------------------------------------
Magnitude (a.u.)       :      1.66244
Magnitude (Debye)      :      4.22558

Rotational constants in cm-1:     0.152835     0.082826     0.080611
Rotational constants in MHz :  4581.878371  2483.049050  2416.647141

                             ****ORCA TERMINATED NORMALLY****
TOTAL RUN TIME: 0 days 0 hours 0 minutes 17 seconds 500 msec
