                         Program Version 5.0.0 -  RELEASE  -
|  1> !M062X D3Zero RIJCOSX def2-SVPD def2/J TightSCF
|  2> *xyz 0 1
|  3> C          3.38093        2.08304       -3.35013
|  4> N          4.53592        1.18245       -3.42852
|  5> C          2.49556        1.81615       -2.13636
|  6> C          4.67196        0.12227       -4.22060
|  7> N          5.86602       -0.50785       -4.22428
|  8> C          3.69888       -0.31284       -4.98699
|  9> H          2.73141       -0.05009       -4.84900
| 10> H          3.89005       -1.05517       -5.64373
| 11> H          5.25193        1.30346       -2.72101
| 12> H          6.69516       -0.06232       -3.85160
| 13> H          5.97538       -1.39688       -4.69141
| 14> H          2.80646        1.98651       -4.26848
| 15> H          3.77871        3.09828       -3.30738
| 16> H          2.11090        0.81901       -2.18783
| 17> H          1.68276        2.51198       -2.12786
| 18> H          3.07216        1.93031       -1.24227
| 19> *
| 20>
| 21> %MaxCore 64000
| 22>
| 23> %pal nprocs 4
| 24> end
| 25>
| 26> %scf
| 27>   MaxIter 150
| 28> end
| 29>
| 30>
| 31>                          ****END OF INPUT****

CARTESIAN COORDINATES (ANGSTROEM)
---------------------------------
  C      3.380930    2.083040   -3.350130
  N      4.535920    1.182450   -3.428520
  C      2.495560    1.816150   -2.136360
  C      4.671960    0.122270   -4.220600
  N      5.866020   -0.507850   -4.224280
  C      3.698880   -0.312840   -4.986990
  H      2.731410   -0.050090   -4.849000
  H      3.890050   -1.055170   -5.643730
  H      5.251930    1.303460   -2.721010
  H      6.695160   -0.062320   -3.851600
  H      5.975380   -1.396880   -4.691410
  H      2.806460    1.986510   -4.268480
  H      3.778710    3.098280   -3.307380
  H      2.110900    0.819010   -2.187830
  H      1.682760    2.511980   -2.127860
  H      3.072160    1.930310   -1.242270

 Total Charge           Charge          ....    0
 Multiplicity           Mult            ....    1
 Number of Electrons    NEL             ....   48
 Basis Dimension        Dim             ....  200

ORBITAL ENERGIES
----------------

  NO   OCC          E(Eh)            E(eV)
   0   2.0000     -14.761253      -401.6741
   1   2.0000     -14.757687      -401.5771
   2   2.0000     -10.597157      -288.3633
   3   2.0000     -10.583434      -287.9899
   4   2.0000     -10.536644      -286.7167
   5   2.0000     -10.463838      -284.7355
   6   2.0000      -1.061871       -28.8950
   7   2.0000      -0.971574       -26.4379
   8   2.0000      -0.844431       -22.9781
   9   2.0000      -0.797802       -21.7093
  10   2.0000      -0.719041       -19.5661
  11   2.0000      -0.640563       -17.4306
  12   2.0000      -0.618719       -16.8362
  13   2.0000      -0.587294       -15.9811
  14   2.0000      -0.526234       -14.3196
  15   2.0000      -0.518195       -14.1008
  16   2.0000      -0.491065       -13.3626
  17   2.0000      -0.467702       -12.7268
  18   2.0000      -0.445246       -12.1158
  19   2.0000      -0.439076       -11.9479
  20   2.0000      -0.418610       -11.3910
  21   2.0000      -0.412574       -11.2267
  22   2.0000      -0.308838        -8.4039
  23   2.0000      -0.221634        -6.0310
  24   0.0000       0.036292         0.9876
  25   0.0000       0.056825         1.5463
  26   0.0000       0.068692         1.8692
  27   0.0000       0.074243         2.0203
  28   0.0000       0.098993         2.6937

MULLIKEN ATOMIC CHARGES
-----------------------
   0 C :    0.265785
   1 N :   -0.500647
   2 C :    0.620866
   3 C :    1.060592
   4 N :   -0.070341
   5 C :    0.142532
   6 H :   -0.168707
   7 H :   -0.426122
   8 H :   -0.370040
   9 H :   -0.176860
  10 H :   -0.023030
  11 H :   -0.030659
  12 H :   -0.240574
  13 H :   -0.066306
  14 H :    0.024116
  15 H :   -0.040605
Sum of atomic charges:    0.0000000

LOEWDIN ATOMIC CHARGES
----------------------
   0 C :    0.025311
   1 N :   -0.037330
   2 C :    0.133450
   3 C :   -0.235590
   4 N :    0.170659
   5 C :    0.155281
   6 H :   -0.102036
   7 H :   -0.098396
   8 H :    0.022731
   9 H :   -0.010697
  10 H :    0.002968
  11 H :    0.013089
  12 H :    0.016796
  13 H :   -0.016484
  14 H :   -0.017851
  15 H :   -0.021901

  Mayer bond orders larger than 0.100000
B(  0-C ,  1-N ) :   0.8818 B(  0-C ,  2-C ) :   1.2334 B(  0-C ,  8-H ) :  -0.2106
B(  0-C , 11-H ) :   0.8675 B(  0-C , 12-H ) :   0.9513 B(  0-C , 13-H ) :   0.2097
B(  0-C , 14-H ) :   0.1797 B(  0-C , 15-H ) :   0.2049 B(  1-N ,  3-C ) :   0.8203
B(  1-N ,  4-N ) :   0.1787 B(  1-N ,  5-C ) :   0.3480 B(  1-N ,  8-H ) :   1.4298
B(  1-N , 11-H ) :   0.1259 B(  1-N , 12-H ) :   0.1529 B(  2-C , 13-H ) :   0.8521
B(  2-C , 14-H ) :   0.7969 B(  2-C , 15-H ) :   0.8165 B(  3-C ,  4-N ) :   0.8044
B(  3-C ,  5-C ) :   1.5254 B(  3-C ,  6-H ) :   0.1261 B(  3-C ,  7-H ) :   0.1468
B(  3-C ,  8-H ) :  -0.3132 B(  3-C ,  9-H ) :  -0.1355 B(  4-N ,  5-C ) :   0.2639
B(  4-N ,  9-H ) :   1.2391 B(  4-N , 10-H ) :   1.1395 B(  5-C ,  6-H ) :   0.7167
B(  5-C ,  7-H ) :   0.9138 B(  9-H , 10-H ) :  -0.1785

Dispersion correction           -0.000314224
FINAL SINGLE POINT ENERGY      -267.595400436201

DIPOLE MOMENT
-------------
                                X             Y             Z
Electronic contribution:      3.64710      -1.32156      -1.36315
Nuclear contribution   :     -3.02065       1.64092       1.99316
                        -----------------------------------------
Total Dipole Moment    :      0.62645       0.31936       0.63001
                        -----------------------------------------
Magnitude (a.u.)       :      0.94411
Magnitude (Debye)      :      2.39974

Rotational constants in cm-1:     0.259304     0.069422     0.060943
Rotational constants in MHz :  7773.747720  2081.225169  1827.013389

                             ****ORCA TERMINATED NORMALLY****
TOTAL RUN TIME: 0 days 0 hours 0 minutes 23 seconds 909 msec
