                         Program Version 5.0.0 -  RELEASE  -
|  1> !M062X D3Zero RIJCOSX def2-SVPD def2/J TightSCF xyzfile
|  2>
|  3> *xyzfile 0 1 D2.xyz
|  4>
|  5> %MaxCore 64000
|  6>
|  7> %pal nprocs 4
|  8> end
|  9>
| 10> %scf
| 11>   MaxIter 150
| 12> end
| 13>
| 14>
| 15>                          ****END OF INPUT****

CARTESIAN COORDINATES (ANGSTROEM)
---------------------------------
  C      3.380928    2.083045   -3.350127
  N      4.535924    1.182447   -3.428518
  C      2.495557    1.816150   -2.136364
  C      1.872181    0.427903   -2.077497
  H      2.614270   -0.365825   -2.198894
  H      1.389953    0.273087   -1.112360
  S      0.579024    0.140472   -3.297943
  C      4.671956    0.122273   -4.220598
  C      5.866023   -0.507849   -4.224284
  N      3.698881   -0.312844   -4.986988
  H      2.731405   -0.050091   -4.849000
  H      3.890046   -1.055172   -5.643730
  H      5.251933    1.303459   -2.721014
  H      6.695165   -0.062322   -3.851596
  H      5.975383   -1.396884   -4.691414
  F      0.228860   -1.246868   -3.127871
  O     -0.439269    1.118966   -3.014550
  O      1.247881    0.403474   -4.595647
  H      1.697003    2.561969   -2.141109
  H      3.080787    1.987436   -1.225838
  H      2.806463    1.986511   -4.268484
  H      3.778714    3.098282   -3.307383

 Total Charge           Charge          ....    0
 Multiplicity           Mult            ....    1
 Number of Electrons    NEL             ....   96
 Basis Dimension        Dim             ....  324

ORBITAL ENERGIES
----------------

  NO   OCC          E(Eh)            E(eV)
   0   2.0000     -90.222566     -2455.0808
   1   2.0000     -25.401011      -691.1966
   2   2.0000     -19.675504      -535.3977
   3   2.0000     -19.669468      -535.2334
   4   2.0000     -14.763648      -401.7393
   5   2.0000     -14.735876      -400.9836
   6   2.0000     -10.626084      -289.1505
   7   2.0000     -10.596178      -288.3367
   8   2.0000     -10.593121      -288.2535
   9   2.0000     -10.590371      -288.1786
  10   2.0000     -10.453348      -284.4501
  11   2.0000      -8.546360      -232.5583
  12   2.0000      -6.474748      -176.1868
  13   2.0000      -6.469751      -176.0509
  14   2.0000      -6.468331      -176.0122
  15   2.0000      -1.539268       -41.8856
  16   2.0000      -1.254532       -34.1375
  17   2.0000      -1.150500       -31.3067
  18   2.0000      -1.063421       -28.9372
  19   2.0000      -0.975563       -26.5464
  20   2.0000      -0.931374       -25.3440
  21   2.0000      -0.869079       -23.6489
  22   2.0000      -0.821705       -22.3597
  23   2.0000      -0.776321       -21.1248
  24   2.0000      -0.727038       -19.7837
  25   2.0000      -0.712632       -19.3917
  26   2.0000      -0.689974       -18.7752
  27   2.0000      -0.677385       -18.4326
  28   2.0000      -0.666377       -18.1330
  29   2.0000      -0.625719       -17.0267
  30   2.0000      -0.585763       -15.9394
  31   2.0000      -0.572752       -15.5854
  32   2.0000      -0.563864       -15.3435
  33   2.0000      -0.553113       -15.0510
  34   2.0000      -0.542475       -14.7615
  35   2.0000      -0.519608       -14.1393
  36   2.0000      -0.490423       -13.3451
  37   2.0000      -0.482189       -13.1210
  38   2.0000      -0.475388       -12.9360
  39   2.0000      -0.456690       -12.4272
  40   2.0000      -0.451587       -12.2883
  41   2.0000      -0.436471       -11.8770
  42   2.0000      -0.427668       -11.6374
  43   2.0000      -0.416134       -11.3236
  44   2.0000      -0.405568       -11.0361
  45   2.0000      -0.398567       -10.8456
  46   2.0000      -0.311028        -8.4635
  47   2.0000      -0.203549        -5.5389
  48   0.0000       0.001642         0.0447
  49   0.0000       0.024894         0.6774
  50   0.0000       0.033703         0.9171
  51   0.0000       0.036470         0.9924
  52   0.0000       0.055072         1.4986

MULLIKEN ATOMIC CHARGES
-----------------------
   0 C :    0.938136
   1 N :   -0.457790
   2 C :    0.170481
   3 C :    0.095419
   4 H :    0.163071
   5 H :   -0.136912
   6 S :    1.677389
   7 C :    0.673313
   8 C :    0.363521
   9 N :    0.555605
  10 H :   -0.455043
  11 H :   -0.195847
  12 H :   -0.257543
  13 H :   -0.406697
  14 H :   -0.271868
  15 F :   -0.448786
  16 O :   -0.725926
  17 O :   -0.873177
  18 H :    0.006326
  19 H :   -0.040045
  20 H :   -0.022587
  21 H :   -0.351038
Sum of atomic charges:   -0.0000000

LOEWDIN ATOMIC CHARGES
----------------------
   0 C :    0.080614
   1 N :   -0.016845
   2 C :   -0.006904
   3 C :   -0.036277
   4 H :    0.025015
   5 H :    0.022593
   6 S :    1.206432
   7 C :   -0.238616
   8 C :    0.140307
   9 N :    0.220620
  10 H :   -0.152398
  11 H :    0.018010
  12 H :    0.036315
  13 H :   -0.112066
  14 H :   -0.112112
  15 F :   -0.250741
  16 O :   -0.456305
  17 O :   -0.469880
  18 H :    0.033113
  19 H :    0.037845
  20 H :    0.005531
  21 H :    0.025750

  Mayer bond orders larger than 0.100000
B(  0-C ,  1-N ) :   0.9348 B(  0-C ,  2-C ) :   1.0778 B(  0-C , 12-H ) :  -0.2135
B(  0-C , 18-H ) :   0.1434 B(  0-C , 19-H ) :   0.1373 B(  0-C , 20-H ) :   0.7257
B(  0-C , 21-H ) :   0.8900 B(  1-N ,  7-C ) :   0.9721 B(  1-N ,  8-C ) :   0.2288
B(  1-N ,  9-N ) :   0.1269 B(  1-N , 12-H ) :   1.2769 B(  1-N , 20-H ) :   0.2236
B(  1-N , 21-H ) :   0.1480 B(  2-C ,  3-C ) :   1.2874 B(  2-C ,  4-H ) :   0.1375
B(  2-C ,  5-H ) :   0.1607 B(  2-C , 18-H ) :   0.8534 B(  2-C , 19-H ) :   0.8018
B(  2-C , 20-H ) :   0.1410 B(  3-C ,  4-H ) :   0.8963 B(  3-C ,  5-H ) :   0.8168
B(  3-C ,  6-S ) :   0.9211 B(  3-C , 17-O ) :   0.1332 B(  3-C , 18-H ) :   0.1139
B(  3-C , 19-H ) :   0.1139 B(  6-S , 15-F ) :   0.5972 B(  6-S , 16-O ) :   1.5134
B(  6-S , 17-O ) :   1.3473 B(  7-C ,  8-C ) :   1.4292 B(  7-C ,  9-N ) :   1.0427
B(  7-C , 10-H ) :  -0.1169 B(  7-C , 11-H ) :  -0.1181 B(  7-C , 12-H ) :  -0.2278
B(  7-C , 13-H ) :   0.1125 B(  7-C , 14-H ) :   0.2199 B(  8-C ,  9-N ) :   0.1472
B(  8-C , 13-H ) :   0.7917 B(  8-C , 14-H ) :   0.7885 B(  9-N , 10-H ) :   1.0129
B(  9-N , 11-H ) :   1.1554 B(  9-N , 17-O ) :  -0.1240 B(  9-N , 20-H ) :   0.1232
B( 10-H , 11-H ) :  -0.2276 B( 10-H , 17-O ) :   0.1127 B( 20-H , 21-H ) :  -0.1896

Dispersion correction           -0.000916393
FINAL SINGLE POINT ENERGY      -954.251045472314

DIPOLE MOMENT
-------------
                                X             Y             Z
Electronic contribution:    -16.68744      -5.23757      -0.33173
Nuclear contribution   :     16.05479       5.17692       1.74190
                        -----------------------------------------
Total Dipole Moment    :     -0.63265      -0.06065       1.41017
                        -----------------------------------------
Magnitude (a.u.)       :      1.54677
Magnitude (Debye)      :      3.93159

Rotational constants in cm-1:     0.058652     0.021107     0.018077
Rotational constants in MHz :  1758.344290   632.763813   541.920558

                             ****ORCA TERMINATED NORMALLY****
TOTAL RUN TIME: 0 days 0 hours 1 minutes 39 seconds 950 msec
