                         Program Version 5.0.0 -  RELEASE  -
|  1> !TPSS D3BJ RIJCOSX def2-SVPD def2/J TightSCF
|  2> *xyz -1 1
|  3> C          3.90595        2.81985       -3.75292
|  4> C          3.80351        1.37472       -3.26081
|  5> C          3.93993        0.32036       -4.36773
|  6> H          4.10504       -0.65508       -3.90773
|  7> H          3.02280        0.28052       -4.95712
|  8> C          5.10585        0.66802       -5.30546
|  9> H          4.57483        1.21516       -2.50044
| 10> H          2.84351        1.26085       -2.75146
| 11> O          4.80913        1.15019       -6.41436
| 12> O          6.26737        0.56500       -4.81948
| 13> H          3.15892        2.99660       -4.49832
| 14> H          4.87575        2.98549       -4.17357
| 15> H          3.75481        3.48808       -2.93101
| 16> *
| 17>
| 18> %MaxCore 64000
| 19>
| 20> %pal nprocs 4
| 21> end
| 22>
| 23> %scf
| 24>   MaxIter 150
| 25> end
| 26>
| 27>
| 28>                          ****END OF INPUT****

CARTESIAN COORDINATES (ANGSTROEM)
---------------------------------
  C      3.905950    2.819850   -3.752920
  C      3.803510    1.374720   -3.260810
  C      3.939930    0.320360   -4.367730
  H      4.105040   -0.655080   -3.907730
  H      3.022800    0.280520   -4.957120
  C      5.105850    0.668020   -5.305460
  H      4.574830    1.215160   -2.500440
  H      2.843510    1.260850   -2.751460
  O      4.809130    1.150190   -6.414360
  O      6.267370    0.565000   -4.819480
  H      3.158920    2.996600   -4.498320
  H      4.875750    2.985490   -4.173570
  H      3.754810    3.488080   -2.931010

 Total Charge           Charge          ....   -1
 Multiplicity           Mult            ....    1
 Number of Electrons    NEL             ....   48
 Basis Dimension        Dim             ....  182

ORBITAL ENERGIES
----------------

  NO   OCC          E(Eh)            E(eV)
   0   2.0000     -18.643413      -507.3131
   1   2.0000     -18.640230      -507.2264
   2   2.0000      -9.878728      -268.8139
   3   2.0000      -9.852297      -268.0946
   4   2.0000      -9.841862      -267.8107
   5   2.0000      -9.825690      -267.3706
   6   2.0000      -0.744420       -20.2567
   7   2.0000      -0.655680       -17.8420
   8   2.0000      -0.570726       -15.5303
   9   2.0000      -0.478944       -13.0327
  10   2.0000      -0.389316       -10.5938
  11   2.0000      -0.279717        -7.6115
  12   2.0000      -0.260398        -7.0858
  13   2.0000      -0.243760        -6.6330
  14   2.0000      -0.209877        -5.7110
  15   2.0000      -0.187153        -5.0927
  16   2.0000      -0.171211        -4.6589
  17   2.0000      -0.162863        -4.4317
  18   2.0000      -0.155696        -4.2367
  19   2.0000      -0.134723        -3.6660
  20   2.0000      -0.126289        -3.4365
  21   2.0000      -0.017789        -0.4841
  22   2.0000      -0.001479        -0.0403
  23   2.0000       0.011093         0.3019
  24   0.0000       0.138488         3.7685
  25   0.0000       0.163399         4.4463
  26   0.0000       0.178205         4.8492
  27   0.0000       0.189755         5.1635
  28   0.0000       0.209099         5.6899

MULLIKEN ATOMIC CHARGES
-----------------------
   0 C :    0.567192
   1 C :   -0.464528
   2 C :    0.173638
   3 H :   -0.022139
   4 H :    0.021300
   5 C :    0.373466
   6 H :    0.002990
   7 H :   -0.152987
   8 O :   -0.653630
   9 O :   -0.724002
  10 H :   -0.025364
  11 H :    0.021348
  12 H :   -0.117284
Sum of atomic charges:   -1.0000000

LOEWDIN ATOMIC CHARGES
----------------------
   0 C :    0.119919
   1 C :   -0.079716
   2 C :    0.005472
   3 H :   -0.003385
   4 H :   -0.004897
   5 C :   -0.312016
   6 H :    0.008141
   7 H :   -0.010123
   8 O :   -0.310746
   9 O :   -0.323965
  10 H :   -0.023787
  11 H :   -0.021649
  12 H :   -0.043248

  Mayer bond orders larger than 0.100000
B(  0-C ,  1-C ) :   1.3345 B(  0-C ,  7-H ) :   0.1131 B(  0-C , 10-H ) :   0.8010
B(  0-C , 11-H ) :   0.8291 B(  0-C , 12-H ) :   0.7910 B(  1-C ,  2-C ) :   1.1942
B(  1-C ,  3-H ) :   0.1360 B(  1-C ,  4-H ) :   0.1419 B(  1-C ,  6-H ) :   0.9290
B(  1-C ,  7-H ) :   0.9870 B(  1-C , 10-H ) :   0.1997 B(  1-C , 11-H ) :   0.2030
B(  1-C , 12-H ) :   0.2160 B(  2-C ,  3-H ) :   0.8596 B(  2-C ,  4-H ) :   0.8801
B(  2-C ,  5-C ) :   1.0274 B(  2-C ,  6-H ) :   0.1011 B(  3-H ,  5-C ) :   0.1253
B(  4-H ,  5-C ) :   0.1740 B(  5-C ,  8-O ) :   1.4634 B(  5-C ,  9-O ) :   1.4379

Dispersion correction           -0.012432045
FINAL SINGLE POINT ENERGY      -307.001338584524

DIPOLE MOMENT
-------------
                                X             Y             Z
Electronic contribution:      4.21009      -2.83689      -4.86971
Nuclear contribution   :     -5.80393       3.20473       6.46101
                        -----------------------------------------
Total Dipole Moment    :     -1.59384       0.36783       1.59130
                        -----------------------------------------
Magnitude (a.u.)       :      2.28207
Magnitude (Debye)      :      5.80057

Rotational constants in cm-1:     0.184459     0.088019     0.082330
Rotational constants in MHz :  5529.929668  2638.753248  2468.201746

                             ****ORCA TERMINATED NORMALLY****
TOTAL RUN TIME: 0 days 0 hours 0 minutes 9 seconds 697 msec
