                         Program Version 5.0.0 -  RELEASE  -
|  1> !TPSS D3BJ RIJCOSX def2-SVPD def2/J TightSCF
|  2> *xyz 1 1
|  3> C          3.90595        2.81985       -3.75292
|  4> N          5.29562        3.13151       -4.10533
|  5> C          3.80351        1.37472       -3.26081
|  6> C          3.93993        0.32036       -4.36773
|  7> C          5.70862        3.46889       -5.32419
|  8> N          6.90470        3.03895       -5.71708
|  9> N          4.98188        4.29357       -6.09746
| 10> H          5.00055        4.10131       -7.08776
| 11> H          4.08469        4.59690       -5.73965
| 12> H          5.96336        2.52611       -3.64239
| 13> H          7.04716        2.06686       -5.47360
| 14> H          7.19815        3.30799       -6.64523
| 15> H          3.28202        2.94919       -4.64026
| 16> H          3.56525        3.51457       -2.98252
| 17> H          4.57483        1.21516       -2.50044
| 18> H          2.84351        1.26085       -2.75146
| 19> H          3.18417        0.48061       -5.10803
| 20> H          3.82485       -0.65632       -3.94614
| 21> H          4.90589        0.40174       -4.82073
| 22> *
| 23>
| 24> %MaxCore 64000
| 25>
| 26> %pal nprocs 4
| 27> end
| 28>
| 29> %scf
| 30>   MaxIter 150
| 31> end
| 32>
| 33>
| 34>                          ****END OF INPUT****

CARTESIAN COORDINATES (ANGSTROEM)
---------------------------------
  C      3.905950    2.819850   -3.752920
  N      5.295620    3.131510   -4.105330
  C      3.803510    1.374720   -3.260810
  C      3.939930    0.320360   -4.367730
  C      5.708620    3.468890   -5.324190
  N      6.904700    3.038950   -5.717080
  N      4.981880    4.293570   -6.097460
  H      5.000550    4.101310   -7.087760
  H      4.084690    4.596900   -5.739650
  H      5.963360    2.526110   -3.642390
  H      7.047160    2.066860   -5.473600
  H      7.198150    3.307990   -6.645230
  H      3.282020    2.949190   -4.640260
  H      3.565250    3.514570   -2.982520
  H      4.574830    1.215160   -2.500440
  H      2.843510    1.260850   -2.751460
  H      3.184170    0.480610   -5.108030
  H      3.824850   -0.656320   -3.946140
  H      4.905890    0.401740   -4.820730

 Total Charge           Charge          ....    1
 Multiplicity           Mult            ....    1
 Number of Electrons    NEL             ....   56
 Basis Dimension        Dim             ....  236

ORBITAL ENERGIES
----------------

  NO   OCC          E(Eh)            E(eV)
   0   2.0000     -14.343323      -390.3017
   1   2.0000     -14.341923      -390.2636
   2   2.0000     -14.340482      -390.2244
   3   2.0000     -10.322913      -280.9007
   4   2.0000     -10.207364      -277.7565
   5   2.0000     -10.153363      -276.2871
   6   2.0000     -10.129921      -275.6492
   7   2.0000      -1.142957       -31.1014
   8   2.0000      -1.036780       -28.2122
   9   2.0000      -1.029716       -28.0200
  10   2.0000      -0.882296       -24.0085
  11   2.0000      -0.807734       -21.9796
  12   2.0000      -0.768683       -20.9169
  13   2.0000      -0.732157       -19.9230
  14   2.0000      -0.715438       -19.4681
  15   2.0000      -0.688481       -18.7345
  16   2.0000      -0.654532       -17.8107
  17   2.0000      -0.642832       -17.4924
  18   2.0000      -0.602922       -16.4063
  19   2.0000      -0.590610       -16.0713
  20   2.0000      -0.548406       -14.9229
  21   2.0000      -0.544405       -14.8140
  22   2.0000      -0.520822       -14.1723
  23   2.0000      -0.476547       -12.9675
  24   2.0000      -0.460481       -12.5303
  25   2.0000      -0.459494       -12.5035
  26   2.0000      -0.448603       -12.2071
  27   2.0000      -0.420578       -11.4445
  28   0.0000      -0.218260        -5.9391
  29   0.0000      -0.166239        -4.5236
  30   0.0000      -0.137004        -3.7281
  31   0.0000      -0.120715        -3.2848
  32   0.0000      -0.106522        -2.8986

MULLIKEN ATOMIC CHARGES
-----------------------
   0 C :    0.714144
   1 N :   -0.388553
   2 C :   -0.349390
   3 C :    0.767868
   4 C :    0.916969
   5 N :    0.015923
   6 N :   -0.010107
   7 H :   -0.022431
   8 H :    0.037968
   9 H :   -0.089440
  10 H :   -0.017822
  11 H :    0.020812
  12 H :   -0.001948
  13 H :   -0.285465
  14 H :   -0.016002
  15 H :   -0.073673
  16 H :    0.052951
  17 H :   -0.013672
  18 H :   -0.258132
Sum of atomic charges:    1.0000000

LOEWDIN ATOMIC CHARGES
----------------------
   0 C :    0.082556
   1 N :    0.061868
   2 C :   -0.036202
   3 C :    0.155926
   4 C :   -0.057468
   5 N :    0.276415
   6 N :    0.286710
   7 H :    0.036096
   8 H :    0.023745
   9 H :    0.042257
  10 H :    0.030057
  11 H :    0.035817
  12 H :    0.021003
  13 H :    0.033805
  14 H :    0.025143
  15 H :    0.034980
  16 H :   -0.011582
  17 H :   -0.003670
  18 H :   -0.037456

  Mayer bond orders larger than 0.100000
B(  0-C ,  1-N ) :   0.8745 B(  0-C ,  2-C ) :   1.1424 B(  0-C , 12-H ) :   0.7723
B(  0-C , 13-H ) :   0.9525 B(  0-C , 15-H ) :   0.1422 B(  1-N ,  2-C ) :   0.1148
B(  1-N ,  4-C ) :   1.1465 B(  1-N ,  5-N ) :   0.2118 B(  1-N ,  6-N ) :   0.1096
B(  1-N ,  9-H ) :   1.1154 B(  1-N , 12-H ) :   0.1106 B(  1-N , 13-H ) :   0.1267
B(  2-C ,  3-C ) :   1.2450 B(  2-C , 14-H ) :   0.9357 B(  2-C , 15-H ) :   0.9742
B(  2-C , 16-H ) :   0.1918 B(  2-C , 17-H ) :   0.1973 B(  2-C , 18-H ) :   0.2251
B(  3-C , 16-H ) :   0.7552 B(  3-C , 17-H ) :   0.7710 B(  3-C , 18-H ) :   0.8382
B(  4-C ,  5-N ) :   0.9510 B(  4-C ,  6-N ) :   0.9534 B(  4-C ,  9-H ) :  -0.1652
B(  5-N ,  6-N ) :   0.1395 B(  5-N , 10-H ) :   1.0299 B(  5-N , 11-H ) :   0.9833
B(  6-N ,  7-H ) :   1.1472 B(  6-N ,  8-H ) :   0.9368 B(  7-H ,  8-H ) :  -0.1128
B( 16-H , 18-H ) :   0.1147

Dispersion correction           -0.019581840
FINAL SINGLE POINT ENERGY      -323.557099923561

DIPOLE MOMENT
-------------
                                X             Y             Z
Electronic contribution:      4.02090       5.70727      -2.02863
Nuclear contribution   :     -3.60155      -5.39511       0.90505
                        -----------------------------------------
Total Dipole Moment    :      0.41935       0.31216      -1.12358
                        -----------------------------------------
Magnitude (a.u.)       :      1.23924
Magnitude (Debye)      :      3.14991

Rotational constants in cm-1:     0.145371     0.050507     0.045444
Rotational constants in MHz :  4358.114605  1514.164418  1362.368391

                             ****ORCA TERMINATED NORMALLY****
TOTAL RUN TIME: 0 days 0 hours 0 minutes 16 seconds 493 msec
