                         Program Version 5.0.0 -  RELEASE  -
|  1> !TPSS D3BJ RIJCOSX def2-SVPD def2/J TightSCF
|  2> *xyz 0 1
|  3> C          3.90595        2.81985       -3.75292
|  4> C          3.80351        1.37472       -3.26081
|  5> C          3.93993        0.32036       -4.36773
|  6> H          4.10504       -0.65508       -3.90773
|  7> H          3.02280        0.28052       -4.95712
|  8> C          5.10585        0.66802       -5.30546
|  9> H          4.57483        1.21516       -2.50044
| 10> H          2.84351        1.26085       -2.75146
| 11> F          4.80913        1.15019       -6.41436
| 12> O          6.26737        0.56500       -4.81948
| 13> H          3.15892        2.99660       -4.49832
| 14> H          4.87575        2.98549       -4.17357
| 15> H          3.75481        3.48808       -2.93101
| 16> *
| 17>
| 18> %MaxCore 64000
| 19>
| 20> %pal nprocs 4
| 21> end
| 22>
| 23> %scf
| 24>   MaxIter 150
| 25> end
| 26>
| 27>
| 28>                          ****END OF INPUT****

CARTESIAN COORDINATES (ANGSTROEM)
---------------------------------
  C      3.905950    2.819850   -3.752920
  C      3.803510    1.374720   -3.260810
  C      3.939930    0.320360   -4.367730
  H      4.105040   -0.655080   -3.907730
  H      3.022800    0.280520   -4.957120
  C      5.105850    0.668020   -5.305460
  H      4.574830    1.215160   -2.500440
  H      2.843510    1.260850   -2.751460
  F      4.809130    1.150190   -6.414360
  O      6.267370    0.565000   -4.819480
  H      3.158920    2.996600   -4.498320
  H      4.875750    2.985490   -4.173570
  H      3.754810    3.488080   -2.931010

 Total Charge           Charge          ....    0
 Multiplicity           Mult            ....    1
 Number of Electrons    NEL             ....   48
 Basis Dimension        Dim             ....  182

ORBITAL ENERGIES
----------------

  NO   OCC          E(Eh)            E(eV)
   0   2.0000     -24.501275      -666.7136
   1   2.0000     -18.905705      -514.4504
   2   2.0000     -10.171624      -276.7839
   3   2.0000     -10.030638      -272.9475
   4   2.0000     -10.018102      -272.6064
   5   2.0000      -9.997707      -272.0514
   6   2.0000      -1.233544       -33.5664
   7   2.0000      -0.950442       -25.8628
   8   2.0000      -0.750470       -20.4213
   9   2.0000      -0.668799       -18.1990
  10   2.0000      -0.608251       -16.5514
  11   2.0000      -0.560249       -15.2451
  12   2.0000      -0.500669       -13.6239
  13   2.0000      -0.481695       -13.1076
  14   2.0000      -0.459377       -12.5003
  15   2.0000      -0.423825       -11.5329
  16   2.0000      -0.414238       -11.2720
  17   2.0000      -0.380435       -10.3521
  18   2.0000      -0.358320        -9.7504
  19   2.0000      -0.337184        -9.1752
  20   2.0000      -0.320615        -8.7244
  21   2.0000      -0.314480        -8.5574
  22   2.0000      -0.308110        -8.3841
  23   2.0000      -0.247017        -6.7217
  24   0.0000      -0.067017        -1.8236
  25   0.0000       0.004451         0.1211
  26   0.0000       0.033696         0.9169
  27   0.0000       0.037091         1.0093
  28   0.0000       0.047840         1.3018

MULLIKEN ATOMIC CHARGES
-----------------------
   0 C :    0.577061
   1 C :   -0.396300
   2 C :    0.108855
   3 H :    0.014533
   4 H :    0.049417
   5 C :    0.793721
   6 H :    0.012616
   7 H :   -0.116332
   8 F :   -0.362680
   9 O :   -0.555683
  10 H :   -0.032273
  11 H :   -0.009285
  12 H :   -0.083649
Sum of atomic charges:   -0.0000000

LOEWDIN ATOMIC CHARGES
----------------------
   0 C :    0.137304
   1 C :   -0.050917
   2 C :    0.052270
   3 H :    0.031102
   4 H :    0.018132
   5 C :   -0.023997
   6 H :    0.026461
   7 H :    0.018071
   8 F :   -0.019177
   9 O :   -0.133857
  10 H :   -0.016012
  11 H :   -0.021459
  12 H :   -0.017921

  Mayer bond orders larger than 0.100000
B(  0-C ,  1-C ) :   1.3560 B(  0-C ,  7-H ) :   0.1066 B(  0-C , 10-H ) :   0.8086
B(  0-C , 11-H ) :   0.8403 B(  0-C , 12-H ) :   0.7965 B(  1-C ,  2-C ) :   1.2118
B(  1-C ,  3-H ) :   0.1307 B(  1-C ,  4-H ) :   0.1339 B(  1-C ,  6-H ) :   0.9250
B(  1-C ,  7-H ) :   0.9778 B(  1-C , 10-H ) :   0.1849 B(  1-C , 11-H ) :   0.1861
B(  1-C , 12-H ) :   0.1981 B(  2-C ,  3-H ) :   0.8567 B(  2-C ,  4-H ) :   0.8806
B(  2-C ,  5-C ) :   1.0618 B(  5-C ,  8-F ) :   0.6894 B(  5-C ,  9-O ) :   1.7250
B(  8-F ,  9-O ) :   0.1109

Dispersion correction           -0.011903123
FINAL SINGLE POINT ENERGY      -331.531768177664

DIPOLE MOMENT
-------------
                                X             Y             Z
Electronic contribution:      4.84021      -3.18711      -8.24492
Nuclear contribution   :     -5.98367       3.22001       8.44002
                        -----------------------------------------
Total Dipole Moment    :     -1.14346       0.03290       0.19510
                        -----------------------------------------
Magnitude (a.u.)       :      1.16045
Magnitude (Debye)      :      2.94964

Rotational constants in cm-1:     0.177409     0.085514     0.078973
Rotational constants in MHz :  5318.577687  2563.657993  2367.557452

                             ****ORCA TERMINATED NORMALLY****
TOTAL RUN TIME: 0 days 0 hours 0 minutes 9 seconds 918 msec
