                         Program Version 5.0.0 -  RELEASE  -
|  1> !TPSS D3BJ RIJCOSX def2-SVPD def2/J TightSCF
|  2> *xyz 0 1
|  3> C          3.90595        2.81985       -3.75292
|  4> C          5.29562        3.13151       -4.10533
|  5> C          3.80351        1.37472       -3.26081
|  6> C          3.93993        0.32036       -4.36773
|  7> C          5.70862        3.46889       -5.32419
|  8> N          6.90470        3.03895       -5.71708
|  9> N          4.98188        4.29357       -6.09746
| 10> H          5.00055        4.10131       -7.08776
| 11> H          4.08469        4.59690       -5.73965
| 12> H          5.96336        2.52611       -3.64239
| 13> H          7.04716        2.06686       -5.47360
| 14> H          7.19815        3.30799       -6.64523
| 15> H          3.28202        2.94919       -4.64026
| 16> H          3.56525        3.51457       -2.98252
| 17> H          4.57483        1.21516       -2.50044
| 18> H          2.84351        1.26085       -2.75146
| 19> H          3.18417        0.48061       -5.10803
| 20> H          3.82485       -0.65632       -3.94614
| 21> H          4.90589        0.40174       -4.82073
| 22> *
| 23>
| 24> %MaxCore 64000
| 25>
| 26> %pal nprocs 4
| 27> end
| 28>
| 29> %scf
| 30>   MaxIter 150
| 31> end
| 32>
| 33>
| 34>                          ****END OF INPUT****

CARTESIAN COORDINATES (ANGSTROEM)
---------------------------------
  C      3.905950    2.819850   -3.752920
  C      5.295620    3.131510   -4.105330
  C      3.803510    1.374720   -3.260810
  C      3.939930    0.320360   -4.367730
  C      5.708620    3.468890   -5.324190
  N      6.904700    3.038950   -5.717080
  N      4.981880    4.293570   -6.097460
  H      5.000550    4.101310   -7.087760
  H      4.084690    4.596900   -5.739650
  H      5.963360    2.526110   -3.642390
  H      7.047160    2.066860   -5.473600
  H      7.198150    3.307990   -6.645230
  H      3.282020    2.949190   -4.640260
  H      3.565250    3.514570   -2.982520
  H      4.574830    1.215160   -2.500440
  H      2.843510    1.260850   -2.751460
  H      3.184170    0.480610   -5.108030
  H      3.824850   -0.656320   -3.946140
  H      4.905890    0.401740   -4.820730

 Total Charge           Charge          ....    0
 Multiplicity           Mult            ....    1
 Number of Electrons    NEL             ....   56
 Basis Dimension        Dim             ....  236

ORBITAL ENERGIES
----------------

  NO   OCC          E(Eh)            E(eV)
   0   2.0000     -14.123881      -384.3303
   1   2.0000     -14.121054      -384.2534
   2   2.0000     -10.036048      -273.0948
   3   2.0000      -9.984560      -271.6937
   4   2.0000      -9.979843      -271.5653
   5   2.0000      -9.978733      -271.5351
   6   2.0000      -9.926860      -270.1236
   7   2.0000      -0.892773       -24.2936
   8   2.0000      -0.809801       -22.0358
   9   2.0000      -0.725432       -19.7400
  10   2.0000      -0.662326       -18.0228
  11   2.0000      -0.603803       -16.4303
  12   2.0000      -0.542396       -14.7593
  13   2.0000      -0.520100       -14.1526
  14   2.0000      -0.489824       -13.3288
  15   2.0000      -0.467382       -12.7181
  16   2.0000      -0.435805       -11.8589
  17   2.0000      -0.404557       -11.0086
  18   2.0000      -0.396495       -10.7892
  19   2.0000      -0.374790       -10.1986
  20   2.0000      -0.345114        -9.3910
  21   2.0000      -0.331579        -9.0227
  22   2.0000      -0.314474        -8.5573
  23   2.0000      -0.296535        -8.0691
  24   2.0000      -0.285180        -7.7601
  25   2.0000      -0.278791        -7.5863
  26   2.0000      -0.235586        -6.4106
  27   2.0000      -0.142341        -3.8733
  28   0.0000      -0.003168        -0.0862
  29   0.0000       0.023211         0.6316
  30   0.0000       0.028988         0.7888
  31   0.0000       0.034447         0.9374
  32   0.0000       0.051415         1.3991

MULLIKEN ATOMIC CHARGES
-----------------------
   0 C :    0.330498
   1 C :   -0.099441
   2 C :   -0.274675
   3 C :    0.789006
   4 C :    0.281731
   5 N :    0.093851
   6 N :   -0.014838
   7 H :   -0.097143
   8 H :    0.030589
   9 H :   -0.182380
  10 H :   -0.022928
  11 H :   -0.103147
  12 H :   -0.150995
  13 H :   -0.182232
  14 H :   -0.041396
  15 H :   -0.114825
  16 H :    0.030671
  17 H :   -0.019252
  18 H :   -0.253096
Sum of atomic charges:    0.0000000

LOEWDIN ATOMIC CHARGES
----------------------
   0 C :   -0.059316
   1 C :   -0.011525
   2 C :   -0.068772
   3 C :    0.138458
   4 C :   -0.240314
   5 N :    0.194348
   6 N :    0.202368
   7 H :   -0.014699
   8 H :   -0.007158
   9 H :   -0.057181
  10 H :   -0.003267
  11 H :   -0.013471
  12 H :   -0.001507
  13 H :    0.003705
  14 H :    0.014499
  15 H :    0.008425
  16 H :   -0.023187
  17 H :   -0.025731
  18 H :   -0.035675

  Mayer bond orders larger than 0.100000
B(  0-C ,  1-C ) :   0.9277 B(  0-C ,  2-C ) :   1.1902 B(  0-C ,  9-H ) :   0.1970
B(  0-C , 12-H ) :   0.8062 B(  0-C , 13-H ) :   0.8813 B(  0-C , 14-H ) :   0.1399
B(  0-C , 15-H ) :   0.1809 B(  1-C ,  4-C ) :   1.8433 B(  1-C ,  5-N ) :   0.3227
B(  1-C ,  6-N ) :   0.1810 B(  1-C ,  9-H ) :   0.5737 B(  1-C , 12-H ) :   0.1171
B(  1-C , 13-H ) :   0.1518 B(  2-C ,  3-C ) :   1.2164 B(  2-C , 14-H ) :   0.9304
B(  2-C , 15-H ) :   0.9338 B(  2-C , 16-H ) :   0.2001 B(  2-C , 17-H ) :   0.1916
B(  2-C , 18-H ) :   0.2468 B(  3-C , 16-H ) :   0.7597 B(  3-C , 17-H ) :   0.7486
B(  3-C , 18-H ) :   0.8518 B(  4-C ,  5-N ) :   0.9270 B(  4-C ,  6-N ) :   0.9613
B(  4-C ,  9-H ) :   0.3281 B(  5-N ,  6-N ) :   0.1221 B(  5-N , 10-H ) :   1.0090
B(  5-N , 11-H ) :   0.9451 B(  6-N ,  7-H ) :   1.1230 B(  6-N ,  8-H ) :   0.9525
B( 16-H , 18-H ) :   0.1079

Dispersion correction           -0.020285004
FINAL SINGLE POINT ENERGY      -307.083433854342

DIPOLE MOMENT
-------------
                                X             Y             Z
Electronic contribution:      3.44068       4.96033      -2.10004
Nuclear contribution   :     -3.52450      -5.28471       1.03374
                        -----------------------------------------
Total Dipole Moment    :     -0.08383      -0.32438      -1.06630
                        -----------------------------------------
Magnitude (a.u.)       :      1.11770
Magnitude (Debye)      :      2.84096

Rotational constants in cm-1:     0.147126     0.050704     0.045476
Rotational constants in MHz :  4410.719889  1520.080198  1363.327077

                             ****ORCA TERMINATED NORMALLY****
TOTAL RUN TIME: 0 days 0 hours 0 minutes 16 seconds 841 msec
