                         Program Version 5.0.0 -  RELEASE  -
|  1> !TPSS D3BJ RIJCOSX def2-SVPD def2/J TightSCF
|  2> *xyz 0 1
|  3> C          3.90595        2.81985       -3.75292
|  4> C          3.80351        1.37472       -3.26081
|  5> C          3.93993        0.32036       -4.36773
|  6> H          4.10504       -0.65508       -3.90773
|  7> H          3.02280        0.28052       -4.95712
|  8> C          5.10585        0.66802       -5.30546
|  9> H          4.57483        1.21516       -2.50044
| 10> H          2.84351        1.26085       -2.75146
| 11> O          4.80913        1.15019       -6.41436
| 12> F          6.26737        0.56500       -4.81948
| 13> H          3.15892        2.99660       -4.49832
| 14> H          4.87575        2.98549       -4.17357
| 15> H          3.75481        3.48808       -2.93101
| 16> *
| 17>
| 18> %MaxCore 64000
| 19>
| 20> %pal nprocs 4
| 21> end
| 22>
| 23> %scf
| 24>   MaxIter 150
| 25> end
| 26>
| 27>
| 28>                          ****END OF INPUT****

CARTESIAN COORDINATES (ANGSTROEM)
---------------------------------
  C      3.905950    2.819850   -3.752920
  C      3.803510    1.374720   -3.260810
  C      3.939930    0.320360   -4.367730
  H      4.105040   -0.655080   -3.907730
  H      3.022800    0.280520   -4.957120
  C      5.105850    0.668020   -5.305460
  H      4.574830    1.215160   -2.500440
  H      2.843510    1.260850   -2.751460
  O      4.809130    1.150190   -6.414360
  F      6.267370    0.565000   -4.819480
  H      3.158920    2.996600   -4.498320
  H      4.875750    2.985490   -4.173570
  H      3.754810    3.488080   -2.931010

 Total Charge           Charge          ....    0
 Multiplicity           Mult            ....    1
 Number of Electrons    NEL             ....   48
 Basis Dimension        Dim             ....  182

ORBITAL ENERGIES
----------------

  NO   OCC          E(Eh)            E(eV)
   0   2.0000     -24.494847      -666.5387
   1   2.0000     -18.908279      -514.5204
   2   2.0000     -10.169711      -276.7319
   3   2.0000     -10.030103      -272.9330
   4   2.0000     -10.020059      -272.6597
   5   2.0000      -9.996268      -272.0123
   6   2.0000      -1.220313       -33.2064
   7   2.0000      -0.961014       -26.1505
   8   2.0000      -0.751542       -20.4505
   9   2.0000      -0.667225       -18.1561
  10   2.0000      -0.600843       -16.3498
  11   2.0000      -0.560221       -15.2444
  12   2.0000      -0.495583       -13.4855
  13   2.0000      -0.481211       -13.0944
  14   2.0000      -0.447087       -12.1658
  15   2.0000      -0.430767       -11.7218
  16   2.0000      -0.414033       -11.2664
  17   2.0000      -0.378522       -10.3001
  18   2.0000      -0.356731        -9.7071
  19   2.0000      -0.336221        -9.1491
  20   2.0000      -0.327128        -8.9016
  21   2.0000      -0.317094        -8.6286
  22   2.0000      -0.313079        -8.5193
  23   2.0000      -0.248004        -6.7485
  24   0.0000      -0.063255        -1.7213
  25   0.0000       0.002134         0.0581
  26   0.0000       0.034728         0.9450
  27   0.0000       0.039314         1.0698
  28   0.0000       0.045035         1.2255

MULLIKEN ATOMIC CHARGES
-----------------------
   0 C :    0.597837
   1 C :   -0.430294
   2 C :    0.130547
   3 H :    0.010294
   4 H :    0.039919
   5 C :    0.795849
   6 H :   -0.009300
   7 H :   -0.114756
   8 O :   -0.502886
   9 F :   -0.410854
  10 H :   -0.010157
  11 H :    0.001024
  12 H :   -0.097224
Sum of atomic charges:    0.0000000

LOEWDIN ATOMIC CHARGES
----------------------
   0 C :    0.138868
   1 C :   -0.056490
   2 C :    0.054939
   3 H :    0.022771
   4 H :    0.030400
   5 C :   -0.024442
   6 H :    0.020109
   7 H :    0.018651
   8 O :   -0.123439
   9 F :   -0.030056
  10 H :   -0.010209
  11 H :   -0.022067
  12 H :   -0.019036

  Mayer bond orders larger than 0.100000
B(  0-C ,  1-C ) :   1.3571 B(  0-C ,  7-H ) :   0.1043 B(  0-C , 10-H ) :   0.8048
B(  0-C , 11-H ) :   0.8351 B(  0-C , 12-H ) :   0.7884 B(  1-C ,  2-C ) :   1.1933
B(  1-C ,  3-H ) :   0.1338 B(  1-C ,  4-H ) :   0.1309 B(  1-C ,  6-H ) :   0.9315
B(  1-C ,  7-H ) :   0.9738 B(  1-C , 10-H ) :   0.1905 B(  1-C , 11-H ) :   0.1840
B(  1-C , 12-H ) :   0.2059 B(  2-C ,  3-H ) :   0.8565 B(  2-C ,  4-H ) :   0.8990
B(  2-C ,  5-C ) :   1.0355 B(  4-H ,  5-C ) :   0.1133 B(  5-C ,  8-O ) :   1.7527
B(  5-C ,  9-F ) :   0.6508 B(  8-O ,  9-F ) :   0.1150

Dispersion correction           -0.011898306
FINAL SINGLE POINT ENERGY      -331.536853241701

DIPOLE MOMENT
-------------
                                X             Y             Z
Electronic contribution:      7.27571      -4.16930      -5.57106
Nuclear contribution   :     -7.63086       3.88103       6.63849
                        -----------------------------------------
Total Dipole Moment    :     -0.35515      -0.28827       1.06742
                        -----------------------------------------
Magnitude (a.u.)       :      1.16130
Magnitude (Debye)      :      2.95179

Rotational constants in cm-1:     0.177064     0.085023     0.079676
Rotational constants in MHz :  5308.232158  2548.918275  2388.614336

                             ****ORCA TERMINATED NORMALLY****
TOTAL RUN TIME: 0 days 0 hours 0 minutes 9 seconds 308 msec
