                         Program Version 5.0.0 -  RELEASE  -
|  1> !TPSS D3BJ RIJCOSX def2-SVPD def2/J TightSCF
|  2> *xyz 0 1
|  3> C          3.90595        2.81985       -3.75292
|  4> N          5.29562        3.13151       -4.10533
|  5> C          3.80351        1.37472       -3.26081
|  6> C          3.93993        0.32036       -4.36773
|  7> C          5.70862        3.46889       -5.32419
|  8> C          6.90470        3.03895       -5.71708
|  9> N          4.98188        4.29357       -6.09746
| 10> H          5.00055        4.10131       -7.08776
| 11> H          4.08469        4.59690       -5.73965
| 12> H          5.96336        2.52611       -3.64239
| 13> H          7.04716        2.06686       -5.47360
| 14> H          7.19815        3.30799       -6.64523
| 15> H          3.28202        2.94919       -4.64026
| 16> H          3.56525        3.51457       -2.98252
| 17> H          4.57483        1.21516       -2.50044
| 18> H          2.84351        1.26085       -2.75146
| 19> H          3.18417        0.48061       -5.10803
| 20> H          3.82485       -0.65632       -3.94614
| 21> H          4.90589        0.40174       -4.82073
| 22> *
| 23>
| 24> %MaxCore 64000
| 25>
| 26> %pal nprocs 4
| 27> end
| 28>
| 29> %scf
| 30>   MaxIter 150
| 31> end
| 32>
| 33>
| 34>                          ****END OF INPUT****

CARTESIAN COORDINATES (ANGSTROEM)
---------------------------------
  C      3.905950    2.819850   -3.752920
  N      5.295620    3.131510   -4.105330
  C      3.803510    1.374720   -3.260810
  C      3.939930    0.320360   -4.367730
  C      5.708620    3.468890   -5.324190
  C      6.904700    3.038950   -5.717080
  N      4.981880    4.293570   -6.097460
  H      5.000550    4.101310   -7.087760
  H      4.084690    4.596900   -5.739650
  H      5.963360    2.526110   -3.642390
  H      7.047160    2.066860   -5.473600
  H      7.198150    3.307990   -6.645230
  H      3.282020    2.949190   -4.640260
  H      3.565250    3.514570   -2.982520
  H      4.574830    1.215160   -2.500440
  H      2.843510    1.260850   -2.751460
  H      3.184170    0.480610   -5.108030
  H      3.824850   -0.656320   -3.946140
  H      4.905890    0.401740   -4.820730

 Total Charge           Charge          ....    0
 Multiplicity           Mult            ....    1
 Number of Electrons    NEL             ....   56
 Basis Dimension        Dim             ....  236

ORBITAL ENERGIES
----------------

  NO   OCC          E(Eh)            E(eV)
   0   2.0000     -14.122717      -384.2987
   1   2.0000     -14.119029      -384.1983
   2   2.0000     -10.039244      -273.1817
   3   2.0000     -10.038828      -273.1704
   4   2.0000     -10.011171      -272.4178
   5   2.0000      -9.995561      -271.9930
   6   2.0000      -9.914232      -269.7800
   7   2.0000      -0.896313       -24.3899
   8   2.0000      -0.819933       -22.3115
   9   2.0000      -0.728439       -19.8218
  10   2.0000      -0.667011       -18.1503
  11   2.0000      -0.616824       -16.7846
  12   2.0000      -0.554107       -15.0780
  13   2.0000      -0.544009       -14.8032
  14   2.0000      -0.488522       -13.2934
  15   2.0000      -0.454566       -12.3694
  16   2.0000      -0.433625       -11.7995
  17   2.0000      -0.423100       -11.5131
  18   2.0000      -0.405551       -11.0356
  19   2.0000      -0.370568       -10.0837
  20   2.0000      -0.356709        -9.7065
  21   2.0000      -0.347654        -9.4601
  22   2.0000      -0.328371        -8.9354
  23   2.0000      -0.318787        -8.6746
  24   2.0000      -0.317477        -8.6390
  25   2.0000      -0.297579        -8.0975
  26   2.0000      -0.223091        -6.0706
  27   2.0000      -0.144205        -3.9240
  28   0.0000       0.000601         0.0164
  29   0.0000       0.018329         0.4988
  30   0.0000       0.025370         0.6903
  31   0.0000       0.032931         0.8961
  32   0.0000       0.040271         1.0958

MULLIKEN ATOMIC CHARGES
-----------------------
   0 C :    0.688788
   1 N :   -0.380865
   2 C :   -0.366240
   3 C :    0.769694
   4 C :    0.265532
   5 C :    0.420421
   6 N :    0.046423
   7 H :   -0.040123
   8 H :   -0.055322
   9 H :   -0.047504
  10 H :   -0.289289
  11 H :   -0.280412
  12 H :   -0.030974
  13 H :   -0.326806
  14 H :   -0.032968
  15 H :   -0.112108
  16 H :    0.044534
  17 H :   -0.030813
  18 H :   -0.241966
Sum of atomic charges:   -0.0000000

LOEWDIN ATOMIC CHARGES
----------------------
   0 C :    0.050012
   1 N :    0.000717
   2 C :   -0.058102
   3 C :    0.144460
   4 C :   -0.247612
   5 C :    0.149445
   6 N :    0.205821
   7 H :    0.002849
   8 H :   -0.021085
   9 H :    0.016601
  10 H :   -0.109908
  11 H :   -0.105780
  12 H :    0.007403
  13 H :    0.008201
  14 H :    0.014678
  15 H :    0.013265
  16 H :   -0.020584
  17 H :   -0.021743
  18 H :   -0.028639

  Mayer bond orders larger than 0.100000
B(  0-C ,  1-N ) :   0.8795 B(  0-C ,  2-C ) :   1.1352 B(  0-C , 12-H ) :   0.7738
B(  0-C , 13-H ) :   0.9365 B(  0-C , 15-H ) :   0.1485 B(  1-N ,  2-C ) :   0.1119
B(  1-N ,  4-C ) :   1.1404 B(  1-N ,  5-C ) :   0.2324 B(  1-N ,  9-H ) :   1.0470
B(  1-N , 12-H ) :   0.1232 B(  1-N , 13-H ) :   0.1327 B(  2-C ,  3-C ) :   1.2420
B(  2-C , 14-H ) :   0.9274 B(  2-C , 15-H ) :   0.9817 B(  2-C , 16-H ) :   0.1976
B(  2-C , 17-H ) :   0.2069 B(  2-C , 18-H ) :   0.2420 B(  3-C , 16-H ) :   0.7377
B(  3-C , 17-H ) :   0.7522 B(  3-C , 18-H ) :   0.8516 B(  4-C ,  5-C ) :   1.7003
B(  4-C ,  6-N ) :   0.9123 B(  4-C ,  9-H ) :  -0.1281 B(  4-C , 10-H ) :   0.1894
B(  4-C , 11-H ) :   0.3429 B(  5-C ,  6-N ) :   0.2560 B(  5-C , 10-H ) :   0.9073
B(  5-C , 11-H ) :   0.5342 B(  6-N ,  7-H ) :   1.1026 B(  6-N ,  8-H ) :   0.8964
B(  6-N , 11-H ) :   0.1190 B(  7-H ,  8-H ) :  -0.1085 B( 10-H , 11-H ) :   0.1364
B( 16-H , 18-H ) :   0.1459

Dispersion correction           -0.020113496
FINAL SINGLE POINT ENERGY      -307.074208553776

DIPOLE MOMENT
-------------
                                X             Y             Z
Electronic contribution:      1.80243       4.89664      -0.59153
Nuclear contribution   :     -3.17203      -5.30499       0.68068
                        -----------------------------------------
Total Dipole Moment    :     -1.36959      -0.40835       0.08915
                        -----------------------------------------
Magnitude (a.u.)       :      1.43195
Magnitude (Debye)      :      3.63973

Rotational constants in cm-1:     0.149640     0.051631     0.046708
Rotational constants in MHz :  4486.107270  1547.846261  1400.277765

                             ****ORCA TERMINATED NORMALLY****
TOTAL RUN TIME: 0 days 0 hours 0 minutes 18 seconds 37 msec
