                         Program Version 5.0.0 -  RELEASE  -
|  1> !TPSS D3BJ RIJCOSX def2-SVPD def2/J TightSCF
|  2> *xyz 0 1
|  3> C          3.90595        2.81985       -3.75292
|  4> N          5.29562        3.13151       -4.10533
|  5> C          3.80351        1.37472       -3.26081
|  6> C          3.93993        0.32036       -4.36773
|  7> C          5.70862        3.46889       -5.32419
|  8> N          6.90470        3.03895       -5.71708
|  9> C          4.98188        4.29357       -6.09746
| 10> H          5.00055        4.10131       -7.08776
| 11> H          4.08469        4.59690       -5.73965
| 12> H          5.96336        2.52611       -3.64239
| 13> H          7.04716        2.06686       -5.47360
| 14> H          7.19815        3.30799       -6.64523
| 15> H          3.28202        2.94919       -4.64026
| 16> H          3.56525        3.51457       -2.98252
| 17> H          4.57483        1.21516       -2.50044
| 18> H          2.84351        1.26085       -2.75146
| 19> H          3.18417        0.48061       -5.10803
| 20> H          3.82485       -0.65632       -3.94614
| 21> H          4.90589        0.40174       -4.82073
| 22> *
| 23>
| 24> %MaxCore 64000
| 25>
| 26> %pal nprocs 4
| 27> end
| 28>
| 29> %scf
| 30>   MaxIter 150
| 31> end
| 32>
| 33>
| 34>                          ****END OF INPUT****

CARTESIAN COORDINATES (ANGSTROEM)
---------------------------------
  C      3.905950    2.819850   -3.752920
  N      5.295620    3.131510   -4.105330
  C      3.803510    1.374720   -3.260810
  C      3.939930    0.320360   -4.367730
  C      5.708620    3.468890   -5.324190
  N      6.904700    3.038950   -5.717080
  C      4.981880    4.293570   -6.097460
  H      5.000550    4.101310   -7.087760
  H      4.084690    4.596900   -5.739650
  H      5.963360    2.526110   -3.642390
  H      7.047160    2.066860   -5.473600
  H      7.198150    3.307990   -6.645230
  H      3.282020    2.949190   -4.640260
  H      3.565250    3.514570   -2.982520
  H      4.574830    1.215160   -2.500440
  H      2.843510    1.260850   -2.751460
  H      3.184170    0.480610   -5.108030
  H      3.824850   -0.656320   -3.946140
  H      4.905890    0.401740   -4.820730

 Total Charge           Charge          ....    0
 Multiplicity           Mult            ....    1
 Number of Electrons    NEL             ....   56
 Basis Dimension        Dim             ....  236

ORBITAL ENERGIES
----------------

  NO   OCC          E(Eh)            E(eV)
   0   2.0000     -14.121508      -384.2658
   1   2.0000     -14.121308      -384.2603
   2   2.0000     -10.038513      -273.1618
   3   2.0000     -10.033917      -273.0368
   4   2.0000     -10.009696      -272.3777
   5   2.0000      -9.997262      -272.0393
   6   2.0000      -9.919654      -269.9275
   7   2.0000      -0.901170       -24.5221
   8   2.0000      -0.821643       -22.3580
   9   2.0000      -0.724093       -19.7036
  10   2.0000      -0.653616       -17.7858
  11   2.0000      -0.634755       -17.2726
  12   2.0000      -0.558528       -15.1983
  13   2.0000      -0.519134       -14.1264
  14   2.0000      -0.488791       -13.3007
  15   2.0000      -0.472659       -12.8617
  16   2.0000      -0.430225       -11.7070
  17   2.0000      -0.425820       -11.5872
  18   2.0000      -0.393975       -10.7206
  19   2.0000      -0.376176       -10.2363
  20   2.0000      -0.355886        -9.6842
  21   2.0000      -0.344040        -9.3618
  22   2.0000      -0.330741        -8.9999
  23   2.0000      -0.319791        -8.7019
  24   2.0000      -0.314991        -8.5713
  25   2.0000      -0.298790        -8.1305
  26   2.0000      -0.221107        -6.0166
  27   2.0000      -0.147792        -4.0216
  28   0.0000      -0.003338        -0.0908
  29   0.0000       0.021764         0.5922
  30   0.0000       0.027327         0.7436
  31   0.0000       0.033898         0.9224
  32   0.0000       0.041039         1.1167

MULLIKEN ATOMIC CHARGES
-----------------------
   0 C :    0.692822
   1 N :   -0.297224
   2 C :   -0.316022
   3 C :    0.760275
   4 C :    0.200752
   5 N :   -0.010149
   6 C :    0.354885
   7 H :   -0.380403
   8 H :   -0.043357
   9 H :   -0.181707
  10 H :   -0.077330
  11 H :    0.024708
  12 H :    0.030725
  13 H :   -0.373119
  14 H :   -0.056170
  15 H :   -0.096409
  16 H :    0.037955
  17 H :   -0.025550
  18 H :   -0.244681
Sum of atomic charges:    0.0000000

LOEWDIN ATOMIC CHARGES
----------------------
   0 C :    0.062395
   1 N :    0.001874
   2 C :   -0.058756
   3 C :    0.141595
   4 C :   -0.258980
   5 N :    0.194063
   6 C :    0.166667
   7 H :   -0.105651
   8 H :   -0.110286
   9 H :    0.005513
  10 H :   -0.018147
  11 H :    0.002182
  12 H :    0.013815
  13 H :    0.013257
  14 H :    0.011291
  15 H :    0.014735
  16 H :   -0.018399
  17 H :   -0.022204
  18 H :   -0.034964

  Mayer bond orders larger than 0.100000
B(  0-C ,  1-N ) :   0.9238 B(  0-C ,  2-C ) :   1.1258 B(  0-C , 12-H ) :   0.7876
B(  0-C , 13-H ) :   0.9576 B(  0-C , 15-H ) :   0.1573 B(  1-N ,  2-C ) :   0.1130
B(  1-N ,  4-C ) :   1.1401 B(  1-N ,  5-N ) :   0.1807 B(  1-N ,  6-C ) :   0.2102
B(  1-N ,  9-H ) :   1.0096 B(  1-N , 12-H ) :   0.1208 B(  1-N , 13-H ) :   0.1189
B(  2-C ,  3-C ) :   1.2381 B(  2-C , 14-H ) :   0.9355 B(  2-C , 15-H ) :   0.9624
B(  2-C , 16-H ) :   0.1990 B(  2-C , 17-H ) :   0.2045 B(  2-C , 18-H ) :   0.2353
B(  3-C , 16-H ) :   0.7584 B(  3-C , 17-H ) :   0.7549 B(  3-C , 18-H ) :   0.8499
B(  4-C ,  5-N ) :   0.9856 B(  4-C ,  6-C ) :   1.7839 B(  4-C ,  7-H ) :   0.1761
B(  4-C ,  8-H ) :   0.2896 B(  5-N ,  6-C ) :   0.1570 B(  5-N , 10-H ) :   0.9602
B(  5-N , 11-H ) :   0.9789 B(  6-C ,  7-H ) :   0.9211 B(  6-C ,  8-H ) :   0.5113
B(  7-H ,  8-H ) :   0.2627 B( 16-H , 18-H ) :   0.1179

Dispersion correction           -0.020138218
FINAL SINGLE POINT ENERGY      -307.078436198966

DIPOLE MOMENT
-------------
                                X             Y             Z
Electronic contribution:      3.61733       3.74577      -0.28990
Nuclear contribution   :     -3.59323      -5.03016       0.59736
                        -----------------------------------------
Total Dipole Moment    :      0.02410      -1.28439       0.30746
                        -----------------------------------------
Magnitude (a.u.)       :      1.32089
Magnitude (Debye)      :      3.35745

Rotational constants in cm-1:     0.148888     0.051791     0.046487
Rotational constants in MHz :  4463.542717  1552.665696  1393.643356

                             ****ORCA TERMINATED NORMALLY****
TOTAL RUN TIME: 0 days 0 hours 0 minutes 15 seconds 950 msec
