                         Program Version 5.0.0 -  RELEASE  -
|  1> !TPSS D3BJ RIJCOSX def2-SVPD def2/J TightSCF xyzfile
|  2>
|  3> *xyzfile 0 1 D2.xyz
|  4>
|  5> %MaxCore 64000
|  6>
|  7> %pal nprocs 4
|  8> end
|  9>
| 10> %scf
| 11>   MaxIter 150
| 12> end
| 13>
| 14>
| 15>                          ****END OF INPUT****

CARTESIAN COORDINATES (ANGSTROEM)
---------------------------------
  C      3.905947    2.819855   -3.752920
  N      5.295615    3.131515   -4.105334
  C      3.803511    1.374716   -3.260807
  C      3.939934    0.320362   -4.367729
  H      4.105043   -0.655085   -3.907733
  H      3.022801    0.280517   -4.957117
  C      5.105846    0.668022   -5.305463
  C      5.708619    3.468885   -5.324190
  C      6.904696    3.038954   -5.717084
  N      4.981884    4.293570   -6.097457
  H      5.000546    4.101311   -7.087761
  H      4.084693    4.596899   -5.739652
  H      5.963358    2.526112   -3.642391
  H      7.047164    2.066861   -5.473604
  H      7.198145    3.307994   -6.645225
  H      3.282025    2.949187   -4.640259
  H      3.565254    3.514574   -2.982523
  H      4.574833    1.215157   -2.500443
  H      2.843514    1.260845   -2.751465
  F      4.809132    1.150187   -6.414361
  O      6.267366    0.564999   -4.819481

 Total Charge           Charge          ....    0
 Multiplicity           Mult            ....    1
 Number of Electrons    NEL             ....   78
 Basis Dimension        Dim             ....  294

ORBITAL ENERGIES
----------------

  NO   OCC          E(Eh)            E(eV)
   0   2.0000     -24.505021      -666.8155
   1   2.0000     -18.908185      -514.5179
   2   2.0000     -14.120715      -384.2442
   3   2.0000     -14.119543      -384.2123
   4   2.0000     -10.178256      -276.9644
   5   2.0000     -10.049755      -273.4677
   6   2.0000     -10.040636      -273.2196
   7   2.0000     -10.032460      -272.9971
   8   2.0000     -10.031956      -272.9834
   9   2.0000      -9.899202      -269.3710
  10   2.0000      -1.237255       -33.6674
  11   2.0000      -0.959508       -26.1095
  12   2.0000      -0.896470       -24.3942
  13   2.0000      -0.820948       -22.3391
  14   2.0000      -0.755385       -20.5551
  15   2.0000      -0.683071       -18.5873
  16   2.0000      -0.640003       -17.4154
  17   2.0000      -0.606285       -16.4979
  18   2.0000      -0.569695       -15.5022
  19   2.0000      -0.546038       -14.8584
  20   2.0000      -0.509328       -13.8595
  21   2.0000      -0.496734       -13.5168
  22   2.0000      -0.485042       -13.1987
  23   2.0000      -0.463007       -12.5991
  24   2.0000      -0.453687       -12.3455
  25   2.0000      -0.440108       -11.9760
  26   2.0000      -0.428098       -11.6491
  27   2.0000      -0.400736       -10.9046
  28   2.0000      -0.379507       -10.3269
  29   2.0000      -0.366617        -9.9762
  30   2.0000      -0.352664        -9.5965
  31   2.0000      -0.351277        -9.5587
  32   2.0000      -0.333536        -9.0760
  33   2.0000      -0.329525        -8.9668
  34   2.0000      -0.308120        -8.3844
  35   2.0000      -0.298206        -8.1146
  36   2.0000      -0.242179        -6.5900
  37   2.0000      -0.222455        -6.0533
  38   2.0000      -0.137597        -3.7442
  39   0.0000      -0.074344        -2.0230
  40   0.0000      -0.005604        -0.1525
  41   0.0000       0.014045         0.3822
  42   0.0000       0.022224         0.6048
  43   0.0000       0.028864         0.7854

MULLIKEN ATOMIC CHARGES
-----------------------
   0 C :    0.722228
   1 N :   -0.298086
   2 C :    0.041588
   3 C :    0.191463
   4 H :   -0.043641
   5 H :    0.029491
   6 C :    0.756818
   7 C :    0.050766
   8 C :    0.653316
   9 N :    0.018024
  10 H :   -0.019096
  11 H :   -0.015855
  12 H :   -0.058905
  13 H :   -0.384585
  14 H :   -0.203609
  15 H :   -0.007724
  16 H :   -0.329588
  17 H :    0.073024
  18 H :   -0.127972
  19 F :   -0.401685
  20 O :   -0.645971
Sum of atomic charges:    0.0000000

LOEWDIN ATOMIC CHARGES
----------------------
   0 C :    0.064334
   1 N :    0.015236
   2 C :    0.001505
   3 C :    0.071109
   4 H :    0.034047
   5 H :    0.020476
   6 C :    0.000553
   7 C :   -0.259869
   8 C :    0.172411
   9 N :    0.209214
  10 H :    0.001601
  11 H :   -0.022832
  12 H :    0.014226
  13 H :   -0.153517
  14 H :   -0.092276
  15 H :    0.011039
  16 H :    0.011393
  17 H :    0.028638
  18 H :    0.020506
  19 F :   -0.008246
  20 O :   -0.139548

  Mayer bond orders larger than 0.100000
B(  0-C ,  1-N ) :   0.8319 B(  0-C ,  2-C ) :   1.1683 B(  0-C , 15-H ) :   0.7441
B(  0-C , 16-H ) :   0.8817 B(  0-C , 18-H ) :   0.1791 B(  1-N ,  2-C ) :   0.1538
B(  1-N ,  7-C ) :   1.1169 B(  1-N ,  8-C ) :   0.1928 B(  1-N , 12-H ) :   1.0301
B(  1-N , 15-H ) :   0.1341 B(  1-N , 16-H ) :   0.1208 B(  2-C ,  3-C ) :   1.2152
B(  2-C ,  4-H ) :   0.1753 B(  2-C ,  5-H ) :   0.1150 B(  2-C , 17-H ) :   0.8360
B(  2-C , 18-H ) :   0.9395 B(  3-C ,  4-H ) :   0.8168 B(  3-C ,  5-H ) :   0.8758
B(  3-C ,  6-C ) :   1.0960 B(  4-H ,  6-C ) :   0.1187 B(  5-H ,  6-C ) :   0.1176
B(  6-C , 19-F ) :   0.6391 B(  6-C , 20-O ) :   1.6552 B(  7-C ,  8-C ) :   1.7669
B(  7-C ,  9-N ) :   0.8529 B(  7-C , 11-H ) :   0.1747 B(  7-C , 12-H ) :  -0.1199
B(  7-C , 13-H ) :   0.1983 B(  7-C , 14-H ) :   0.4316 B(  8-C ,  9-N ) :   0.3022
B(  8-C , 13-H ) :   0.5896 B(  8-C , 14-H ) :   0.3826 B(  9-N , 10-H ) :   1.0608
B(  9-N , 11-H ) :   0.8444 B(  9-N , 14-H ) :   0.1093 B( 10-H , 11-H ) :  -0.1166
B( 13-H , 14-H ) :   0.1619 B( 13-H , 20-O ) :   0.1917 B( 15-H , 16-H ) :  -0.1093

Dispersion correction           -0.028313333
FINAL SINGLE POINT ENERGY      -519.501945247684

DIPOLE MOMENT
-------------
                                X             Y             Z
Electronic contribution:      2.14943      -3.71363      -5.17874
Nuclear contribution   :     -4.40347       3.21582       5.36161
                        -----------------------------------------
Total Dipole Moment    :     -2.25404      -0.49781       0.18287
                        -----------------------------------------
Magnitude (a.u.)       :      2.31559
Magnitude (Debye)      :      5.88576

Rotational constants in cm-1:     0.061226     0.043199     0.033926
Rotational constants in MHz :  1835.503528  1295.087558  1017.061512

                             ****ORCA TERMINATED NORMALLY****
TOTAL RUN TIME: 0 days 0 hours 0 minutes 32 seconds 239 msec
