                         Program Version 5.0.0 -  RELEASE  -
|  1> !TPSS D3BJ RIJCOSX def2-SVPD def2/J TightSCF xyzfile
|  2>
|  3> *xyzfile 0 1 D3.xyz
|  4>
|  5> %MaxCore 64000
|  6>
|  7> %pal nprocs 4
|  8> end
|  9>
| 10> %scf
| 11>   MaxIter 150
| 12> end
| 13>
| 14>
| 15>                          ****END OF INPUT****

CARTESIAN COORDINATES (ANGSTROEM)
---------------------------------
  C      3.905947    2.819855   -3.752920
  N      5.295615    3.131515   -4.105334
  C      3.803511    1.374716   -3.260807
  C      3.939934    0.320362   -4.367729
  H      4.105043   -0.655085   -3.907733
  H      3.022801    0.280517   -4.957117
  C      5.105846    0.668022   -5.305463
  C      5.708619    3.468885   -5.324190
  N      6.904696    3.038954   -5.717084
  C      4.981884    4.293570   -6.097457
  H      5.000546    4.101311   -7.087761
  H      4.084693    4.596899   -5.739652
  H      5.963358    2.526112   -3.642391
  H      7.047164    2.066861   -5.473604
  H      7.198145    3.307994   -6.645225
  H      3.282025    2.949187   -4.640259
  H      3.565254    3.514574   -2.982523
  H      4.574833    1.215157   -2.500443
  H      2.843514    1.260845   -2.751465
  F      4.809132    1.150187   -6.414361
  O      6.267366    0.564999   -4.819481

 Total Charge           Charge          ....    0
 Multiplicity           Mult            ....    1
 Number of Electrons    NEL             ....   78
 Basis Dimension        Dim             ....  294

ORBITAL ENERGIES
----------------

  NO   OCC          E(Eh)            E(eV)
   0   2.0000     -24.515503      -667.1007
   1   2.0000     -18.925576      -514.9911
   2   2.0000     -14.123189      -384.3115
   3   2.0000     -14.100629      -383.6976
   4   2.0000     -10.193114      -277.3687
   5   2.0000     -10.046750      -273.3860
   6   2.0000     -10.046261      -273.3727
   7   2.0000     -10.034395      -273.0498
   8   2.0000     -10.033918      -273.0368
   9   2.0000      -9.915499      -269.8145
  10   2.0000      -1.247654       -33.9504
  11   2.0000      -0.977225       -26.5916
  12   2.0000      -0.897568       -24.4241
  13   2.0000      -0.818511       -22.2728
  14   2.0000      -0.754968       -20.5437
  15   2.0000      -0.678378       -18.4596
  16   2.0000      -0.643553       -17.5120
  17   2.0000      -0.619683       -16.8624
  18   2.0000      -0.581056       -15.8113
  19   2.0000      -0.521077       -14.1792
  20   2.0000      -0.519498       -14.1362
  21   2.0000      -0.504985       -13.7413
  22   2.0000      -0.487696       -13.2709
  23   2.0000      -0.470749       -12.8097
  24   2.0000      -0.458155       -12.4670
  25   2.0000      -0.442235       -12.0338
  26   2.0000      -0.431255       -11.7350
  27   2.0000      -0.397161       -10.8073
  28   2.0000      -0.384979       -10.4758
  29   2.0000      -0.369628       -10.0581
  30   2.0000      -0.353491        -9.6190
  31   2.0000      -0.350739        -9.5441
  32   2.0000      -0.340203        -9.2574
  33   2.0000      -0.334340        -9.0978
  34   2.0000      -0.323181        -8.7942
  35   2.0000      -0.296158        -8.0589
  36   2.0000      -0.270763        -7.3678
  37   2.0000      -0.216322        -5.8864
  38   2.0000      -0.143413        -3.9025
  39   0.0000      -0.087415        -2.3787
  40   0.0000      -0.002445        -0.0665
  41   0.0000       0.021499         0.5850
  42   0.0000       0.024434         0.6649
  43   0.0000       0.033285         0.9057

MULLIKEN ATOMIC CHARGES
-----------------------
   0 C :    0.746644
   1 N :   -0.271067
   2 C :    0.088075
   3 C :    0.227349
   4 H :   -0.045821
   5 H :    0.028150
   6 C :    0.785299
   7 C :    0.139668
   8 N :    0.147118
   9 C :    0.300679
  10 H :   -0.392935
  11 H :   -0.108732
  12 H :   -0.173683
  13 H :   -0.101734
  14 H :    0.049346
  15 H :    0.028330
  16 H :   -0.396833
  17 H :    0.064188
  18 H :   -0.121569
  19 F :   -0.388571
  20 O :   -0.603902
Sum of atomic charges:   -0.0000000

LOEWDIN ATOMIC CHARGES
----------------------
   0 C :    0.078456
   1 N :    0.016570
   2 C :    0.003009
   3 C :    0.074095
   4 H :    0.034972
   5 H :    0.023632
   6 C :    0.005998
   7 C :   -0.270378
   8 N :    0.221986
   9 C :    0.162178
  10 H :   -0.104343
  11 H :   -0.113202
  12 H :    0.004716
  13 H :   -0.084956
  14 H :    0.009003
  15 H :    0.017216
  16 H :    0.016708
  17 H :    0.026567
  18 H :    0.022728
  19 F :    0.000292
  20 O :   -0.145249

  Mayer bond orders larger than 0.100000
B(  0-C ,  1-N ) :   0.8533 B(  0-C ,  2-C ) :   1.1430 B(  0-C , 15-H ) :   0.7572
B(  0-C , 16-H ) :   0.9234 B(  0-C , 18-H ) :   0.1889 B(  1-N ,  2-C ) :   0.1642
B(  1-N ,  7-C ) :   1.1793 B(  1-N ,  8-N ) :   0.1094 B(  1-N ,  9-C ) :   0.2585
B(  1-N , 12-H ) :   0.9873 B(  1-N , 15-H ) :   0.1454 B(  2-C ,  3-C ) :   1.2045
B(  2-C ,  4-H ) :   0.1758 B(  2-C ,  5-H ) :   0.1143 B(  2-C , 17-H ) :   0.8367
B(  2-C , 18-H ) :   0.9202 B(  3-C ,  4-H ) :   0.8124 B(  3-C ,  5-H ) :   0.8624
B(  3-C ,  6-C ) :   1.1082 B(  4-H ,  6-C ) :   0.1242 B(  5-H ,  6-C ) :   0.1348
B(  6-C , 19-F ) :   0.6617 B(  6-C , 20-O ) :   1.5891 B(  7-C ,  8-N ) :   0.9798
B(  7-C ,  9-C ) :   1.7866 B(  7-C , 10-H ) :   0.1944 B(  7-C , 11-H ) :   0.3109
B(  7-C , 12-H ) :  -0.1537 B(  7-C , 13-H ) :   0.1310 B(  7-C , 14-H ) :   0.1089
B(  8-N ,  9-C ) :   0.1749 B(  8-N , 13-H ) :   0.8239 B(  8-N , 14-H ) :   0.9010
B(  9-C , 10-H ) :   0.9045 B(  9-C , 11-H ) :   0.5703 B( 10-H , 11-H ) :   0.1802
B( 15-H , 16-H ) :  -0.1071

Dispersion correction           -0.028305189
FINAL SINGLE POINT ENERGY      -519.520436400071

DIPOLE MOMENT
-------------
                                X             Y             Z
Electronic contribution:      3.61599      -4.78203      -4.87195
Nuclear contribution   :     -4.64021       3.37029       5.31478
                        -----------------------------------------
Total Dipole Moment    :     -1.02422      -1.41175       0.44283
                        -----------------------------------------
Magnitude (a.u.)       :      1.79948
Magnitude (Debye)      :      4.57393

Rotational constants in cm-1:     0.061077     0.043622     0.034103
Rotational constants in MHz :  1831.041375  1307.759852  1022.388536

                             ****ORCA TERMINATED NORMALLY****
TOTAL RUN TIME: 0 days 0 hours 0 minutes 36 seconds 337 msec
