                         Program Version 5.0.0 -  RELEASE  -
|  1> !TPSS D3BJ RIJCOSX def2-SVPD def2/J TightSCF xyzfile
|  2>
|  3> *xyzfile 0 1 D5.xyz
|  4>
|  5> %MaxCore 64000
|  6>
|  7> %pal nprocs 4
|  8> end
|  9>
| 10> %scf
| 11>   MaxIter 150
| 12> end
| 13>
| 14>
| 15>                          ****END OF INPUT****

CARTESIAN COORDINATES (ANGSTROEM)
---------------------------------
  C      3.905947    2.819855   -3.752920
  N      5.295615    3.131515   -4.105334
  C      3.803511    1.374716   -3.260807
  C      3.939934    0.320362   -4.367729
  H      4.105043   -0.655085   -3.907733
  H      3.022801    0.280517   -4.957117
  C      5.105846    0.668022   -5.305463
  C      5.708619    3.468885   -5.324190
  C      6.904696    3.038954   -5.717084
  N      4.981884    4.293570   -6.097457
  H      5.000546    4.101311   -7.087761
  H      4.084693    4.596899   -5.739652
  H      5.963358    2.526112   -3.642391
  H      7.047164    2.066861   -5.473604
  H      7.198145    3.307994   -6.645225
  H      3.282025    2.949187   -4.640259
  H      3.565254    3.514574   -2.982523
  H      4.574833    1.215157   -2.500443
  H      2.843514    1.260845   -2.751465
  O      4.809132    1.150187   -6.414361
  F      6.267366    0.564999   -4.819481

 Total Charge           Charge          ....    0
 Multiplicity           Mult            ....    1
 Number of Electrons    NEL             ....   78
 Basis Dimension        Dim             ....  294

ORBITAL ENERGIES
----------------

  NO   OCC          E(Eh)            E(eV)
   0   2.0000     -24.497844      -666.6202
   1   2.0000     -18.908499      -514.5264
   2   2.0000     -14.126275      -384.3955
   3   2.0000     -14.117012      -384.1434
   4   2.0000     -10.171702      -276.7861
   5   2.0000     -10.049304      -273.4555
   6   2.0000     -10.038523      -273.1621
   7   2.0000     -10.034598      -273.0553
   8   2.0000     -10.033679      -273.0303
   9   2.0000      -9.905298      -269.5369
  10   2.0000      -1.226165       -33.3656
  11   2.0000      -0.963253       -26.2114
  12   2.0000      -0.898361       -24.4456
  13   2.0000      -0.820783       -22.3346
  14   2.0000      -0.755484       -20.5578
  15   2.0000      -0.683008       -18.5856
  16   2.0000      -0.641213       -17.4483
  17   2.0000      -0.600773       -16.3479
  18   2.0000      -0.570962       -15.5367
  19   2.0000      -0.549770       -14.9600
  20   2.0000      -0.504291       -13.7225
  21   2.0000      -0.500727       -13.6255
  22   2.0000      -0.475212       -12.9312
  23   2.0000      -0.458804       -12.4847
  24   2.0000      -0.453410       -12.3379
  25   2.0000      -0.443054       -12.0561
  26   2.0000      -0.425405       -11.5759
  27   2.0000      -0.401227       -10.9179
  28   2.0000      -0.379602       -10.3295
  29   2.0000      -0.365975        -9.9587
  30   2.0000      -0.353355        -9.6153
  31   2.0000      -0.343310        -9.3420
  32   2.0000      -0.337783        -9.1916
  33   2.0000      -0.328538        -8.9400
  34   2.0000      -0.322945        -8.7878
  35   2.0000      -0.287907        -7.8343
  36   2.0000      -0.249975        -6.8022
  37   2.0000      -0.225459        -6.1351
  38   2.0000      -0.138752        -3.7756
  39   0.0000      -0.065828        -1.7913
  40   0.0000      -0.004219        -0.1148
  41   0.0000       0.013418         0.3651
  42   0.0000       0.023559         0.6411
  43   0.0000       0.029696         0.8081

MULLIKEN ATOMIC CHARGES
-----------------------
   0 C :    0.752013
   1 N :   -0.305040
   2 C :    0.024208
   3 C :    0.232444
   4 H :   -0.048287
   5 H :    0.038591
   6 C :    0.631545
   7 C :    0.107350
   8 C :    0.669577
   9 N :    0.006729
  10 H :   -0.022600
  11 H :   -0.007323
  12 H :   -0.063853
  13 H :   -0.448009
  14 H :   -0.189263
  15 H :    0.012233
  16 H :   -0.334388
  17 H :    0.031517
  18 H :   -0.130175
  19 O :   -0.465373
  20 F :   -0.491896
Sum of atomic charges:    0.0000000

LOEWDIN ATOMIC CHARGES
----------------------
   0 C :    0.066976
   1 N :    0.014960
   2 C :   -0.003750
   3 C :    0.071843
   4 H :    0.025945
   5 H :    0.031400
   6 C :   -0.019435
   7 C :   -0.256022
   8 C :    0.166409
   9 N :    0.218980
  10 H :    0.007336
  11 H :   -0.019501
  12 H :    0.012215
  13 H :   -0.137316
  14 H :   -0.087887
  15 H :    0.016365
  16 H :    0.011670
  17 H :    0.022912
  18 H :    0.020082
  19 O :   -0.116046
  20 F :   -0.047138

  Mayer bond orders larger than 0.100000
B(  0-C ,  1-N ) :   0.8327 B(  0-C ,  2-C ) :   1.1577 B(  0-C , 15-H ) :   0.7389
B(  0-C , 16-H ) :   0.8778 B(  0-C , 18-H ) :   0.1762 B(  1-N ,  2-C ) :   0.1730
B(  1-N ,  7-C ) :   1.1188 B(  1-N ,  8-C ) :   0.1802 B(  1-N , 12-H ) :   1.0322
B(  1-N , 15-H ) :   0.1296 B(  1-N , 16-H ) :   0.1198 B(  2-C ,  3-C ) :   1.1951
B(  2-C ,  4-H ) :   0.1780 B(  2-C ,  5-H ) :   0.1018 B(  2-C , 17-H ) :   0.8446
B(  2-C , 18-H ) :   0.9410 B(  3-C ,  4-H ) :   0.8205 B(  3-C ,  5-H ) :   0.8581
B(  3-C ,  6-C ) :   1.0987 B(  4-H ,  6-C ) :   0.1038 B(  5-H ,  6-C ) :   0.1882
B(  6-C , 13-H ) :   0.1067 B(  6-C , 19-O ) :   1.7318 B(  6-C , 20-F ) :   0.5872
B(  7-C ,  8-C ) :   1.7586 B(  7-C ,  9-N ) :   0.8470 B(  7-C , 11-H ) :   0.1765
B(  7-C , 12-H ) :  -0.1145 B(  7-C , 13-H ) :   0.2100 B(  7-C , 14-H ) :   0.4230
B(  8-C ,  9-N ) :   0.3120 B(  8-C , 13-H ) :   0.5534 B(  8-C , 14-H ) :   0.3845
B(  9-N , 10-H ) :   1.0567 B(  9-N , 11-H ) :   0.8426 B(  9-N , 14-H ) :   0.1060
B( 10-H , 11-H ) :  -0.1134 B( 13-H , 14-H ) :   0.1258 B( 13-H , 20-F ) :   0.2083
B( 15-H , 16-H ) :  -0.1071

Dispersion correction           -0.028366584
FINAL SINGLE POINT ENERGY      -519.507254596943

DIPOLE MOMENT
-------------
                                X             Y             Z
Electronic contribution:      4.48245      -4.57277      -2.62061
Nuclear contribution   :     -6.05797       3.87976       3.55209
                        -----------------------------------------
Total Dipole Moment    :     -1.57552      -0.69301       0.93148
                        -----------------------------------------
Magnitude (a.u.)       :      1.95708
Magnitude (Debye)      :      4.97450

Rotational constants in cm-1:     0.061282     0.043164     0.033679
Rotational constants in MHz :  1837.191639  1294.028651  1009.659886

                             ****ORCA TERMINATED NORMALLY****
TOTAL RUN TIME: 0 days 0 hours 0 minutes 35 seconds 29 msec
