                         Program Version 5.0.0 -  RELEASE  -
|  1> !TPSS D3BJ RIJCOSX def2-SVPD def2/J TightSCF xyzfile
|  2>
|  3> *xyzfile 0 1 D6.xyz
|  4>
|  5> %MaxCore 64000
|  6>
|  7> %pal nprocs 4
|  8> end
|  9>
| 10> %scf
| 11>   MaxIter 150
| 12> end
| 13>
| 14>
| 15>                          ****END OF INPUT****

CARTESIAN COORDINATES (ANGSTROEM)
---------------------------------
  C      3.905947    2.819855   -3.752920
  N      5.295615    3.131515   -4.105334
  C      3.803511    1.374716   -3.260807
  C      3.939934    0.320362   -4.367729
  H      4.105043   -0.655085   -3.907733
  H      3.022801    0.280517   -4.957117
  C      5.105846    0.668022   -5.305463
  C      5.708619    3.468885   -5.324190
  N      6.904696    3.038954   -5.717084
  C      4.981884    4.293570   -6.097457
  H      5.000546    4.101311   -7.087761
  H      4.084693    4.596899   -5.739652
  H      5.963358    2.526112   -3.642391
  H      7.047164    2.066861   -5.473604
  H      7.198145    3.307994   -6.645225
  H      3.282025    2.949187   -4.640259
  H      3.565254    3.514574   -2.982523
  H      4.574833    1.215157   -2.500443
  H      2.843514    1.260845   -2.751465
  O      4.809132    1.150187   -6.414361
  F      6.267366    0.564999   -4.819481

 Total Charge           Charge          ....    0
 Multiplicity           Mult            ....    1
 Number of Electrons    NEL             ....   78
 Basis Dimension        Dim             ....  294

ORBITAL ENERGIES
----------------

  NO   OCC          E(Eh)            E(eV)
   0   2.0000     -24.513684      -667.0512
   1   2.0000     -18.915547      -514.7182
   2   2.0000     -14.129588      -384.4856
   3   2.0000     -14.109189      -383.9305
   4   2.0000     -10.176369      -276.9131
   5   2.0000     -10.045898      -273.3628
   6   2.0000     -10.040756      -273.2229
   7   2.0000     -10.036729      -273.1133
   8   2.0000     -10.033000      -273.0118
   9   2.0000      -9.917146      -269.8593
  10   2.0000      -1.241756       -33.7899
  11   2.0000      -0.969637       -26.3852
  12   2.0000      -0.902623       -24.5616
  13   2.0000      -0.822800       -22.3895
  14   2.0000      -0.753065       -20.4919
  15   2.0000      -0.677164       -18.4266
  16   2.0000      -0.644638       -17.5415
  17   2.0000      -0.619696       -16.8628
  18   2.0000      -0.581387       -15.8203
  19   2.0000      -0.526091       -14.3157
  20   2.0000      -0.520463       -14.1625
  21   2.0000      -0.510093       -13.8803
  22   2.0000      -0.477278       -12.9874
  23   2.0000      -0.462899       -12.5961
  24   2.0000      -0.455835       -12.4039
  25   2.0000      -0.441189       -12.0054
  26   2.0000      -0.435935       -11.8624
  27   2.0000      -0.392795       -10.6885
  28   2.0000      -0.381715       -10.3870
  29   2.0000      -0.365767        -9.9530
  30   2.0000      -0.354272        -9.6402
  31   2.0000      -0.348615        -9.4863
  32   2.0000      -0.344035        -9.3617
  33   2.0000      -0.330825        -9.0022
  34   2.0000      -0.325882        -8.8677
  35   2.0000      -0.295081        -8.0296
  36   2.0000      -0.255971        -6.9653
  37   2.0000      -0.221122        -6.0170
  38   2.0000      -0.145954        -3.9716
  39   0.0000      -0.070951        -1.9307
  40   0.0000      -0.005248        -0.1428
  41   0.0000       0.022395         0.6094
  42   0.0000       0.023007         0.6261
  43   0.0000       0.033881         0.9219

MULLIKEN ATOMIC CHARGES
-----------------------
   0 C :    0.775043
   1 N :   -0.254905
   2 C :    0.066203
   3 C :    0.263442
   4 H :   -0.051038
   5 H :    0.036882
   6 C :    0.652635
   7 C :    0.204176
   8 N :    0.123112
   9 C :    0.302639
  10 H :   -0.402225
  11 H :   -0.104194
  12 H :   -0.187249
  13 H :   -0.121997
  14 H :    0.063455
  15 H :    0.041946
  16 H :   -0.401707
  17 H :    0.025393
  18 H :   -0.123930
  19 O :   -0.455427
  20 F :   -0.452253
Sum of atomic charges:   -0.0000000

LOEWDIN ATOMIC CHARGES
----------------------
   0 C :    0.081235
   1 N :    0.015927
   2 C :   -0.003618
   3 C :    0.073011
   4 H :    0.025276
   5 H :    0.033500
   6 C :   -0.023437
   7 C :   -0.269105
   8 N :    0.220599
   9 C :    0.176741
  10 H :   -0.094519
  11 H :   -0.107302
  12 H :    0.002662
  13 H :   -0.063371
  14 H :    0.013588
  15 H :    0.022928
  16 H :    0.016750
  17 H :    0.020115
  18 H :    0.021658
  19 O :   -0.111237
  20 F :   -0.051399

  Mayer bond orders larger than 0.100000
B(  0-C ,  1-N ) :   0.8527 B(  0-C ,  2-C ) :   1.1306 B(  0-C , 15-H ) :   0.7536
B(  0-C , 16-H ) :   0.9198 B(  0-C , 18-H ) :   0.1852 B(  1-N ,  2-C ) :   0.1831
B(  1-N ,  7-C ) :   1.1801 B(  1-N ,  8-N ) :   0.1133 B(  1-N ,  9-C ) :   0.2435
B(  1-N , 12-H ) :   0.9873 B(  1-N , 15-H ) :   0.1370 B(  2-C ,  3-C ) :   1.1892
B(  2-C ,  4-H ) :   0.1766 B(  2-C ,  5-H ) :   0.1045 B(  2-C , 17-H ) :   0.8437
B(  2-C , 18-H ) :   0.9231 B(  3-C ,  4-H ) :   0.8171 B(  3-C ,  5-H ) :   0.8460
B(  3-C ,  6-C ) :   1.1044 B(  4-H ,  6-C ) :   0.1027 B(  5-H ,  6-C ) :   0.2063
B(  6-C , 19-O ) :   1.7221 B(  6-C , 20-F ) :   0.5536 B(  7-C ,  8-N ) :   0.9641
B(  7-C ,  9-C ) :   1.7804 B(  7-C , 10-H ) :   0.1905 B(  7-C , 11-H ) :   0.3061
B(  7-C , 12-H ) :  -0.1461 B(  7-C , 13-H ) :   0.1375 B(  7-C , 14-H ) :   0.1058
B(  8-N ,  9-C ) :   0.1753 B(  8-N , 13-H ) :   0.8368 B(  8-N , 14-H ) :   0.8985
B(  9-C , 10-H ) :   0.9232 B(  9-C , 11-H ) :   0.5594 B( 10-H , 11-H ) :   0.1496
B( 15-H , 16-H ) :  -0.1035

Dispersion correction           -0.028366971
FINAL SINGLE POINT ENERGY      -519.517918524225

DIPOLE MOMENT
-------------
                                X             Y             Z
Electronic contribution:      5.99905      -5.52333      -2.35117
Nuclear contribution   :     -6.29470       4.03423       3.50525
                        -----------------------------------------
Total Dipole Moment    :     -0.29566      -1.48910       1.15408
                        -----------------------------------------
Magnitude (a.u.)       :      1.90702
Magnitude (Debye)      :      4.84727

Rotational constants in cm-1:     0.061094     0.043661     0.033867
Rotational constants in MHz :  1831.559881  1308.929520  1015.295167

                             ****ORCA TERMINATED NORMALLY****
TOTAL RUN TIME: 0 days 0 hours 0 minutes 35 seconds 327 msec
