                         Program Version 5.0.0 -  RELEASE  -
|  1> !PBE D3BJ RIJCOSX def2-SVPD def2/J TightSCF
|  2> *xyz -1 1
|  3> C         -1.36353       -1.98134       -2.29361
|  4> O         -0.35039       -2.74969       -1.79601
|  5> H         -2.22523       -2.59288       -2.46214
|  6> H         -1.05452       -1.53818       -3.21720
|  7> H         -1.60477       -1.21086       -1.59143
|  8> *
|  9>
| 10> %MaxCore 64000
| 11> %pal nprocs 4
| 12> end
| 13>
| 14> %scf
| 15>   MaxIter 150
| 16> end
| 17>
| 18>
| 19>                          ****END OF INPUT****

CARTESIAN COORDINATES (ANGSTROEM)
---------------------------------
  C     -1.363530   -1.981340   -2.293610
  O     -0.350390   -2.749690   -1.796010
  H     -2.225230   -2.592880   -2.462140
  H     -1.054520   -1.538180   -3.217200
  H     -1.604770   -1.210860   -1.591430

 Total Charge           Charge          ....   -1
 Multiplicity           Mult            ....    1
 Number of Electrons    NEL             ....   18
 Basis Dimension        Dim             ....   67

ORBITAL ENERGIES
----------------

  NO   OCC          E(Eh)            E(eV)
   0   2.0000     -18.417067      -501.1539
   1   2.0000      -9.680274      -263.4137
   2   2.0000      -0.571618       -15.5545
   3   2.0000      -0.326659        -8.8889
   4   2.0000      -0.148657        -4.0452
   5   2.0000      -0.148657        -4.0452
   6   2.0000      -0.056548        -1.5388
   7   2.0000       0.092175         2.5082
   8   2.0000       0.092176         2.5082
   9   0.0000       0.182698         4.9715
  10   0.0000       0.251581         6.8459
  11   0.0000       0.251583         6.8459
  12   0.0000       0.258806         7.0425
  13   0.0000       0.295136         8.0310

MULLIKEN ATOMIC CHARGES
-----------------------
   0 C :    0.826608
   1 O :   -1.006274
   2 H :   -0.273412
   3 H :   -0.273462
   4 H :   -0.273460
Sum of atomic charges:   -1.0000000

LOEWDIN ATOMIC CHARGES
----------------------
   0 C :   -0.129703
   1 O :   -0.618887
   2 H :   -0.083800
   3 H :   -0.083806
   4 H :   -0.083805

  Mayer bond orders larger than 0.100000
B(  0-C ,  1-O ) :   1.1488 B(  0-C ,  2-H ) :   0.9122 B(  0-C ,  3-H ) :   0.9122
B(  0-C ,  4-H ) :   0.9121

Dispersion correction           -0.001471191
FINAL SINGLE POINT ENERGY      -114.882919133414

DIPOLE MOMENT
-------------
                                X             Y             Z
Electronic contribution:      1.43563      -1.08876       0.70511
Nuclear contribution   :     -2.13467       1.61890      -1.04844
                        -----------------------------------------
Total Dipole Moment    :     -0.69904       0.53013      -0.34333
                        -----------------------------------------
Magnitude (a.u.)       :      0.94211
Magnitude (Debye)      :      2.39465

Rotational constants in cm-1:     5.477725     0.944113     0.944112
Rotational constants in MHz : 164218.064700 28303.798445 28303.757130

                             ****ORCA TERMINATED NORMALLY****
TOTAL RUN TIME: 0 days 0 hours 0 minutes 2 seconds 247 msec
