                         Program Version 5.0.0 -  RELEASE  -
|  1> !PBE D3BJ RIJCOSX def2-SVPD def2/J TightSCF
|  2> *xyz 1 1
|  3> C          2.20996       -2.81239       -3.66571
|  4> C          2.48901       -1.66851       -2.73754
|  5> N          3.59631       -0.94761       -2.95225
|  6> N          1.66394       -1.41369       -1.77781
|  7> H          0.81164       -1.96318       -1.70275
|  8> H          1.84550       -0.63508       -1.15875
|  9> H          4.20535       -1.17600       -3.73383
| 10> H          3.81723       -0.12585       -2.40604
| 11> H          2.99011       -2.87840       -4.39503
| 12> H          1.27381       -2.65174       -4.15838
| 13> H          2.16680       -3.72339       -3.10614
| 14> *
| 15>
| 16> %MaxCore 64000
| 17> %pal nprocs 4
| 18> end
| 19>
| 20> %scf
| 21>   MaxIter 150
| 22> end
| 23>
| 24>
| 25>                          ****END OF INPUT****

CARTESIAN COORDINATES (ANGSTROEM)
---------------------------------
  C      2.209960   -2.812390   -3.665710
  C      2.489010   -1.668510   -2.737540
  N      3.596310   -0.947610   -2.952250
  N      1.663940   -1.413690   -1.777810
  H      0.811640   -1.963180   -1.702750
  H      1.845500   -0.635080   -1.158750
  H      4.205350   -1.176000   -3.733830
  H      3.817230   -0.125850   -2.406040
  H      2.990110   -2.878400   -4.395030
  H      1.273810   -2.651740   -4.158380
  H      2.166800   -3.723390   -3.106140

 Total Charge           Charge          ....    1
 Multiplicity           Mult            ....    1
 Number of Electrons    NEL             ....   32
 Basis Dimension        Dim             ....  136

ORBITAL ENERGIES
----------------

  NO   OCC          E(Eh)            E(eV)
   0   2.0000     -14.255415      -387.9096
   1   2.0000     -14.250584      -387.7781
   2   2.0000     -10.219522      -278.0873
   3   2.0000     -10.094086      -274.6740
   4   2.0000      -1.121891       -30.5282
   5   2.0000      -1.032242       -28.0887
   6   2.0000      -0.881213       -23.9790
   7   2.0000      -0.785174       -21.3657
   8   2.0000      -0.733187       -19.9510
   9   2.0000      -0.718308       -19.5462
  10   2.0000      -0.663883       -18.0652
  11   2.0000      -0.615462       -16.7476
  12   2.0000      -0.573079       -15.5943
  13   2.0000      -0.556338       -15.1387
  14   2.0000      -0.534879       -14.5548
  15   2.0000      -0.463825       -12.6213
  16   0.0000      -0.250758        -6.8235
  17   0.0000      -0.187815        -5.1107
  18   0.0000      -0.143021        -3.8918
  19   0.0000      -0.139523        -3.7966
  20   0.0000      -0.117321        -3.1925

MULLIKEN ATOMIC CHARGES
-----------------------
   0 C :    0.633397
   1 C :    0.394373
   2 N :   -0.024696
   3 N :    0.223567
   4 H :    0.016948
   5 H :   -0.154829
   6 H :    0.045935
   7 H :   -0.142032
   8 H :   -0.003594
   9 H :    0.002966
  10 H :    0.007965
Sum of atomic charges:    1.0000000

LOEWDIN ATOMIC CHARGES
----------------------
   0 C :    0.234133
   1 C :   -0.083018
   2 N :    0.292555
   3 N :    0.291501
   4 H :    0.066944
   5 H :    0.053164
   6 H :    0.049206
   7 H :    0.043003
   8 H :    0.005514
   9 H :    0.023443
  10 H :    0.023556

  Mayer bond orders larger than 0.100000
B(  0-C ,  1-C ) :   1.2836 B(  0-C ,  8-H ) :   0.7721 B(  0-C ,  9-H ) :   0.7696
B(  0-C , 10-H ) :   0.7503 B(  1-C ,  2-N ) :   0.9417 B(  1-C ,  3-N ) :   1.2465
B(  1-C ,  5-H ) :  -0.1536 B(  1-C ,  7-H ) :  -0.2596 B(  1-C ,  8-H ) :   0.2552
B(  1-C ,  9-H ) :   0.1552 B(  1-C , 10-H ) :   0.1735 B(  2-N ,  3-N ) :   0.1928
B(  2-N ,  6-H ) :   1.0585 B(  2-N ,  7-H ) :   1.3542 B(  3-N ,  4-H ) :   1.1119
B(  3-N ,  5-H ) :   1.2361 B(  4-H ,  5-H ) :  -0.1531 B(  6-H ,  7-H ) :  -0.1812
B(  9-H , 10-H ) :   0.1017

Dispersion correction           -0.006914037
FINAL SINGLE POINT ENERGY      -189.357520238786

DIPOLE MOMENT
-------------
                                X             Y             Z
Electronic contribution:      0.32739       1.63347       1.45335
Nuclear contribution   :     -0.32363      -1.20411      -1.15396
                        -----------------------------------------
Total Dipole Moment    :      0.00376       0.42935       0.29939
                        -----------------------------------------
Magnitude (a.u.)       :      0.52344
Magnitude (Debye)      :      1.33049

Rotational constants in cm-1:     0.327805     0.304052     0.162439
Rotational constants in MHz :  9827.347355  9115.244333  4869.808750

                             ****ORCA TERMINATED NORMALLY****
TOTAL RUN TIME: 0 days 0 hours 0 minutes 4 seconds 222 msec
