                         Program Version 5.0.0 -  RELEASE  -
|  1> !PBE D3BJ RIJCOSX def2-SVPD def2/J TightSCF
|  2> *xyz 0 1
|  3> C         -1.36353       -1.98134       -2.29361
|  4> F         -0.35039       -2.74969       -1.79601
|  5> H         -2.22523       -2.59288       -2.46214
|  6> H         -1.05452       -1.53818       -3.21720
|  7> H         -1.60477       -1.21086       -1.59143
|  8> *
|  9>
| 10> %MaxCore 64000
| 11> %pal nprocs 4
| 12> end
| 13>
| 14> %scf
| 15>   MaxIter 150
| 16> end
| 17>
| 18>
| 19>                          ****END OF INPUT****

CARTESIAN COORDINATES (ANGSTROEM)
---------------------------------
  C     -1.363530   -1.981340   -2.293610
  F     -0.350390   -2.749690   -1.796010
  H     -2.225230   -2.592880   -2.462140
  H     -1.054520   -1.538180   -3.217200
  H     -1.604770   -1.210860   -1.591430

 Total Charge           Charge          ....    0
 Multiplicity           Mult            ....    1
 Number of Electrons    NEL             ....   18
 Basis Dimension        Dim             ....   67

ORBITAL ENERGIES
----------------

  NO   OCC          E(Eh)            E(eV)
   0   2.0000     -24.260928      -660.1734
   1   2.0000      -9.963247      -271.1137
   2   2.0000      -1.086049       -29.5529
   3   2.0000      -0.633920       -17.2498
   4   2.0000      -0.449171       -12.2226
   5   2.0000      -0.435402       -11.8479
   6   2.0000      -0.435401       -11.8479
   7   2.0000      -0.297757        -8.1024
   8   2.0000      -0.297756        -8.1024
   9   0.0000       0.009382         0.2553
  10   0.0000       0.035336         0.9615
  11   0.0000       0.082328         2.2402
  12   0.0000       0.082329         2.2403
  13   0.0000       0.128370         3.4931

MULLIKEN ATOMIC CHARGES
-----------------------
   0 C :    0.901618
   1 F :   -0.454116
   2 H :   -0.149147
   3 H :   -0.149184
   4 H :   -0.149172
Sum of atomic charges:    0.0000000

LOEWDIN ATOMIC CHARGES
----------------------
   0 C :    0.252027
   1 F :   -0.230100
   2 H :   -0.007306
   3 H :   -0.007311
   4 H :   -0.007311

  Mayer bond orders larger than 0.100000
B(  0-C ,  1-F ) :   0.8905 B(  0-C ,  2-H ) :   0.9336 B(  0-C ,  3-H ) :   0.9336
B(  0-C ,  4-H ) :   0.9336

Dispersion correction           -0.001294666
FINAL SINGLE POINT ENERGY      -139.489513596890

DIPOLE MOMENT
-------------
                                X             Y             Z
Electronic contribution:      2.20422      -1.67163       1.08260
Nuclear contribution   :     -2.70693       2.05289      -1.32950
                        -----------------------------------------
Total Dipole Moment    :     -0.50271       0.38126      -0.24690
                        -----------------------------------------
Magnitude (a.u.)       :      0.67752
Magnitude (Debye)      :      1.72213

Rotational constants in cm-1:     5.477725     0.878859     0.878857
Rotational constants in MHz : 164218.064700 26347.517988 26347.482187

                             ****ORCA TERMINATED NORMALLY****
TOTAL RUN TIME: 0 days 0 hours 0 minutes 2 seconds 130 msec
