                         Program Version 5.0.0 -  RELEASE  -
|  1> !PBE D3BJ RIJCOSX def2-SVPD def2/J TightSCF
|  2> *xyz 0 1
|  3> C          2.20996       -2.81239       -3.66571
|  4> C          2.48901       -1.66851       -2.73754
|  5> C          3.59631       -0.94761       -2.95225
|  6> N          1.66394       -1.41369       -1.77781
|  7> H          0.81164       -1.96318       -1.70275
|  8> H          1.84550       -0.63508       -1.15875
|  9> H          4.20535       -1.17600       -3.73383
| 10> H          3.81723       -0.12585       -2.40604
| 11> H          2.99011       -2.87840       -4.39503
| 12> H          1.27381       -2.65174       -4.15838
| 13> H          2.16680       -3.72339       -3.10614
| 14> *
| 15>
| 16> %MaxCore 64000
| 17> %pal nprocs 4
| 18> end
| 19>
| 20> %scf
| 21>   MaxIter 150
| 22> end
| 23>
| 24>
| 25>                          ****END OF INPUT****

CARTESIAN COORDINATES (ANGSTROEM)
---------------------------------
  C      2.209960   -2.812390   -3.665710
  C      2.489010   -1.668510   -2.737540
  C      3.596310   -0.947610   -2.952250
  N      1.663940   -1.413690   -1.777810
  H      0.811640   -1.963180   -1.702750
  H      1.845500   -0.635080   -1.158750
  H      4.205350   -1.176000   -3.733830
  H      3.817230   -0.125850   -2.406040
  H      2.990110   -2.878400   -4.395030
  H      1.273810   -2.651740   -4.158380
  H      2.166800   -3.723390   -3.106140

 Total Charge           Charge          ....    0
 Multiplicity           Mult            ....    1
 Number of Electrons    NEL             ....   32
 Basis Dimension        Dim             ....  136

ORBITAL ENERGIES
----------------

  NO   OCC          E(Eh)            E(eV)
   0   2.0000     -14.006910      -381.1474
   1   2.0000      -9.914588      -269.7897
   2   2.0000      -9.885106      -268.9874
   3   2.0000      -9.828554      -267.4485
   4   2.0000      -0.852216       -23.1900
   5   2.0000      -0.678745       -18.4696
   6   2.0000      -0.612785       -16.6747
   7   2.0000      -0.519831       -14.1453
   8   2.0000      -0.483882       -13.1671
   9   2.0000      -0.421485       -11.4692
  10   2.0000      -0.385943       -10.5021
  11   2.0000      -0.351506        -9.5650
  12   2.0000      -0.345141        -9.3918
  13   2.0000      -0.306038        -8.3277
  14   2.0000      -0.297390        -8.0924
  15   2.0000      -0.157750        -4.2926
  16   0.0000      -0.001615        -0.0440
  17   0.0000       0.018426         0.5014
  18   0.0000       0.036678         0.9981
  19   0.0000       0.045453         1.2368
  20   0.0000       0.069264         1.8848

MULLIKEN ATOMIC CHARGES
-----------------------
   0 C :    0.865325
   1 C :   -0.595794
   2 C :    0.481803
   3 N :    0.370471
   4 H :   -0.176823
   5 H :   -0.198695
   6 H :   -0.109339
   7 H :   -0.513486
   8 H :    0.001235
   9 H :   -0.065937
  10 H :   -0.058759
Sum of atomic charges:    0.0000000

LOEWDIN ATOMIC CHARGES
----------------------
   0 C :    0.162936
   1 C :   -0.308612
   2 C :    0.174119
   3 N :    0.175137
   4 H :    0.009110
   5 H :    0.011863
   6 H :   -0.088417
   7 H :   -0.093736
   8 H :   -0.015624
   9 H :   -0.013211
  10 H :   -0.013565

  Mayer bond orders larger than 0.100000
B(  0-C ,  1-C ) :   1.2943 B(  0-C ,  2-C ) :   0.1056 B(  0-C ,  8-H ) :   0.7866
B(  0-C ,  9-H ) :   0.6549 B(  0-C , 10-H ) :   0.6592 B(  1-C ,  2-C ) :   1.6112
B(  1-C ,  3-N ) :   1.2964 B(  1-C ,  7-H ) :   0.1471 B(  1-C ,  8-H ) :   0.2382
B(  1-C ,  9-H ) :   0.2841 B(  1-C , 10-H ) :   0.2845 B(  2-C ,  3-N ) :   0.2716
B(  2-C ,  6-H ) :   0.9343 B(  2-C ,  7-H ) :   0.7897 B(  3-N ,  4-H ) :   1.1581
B(  3-N ,  5-H ) :   1.1860 B(  4-H ,  5-H ) :  -0.1249

Dispersion correction           -0.007234466
FINAL SINGLE POINT ENERGY      -172.906372169057

DIPOLE MOMENT
-------------
                                X             Y             Z
Electronic contribution:     -0.65534       0.88139       1.55106
Nuclear contribution   :     -0.07639      -1.03653      -1.19368
                        -----------------------------------------
Total Dipole Moment    :     -0.73173      -0.15514       0.35738
                        -----------------------------------------
Magnitude (a.u.)       :      0.82898
Magnitude (Debye)      :      2.10710

Rotational constants in cm-1:     0.347569     0.308531     0.168494
Rotational constants in MHz : 10419.863808  9249.512495  5051.317883

                             ****ORCA TERMINATED NORMALLY****
TOTAL RUN TIME: 0 days 0 hours 0 minutes 4 seconds 864 msec
