                         Program Version 5.0.0 -  RELEASE  -
|  1> !PBE D3BJ RIJCOSX def2-SVPD def2/J TightSCF
|  2> *xyz 0 1
|  3> C          2.20996       -2.81239       -3.66571
|  4> C          2.48901       -1.66851       -2.73754
|  5> N          3.59631       -0.94761       -2.95225
|  6> C          1.66394       -1.41369       -1.77781
|  7> H          0.81164       -1.96318       -1.70275
|  8> H          1.84550       -0.63508       -1.15875
|  9> H          4.20535       -1.17600       -3.73383
| 10> H          3.81723       -0.12585       -2.40604
| 11> H          2.99011       -2.87840       -4.39503
| 12> H          1.27381       -2.65174       -4.15838
| 13> H          2.16680       -3.72339       -3.10614
| 14> *
| 15>
| 16> %MaxCore 64000
| 17> %pal nprocs 4
| 18> end
| 19>
| 20> %scf
| 21>   MaxIter 150
| 22> end
| 23>
| 24>
| 25>                          ****END OF INPUT****

CARTESIAN COORDINATES (ANGSTROEM)
---------------------------------
  C      2.209960   -2.812390   -3.665710
  C      2.489010   -1.668510   -2.737540
  N      3.596310   -0.947610   -2.952250
  C      1.663940   -1.413690   -1.777810
  H      0.811640   -1.963180   -1.702750
  H      1.845500   -0.635080   -1.158750
  H      4.205350   -1.176000   -3.733830
  H      3.817230   -0.125850   -2.406040
  H      2.990110   -2.878400   -4.395030
  H      1.273810   -2.651740   -4.158380
  H      2.166800   -3.723390   -3.106140

 Total Charge           Charge          ....    0
 Multiplicity           Mult            ....    1
 Number of Electrons    NEL             ....   32
 Basis Dimension        Dim             ....  136

ORBITAL ENERGIES
----------------

  NO   OCC          E(Eh)            E(eV)
   0   2.0000     -14.002464      -381.0264
   1   2.0000      -9.911398      -269.7029
   2   2.0000      -9.885262      -268.9917
   3   2.0000      -9.825434      -267.3637
   4   2.0000      -0.834946       -22.7200
   5   2.0000      -0.683398       -18.5962
   6   2.0000      -0.618095       -16.8192
   7   2.0000      -0.512848       -13.9553
   8   2.0000      -0.471828       -12.8391
   9   2.0000      -0.423238       -11.5169
  10   2.0000      -0.382784       -10.4161
  11   2.0000      -0.353077        -9.6077
  12   2.0000      -0.347863        -9.4658
  13   2.0000      -0.309826        -8.4308
  14   2.0000      -0.290250        -7.8981
  15   2.0000      -0.161695        -4.3999
  16   0.0000      -0.000212        -0.0058
  17   0.0000       0.018093         0.4923
  18   0.0000       0.037395         1.0176
  19   0.0000       0.045195         1.2298
  20   0.0000       0.069157         1.8819

MULLIKEN ATOMIC CHARGES
-----------------------
   0 C :    0.823247
   1 C :   -0.295081
   2 N :    0.119298
   3 C :    0.348127
   4 H :   -0.166527
   5 H :   -0.360858
   6 H :   -0.110806
   7 H :   -0.197104
   8 H :   -0.156974
   9 H :   -0.001197
  10 H :   -0.002123
Sum of atomic charges:   -0.0000000

LOEWDIN ATOMIC CHARGES
----------------------
   0 C :    0.165201
   1 C :   -0.296097
   2 N :    0.179480
   3 C :    0.154335
   4 H :   -0.068588
   5 H :   -0.081400
   6 H :   -0.009795
   7 H :   -0.000597
   8 H :   -0.029971
   9 H :   -0.006338
  10 H :   -0.006227

  Mayer bond orders larger than 0.100000
B(  0-C ,  1-C ) :   1.1191 B(  0-C ,  2-N ) :   0.1300 B(  0-C ,  3-C ) :   0.1068
B(  0-C ,  8-H ) :   0.7087 B(  0-C ,  9-H ) :   0.7430 B(  0-C , 10-H ) :   0.7362
B(  1-C ,  2-N ) :   1.0074 B(  1-C ,  3-C ) :   1.7509 B(  1-C ,  4-H ) :   0.1266
B(  1-C ,  5-H ) :   0.2781 B(  1-C ,  7-H ) :  -0.1609 B(  1-C ,  8-H ) :   0.2721
B(  1-C ,  9-H ) :   0.1734 B(  1-C , 10-H ) :   0.1850 B(  2-N ,  3-C ) :   0.2811
B(  2-N ,  6-H ) :   1.1123 B(  2-N ,  7-H ) :   1.3156 B(  3-C ,  4-H ) :   0.8112
B(  3-C ,  5-H ) :   0.7159 B(  6-H ,  7-H ) :  -0.1640

Dispersion correction           -0.007234221
FINAL SINGLE POINT ENERGY      -172.905524741542

DIPOLE MOMENT
-------------
                                X             Y             Z
Electronic contribution:      1.05673       1.27031       0.48432
Nuclear contribution   :     -0.50975      -1.14105      -0.93029
                        -----------------------------------------
Total Dipole Moment    :      0.54698       0.12926      -0.44597
                        -----------------------------------------
Magnitude (a.u.)       :      0.71748
Magnitude (Debye)      :      1.82370

Rotational constants in cm-1:     0.350603     0.305690     0.168346
Rotational constants in MHz : 10510.799277  9164.357607  5046.873498

                             ****ORCA TERMINATED NORMALLY****
TOTAL RUN TIME: 0 days 0 hours 0 minutes 4 seconds 505 msec
