                         Program Version 5.0.0 -  RELEASE  -
|  1> !PBE D3BJ RIJCOSX def2-SVPD def2/J TightSCF xyzfile
|  2>
|  3> *xyzfile 0 1 D1.xyz
|  4>
|  5> %MaxCore 64000
|  6>
|  7> %pal nprocs 4
|  8> end
|  9>
| 10> %scf
| 11>   MaxIter 150
| 12> end
| 13>
| 14>
| 15>                          ****END OF INPUT****

CARTESIAN COORDINATES (ANGSTROEM)
---------------------------------
  C      1.647032   -2.345276   -5.020411
  C      0.217628   -1.814022   -4.924389
  C      2.209964   -2.812388   -3.665708
  C     -0.811356   -2.908780   -4.607625
  C     -1.916579   -2.485081   -3.643665
  H     -2.554525   -1.712428   -4.091993
  C     -1.363531   -1.981337   -2.293608
  H     -2.553448   -3.355667   -3.458815
  F     -0.350395   -2.749689   -1.796006
  H      2.308385   -1.588704   -5.457128
  H      1.674286   -3.203478   -5.697392
  C      2.489007   -1.668510   -2.737538
  C      3.596314   -0.947608   -2.952247
  N      1.663936   -1.413685   -1.777806
  H      0.811642   -1.963178   -1.702755
  H      1.845503   -0.635078   -1.158749
  H      4.205351   -1.176003   -3.733825
  H      3.817230   -0.125845   -2.406041
  H     -1.244829   -3.280884   -5.541040
  H     -0.306331   -3.757746   -4.142734
  H     -0.036244   -1.318555   -5.865303
  H      0.175004   -1.035382   -4.158095
  H      3.143106   -3.362803   -3.811524
  H      1.487683   -3.458935   -3.165211
  H     -2.226220   -1.908386   -1.602039
  H     -1.051353   -0.915671   -2.443331

 Total Charge           Charge          ....    0
 Multiplicity           Mult            ....    1
 Number of Electrons    NEL             ....   80
 Basis Dimension        Dim             ....  331

ORBITAL ENERGIES
----------------

  NO   OCC          E(Eh)            E(eV)
   0   2.0000     -24.313065      -661.5921
   1   2.0000     -13.972173      -380.2022
   2   2.0000      -9.993690      -271.9421
   3   2.0000      -9.915089      -269.8033
   4   2.0000      -9.899261      -269.3726
   5   2.0000      -9.895733      -269.2766
   6   2.0000      -9.890747      -269.1409
   7   2.0000      -9.887221      -269.0450
   8   2.0000      -9.882812      -268.9250
   9   2.0000      -9.811280      -266.9785
  10   2.0000      -1.143163       -31.1071
  11   2.0000      -0.830770       -22.6064
  12   2.0000      -0.742706       -20.2101
  13   2.0000      -0.703114       -19.1327
  14   2.0000      -0.661770       -18.0077
  15   2.0000      -0.619966       -16.8701
  16   2.0000      -0.597972       -16.2716
  17   2.0000      -0.549191       -14.9443
  18   2.0000      -0.531314       -14.4578
  19   2.0000      -0.515513       -14.0278
  20   2.0000      -0.480783       -13.0828
  21   2.0000      -0.475645       -12.9430
  22   2.0000      -0.458800       -12.4846
  23   2.0000      -0.436564       -11.8795
  24   2.0000      -0.416508       -11.3338
  25   2.0000      -0.409052       -11.1309
  26   2.0000      -0.390060       -10.6141
  27   2.0000      -0.374675       -10.1954
  28   2.0000      -0.370928       -10.0935
  29   2.0000      -0.344558        -9.3759
  30   2.0000      -0.326137        -8.8746
  31   2.0000      -0.319946        -8.7062
  32   2.0000      -0.316804        -8.6207
  33   2.0000      -0.311030        -8.4635
  34   2.0000      -0.297731        -8.1017
  35   2.0000      -0.290802        -7.9131
  36   2.0000      -0.282006        -7.6738
  37   2.0000      -0.270761        -7.3678
  38   2.0000      -0.268301        -7.3008
  39   2.0000      -0.138240        -3.7617
  40   0.0000      -0.005655        -0.1539
  41   0.0000       0.006045         0.1645
  42   0.0000       0.016505         0.4491
  43   0.0000       0.022591         0.6147
  44   0.0000       0.025975         0.7068

MULLIKEN ATOMIC CHARGES
-----------------------
   0 C :    0.209366
   1 C :    0.118117
   2 C :    0.538667
   3 C :    0.038137
   4 C :    0.200022
   5 H :   -0.108615
   6 C :    0.651268
   7 H :    0.011306
   8 F :   -0.450946
   9 H :   -0.044288
  10 H :   -0.119189
  11 C :   -0.153399
  12 C :    0.318085
  13 N :    0.642215
  14 H :   -0.465719
  15 H :   -0.166414
  16 H :   -0.118087
  17 H :   -0.387166
  18 H :   -0.241920
  19 H :    0.064571
  20 H :   -0.182800
  21 H :   -0.034662
  22 H :   -0.015310
  23 H :   -0.219740
  24 H :   -0.320116
  25 H :    0.236618
Sum of atomic charges:   -0.0000000

LOEWDIN ATOMIC CHARGES
----------------------
   0 C :   -0.017133
   1 C :   -0.017504
   2 C :    0.020515
   3 C :   -0.028335
   4 C :   -0.012961
   5 H :    0.036316
   6 C :    0.131178
   7 H :    0.024519
   8 F :   -0.148065
   9 H :    0.021987
  10 H :    0.021021
  11 C :   -0.255850
  12 C :    0.168675
  13 N :    0.216686
  14 H :   -0.139419
  15 H :    0.015426
  16 H :   -0.088246
  17 H :   -0.097434
  18 H :    0.025510
  19 H :    0.007044
  20 H :    0.021627
  21 H :    0.001031
  22 H :    0.029168
  23 H :   -0.006936
  24 H :    0.036521
  25 H :    0.034657

  Mayer bond orders larger than 0.100000
B(  0-C ,  1-C ) :   1.2779 B(  0-C ,  2-C ) :   1.1854 B(  0-C ,  9-H ) :   0.7377
B(  0-C , 10-H ) :   0.8649 B(  0-C , 20-H ) :   0.1037 B(  0-C , 21-H ) :   0.1756
B(  0-C , 22-H ) :   0.1208 B(  0-C , 23-H ) :   0.1713 B(  1-C ,  2-C ) :   0.1116
B(  1-C ,  3-C ) :   1.1956 B(  1-C ,  9-H ) :   0.2004 B(  1-C , 10-H ) :   0.1432
B(  1-C , 18-H ) :   0.2147 B(  1-C , 20-H ) :   0.8260 B(  1-C , 21-H ) :   0.7791
B(  2-C ,  9-H ) :   0.1689 B(  2-C , 11-C ) :   0.9881 B(  2-C , 13-N ) :   0.1492
B(  2-C , 17-H ) :   0.1071 B(  2-C , 22-H ) :   0.7446 B(  2-C , 23-H ) :   0.6349
B(  3-C ,  4-C ) :   1.2632 B(  3-C ,  5-H ) :   0.1421 B(  3-C ,  7-H ) :   0.2122
B(  3-C , 18-H ) :   0.8799 B(  3-C , 19-H ) :   0.7944 B(  3-C , 20-H ) :   0.1216
B(  3-C , 21-H ) :   0.1630 B(  4-C ,  5-H ) :   0.8699 B(  4-C ,  6-C ) :   1.2728
B(  4-C ,  7-H ) :   0.6757 B(  4-C ,  8-F ) :   0.1017 B(  4-C , 24-H ) :   0.1557
B(  5-H ,  6-C ) :   0.1111 B(  6-C ,  8-F ) :   0.6095 B(  6-C , 24-H ) :   0.9855
B(  6-C , 25-H ) :   0.7471 B(  8-F , 14-H ) :   0.2036 B(  9-H , 10-H ) :  -0.1330
B( 11-C , 12-C ) :   1.6131 B( 11-C , 13-N ) :   1.2279 B( 11-C , 15-H ) :  -0.1130
B( 11-C , 17-H ) :   0.1878 B( 11-C , 22-H ) :   0.1783 B( 11-C , 23-H ) :   0.2182
B( 12-C , 13-N ) :   0.2251 B( 12-C , 16-H ) :   0.8375 B( 12-C , 17-H ) :   0.6661
B( 13-N , 14-H ) :   0.7937 B( 13-N , 15-H ) :   1.2202 B( 14-H , 15-H ) :  -0.2140
B( 14-H , 23-H ) :   0.1069 B( 16-H , 17-H ) :   0.1048 B( 19-H , 23-H ) :   0.1201

Dispersion correction           -0.026552459
FINAL SINGLE POINT ENERGY      -468.134248752852

DIPOLE MOMENT
-------------
                                X             Y             Z
Electronic contribution:     -1.26820      -1.74760       6.94980
Nuclear contribution   :     -0.37390       1.73388      -6.94752
                        -----------------------------------------
Total Dipole Moment    :     -1.64210      -0.01371       0.00227
                        -----------------------------------------
Magnitude (a.u.)       :      1.64216
Magnitude (Debye)      :      4.17404

Rotational constants in cm-1:     0.062220     0.032742     0.024374
Rotational constants in MHz :  1865.297979   981.573941   730.711364

                             ****ORCA TERMINATED NORMALLY****
TOTAL RUN TIME: 0 days 0 hours 0 minutes 23 seconds 709 msec
