                         Program Version 5.0.0 -  RELEASE  -
|  1> !BLYP D3BJ RIJCOSX def2-SVPD def2/J TightSCF
|  2> *xyz -1 1
|  3> C          0.64866        1.00359       -3.64560
|  4> C          0.13297        2.38587       -4.02462
|  5> C         -1.36646        2.47911       -4.31393
|  6> C         -2.35773        2.30686       -3.13675
|  7> H         -1.63680        1.72709       -5.06399
|  8> H         -1.58235        3.44561       -4.76869
|  9> O         -3.44376        2.84652       -3.25274
| 10> O         -1.97092        1.58304       -2.15123
| 11> H          0.41484        3.10285       -3.24517
| 12> H          0.68317        2.68756       -4.91972
| 13> H          0.37534        0.30051       -4.40446
| 14> H          0.21856        0.70606       -2.71212
| 15> H          1.71431        1.03324       -3.55398
| 16> *
| 17> %MaxCore 64000
| 18>
| 19> %pal nprocs 4
| 20> end
| 21>
| 22> %scf
| 23>   MaxIter 150
| 24> end
| 25>
| 26>
| 27>                          ****END OF INPUT****

CARTESIAN COORDINATES (ANGSTROEM)
---------------------------------
  C      0.648660    1.003590   -3.645600
  C      0.132970    2.385870   -4.024620
  C     -1.366460    2.479110   -4.313930
  C     -2.357730    2.306860   -3.136750
  H     -1.636800    1.727090   -5.063990
  H     -1.582350    3.445610   -4.768690
  O     -3.443760    2.846520   -3.252740
  O     -1.970920    1.583040   -2.151230
  H      0.414840    3.102850   -3.245170
  H      0.683170    2.687560   -4.919720
  H      0.375340    0.300510   -4.404460
  H      0.218560    0.706060   -2.712120
  H      1.714310    1.033240   -3.553980

 Total Charge           Charge          ....   -1
 Multiplicity           Mult            ....    1
 Number of Electrons    NEL             ....   48
 Basis Dimension        Dim             ....  182

ORBITAL ENERGIES
----------------

  NO   OCC          E(Eh)            E(eV)
   0   2.0000     -18.540503      -504.5127
   1   2.0000     -18.531011      -504.2544
   2   2.0000      -9.807157      -266.8663
   3   2.0000      -9.771914      -265.9073
   4   2.0000      -9.760591      -265.5992
   5   2.0000      -9.749725      -265.3035
   6   2.0000      -0.728532       -19.8244
   7   2.0000      -0.634456       -17.2644
   8   2.0000      -0.548804       -14.9337
   9   2.0000      -0.460749       -12.5376
  10   2.0000      -0.373874       -10.1736
  11   2.0000      -0.269447        -7.3320
  12   2.0000      -0.243180        -6.6173
  13   2.0000      -0.232123        -6.3164
  14   2.0000      -0.209873        -5.7109
  15   2.0000      -0.173617        -4.7243
  16   2.0000      -0.167660        -4.5622
  17   2.0000      -0.159097        -4.3292
  18   2.0000      -0.145969        -3.9720
  19   2.0000      -0.130924        -3.5626
  20   2.0000      -0.119726        -3.2579
  21   2.0000      -0.014733        -0.4009
  22   2.0000      -0.000369        -0.0100
  23   2.0000       0.015181         0.4131
  24   0.0000       0.129496         3.5238
  25   0.0000       0.156961         4.2711
  26   0.0000       0.165833         4.5125
  27   0.0000       0.182214         4.9583
  28   0.0000       0.196312         5.3419

MULLIKEN ATOMIC CHARGES
-----------------------
   0 C :    1.131099
   1 C :   -0.056404
   2 C :    0.244187
   3 C :    0.222765
   4 H :   -0.063617
   5 H :   -0.162503
   6 O :   -0.533943
   7 O :   -0.654313
   8 H :   -0.238794
   9 H :   -0.211754
  10 H :   -0.193744
  11 H :   -0.286533
  12 H :   -0.196448
Sum of atomic charges:   -1.0000000

LOEWDIN ATOMIC CHARGES
----------------------
   0 C :    0.113311
   1 C :   -0.086648
   2 C :    0.012254
   3 C :   -0.319089
   4 H :    0.005303
   5 H :   -0.010326
   6 O :   -0.280731
   7 O :   -0.304185
   8 H :    0.010793
   9 H :   -0.011469
  10 H :   -0.034818
  11 H :   -0.047839
  12 H :   -0.046556

  Mayer bond orders larger than 0.100000
B(  0-C ,  1-C ) :   1.2633 B(  0-C ,  8-H ) :   0.1343 B(  0-C ,  9-H ) :   0.1215
B(  0-C , 10-H ) :   0.6779 B(  0-C , 11-H ) :   0.7256 B(  0-C , 12-H ) :   0.6315
B(  1-C ,  2-C ) :   1.1902 B(  1-C ,  4-H ) :   0.1732 B(  1-C ,  5-H ) :   0.1587
B(  1-C ,  8-H ) :   0.8363 B(  1-C ,  9-H ) :   0.7608 B(  1-C , 10-H ) :   0.2658
B(  1-C , 11-H ) :   0.2806 B(  1-C , 12-H ) :   0.2948 B(  2-C ,  3-C ) :   1.0201
B(  2-C ,  4-H ) :   0.7695 B(  2-C ,  5-H ) :   0.8705 B(  2-C ,  8-H ) :   0.1692
B(  2-C ,  9-H ) :   0.1628 B(  3-C ,  5-H ) :   0.1815 B(  3-C ,  6-O ) :   1.5973
B(  3-C ,  7-O ) :   1.5102 B( 10-H , 11-H ) :   0.1024

Dispersion correction           -0.019862059
FINAL SINGLE POINT ENERGY      -306.855425017748

DIPOLE MOMENT
-------------
                                X             Y             Z
Electronic contribution:     -7.27392       1.46148       3.18319
Nuclear contribution   :      9.31936      -1.53308      -4.48293
                        -----------------------------------------
Total Dipole Moment    :      2.04544      -0.07160      -1.29974
                        -----------------------------------------
Magnitude (a.u.)       :      2.42452
Magnitude (Debye)      :      6.16263

Rotational constants in cm-1:     0.250458     0.077448     0.063252
Rotational constants in MHz :  7508.538874  2321.842942  1896.252250

                             ****ORCA TERMINATED NORMALLY****
TOTAL RUN TIME: 0 days 0 hours 0 minutes 6 seconds 998 msec
