                         Program Version 5.0.0 -  RELEASE  -
|  1> !BLYP D3BJ RIJCOSX def2-SVPD def2/J TightSCF
|  2> *xyz 1 1
|  3> C          0.64866        1.00359       -3.64560
|  4> N          0.28128        0.67645       -2.24018
|  5> C          0.13297        2.38587       -4.02462
|  6> C         -1.36646        2.47911       -4.31393
|  7> H          0.39079       -0.31925       -2.02649
|  8> H         -0.69269        0.99010       -2.13812
|  9> H          0.85421        1.21221       -1.57528
| 10> H          0.19099        0.23965       -4.27575
| 11> H          1.73157        0.93173       -3.75075
| 12> H          0.41484        3.10285       -3.24517
| 13> H          0.68317        2.68756       -4.91972
| 14> H         -1.62719        1.77449       -5.07580
| 15> H         -1.60483        3.46796       -4.64597
| 16> H         -1.91603        2.26007       -3.42236
| 17> *
| 18> %MaxCore 64000
| 19>
| 20> %pal nprocs 4
| 21> end
| 22>
| 23> %scf
| 24>   MaxIter 150
| 25> end
| 26>
| 27>
| 28>                          ****END OF INPUT****

CARTESIAN COORDINATES (ANGSTROEM)
---------------------------------
  C      0.648660    1.003590   -3.645600
  N      0.281280    0.676450   -2.240180
  C      0.132970    2.385870   -4.024620
  C     -1.366460    2.479110   -4.313930
  H      0.390790   -0.319250   -2.026490
  H     -0.692690    0.990100   -2.138120
  H      0.854210    1.212210   -1.575280
  H      0.190990    0.239650   -4.275750
  H      1.731570    0.931730   -3.750750
  H      0.414840    3.102850   -3.245170
  H      0.683170    2.687560   -4.919720
  H     -1.627190    1.774490   -5.075800
  H     -1.604830    3.467960   -4.645970
  H     -1.916030    2.260070   -3.422360

 Total Charge           Charge          ....    1
 Multiplicity           Mult            ....    1
 Number of Electrons    NEL             ....   34
 Basis Dimension        Dim             ....  160

ORBITAL ENERGIES
----------------

  NO   OCC          E(Eh)            E(eV)
   0   2.0000     -14.351537      -390.5252
   1   2.0000     -10.168696      -276.7043
   2   2.0000     -10.102937      -274.9149
   3   2.0000     -10.071130      -274.0494
   4   2.0000      -1.117005       -30.3953
   5   2.0000      -0.890426       -24.2297
   6   2.0000      -0.807217       -21.9655
   7   2.0000      -0.745971       -20.2989
   8   2.0000      -0.740416       -20.1478
   9   2.0000      -0.705025       -19.1847
  10   2.0000      -0.638126       -17.3643
  11   2.0000      -0.579452       -15.7677
  12   2.0000      -0.559595       -15.2274
  13   2.0000      -0.539320       -14.6756
  14   2.0000      -0.486122       -13.2280
  15   2.0000      -0.475560       -12.9406
  16   2.0000      -0.471886       -12.8407
  17   0.0000      -0.214642        -5.8407
  18   0.0000      -0.160137        -4.3575
  19   0.0000      -0.155112        -4.2208
  20   0.0000      -0.140776        -3.8307
  21   0.0000      -0.116387        -3.1671

MULLIKEN ATOMIC CHARGES
-----------------------
   0 C :    0.897429
   1 N :   -0.620484
   2 C :   -0.030924
   3 C :    1.188971
   4 H :    0.262505
   5 H :    0.335113
   6 H :    0.360892
   7 H :   -0.171638
   8 H :   -0.264037
   9 H :   -0.180444
  10 H :   -0.183652
  11 H :   -0.097784
  12 H :   -0.165870
  13 H :   -0.330076
Sum of atomic charges:    1.0000000

LOEWDIN ATOMIC CHARGES
----------------------
   0 C :    0.090905
   1 N :    0.348722
   2 C :   -0.038461
   3 C :    0.169408
   4 H :    0.103843
   5 H :    0.080214
   6 H :    0.105897
   7 H :    0.049691
   8 H :    0.048477
   9 H :    0.030630
  10 H :    0.040672
  11 H :   -0.004727
  12 H :    0.003896
  13 H :   -0.029168

  Mayer bond orders larger than 0.100000
B(  0-C ,  1-N ) :   0.7984 B(  0-C ,  2-C ) :   1.1916 B(  0-C ,  7-H ) :   0.8002
B(  0-C ,  8-H ) :   0.7791 B(  0-C , 10-H ) :   0.1538 B(  1-N ,  4-H ) :   0.8267
B(  1-N ,  5-H ) :   0.7344 B(  1-N ,  6-H ) :   0.7687 B(  1-N ,  7-H ) :   0.1168
B(  1-N ,  8-H ) :   0.1607 B(  2-C ,  3-C ) :   1.2706 B(  2-C ,  8-H ) :   0.1191
B(  2-C ,  9-H ) :   0.8710 B(  2-C , 10-H ) :   0.8146 B(  2-C , 11-H ) :   0.2370
B(  2-C , 12-H ) :   0.2884 B(  2-C , 13-H ) :   0.2434 B(  3-C , 11-H ) :   0.6880
B(  3-C , 12-H ) :   0.6665 B(  3-C , 13-H ) :   0.6917 B( 11-H , 13-H ) :   0.1072

Dispersion correction           -0.018820529
FINAL SINGLE POINT ENERGY      -174.638118462296

DIPOLE MOMENT
-------------
                                X             Y             Z
Electronic contribution:      1.30696      -1.45199       1.56288
Nuclear contribution   :     -0.74670       0.28200      -0.02386
                        -----------------------------------------
Total Dipole Moment    :      0.56026      -1.17000       1.53901
                        -----------------------------------------
Magnitude (a.u.)       :      2.01280
Magnitude (Debye)      :      5.11613

Rotational constants in cm-1:     0.472563     0.149855     0.132807
Rotational constants in MHz : 14167.078489  4492.544970  3981.441276

                             ****ORCA TERMINATED NORMALLY****
TOTAL RUN TIME: 0 days 0 hours 0 minutes 4 seconds 985 msec
