                         Program Version 5.0.0 -  RELEASE  -
|  1> !BLYP D3BJ RIJCOSX def2-SVPD def2/J TightSCF
|  2> *xyz 0 1
|  3> C          0.64866        1.00359       -3.64560
|  4> C          0.13297        2.38587       -4.02462
|  5> C         -1.36646        2.47911       -4.31393
|  6> C         -2.35773        2.30686       -3.13675
|  7> H         -1.63680        1.72709       -5.06399
|  8> H         -1.58235        3.44561       -4.76869
|  9> F         -3.44376        2.84652       -3.25274
| 10> O         -1.97092        1.58304       -2.15123
| 11> H          0.41484        3.10285       -3.24517
| 12> H          0.68317        2.68756       -4.91972
| 13> H          0.37534        0.30051       -4.40446
| 14> H          0.21856        0.70606       -2.71212
| 15> H          1.71431        1.03324       -3.55398
| 16> *
| 17> %MaxCore 64000
| 18>
| 19> %pal nprocs 4
| 20> end
| 21>
| 22> %scf
| 23>   MaxIter 150
| 24> end
| 25>
| 26>
| 27>                          ****END OF INPUT****

CARTESIAN COORDINATES (ANGSTROEM)
---------------------------------
  C      0.648660    1.003590   -3.645600
  C      0.132970    2.385870   -4.024620
  C     -1.366460    2.479110   -4.313930
  C     -2.357730    2.306860   -3.136750
  H     -1.636800    1.727090   -5.063990
  H     -1.582350    3.445610   -4.768690
  F     -3.443760    2.846520   -3.252740
  O     -1.970920    1.583040   -2.151230
  H      0.414840    3.102850   -3.245170
  H      0.683170    2.687560   -4.919720
  H      0.375340    0.300510   -4.404460
  H      0.218560    0.706060   -2.712120
  H      1.714310    1.033240   -3.553980

 Total Charge           Charge          ....    0
 Multiplicity           Mult            ....    1
 Number of Electrons    NEL             ....   48
 Basis Dimension        Dim             ....  182

ORBITAL ENERGIES
----------------

  NO   OCC          E(Eh)            E(eV)
   0   2.0000     -24.390168      -663.6902
   1   2.0000     -18.795426      -511.4495
   2   2.0000     -10.101131      -274.8657
   3   2.0000      -9.954200      -270.8676
   4   2.0000      -9.932889      -270.2877
   5   2.0000      -9.903486      -269.4876
   6   2.0000      -1.226479       -33.3742
   7   2.0000      -0.917136       -24.9565
   8   2.0000      -0.722353       -19.6562
   9   2.0000      -0.651059       -17.7162
  10   2.0000      -0.600735       -16.3468
  11   2.0000      -0.543504       -14.7895
  12   2.0000      -0.504404       -13.7255
  13   2.0000      -0.480156       -13.0657
  14   2.0000      -0.445251       -12.1159
  15   2.0000      -0.409102       -11.1322
  16   2.0000      -0.399723       -10.8770
  17   2.0000      -0.372080       -10.1248
  18   2.0000      -0.338169        -9.2021
  19   2.0000      -0.315554        -8.5867
  20   2.0000      -0.312707        -8.5092
  21   2.0000      -0.301547        -8.2055
  22   2.0000      -0.297726        -8.1015
  23   2.0000      -0.235719        -6.4142
  24   0.0000      -0.068166        -1.8549
  25   0.0000      -0.004535        -0.1234
  26   0.0000       0.020449         0.5565
  27   0.0000       0.034659         0.9431
  28   0.0000       0.036724         0.9993

MULLIKEN ATOMIC CHARGES
-----------------------
   0 C :    1.168550
   1 C :   -0.046652
   2 C :    0.221530
   3 C :    0.564641
   4 H :    0.007895
   5 H :   -0.129412
   6 F :   -0.272323
   7 O :   -0.425833
   8 H :   -0.222267
   9 H :   -0.199354
  10 H :   -0.182553
  11 H :   -0.307794
  12 H :   -0.176427
Sum of atomic charges:    0.0000000

LOEWDIN ATOMIC CHARGES
----------------------
   0 C :    0.139752
   1 C :   -0.057507
   2 C :    0.049930
   3 C :   -0.033552
   4 H :    0.035808
   5 H :    0.015261
   6 F :    0.013057
   7 O :   -0.122923
   8 H :    0.024857
   9 H :    0.016245
  10 H :   -0.020865
  11 H :   -0.038112
  12 H :   -0.021951

  Mayer bond orders larger than 0.100000
B(  0-C ,  1-C ) :   1.2926 B(  0-C ,  8-H ) :   0.1286 B(  0-C ,  9-H ) :   0.1095
B(  0-C , 10-H ) :   0.6643 B(  0-C , 11-H ) :   0.7226 B(  0-C , 12-H ) :   0.6310
B(  1-C ,  2-C ) :   1.2524 B(  1-C ,  4-H ) :   0.1645 B(  1-C ,  5-H ) :   0.1657
B(  1-C ,  8-H ) :   0.8398 B(  1-C ,  9-H ) :   0.7599 B(  1-C , 10-H ) :   0.2579
B(  1-C , 11-H ) :   0.2721 B(  1-C , 12-H ) :   0.2851 B(  2-C ,  3-C ) :   1.0646
B(  2-C ,  4-H ) :   0.7524 B(  2-C ,  5-H ) :   0.8303 B(  2-C ,  6-F ) :   0.1011
B(  2-C ,  8-H ) :   0.1530 B(  2-C ,  9-H ) :   0.1522 B(  3-C ,  4-H ) :   0.1026
B(  3-C ,  5-H ) :   0.1327 B(  3-C ,  6-F ) :   0.8574 B(  3-C ,  7-O ) :   1.8399
B(  6-F ,  7-O ) :   0.1257 B( 10-H , 11-H ) :   0.1056

Dispersion correction           -0.019164957
FINAL SINGLE POINT ENERGY      -331.380079487088

DIPOLE MOMENT
-------------
                                X             Y             Z
Electronic contribution:    -11.47045       2.89111       3.65470
Nuclear contribution   :     11.62992      -2.38586      -4.66016
                        -----------------------------------------
Total Dipole Moment    :      0.15947       0.50525      -1.00546
                        -----------------------------------------
Magnitude (a.u.)       :      1.13651
Magnitude (Debye)      :      2.88878

Rotational constants in cm-1:     0.249088     0.072929     0.060128
Rotational constants in MHz :  7467.482637  2186.350475  1802.579568

                             ****ORCA TERMINATED NORMALLY****
TOTAL RUN TIME: 0 days 0 hours 0 minutes 6 seconds 265 msec
