                         Program Version 5.0.0 -  RELEASE  -
|  1> !BLYP D3BJ RIJCOSX def2-SVPD def2/J TightSCF
|  2> *xyz 0 1
|  3> C          0.64866        1.00359       -3.64560
|  4> C          0.28128        0.67645       -2.24018
|  5> C          0.13297        2.38587       -4.02462
|  6> C         -1.36646        2.47911       -4.31393
|  7> H          0.39079       -0.31925       -2.02649
|  8> H         -0.69269        0.99010       -2.13812
|  9> H          0.85421        1.21221       -1.57528
| 10> H          0.19099        0.23965       -4.27575
| 11> H          1.73157        0.93173       -3.75075
| 12> H          0.41484        3.10285       -3.24517
| 13> H          0.68317        2.68756       -4.91972
| 14> H         -1.62719        1.77449       -5.07580
| 15> H         -1.60483        3.46796       -4.64597
| 16> H         -1.91603        2.26007       -3.42236
| 17> *
| 18> %MaxCore 64000
| 19>
| 20> %pal nprocs 4
| 21> end
| 22>
| 23> %scf
| 24>   MaxIter 150
| 25> end
| 26>
| 27>
| 28>                          ****END OF INPUT****

CARTESIAN COORDINATES (ANGSTROEM)
---------------------------------
  C      0.648660    1.003590   -3.645600
  C      0.281280    0.676450   -2.240180
  C      0.132970    2.385870   -4.024620
  C     -1.366460    2.479110   -4.313930
  H      0.390790   -0.319250   -2.026490
  H     -0.692690    0.990100   -2.138120
  H      0.854210    1.212210   -1.575280
  H      0.190990    0.239650   -4.275750
  H      1.731570    0.931730   -3.750750
  H      0.414840    3.102850   -3.245170
  H      0.683170    2.687560   -4.919720
  H     -1.627190    1.774490   -5.075800
  H     -1.604830    3.467960   -4.645970
  H     -1.916030    2.260070   -3.422360

 Total Charge           Charge          ....    0
 Multiplicity           Mult            ....    1
 Number of Electrons    NEL             ....   34
 Basis Dimension        Dim             ....  160

ORBITAL ENERGIES
----------------

  NO   OCC          E(Eh)            E(eV)
   0   2.0000      -9.911693      -269.7109
   1   2.0000      -9.907373      -269.5933
   2   2.0000      -9.905004      -269.5289
   3   2.0000      -9.884905      -268.9820
   4   2.0000      -0.716405       -19.4944
   5   2.0000      -0.648192       -17.6382
   6   2.0000      -0.567880       -15.4528
   7   2.0000      -0.500707       -13.6249
   8   2.0000      -0.415753       -11.3132
   9   2.0000      -0.404568       -11.0088
  10   2.0000      -0.376635       -10.2488
  11   2.0000      -0.346825        -9.4376
  12   2.0000      -0.330455        -8.9921
  13   2.0000      -0.317181        -8.6309
  14   2.0000      -0.283558        -7.7160
  15   2.0000      -0.281778        -7.6676
  16   2.0000      -0.271150        -7.3784
  17   0.0000       0.008058         0.2193
  18   0.0000       0.033164         0.9024
  19   0.0000       0.036192         0.9848
  20   0.0000       0.041019         1.1162
  21   0.0000       0.077357         2.1050

MULLIKEN ATOMIC CHARGES
-----------------------
   0 C :    0.041134
   1 C :    1.604112
   2 C :   -0.066820
   3 C :    1.161751
   4 H :   -0.388772
   5 H :   -0.598992
   6 H :   -0.195951
   7 H :   -0.164945
   8 H :   -0.316403
   9 H :   -0.188790
  10 H :   -0.257165
  11 H :   -0.105250
  12 H :   -0.191250
  13 H :   -0.332659
Sum of atomic charges:    0.0000000

LOEWDIN ATOMIC CHARGES
----------------------
   0 C :   -0.069347
   1 C :    0.138762
   2 C :   -0.073089
   3 C :    0.141001
   4 H :   -0.036346
   5 H :   -0.050143
   6 H :   -0.031705
   7 H :    0.018210
   8 H :    0.015654
   9 H :    0.019349
  10 H :    0.008221
  11 H :   -0.021935
  12 H :   -0.023806
  13 H :   -0.034827

  Mayer bond orders larger than 0.100000
B(  0-C ,  1-C ) :   1.1855 B(  0-C ,  2-C ) :   1.2213 B(  0-C ,  4-H ) :   0.2833
B(  0-C ,  5-H ) :   0.3792 B(  0-C ,  6-H ) :   0.2926 B(  0-C ,  7-H ) :   0.7881
B(  0-C ,  8-H ) :   0.8235 B(  0-C ,  9-H ) :   0.1376 B(  0-C , 10-H ) :   0.1358
B(  1-C ,  4-H ) :   0.4697 B(  1-C ,  5-H ) :   0.3385 B(  1-C ,  6-H ) :   0.4991
B(  1-C ,  7-H ) :   0.1386 B(  1-C ,  8-H ) :   0.1114 B(  2-C ,  3-C ) :   1.2438
B(  2-C ,  7-H ) :   0.1026 B(  2-C ,  8-H ) :   0.1451 B(  2-C ,  9-H ) :   0.8316
B(  2-C , 10-H ) :   0.8440 B(  2-C , 11-H ) :   0.2670 B(  2-C , 12-H ) :   0.2909
B(  2-C , 13-H ) :   0.2608 B(  3-C ,  9-H ) :   0.1103 B(  3-C , 10-H ) :   0.1057
B(  3-C , 11-H ) :   0.6821 B(  3-C , 12-H ) :   0.6372 B(  3-C , 13-H ) :   0.7127
B(  5-H ,  6-H ) :   0.2008 B(  5-H , 13-H ) :   0.1009

Dispersion correction           -0.018947358
FINAL SINGLE POINT ENERGY      -158.226319353773

DIPOLE MOMENT
-------------
                                X             Y             Z
Electronic contribution:      0.65269       0.02043      -0.38663
Nuclear contribution   :     -0.63302      -0.01177       0.37643
                        -----------------------------------------
Total Dipole Moment    :      0.01967       0.00866      -0.01021
                        -----------------------------------------
Magnitude (a.u.)       :      0.02379
Magnitude (Debye)      :      0.06048

Rotational constants in cm-1:     0.480601     0.156500     0.138605
Rotational constants in MHz : 14408.061205  4691.756081  4155.280646

                             ****ORCA TERMINATED NORMALLY****
TOTAL RUN TIME: 0 days 0 hours 0 minutes 4 seconds 957 msec
