                         Program Version 5.0.0 -  RELEASE  -
|  1> !BLYP D3BJ RIJCOSX def2-SVPD def2/J TightSCF
|  2> *xyz 0 1
|  3> C          0.64866        1.00359       -3.64560
|  4> C          0.13297        2.38587       -4.02462
|  5> C         -1.36646        2.47911       -4.31393
|  6> C         -2.35773        2.30686       -3.13675
|  7> H         -1.63680        1.72709       -5.06399
|  8> H         -1.58235        3.44561       -4.76869
|  9> O         -3.44376        2.84652       -3.25274
| 10> F         -1.97092        1.58304       -2.15123
| 11> H          0.41484        3.10285       -3.24517
| 12> H          0.68317        2.68756       -4.91972
| 13> H          0.37534        0.30051       -4.40446
| 14> H          0.21856        0.70606       -2.71212
| 15> H          1.71431        1.03324       -3.55398
| 16> *
| 17> %MaxCore 64000
| 18>
| 19> %pal nprocs 4
| 20> end
| 21>
| 22> %scf
| 23>   MaxIter 150
| 24> end
| 25>
| 26>
| 27>                          ****END OF INPUT****

CARTESIAN COORDINATES (ANGSTROEM)
---------------------------------
  C      0.648660    1.003590   -3.645600
  C      0.132970    2.385870   -4.024620
  C     -1.366460    2.479110   -4.313930
  C     -2.357730    2.306860   -3.136750
  H     -1.636800    1.727090   -5.063990
  H     -1.582350    3.445610   -4.768690
  O     -3.443760    2.846520   -3.252740
  F     -1.970920    1.583040   -2.151230
  H      0.414840    3.102850   -3.245170
  H      0.683170    2.687560   -4.919720
  H      0.375340    0.300510   -4.404460
  H      0.218560    0.706060   -2.712120
  H      1.714310    1.033240   -3.553980

 Total Charge           Charge          ....    0
 Multiplicity           Mult            ....    1
 Number of Electrons    NEL             ....   48
 Basis Dimension        Dim             ....  182

ORBITAL ENERGIES
----------------

  NO   OCC          E(Eh)            E(eV)
   0   2.0000     -24.366954      -663.0585
   1   2.0000     -18.804426      -511.6944
   2   2.0000     -10.095380      -274.7093
   3   2.0000      -9.952587      -270.8237
   4   2.0000      -9.937249      -270.4063
   5   2.0000      -9.916925      -269.8532
   6   2.0000      -1.179385       -32.0927
   7   2.0000      -0.954520       -25.9738
   8   2.0000      -0.727657       -19.8006
   9   2.0000      -0.648762       -17.6537
  10   2.0000      -0.582666       -15.8551
  11   2.0000      -0.547069       -14.8865
  12   2.0000      -0.481700       -13.1077
  13   2.0000      -0.469422       -12.7736
  14   2.0000      -0.437496       -11.9049
  15   2.0000      -0.407072       -11.0770
  16   2.0000      -0.404153       -10.9976
  17   2.0000      -0.378371       -10.2960
  18   2.0000      -0.356318        -9.6959
  19   2.0000      -0.330264        -8.9869
  20   2.0000      -0.324351        -8.8260
  21   2.0000      -0.306431        -8.3384
  22   2.0000      -0.304515        -8.2863
  23   2.0000      -0.249070        -6.7775
  24   0.0000      -0.062636        -1.7044
  25   0.0000      -0.007157        -0.1947
  26   0.0000       0.024038         0.6541
  27   0.0000       0.028198         0.7673
  28   0.0000       0.032781         0.8920

MULLIKEN ATOMIC CHARGES
-----------------------
   0 C :    1.171395
   1 C :   -0.008493
   2 C :    0.218520
   3 C :    0.542253
   4 H :   -0.002237
   5 H :   -0.129433
   6 O :   -0.323486
   7 F :   -0.366055
   8 H :   -0.233683
   9 H :   -0.192098
  10 H :   -0.177717
  11 H :   -0.324498
  12 H :   -0.174468
Sum of atomic charges:    0.0000000

LOEWDIN ATOMIC CHARGES
----------------------
   0 C :    0.135986
   1 C :   -0.067445
   2 C :    0.060121
   3 C :   -0.033739
   4 H :    0.037264
   5 H :    0.026418
   6 O :   -0.091495
   7 F :   -0.028759
   8 H :    0.022128
   9 H :    0.016686
  10 H :   -0.019721
  11 H :   -0.037386
  12 H :   -0.020058

  Mayer bond orders larger than 0.100000
B(  0-C ,  1-C ) :   1.2843 B(  0-C ,  8-H ) :   0.1202 B(  0-C ,  9-H ) :   0.1103
B(  0-C , 10-H ) :   0.6710 B(  0-C , 11-H ) :   0.7140 B(  0-C , 12-H ) :   0.6427
B(  1-C ,  2-C ) :   1.2259 B(  1-C ,  4-H ) :   0.1692 B(  1-C ,  5-H ) :   0.1520
B(  1-C ,  8-H ) :   0.8315 B(  1-C ,  9-H ) :   0.7481 B(  1-C , 10-H ) :   0.2601
B(  1-C , 11-H ) :   0.2689 B(  1-C , 12-H ) :   0.2843 B(  2-C ,  3-C ) :   1.0402
B(  2-C ,  4-H ) :   0.7487 B(  2-C ,  5-H ) :   0.8566 B(  2-C ,  8-H ) :   0.1611
B(  2-C ,  9-H ) :   0.1682 B(  3-C ,  5-H ) :   0.1641 B(  3-C ,  6-O ) :   1.9293
B(  3-C ,  7-F ) :   0.7684 B(  6-O ,  7-F ) :   0.1390 B( 10-H , 11-H ) :   0.1060

Dispersion correction           -0.018918621
FINAL SINGLE POINT ENERGY      -331.396518857815

DIPOLE MOMENT
-------------
                                X             Y             Z
Electronic contribution:     -8.91685       0.75895       5.46402
Nuclear contribution   :      9.96624      -0.95867      -5.90440
                        -----------------------------------------
Total Dipole Moment    :      1.04940      -0.19972      -0.44038
                        -----------------------------------------
Magnitude (a.u.)       :      1.15544
Magnitude (Debye)      :      2.93691

Rotational constants in cm-1:     0.233484     0.076940     0.061803
Rotational constants in MHz :  6999.682494  2306.588565  1852.797552

                             ****ORCA TERMINATED NORMALLY****
TOTAL RUN TIME: 0 days 0 hours 0 minutes 6 seconds 554 msec
