                         Program Version 5.0.0 -  RELEASE  -
|  1> !PBE D3BJ RIJCOSX def2-SVPD def2/J TightSCF
|  2> *xyz -1 1
|  3> C         -5.57236       -5.80780       -0.81644
|  4> S         -6.90318       -4.61903       -0.52846
|  5> O         -8.11485       -5.25093       -0.95701
|  6> O         -6.53271       -3.42684       -1.31485
|  7> O         -6.86563       -4.29496        0.91412
|  8> C         -3.82708       -4.66110        0.78617
|  9> C         -4.45780       -5.94187        0.22919
| 10> H         -5.17735       -5.54257       -1.79771
| 11> H         -6.07420       -6.76889       -0.92127
| 12> H         -3.68106       -6.56224       -0.22988
| 13> H         -4.84394       -6.51273        1.07581
| 14> H         -3.43706       -4.07576       -0.02016
| 15> H         -3.03403       -4.91680        1.45744
| 16> H         -4.56975       -4.09647        1.31013
| 17> *
| 18> %MaxCore 64000
| 19>
| 20> %pal nprocs 4
| 21> end
| 22>
| 23> %scf
| 24>   MaxIter 150
| 25> end
| 26>
| 27>                          ****END OF INPUT****

CARTESIAN COORDINATES (ANGSTROEM)
---------------------------------
  C     -5.572360   -5.807800   -0.816440
  S     -6.903180   -4.619030   -0.528460
  O     -8.114850   -5.250930   -0.957010
  O     -6.532710   -3.426840   -1.314850
  O     -6.865630   -4.294960    0.914120
  C     -3.827080   -4.661100    0.786170
  C     -4.457800   -5.941870    0.229190
  H     -5.177350   -5.542570   -1.797710
  H     -6.074200   -6.768890   -0.921270
  H     -3.681060   -6.562240   -0.229880
  H     -4.843940   -6.512730    1.075810
  H     -3.437060   -4.075760   -0.020160
  H     -3.034030   -4.916800    1.457440
  H     -4.569750   -4.096470    1.310130

 Total Charge           Charge          ....   -1
 Multiplicity           Mult            ....    1
 Number of Electrons    NEL             ....   66
 Basis Dimension        Dim             ....  212

ORBITAL ENERGIES
----------------

  NO   OCC          E(Eh)            E(eV)
   0   2.0000     -88.056800     -2396.1473
   1   2.0000     -18.552039      -504.8267
   2   2.0000     -18.539951      -504.4977
   3   2.0000     -18.538425      -504.4562
   4   2.0000      -9.770044      -265.8564
   5   2.0000      -9.759404      -265.5669
   6   2.0000      -9.745943      -265.2006
   7   2.0000      -7.660819      -208.4615
   8   2.0000      -5.687822      -154.7735
   9   2.0000      -5.687709      -154.7704
  10   2.0000      -5.687136      -154.7548
  11   2.0000      -0.841107       -22.8877
  12   2.0000      -0.706036       -19.2122
  13   2.0000      -0.683397       -18.5962
  14   2.0000      -0.577162       -15.7054
  15   2.0000      -0.495751       -13.4901
  16   2.0000      -0.408734       -11.1222
  17   2.0000      -0.322312        -8.7706
  18   2.0000      -0.281782        -7.6677
  19   2.0000      -0.268632        -7.3098
  20   2.0000      -0.245866        -6.6904
  21   2.0000      -0.230952        -6.2845
  22   2.0000      -0.213143        -5.7999
  23   2.0000      -0.203490        -5.5372
  24   2.0000      -0.180219        -4.9040
  25   2.0000      -0.176146        -4.7932
  26   2.0000      -0.161698        -4.4000
  27   2.0000      -0.105821        -2.8795
  28   2.0000      -0.102616        -2.7923
  29   2.0000      -0.075030        -2.0417
  30   2.0000      -0.063801        -1.7361
  31   2.0000      -0.057466        -1.5637
  32   2.0000      -0.021200        -0.5769
  33   0.0000       0.118211         3.2167
  34   0.0000       0.146076         3.9749
  35   0.0000       0.152205         4.1417
  36   0.0000       0.159665         4.3447
  37   0.0000       0.180090         4.9005

MULLIKEN ATOMIC CHARGES
-----------------------
   0 C :    0.037082
   1 S :    1.163591
   2 O :   -0.747555
   3 O :   -0.756887
   4 O :   -0.791362
   5 C :    0.794187
   6 C :   -0.323836
   7 H :    0.028360
   8 H :   -0.019294
   9 H :   -0.110801
  10 H :   -0.025547
  11 H :   -0.056207
  12 H :   -0.059104
  13 H :   -0.132625
Sum of atomic charges:   -1.0000000

LOEWDIN ATOMIC CHARGES
----------------------
   0 C :   -0.087431
   1 S :    0.820835
   2 O :   -0.546874
   3 O :   -0.572224
   4 O :   -0.557183
   5 C :    0.120308
   6 C :   -0.095617
   7 H :   -0.000374
   8 H :   -0.006775
   9 H :    0.004706
  10 H :    0.015678
  11 H :   -0.018682
  12 H :   -0.034715
  13 H :   -0.041651

  Mayer bond orders larger than 0.100000
B(  0-C ,  1-S ) :   0.8513 B(  0-C ,  2-O ) :   0.1084 B(  0-C ,  6-C ) :   1.3307
B(  0-C ,  7-H ) :   0.8880 B(  0-C ,  8-H ) :   0.8764 B(  0-C ,  9-H ) :   0.1746
B(  0-C , 10-H ) :   0.1481 B(  1-S ,  2-O ) :   1.3821 B(  1-S ,  3-O ) :   1.2925
B(  1-S ,  4-O ) :   1.2822 B(  5-C ,  6-C ) :   1.3210 B(  5-C , 11-H ) :   0.7551
B(  5-C , 12-H ) :   0.7093 B(  5-C , 13-H ) :   0.8214 B(  6-C ,  7-H ) :   0.1400
B(  6-C ,  8-H ) :   0.1539 B(  6-C ,  9-H ) :   0.8456 B(  6-C , 10-H ) :   0.8829
B(  6-C , 11-H ) :   0.2267 B(  6-C , 12-H ) :   0.2362 B(  6-C , 13-H ) :   0.2271

Dispersion correction           -0.013198706
FINAL SINGLE POINT ENERGY      -741.517364966958

DIPOLE MOMENT
-------------
                                X             Y             Z
Electronic contribution:     -9.91805       3.27004      -2.57339
Nuclear contribution   :     11.75544      -4.53524       2.70749
                        -----------------------------------------
Total Dipole Moment    :      1.83739      -1.26520       0.13411
                        -----------------------------------------
Magnitude (a.u.)       :      2.23488
Magnitude (Debye)      :      5.68062

Rotational constants in cm-1:     0.134586     0.054907     0.051455
Rotational constants in MHz :  4034.798577  1646.069534  1542.570153

                             ****ORCA TERMINATED NORMALLY****
TOTAL RUN TIME: 0 days 0 hours 0 minutes 8 seconds 769 msec
