                         Program Version 5.0.0 -  RELEASE  -
|  1> !PBE D3BJ RIJCOSX def2-SVPD def2/J TightSCF
|  2> *xyz 1 1
|  3> C         -4.38262       -1.67089        1.21620
|  4> N         -5.76354       -1.91517        0.70501
|  5> C         -3.28173       -2.19127        0.29436
|  6> H         -5.84081       -2.11520       -0.30065
|  7> H         -6.40882       -1.14866        0.93612
|  8> H         -6.17478       -2.79061        1.05143
|  9> H         -4.32862       -2.13922        2.19810
| 10> H         -4.26158       -0.59740        1.35725
| 11> C         -3.47464       -3.60590       -0.25961
| 12> H         -2.35455       -2.12760        0.87143
| 13> H         -3.16661       -1.49969       -0.54504
| 14> H         -2.64612       -3.85908       -0.88759
| 15> H         -4.37934       -3.64545       -0.82956
| 16> H         -3.53324       -4.30157        0.55126
| 17> *
| 18> %MaxCore 64000
| 19>
| 20> %pal nprocs 4
| 21> end
| 22>
| 23> %scf
| 24>   MaxIter 150
| 25> end
| 26>
| 27>                          ****END OF INPUT****

CARTESIAN COORDINATES (ANGSTROEM)
---------------------------------
  C     -4.382620   -1.670890    1.216200
  N     -5.763540   -1.915170    0.705010
  C     -3.281730   -2.191270    0.294360
  H     -5.840810   -2.115200   -0.300650
  H     -6.408820   -1.148660    0.936120
  H     -6.174780   -2.790610    1.051430
  H     -4.328620   -2.139220    2.198100
  H     -4.261580   -0.597400    1.357250
  C     -3.474640   -3.605900   -0.259610
  H     -2.354550   -2.127600    0.871430
  H     -3.166610   -1.499690   -0.545040
  H     -2.646120   -3.859080   -0.887590
  H     -4.379340   -3.645450   -0.829560
  H     -3.533240   -4.301570    0.551260

 Total Charge           Charge          ....    1
 Multiplicity           Mult            ....    1
 Number of Electrons    NEL             ....   34
 Basis Dimension        Dim             ....  160

ORBITAL ENERGIES
----------------

  NO   OCC          E(Eh)            E(eV)
   0   2.0000     -14.328406      -389.8957
   1   2.0000     -10.142806      -275.9998
   2   2.0000     -10.075206      -274.1603
   3   2.0000     -10.046634      -273.3828
   4   2.0000      -1.123464       -30.5710
   5   2.0000      -0.898250       -24.4426
   6   2.0000      -0.820808       -22.3353
   7   2.0000      -0.745452       -20.2848
   8   2.0000      -0.732370       -19.9288
   9   2.0000      -0.713245       -19.4084
  10   2.0000      -0.641091       -17.4450
  11   2.0000      -0.588543       -16.0151
  12   2.0000      -0.562177       -15.2976
  13   2.0000      -0.539627       -14.6840
  14   2.0000      -0.489822       -13.3287
  15   2.0000      -0.484227       -13.1765
  16   2.0000      -0.466569       -12.6960
  17   0.0000      -0.214102        -5.8260
  18   0.0000      -0.164598        -4.4790
  19   0.0000      -0.160617        -4.3706
  20   0.0000      -0.138086        -3.7575
  21   0.0000      -0.113684        -3.0935

MULLIKEN ATOMIC CHARGES
-----------------------
   0 C :    0.699034
   1 N :   -0.816857
   2 C :   -0.428803
   3 H :    0.357861
   4 H :    0.341130
   5 H :    0.418872
   6 H :   -0.057713
   7 H :   -0.047874
   8 C :    0.805340
   9 H :   -0.029807
  10 H :   -0.043389
  11 H :   -0.071542
  12 H :   -0.112712
  13 H :   -0.013538
Sum of atomic charges:    1.0000000

LOEWDIN ATOMIC CHARGES
----------------------
   0 C :    0.095029
   1 N :    0.336727
   2 C :   -0.046684
   3 H :    0.087463
   4 H :    0.107002
   5 H :    0.103483
   6 H :    0.052778
   7 H :    0.051291
   8 C :    0.150369
   9 H :    0.048118
  10 H :    0.036965
  11 H :    0.008528
  12 H :   -0.028997
  13 H :   -0.002075

  Mayer bond orders larger than 0.100000
B(  0-C ,  1-N ) :   0.6686 B(  0-C ,  2-C ) :   1.2573 B(  0-C ,  6-H ) :   0.7859
B(  0-C ,  7-H ) :   0.8647 B(  0-C ,  9-H ) :   0.1500 B(  0-C , 10-H ) :   0.1252
B(  1-N ,  3-H ) :   0.6684 B(  1-N ,  4-H ) :   0.7681 B(  1-N ,  5-H ) :   0.7285
B(  1-N ,  6-H ) :   0.1406 B(  2-C ,  6-H ) :   0.1480 B(  2-C ,  8-C ) :   1.3579
B(  2-C ,  9-H ) :   0.9025 B(  2-C , 10-H ) :   0.9133 B(  2-C , 11-H ) :   0.2330
B(  2-C , 12-H ) :   0.1949 B(  2-C , 13-H ) :   0.2050 B(  8-C , 11-H ) :   0.7502
B(  8-C , 12-H ) :   0.8241 B(  8-C , 13-H ) :   0.7741

Dispersion correction           -0.009360686
FINAL SINGLE POINT ENERGY      -174.489915453682

DIPOLE MOMENT
-------------
                                X             Y             Z
Electronic contribution:     -1.70139       1.30560       0.78005
Nuclear contribution   :     -0.18358      -0.73024      -0.44649
                        -----------------------------------------
Total Dipole Moment    :     -1.88497       0.57536       0.33355
                        -----------------------------------------
Magnitude (a.u.)       :      1.99885
Magnitude (Debye)      :      5.08067

Rotational constants in cm-1:     0.423641     0.164544     0.133152
Rotational constants in MHz : 12700.438743  4932.897948  3991.802402

                             ****ORCA TERMINATED NORMALLY****
TOTAL RUN TIME: 0 days 0 hours 0 minutes 5 seconds 81 msec
