                         Program Version 5.0.0 -  RELEASE  -
|  1> !PBE D3BJ RIJCOSX def2-SVPD def2/J TightSCF
|  2> *xyz 0 1
|  3> C         -5.57236       -5.80780       -0.81644
|  4> S         -6.90318       -4.61903       -0.52846
|  5> F         -8.11485       -5.25093       -0.95701
|  6> O         -6.53271       -3.42684       -1.31485
|  7> O         -6.86563       -4.29496        0.91412
|  8> C         -3.82708       -4.66110        0.78617
|  9> C         -4.45780       -5.94187        0.22919
| 10> H         -5.17735       -5.54257       -1.79771
| 11> H         -6.07420       -6.76889       -0.92127
| 12> H         -3.68106       -6.56224       -0.22988
| 13> H         -4.84394       -6.51273        1.07581
| 14> H         -3.43706       -4.07576       -0.02016
| 15> H         -3.03403       -4.91680        1.45744
| 16> H         -4.56975       -4.09647        1.31013
| 17> *
| 18> %MaxCore 64000
| 19>
| 20> %pal nprocs 4
| 21> end
| 22>
| 23> %scf
| 24>   MaxIter 150
| 25> end
| 26>
| 27>                          ****END OF INPUT****

CARTESIAN COORDINATES (ANGSTROEM)
---------------------------------
  C     -5.572360   -5.807800   -0.816440
  S     -6.903180   -4.619030   -0.528460
  F     -8.114850   -5.250930   -0.957010
  O     -6.532710   -3.426840   -1.314850
  O     -6.865630   -4.294960    0.914120
  C     -3.827080   -4.661100    0.786170
  C     -4.457800   -5.941870    0.229190
  H     -5.177350   -5.542570   -1.797710
  H     -6.074200   -6.768890   -0.921270
  H     -3.681060   -6.562240   -0.229880
  H     -4.843940   -6.512730    1.075810
  H     -3.437060   -4.075760   -0.020160
  H     -3.034030   -4.916800    1.457440
  H     -4.569750   -4.096470    1.310130

 Total Charge           Charge          ....    0
 Multiplicity           Mult            ....    1
 Number of Electrons    NEL             ....   66
 Basis Dimension        Dim             ....  212

ORBITAL ENERGIES
----------------

  NO   OCC          E(Eh)            E(eV)
   0   2.0000     -88.310191     -2403.0425
   1   2.0000     -24.392950      -663.7659
   2   2.0000     -18.768945      -510.7289
   3   2.0000     -18.768535      -510.7178
   4   2.0000      -9.957539      -270.9584
   5   2.0000      -9.926998      -270.1273
   6   2.0000      -9.886493      -269.0252
   7   2.0000      -7.915221      -215.3841
   8   2.0000      -5.946525      -161.8132
   9   2.0000      -5.939888      -161.6326
  10   2.0000      -5.938457      -161.5936
  11   2.0000      -1.279778       -34.8245
  12   2.0000      -1.008271       -27.4364
  13   2.0000      -0.910009       -24.7626
  14   2.0000      -0.752147       -20.4670
  15   2.0000      -0.687704       -18.7134
  16   2.0000      -0.643913       -17.5218
  17   2.0000      -0.576412       -15.6850
  18   2.0000      -0.529352       -14.4044
  19   2.0000      -0.520867       -14.1735
  20   2.0000      -0.495431       -13.4814
  21   2.0000      -0.444117       -12.0850
  22   2.0000      -0.432418       -11.7667
  23   2.0000      -0.410737       -11.1767
  24   2.0000      -0.396675       -10.7941
  25   2.0000      -0.374620       -10.1939
  26   2.0000      -0.342786        -9.3277
  27   2.0000      -0.333587        -9.0774
  28   2.0000      -0.326654        -8.8887
  29   2.0000      -0.313853        -8.5404
  30   2.0000      -0.280231        -7.6255
  31   2.0000      -0.277445        -7.5497
  32   2.0000      -0.255786        -6.9603
  33   0.0000      -0.026967        -0.7338
  34   0.0000      -0.015872        -0.4319
  35   0.0000       0.012676         0.3449
  36   0.0000       0.018348         0.4993
  37   0.0000       0.019627         0.5341

MULLIKEN ATOMIC CHARGES
-----------------------
   0 C :    0.018574
   1 S :    1.374847
   2 F :   -0.384445
   3 O :   -0.619859
   4 O :   -0.667498
   5 C :    0.816215
   6 C :   -0.298142
   7 H :    0.069262
   8 H :    0.021315
   9 H :   -0.086898
  10 H :   -0.004957
  11 H :   -0.045028
  12 H :   -0.046246
  13 H :   -0.147141
Sum of atomic charges:    0.0000000

LOEWDIN ATOMIC CHARGES
----------------------
   0 C :   -0.054643
   1 S :    1.086258
   2 F :   -0.239973
   3 O :   -0.456353
   4 O :   -0.452847
   5 C :    0.143089
   6 C :   -0.066428
   7 H :    0.021944
   8 H :    0.010799
   9 H :    0.032185
  10 H :    0.029673
  11 H :   -0.007585
  12 H :   -0.012112
  13 H :   -0.034009

  Mayer bond orders larger than 0.100000
B(  0-C ,  1-S ) :   0.9080 B(  0-C ,  6-C ) :   1.3787 B(  0-C ,  7-H ) :   0.8894
B(  0-C ,  8-H ) :   0.8346 B(  0-C ,  9-H ) :   0.1701 B(  0-C , 10-H ) :   0.1486
B(  1-S ,  2-F ) :   0.7218 B(  1-S ,  3-O ) :   1.4956 B(  1-S ,  4-O ) :   1.4617
B(  5-C ,  6-C ) :   1.3451 B(  5-C , 11-H ) :   0.7527 B(  5-C , 12-H ) :   0.7056
B(  5-C , 13-H ) :   0.8273 B(  6-C ,  7-H ) :   0.1310 B(  6-C ,  8-H ) :   0.1626
B(  6-C ,  9-H ) :   0.8273 B(  6-C , 10-H ) :   0.8748 B(  6-C , 11-H ) :   0.2213
B(  6-C , 12-H ) :   0.2279 B(  6-C , 13-H ) :   0.2156

Dispersion correction           -0.012776122
FINAL SINGLE POINT ENERGY      -765.985017254900

DIPOLE MOMENT
-------------
                                X             Y             Z
Electronic contribution:    -13.38380       2.50049      -3.85702
Nuclear contribution   :     13.81909      -4.05404       3.42760
                        -----------------------------------------
Total Dipole Moment    :      0.43529      -1.55355      -0.42942
                        -----------------------------------------
Magnitude (a.u.)       :      1.66955
Magnitude (Debye)      :      4.24366

Rotational constants in cm-1:     0.132500     0.053014     0.049575
Rotational constants in MHz :  3972.256497  1589.318970  1486.215991

                             ****ORCA TERMINATED NORMALLY****
TOTAL RUN TIME: 0 days 0 hours 0 minutes 7 seconds 768 msec
