                         Program Version 5.0.0 -  RELEASE  -
|  1> !PBE D3BJ RIJCOSX def2-SVPD def2/J TightSCF
|  2> *xyz 0 1
|  3> C         -4.38262       -1.67089        1.21620
|  4> C         -5.76354       -1.91517        0.70501
|  5> C         -3.28173       -2.19127        0.29436
|  6> H         -5.84081       -2.11520       -0.30065
|  7> H         -6.40882       -1.14866        0.93612
|  8> H         -6.17478       -2.79061        1.05143
|  9> H         -4.32862       -2.13922        2.19810
| 10> H         -4.26158       -0.59740        1.35725
| 11> C         -3.47464       -3.60590       -0.25961
| 12> H         -2.35455       -2.12760        0.87143
| 13> H         -3.16661       -1.49969       -0.54504
| 14> H         -2.64612       -3.85908       -0.88759
| 15> H         -4.37934       -3.64545       -0.82956
| 16> H         -3.53324       -4.30157        0.55126
| 17> *
| 18> %MaxCore 64000
| 19>
| 20> %pal nprocs 4
| 21> end
| 22>
| 23> %scf
| 24>   MaxIter 150
| 25> end
| 26>
| 27>                          ****END OF INPUT****

CARTESIAN COORDINATES (ANGSTROEM)
---------------------------------
  C     -4.382620   -1.670890    1.216200
  C     -5.763540   -1.915170    0.705010
  C     -3.281730   -2.191270    0.294360
  H     -5.840810   -2.115200   -0.300650
  H     -6.408820   -1.148660    0.936120
  H     -6.174780   -2.790610    1.051430
  H     -4.328620   -2.139220    2.198100
  H     -4.261580   -0.597400    1.357250
  C     -3.474640   -3.605900   -0.259610
  H     -2.354550   -2.127600    0.871430
  H     -3.166610   -1.499690   -0.545040
  H     -2.646120   -3.859080   -0.887590
  H     -4.379340   -3.645450   -0.829560
  H     -3.533240   -4.301570    0.551260

 Total Charge           Charge          ....    0
 Multiplicity           Mult            ....    1
 Number of Electrons    NEL             ....   34
 Basis Dimension        Dim             ....  160

ORBITAL ENERGIES
----------------

  NO   OCC          E(Eh)            E(eV)
   0   2.0000      -9.886793      -269.0333
   1   2.0000      -9.883530      -268.9445
   2   2.0000      -9.876519      -268.7537
   3   2.0000      -9.857877      -268.2465
   4   2.0000      -0.720714       -19.6116
   5   2.0000      -0.653075       -17.7711
   6   2.0000      -0.581495       -15.8233
   7   2.0000      -0.503310       -13.6958
   8   2.0000      -0.416452       -11.3322
   9   2.0000      -0.411785       -11.2052
  10   2.0000      -0.372044       -10.1238
  11   2.0000      -0.352053        -9.5799
  12   2.0000      -0.339180        -9.2295
  13   2.0000      -0.315839        -8.5944
  14   2.0000      -0.288430        -7.8486
  15   2.0000      -0.281324        -7.6552
  16   2.0000      -0.271109        -7.3772
  17   0.0000       0.006045         0.1645
  18   0.0000       0.032316         0.8794
  19   0.0000       0.038131         1.0376
  20   0.0000       0.047823         1.3013
  21   0.0000       0.071681         1.9505

MULLIKEN ATOMIC CHARGES
-----------------------
   0 C :   -0.197042
   1 C :    1.053554
   2 C :   -0.334174
   3 H :   -0.352616
   4 H :   -0.374130
   5 H :   -0.084049
   6 H :   -0.089310
   7 H :   -0.053473
   8 C :    0.709345
   9 H :   -0.074563
  10 H :   -0.014456
  11 H :   -0.069380
  12 H :   -0.060298
  13 H :   -0.059407
Sum of atomic charges:   -0.0000000

LOEWDIN ATOMIC CHARGES
----------------------
   0 C :   -0.067617
   1 C :    0.120119
   2 C :   -0.082583
   3 H :   -0.045329
   4 H :   -0.033516
   5 H :   -0.031245
   6 H :    0.021435
   7 H :    0.020052
   8 C :    0.125908
   9 H :    0.015805
  10 H :    0.021351
  11 H :   -0.019223
  12 H :   -0.029984
  13 H :   -0.015172

  Mayer bond orders larger than 0.100000
B(  0-C ,  1-C ) :   1.2867 B(  0-C ,  2-C ) :   1.2741 B(  0-C ,  3-H ) :   0.2761
B(  0-C ,  4-H ) :   0.2071 B(  0-C ,  5-H ) :   0.2410 B(  0-C ,  6-H ) :   0.8199
B(  0-C ,  7-H ) :   0.8629 B(  0-C ,  9-H ) :   0.1882 B(  0-C , 10-H ) :   0.1487
B(  1-C ,  3-H ) :   0.6143 B(  1-C ,  4-H ) :   0.7158 B(  1-C ,  5-H ) :   0.5747
B(  1-C ,  6-H ) :   0.1387 B(  2-C ,  6-H ) :   0.1533 B(  2-C ,  8-C ) :   1.3730
B(  2-C ,  9-H ) :   0.8657 B(  2-C , 10-H ) :   0.8657 B(  2-C , 11-H ) :   0.2338
B(  2-C , 12-H ) :   0.2047 B(  2-C , 13-H ) :   0.2011 B(  3-H ,  5-H ) :   0.3104
B(  8-C , 11-H ) :   0.7235 B(  8-C , 12-H ) :   0.8342 B(  8-C , 13-H ) :   0.7911

Dispersion correction           -0.009370481
FINAL SINGLE POINT ENERGY      -158.092936248407

DIPOLE MOMENT
-------------
                                X             Y             Z
Electronic contribution:      0.63806       0.59663       0.37987
Nuclear contribution   :     -0.64996      -0.59433      -0.37777
                        -----------------------------------------
Total Dipole Moment    :     -0.01190       0.00230       0.00210
                        -----------------------------------------
Magnitude (a.u.)       :      0.01230
Magnitude (Debye)      :      0.03126

Rotational constants in cm-1:     0.431358     0.171688     0.138554
Rotational constants in MHz : 12931.797515  5147.084397  4153.759343

                             ****ORCA TERMINATED NORMALLY****
TOTAL RUN TIME: 0 days 0 hours 0 minutes 5 seconds 73 msec
