                         Program Version 5.0.0 -  RELEASE  -
|  1> !PBE D3BJ RIJCOSX def2-SVPD def2/J TightSCF
|  2> *xyz 0 1
|  3> C         -5.57236       -5.80780       -0.81644
|  4> S         -6.90318       -4.61903       -0.52846
|  5> O         -8.11485       -5.25093       -0.95701
|  6> F         -6.53271       -3.42684       -1.31485
|  7> O         -6.86563       -4.29496        0.91412
|  8> C         -3.82708       -4.66110        0.78617
|  9> C         -4.45780       -5.94187        0.22919
| 10> H         -5.17735       -5.54257       -1.79771
| 11> H         -6.07420       -6.76889       -0.92127
| 12> H         -3.68106       -6.56224       -0.22988
| 13> H         -4.84394       -6.51273        1.07581
| 14> H         -3.43706       -4.07576       -0.02016
| 15> H         -3.03403       -4.91680        1.45744
| 16> H         -4.56975       -4.09647        1.31013
| 17> *
| 18> %MaxCore 64000
| 19>
| 20> %pal nprocs 4
| 21> end
| 22>
| 23> %scf
| 24>   MaxIter 150
| 25> end
| 26>
| 27>                          ****END OF INPUT****

CARTESIAN COORDINATES (ANGSTROEM)
---------------------------------
  C     -5.572360   -5.807800   -0.816440
  S     -6.903180   -4.619030   -0.528460
  O     -8.114850   -5.250930   -0.957010
  F     -6.532710   -3.426840   -1.314850
  O     -6.865630   -4.294960    0.914120
  C     -3.827080   -4.661100    0.786170
  C     -4.457800   -5.941870    0.229190
  H     -5.177350   -5.542570   -1.797710
  H     -6.074200   -6.768890   -0.921270
  H     -3.681060   -6.562240   -0.229880
  H     -4.843940   -6.512730    1.075810
  H     -3.437060   -4.075760   -0.020160
  H     -3.034030   -4.916800    1.457440
  H     -4.569750   -4.096470    1.310130

 Total Charge           Charge          ....    0
 Multiplicity           Mult            ....    1
 Number of Electrons    NEL             ....   66
 Basis Dimension        Dim             ....  212

ORBITAL ENERGIES
----------------

  NO   OCC          E(Eh)            E(eV)
   0   2.0000     -88.307952     -2402.9815
   1   2.0000     -24.372059      -663.1975
   2   2.0000     -18.782066      -511.0860
   3   2.0000     -18.768332      -510.7123
   4   2.0000      -9.956981      -270.9432
   5   2.0000      -9.926451      -270.1125
   6   2.0000      -9.892141      -269.1788
   7   2.0000      -7.913028      -215.3245
   8   2.0000      -5.944130      -161.7480
   9   2.0000      -5.937901      -161.5785
  10   2.0000      -5.936440      -161.5388
  11   2.0000      -1.243992       -33.8507
  12   2.0000      -1.023800       -27.8590
  13   2.0000      -0.925458       -25.1830
  14   2.0000      -0.752837       -20.4857
  15   2.0000      -0.681425       -18.5425
  16   2.0000      -0.635146       -17.2832
  17   2.0000      -0.573232       -15.5984
  18   2.0000      -0.509304       -13.8589
  19   2.0000      -0.502789       -13.6816
  20   2.0000      -0.494411       -13.4536
  21   2.0000      -0.447676       -12.1819
  22   2.0000      -0.430826       -11.7234
  23   2.0000      -0.407383       -11.0854
  24   2.0000      -0.399147       -10.8613
  25   2.0000      -0.388762       -10.5787
  26   2.0000      -0.346616        -9.4319
  27   2.0000      -0.338986        -9.2243
  28   2.0000      -0.332457        -9.0466
  29   2.0000      -0.317714        -8.6454
  30   2.0000      -0.292237        -7.9522
  31   2.0000      -0.282043        -7.6748
  32   2.0000      -0.265950        -7.2369
  33   0.0000      -0.025129        -0.6838
  34   0.0000      -0.013890        -0.3780
  35   0.0000       0.008856         0.2410
  36   0.0000       0.017199         0.4680
  37   0.0000       0.025230         0.6865

MULLIKEN ATOMIC CHARGES
-----------------------
   0 C :    0.017930
   1 S :    1.335999
   2 O :   -0.614470
   3 F :   -0.360435
   4 O :   -0.667745
   5 C :    0.813377
   6 C :   -0.270512
   7 H :    0.067237
   8 H :    0.013508
   9 H :   -0.085010
  10 H :   -0.005427
  11 H :   -0.055135
  12 H :   -0.041601
  13 H :   -0.147715
Sum of atomic charges:   -0.0000000

LOEWDIN ATOMIC CHARGES
----------------------
   0 C :   -0.048101
   1 S :    1.082491
   2 O :   -0.432969
   3 F :   -0.258696
   4 O :   -0.448935
   5 C :    0.137408
   6 C :   -0.071048
   7 H :    0.017143
   8 H :    0.023328
   9 H :    0.030077
  10 H :    0.031862
  11 H :   -0.012508
  12 H :   -0.011480
  13 H :   -0.038571

  Mayer bond orders larger than 0.100000
B(  0-C ,  1-S ) :   0.9169 B(  0-C ,  6-C ) :   1.3672 B(  0-C ,  7-H ) :   0.8674
B(  0-C ,  8-H ) :   0.8758 B(  0-C ,  9-H ) :   0.1647 B(  0-C , 10-H ) :   0.1535
B(  1-S ,  2-O ) :   1.5914 B(  1-S ,  3-F ) :   0.6568 B(  1-S ,  4-O ) :   1.4960
B(  5-C ,  6-C ) :   1.3425 B(  5-C , 11-H ) :   0.7540 B(  5-C , 12-H ) :   0.7123
B(  5-C , 13-H ) :   0.8277 B(  6-C ,  7-H ) :   0.1367 B(  6-C ,  8-H ) :   0.1448
B(  6-C ,  9-H ) :   0.8291 B(  6-C , 10-H ) :   0.8755 B(  6-C , 11-H ) :   0.2165
B(  6-C , 12-H ) :   0.2258 B(  6-C , 13-H ) :   0.2135

Dispersion correction           -0.012721402
FINAL SINGLE POINT ENERGY      -766.003078732872

DIPOLE MOMENT
-------------
                                X             Y             Z
Electronic contribution:    -10.70737       5.58124      -4.46260
Nuclear contribution   :     12.11759      -6.01574       3.81244
                        -----------------------------------------
Total Dipole Moment    :      1.41022      -0.43450      -0.65016
                        -----------------------------------------
Magnitude (a.u.)       :      1.61252
Magnitude (Debye)      :      4.09870

Rotational constants in cm-1:     0.128152     0.053825     0.050608
Rotational constants in MHz :  3841.897096  1613.621976  1517.196867

                             ****ORCA TERMINATED NORMALLY****
TOTAL RUN TIME: 0 days 0 hours 0 minutes 8 seconds 443 msec
