                         Program Version 5.0.0 -  RELEASE  -
|  1> !PBE D3BJ RIJCOSX def2-SVPD def2/J TightSCF
|  2> *xyz 0 1
|  3> C         -5.57236       -5.80780       -0.81644
|  4> S         -6.90318       -4.61903       -0.52846
|  5> O         -8.11485       -5.25093       -0.95701
|  6> O         -6.53271       -3.42684       -1.31485
|  7> F         -6.86563       -4.29496        0.91412
|  8> C         -3.82708       -4.66110        0.78617
|  9> C         -4.45780       -5.94187        0.22919
| 10> H         -5.17735       -5.54257       -1.79771
| 11> H         -6.07420       -6.76889       -0.92127
| 12> H         -3.68106       -6.56224       -0.22988
| 13> H         -4.84394       -6.51273        1.07581
| 14> H         -3.43706       -4.07576       -0.02016
| 15> H         -3.03403       -4.91680        1.45744
| 16> H         -4.56975       -4.09647        1.31013
| 17> *
| 18> %MaxCore 64000
| 19>
| 20> %pal nprocs 4
| 21> end
| 22>
| 23> %scf
| 24>   MaxIter 150
| 25> end
| 26>
| 27>                          ****END OF INPUT****

CARTESIAN COORDINATES (ANGSTROEM)
---------------------------------
  C     -5.572360   -5.807800   -0.816440
  S     -6.903180   -4.619030   -0.528460
  O     -8.114850   -5.250930   -0.957010
  O     -6.532710   -3.426840   -1.314850
  F     -6.865630   -4.294960    0.914120
  C     -3.827080   -4.661100    0.786170
  C     -4.457800   -5.941870    0.229190
  H     -5.177350   -5.542570   -1.797710
  H     -6.074200   -6.768890   -0.921270
  H     -3.681060   -6.562240   -0.229880
  H     -4.843940   -6.512730    1.075810
  H     -3.437060   -4.075760   -0.020160
  H     -3.034030   -4.916800    1.457440
  H     -4.569750   -4.096470    1.310130

 Total Charge           Charge          ....    0
 Multiplicity           Mult            ....    1
 Number of Electrons    NEL             ....   66
 Basis Dimension        Dim             ....  212

ORBITAL ENERGIES
----------------

  NO   OCC          E(Eh)            E(eV)
   0   2.0000     -88.306747     -2402.9487
   1   2.0000     -24.370968      -663.1678
   2   2.0000     -18.781209      -511.0627
   3   2.0000     -18.766873      -510.6726
   4   2.0000      -9.955875      -270.9131
   5   2.0000      -9.932662      -270.2815
   6   2.0000      -9.901984      -269.4467
   7   2.0000      -7.911852      -215.2925
   8   2.0000      -5.943015      -161.7177
   9   2.0000      -5.936746      -161.5471
  10   2.0000      -5.935198      -161.5050
  11   2.0000      -1.241506       -33.7831
  12   2.0000      -1.023675       -27.8556
  13   2.0000      -0.924819       -25.1656
  14   2.0000      -0.756703       -20.5909
  15   2.0000      -0.682333       -18.5672
  16   2.0000      -0.636446       -17.3186
  17   2.0000      -0.579335       -15.7645
  18   2.0000      -0.516752       -14.0615
  19   2.0000      -0.503275       -13.6948
  20   2.0000      -0.484600       -13.1866
  21   2.0000      -0.447538       -12.1781
  22   2.0000      -0.427016       -11.6197
  23   2.0000      -0.419015       -11.4020
  24   2.0000      -0.400839       -10.9074
  25   2.0000      -0.388080       -10.5602
  26   2.0000      -0.350876        -9.5478
  27   2.0000      -0.344056        -9.3622
  28   2.0000      -0.338912        -9.2223
  29   2.0000      -0.322756        -8.7826
  30   2.0000      -0.292306        -7.9541
  31   2.0000      -0.279574        -7.6076
  32   2.0000      -0.266505        -7.2520
  33   0.0000      -0.033814        -0.9201
  34   0.0000      -0.000172        -0.0047
  35   0.0000       0.011824         0.3218
  36   0.0000       0.018139         0.4936
  37   0.0000       0.019387         0.5276

MULLIKEN ATOMIC CHARGES
-----------------------
   0 C :    0.049365
   1 S :    1.307877
   2 O :   -0.614461
   3 O :   -0.626861
   4 F :   -0.385301
   5 C :    0.824665
   6 C :   -0.288494
   7 H :    0.064585
   8 H :    0.022038
   9 H :   -0.074449
  10 H :   -0.028345
  11 H :   -0.046907
  12 H :   -0.038913
  13 H :   -0.164798
Sum of atomic charges:    0.0000000

LOEWDIN ATOMIC CHARGES
----------------------
   0 C :   -0.042992
   1 S :    1.075851
   2 O :   -0.433339
   3 O :   -0.457949
   4 F :   -0.258793
   5 C :    0.138970
   6 C :   -0.078524
   7 H :    0.030274
   8 H :    0.017996
   9 H :    0.031072
  10 H :    0.026432
  11 H :   -0.005132
  12 H :   -0.010311
  13 H :   -0.033554

  Mayer bond orders larger than 0.100000
B(  0-C ,  1-S ) :   0.9284 B(  0-C ,  6-C ) :   1.3415 B(  0-C ,  7-H ) :   0.8757
B(  0-C ,  8-H ) :   0.8711 B(  0-C ,  9-H ) :   0.1701 B(  0-C , 10-H ) :   0.1425
B(  1-S ,  2-O ) :   1.5758 B(  1-S ,  3-O ) :   1.5052 B(  1-S ,  4-F ) :   0.6674
B(  5-C ,  6-C ) :   1.3409 B(  5-C , 11-H ) :   0.7589 B(  5-C , 12-H ) :   0.7059
B(  5-C , 13-H ) :   0.8241 B(  6-C ,  7-H ) :   0.1398 B(  6-C ,  8-H ) :   0.1501
B(  6-C ,  9-H ) :   0.8233 B(  6-C , 10-H ) :   0.8926 B(  6-C , 11-H ) :   0.2256
B(  6-C , 12-H ) :   0.2268 B(  6-C , 13-H ) :   0.2124

Dispersion correction           -0.012656038
FINAL SINGLE POINT ENERGY      -766.002923752471

DIPOLE MOMENT
-------------
                                X             Y             Z
Electronic contribution:    -11.19969       4.08488      -0.71283
Nuclear contribution   :     12.47562      -5.08213       1.41531
                        -----------------------------------------
Total Dipole Moment    :      1.27594      -0.99725       0.70248
                        -----------------------------------------
Magnitude (a.u.)       :      1.76522
Magnitude (Debye)      :      4.48683

Rotational constants in cm-1:     0.128398     0.054249     0.051014
Rotational constants in MHz :  3849.278549  1626.338413  1529.351405

                             ****ORCA TERMINATED NORMALLY****
TOTAL RUN TIME: 0 days 0 hours 0 minutes 8 seconds 719 msec
