                         Program Version 5.0.0 -  RELEASE  -
|  1> !PBE D3BJ RIJCOSX def2-SVPD def2/J TightSCF xyzfile
|  2>
|  3> *xyzfile 0 1 D1.xyz
|  4>
|  5> %MaxCore 64000
|  6>
|  7> %pal nprocs 4
|  8> end
|  9>
| 10> %scf
| 11>   MaxIter 150
| 12> end
| 13>
| 14>
| 15>                          ****END OF INPUT****

CARTESIAN COORDINATES (ANGSTROEM)
---------------------------------
  C     -4.382623   -1.670889    1.216201
  C     -5.763539   -1.915170    0.705012
  C     -3.281728   -2.191272    0.294361
  C     -5.572364   -5.807798   -0.816445
  S     -6.903179   -4.619033   -0.528458
  H     -5.840812   -2.115205   -0.300646
  H     -6.408823   -1.148656    0.936124
  H     -6.174781   -2.790606    1.051433
  F     -8.114853   -5.250932   -0.957007
  O     -6.532715   -3.426838   -1.314848
  H     -4.328618   -2.139223    2.198103
  H     -4.261583   -0.597399    1.357248
  O     -6.865632   -4.294957    0.914118
  C     -3.474641   -3.605898   -0.259608
  H     -2.354548   -2.127602    0.871433
  H     -3.166611   -1.499693   -0.545037
  C     -3.827078   -4.661097    0.786174
  H     -2.560559   -3.889391   -0.788050
  H     -4.255932   -3.570040   -1.019300
  C     -4.457800   -5.941875    0.229195
  H     -5.177347   -5.542575   -1.797714
  H     -6.074202   -6.768894   -0.921272
  H     -4.530506   -4.253640    1.511979
  H     -2.933400   -4.932302    1.356825
  H     -3.681064   -6.562236   -0.229885
  H     -4.843942   -6.512728    1.075805

 Total Charge           Charge          ....    0
 Multiplicity           Mult            ....    1
 Number of Electrons    NEL             ....   98
 Basis Dimension        Dim             ....  356

ORBITAL ENERGIES
----------------

  NO   OCC          E(Eh)            E(eV)
   0   2.0000     -88.319197     -2403.2875
   1   2.0000     -24.398402      -663.9143
   2   2.0000     -18.777925      -510.9733
   3   2.0000     -18.776556      -510.9361
   4   2.0000      -9.960325      -271.0342
   5   2.0000      -9.925471      -270.0858
   6   2.0000      -9.893794      -269.2238
   7   2.0000      -9.883474      -268.9430
   8   2.0000      -9.875222      -268.7184
   9   2.0000      -9.861988      -268.3583
  10   2.0000      -9.807082      -266.8643
  11   2.0000      -7.922979      -215.5952
  12   2.0000      -5.954297      -162.0246
  13   2.0000      -5.947747      -161.8464
  14   2.0000      -5.946369      -161.8089
  15   2.0000      -1.284499       -34.9530
  16   2.0000      -1.020418       -27.7670
  17   2.0000      -0.922203       -25.0944
  18   2.0000      -0.758763       -20.6470
  19   2.0000      -0.719311       -19.5735
  20   2.0000      -0.683217       -18.5913
  21   2.0000      -0.657953       -17.9038
  22   2.0000      -0.624095       -16.9825
  23   2.0000      -0.580475       -15.7955
  24   2.0000      -0.549996       -14.9662
  25   2.0000      -0.536379       -14.5956
  26   2.0000      -0.523395       -14.2423
  27   2.0000      -0.498498       -13.5648
  28   2.0000      -0.480526       -13.0758
  29   2.0000      -0.446242       -12.1429
  30   2.0000      -0.444968       -12.1082
  31   2.0000      -0.421493       -11.4694
  32   2.0000      -0.419039       -11.4026
  33   2.0000      -0.395369       -10.7585
  34   2.0000      -0.388900       -10.5825
  35   2.0000      -0.369256       -10.0480
  36   2.0000      -0.366873        -9.9831
  37   2.0000      -0.344994        -9.3878
  38   2.0000      -0.336050        -9.1444
  39   2.0000      -0.331826        -9.0294
  40   2.0000      -0.302958        -8.2439
  41   2.0000      -0.297951        -8.1077
  42   2.0000      -0.294330        -8.0091
  43   2.0000      -0.292700        -7.9648
  44   2.0000      -0.282565        -7.6890
  45   2.0000      -0.270617        -7.3639
  46   2.0000      -0.255764        -6.9597
  47   2.0000      -0.249365        -6.7856
  48   2.0000      -0.227059        -6.1786
  49   0.0000      -0.031248        -0.8503
  50   0.0000      -0.018398        -0.5006
  51   0.0000       0.008027         0.2184
  52   0.0000       0.011928         0.3246
  53   0.0000       0.012613         0.3432

MULLIKEN ATOMIC CHARGES
-----------------------
   0 C :   -0.051413
   1 C :    1.800896
   2 C :    0.465239
   3 C :    0.173128
   4 S :    1.501557
   5 H :   -0.351065
   6 H :   -0.431159
   7 H :   -0.785928
   8 F :   -0.489125
   9 O :   -0.644819
  10 H :    0.146958
  11 H :   -0.430413
  12 O :   -0.724776
  13 C :    0.085660
  14 H :   -0.058332
  15 H :    0.056624
  16 C :   -0.002450
  17 H :   -0.352170
  18 H :   -0.006202
  19 C :    0.488752
  20 H :    0.149206
  21 H :   -0.273980
  22 H :    0.045894
  23 H :   -0.281038
  24 H :   -0.033155
  25 H :    0.002111
Sum of atomic charges:    0.0000000

LOEWDIN ATOMIC CHARGES
----------------------
   0 C :   -0.047728
   1 C :    0.139398
   2 C :   -0.025813
   3 C :   -0.043738
   4 S :    1.148982
   5 H :   -0.094205
   6 H :   -0.019394
   7 H :   -0.133891
   8 F :   -0.231130
   9 O :   -0.438747
  10 H :    0.015582
  11 H :    0.015298
  12 O :   -0.426821
  13 C :   -0.011697
  14 H :    0.015885
  15 H :    0.026240
  16 C :   -0.010463
  17 H :    0.023824
  18 H :   -0.014419
  19 C :   -0.016509
  20 H :    0.021870
  21 H :    0.009970
  22 H :   -0.001372
  23 H :    0.031634
  24 H :    0.035698
  25 H :    0.031547

  Mayer bond orders larger than 0.100000
B(  0-C ,  1-C ) :   1.1286 B(  0-C ,  2-C ) :   1.1664 B(  0-C ,  5-H ) :   0.3320
B(  0-C ,  6-H ) :   0.1124 B(  0-C ,  7-H ) :   0.3795 B(  0-C , 10-H ) :   0.6477
B(  0-C , 11-H ) :   1.0220 B(  0-C , 14-H ) :   0.1838 B(  0-C , 15-H ) :   0.1703
B(  0-C , 16-C ) :   0.1074 B(  1-C ,  2-C ) :   0.1748 B(  1-C ,  6-H ) :   0.4893
B(  1-C ,  7-H ) :  -0.3132 B(  1-C , 10-H ) :   0.2141 B(  1-C , 17-H ) :   0.1306
B(  2-C , 10-H ) :   0.1330 B(  2-C , 13-C ) :   1.2922 B(  2-C , 14-H ) :   0.7376
B(  2-C , 15-H ) :   0.6175 B(  2-C , 17-H ) :   0.1143 B(  2-C , 18-H ) :   0.1154
B(  3-C ,  4-S ) :   0.9428 B(  3-C ,  8-F ) :   0.1217 B(  3-C , 16-C ) :   0.1024
B(  3-C , 19-C ) :   1.2657 B(  3-C , 20-H ) :   0.8428 B(  3-C , 21-H ) :   0.8413
B(  3-C , 24-H ) :   0.1506 B(  3-C , 25-H ) :   0.1314 B(  4-S ,  8-F ) :   0.6272
B(  4-S ,  9-O ) :   1.3883 B(  4-S , 12-O ) :   1.3780 B(  5-H ,  6-H ) :  -0.1103
B(  5-H ,  7-H ) :   0.9177 B(  5-H ,  9-O ) :   0.1844 B(  5-H , 11-H ) :   0.1663
B(  5-H , 17-H ) :  -0.1113 B(  5-H , 18-H ) :   0.1642 B(  6-H ,  7-H ) :   0.1314
B(  6-H , 11-H ) :  -0.1455 B(  6-H , 17-H ) :   0.1254 B(  6-H , 18-H ) :  -0.1549
B(  7-H , 10-H ) :  -0.1206 B(  7-H , 11-H ) :   0.1109 B(  7-H , 12-O ) :   0.1208
B(  7-H , 17-H ) :  -0.1421 B(  9-O , 12-O ) :   0.1913 B( 10-H , 11-H ) :  -0.2400
B( 10-H , 22-H ) :   0.1565 B( 11-H , 14-H ) :   0.1158 B( 13-C , 14-H ) :   0.1911
B( 13-C , 15-H ) :   0.2579 B( 13-C , 16-C ) :   1.2220 B( 13-C , 17-H ) :   0.8235
B( 13-C , 18-H ) :   0.7832 B( 13-C , 22-H ) :   0.1238 B( 13-C , 23-H ) :   0.1834
B( 14-H , 15-H ) :  -0.1064 B( 16-C , 17-H ) :   0.2095 B( 16-C , 18-H ) :   0.1846
B( 16-C , 19-C ) :   1.2873 B( 16-C , 22-H ) :   0.8379 B( 16-C , 23-H ) :   0.8186
B( 16-C , 24-H ) :   0.1438 B( 16-C , 25-H ) :   0.2622 B( 19-C , 21-H ) :   0.2305
B( 19-C , 24-H ) :   0.7229 B( 19-C , 25-H ) :   0.6358

Dispersion correction           -0.030668229
FINAL SINGLE POINT ENERGY      -922.868813080085

DIPOLE MOMENT
-------------
                                X             Y             Z
Electronic contribution:    -18.93204      -8.59542      -6.69550
Nuclear contribution   :     19.08524       6.89775       6.14221
                        -----------------------------------------
Total Dipole Moment    :      0.15320      -1.69767      -0.55329
                        -----------------------------------------
Magnitude (a.u.)       :      1.79212
Magnitude (Debye)      :      4.55520

Rotational constants in cm-1:     0.049343     0.024787     0.019726
Rotational constants in MHz :  1479.262779   743.087234   591.370705

                             ****ORCA TERMINATED NORMALLY****
TOTAL RUN TIME: 0 days 0 hours 0 minutes 27 seconds 751 msec
