                         Program Version 5.0.0 -  RELEASE  -
|  1> !PBE D3BJ RIJCOSX def2-SVPD def2/J TightSCF xyzfile
|  2>
|  3> *xyzfile 0 1 D3.xyz
|  4>
|  5> %MaxCore 64000
|  6>
|  7> %pal nprocs 4
|  8> end
|  9>
| 10> %scf
| 11>   MaxIter 150
| 12> end
| 13>
| 14>
| 15>                          ****END OF INPUT****

CARTESIAN COORDINATES (ANGSTROEM)
---------------------------------
  C     -4.382623   -1.670889    1.216201
  C     -5.763539   -1.915170    0.705012
  C     -3.281728   -2.191272    0.294361
  C     -5.572364   -5.807798   -0.816445
  S     -6.903179   -4.619033   -0.528458
  H     -5.840812   -2.115205   -0.300646
  H     -6.408823   -1.148656    0.936124
  H     -6.174781   -2.790606    1.051433
  O     -8.114853   -5.250932   -0.957007
  O     -6.532715   -3.426838   -1.314848
  H     -4.328618   -2.139223    2.198103
  H     -4.261583   -0.597399    1.357248
  F     -6.865632   -4.294957    0.914118
  C     -3.474641   -3.605898   -0.259608
  H     -2.354548   -2.127602    0.871433
  H     -3.166611   -1.499693   -0.545037
  C     -3.827078   -4.661097    0.786174
  H     -2.560559   -3.889391   -0.788050
  H     -4.255932   -3.570040   -1.019300
  C     -4.457800   -5.941875    0.229195
  H     -5.177347   -5.542575   -1.797714
  H     -6.074202   -6.768894   -0.921272
  H     -4.530506   -4.253640    1.511979
  H     -2.933400   -4.932302    1.356825
  H     -3.681064   -6.562236   -0.229885
  H     -4.843942   -6.512728    1.075805

 Total Charge           Charge          ....    0
 Multiplicity           Mult            ....    1
 Number of Electrons    NEL             ....   98
 Basis Dimension        Dim             ....  356

ORBITAL ENERGIES
----------------

  NO   OCC          E(Eh)            E(eV)
   0   2.0000     -88.314015     -2403.1465
   1   2.0000     -24.377455      -663.3443
   2   2.0000     -18.786414      -511.2043
   3   2.0000     -18.771776      -510.8060
   4   2.0000      -9.958123      -270.9743
   5   2.0000      -9.929708      -270.2011
   6   2.0000      -9.906872      -269.5797
   7   2.0000      -9.892361      -269.1848
   8   2.0000      -9.885505      -268.9983
   9   2.0000      -9.876357      -268.7493
  10   2.0000      -9.829660      -267.4787
  11   2.0000      -7.917951      -215.4584
  12   2.0000      -5.949169      -161.8851
  13   2.0000      -5.942950      -161.7159
  14   2.0000      -5.941305      -161.6711
  15   2.0000      -1.251308       -34.0498
  16   2.0000      -1.029780       -28.0217
  17   2.0000      -0.933333       -25.3973
  18   2.0000      -0.763408       -20.7734
  19   2.0000      -0.726175       -19.7602
  20   2.0000      -0.683239       -18.5919
  21   2.0000      -0.660508       -17.9733
  22   2.0000      -0.628344       -17.0981
  23   2.0000      -0.590089       -16.0571
  24   2.0000      -0.558880       -15.2079
  25   2.0000      -0.522594       -14.2205
  26   2.0000      -0.518238       -14.1020
  27   2.0000      -0.493143       -13.4191
  28   2.0000      -0.488346       -13.2886
  29   2.0000      -0.447479       -12.1765
  30   2.0000      -0.440863       -11.9965
  31   2.0000      -0.426454       -11.6044
  32   2.0000      -0.411466       -11.1966
  33   2.0000      -0.404552       -11.0084
  34   2.0000      -0.400818       -10.9068
  35   2.0000      -0.382155       -10.3990
  36   2.0000      -0.359003        -9.7690
  37   2.0000      -0.353206        -9.6112
  38   2.0000      -0.346540        -9.4298
  39   2.0000      -0.344871        -9.3844
  40   2.0000      -0.319142        -8.6843
  41   2.0000      -0.311545        -8.4776
  42   2.0000      -0.306098        -8.3293
  43   2.0000      -0.293143        -7.9768
  44   2.0000      -0.289499        -7.8777
  45   2.0000      -0.283042        -7.7020
  46   2.0000      -0.267620        -7.2823
  47   2.0000      -0.263864        -7.1801
  48   2.0000      -0.246417        -6.7054
  49   0.0000      -0.035391        -0.9630
  50   0.0000      -0.004064        -0.1106
  51   0.0000       0.006615         0.1800
  52   0.0000       0.008695         0.2366
  53   0.0000       0.013825         0.3762

MULLIKEN ATOMIC CHARGES
-----------------------
   0 C :   -0.037453
   1 C :    1.869504
   2 C :    0.459383
   3 C :    0.178633
   4 S :    1.342790
   5 H :   -0.338949
   6 H :   -0.429345
   7 H :   -0.860326
   8 O :   -0.661077
   9 O :   -0.615486
  10 H :    0.138629
  11 H :   -0.425952
  12 F :   -0.475041
  13 C :    0.096532
  14 H :   -0.061253
  15 H :    0.062692
  16 C :    0.027540
  17 H :   -0.349359
  18 H :    0.004484
  19 C :    0.491258
  20 H :    0.163275
  21 H :   -0.272407
  22 H :    0.001914
  23 H :   -0.255208
  24 H :   -0.025391
  25 H :   -0.029386
Sum of atomic charges:    0.0000000

LOEWDIN ATOMIC CHARGES
----------------------
   0 C :   -0.047181
   1 C :    0.139307
   2 C :   -0.023833
   3 C :   -0.031443
   4 S :    1.119993
   5 H :   -0.095308
   6 H :   -0.017140
   7 H :   -0.109972
   8 O :   -0.418080
   9 O :   -0.434470
  10 H :    0.015009
  11 H :    0.018395
  12 F :   -0.255599
  13 C :   -0.011384
  14 H :    0.017453
  15 H :    0.028324
  16 C :   -0.016020
  17 H :    0.026593
  18 H :   -0.014266
  19 C :   -0.029313
  20 H :    0.030159
  21 H :    0.016981
  22 H :   -0.003906
  23 H :    0.033073
  24 H :    0.034121
  25 H :    0.028506

  Mayer bond orders larger than 0.100000
B(  0-C ,  1-C ) :   1.1276 B(  0-C ,  2-C ) :   1.1736 B(  0-C ,  5-H ) :   0.3304
B(  0-C ,  6-H ) :   0.1119 B(  0-C ,  7-H ) :   0.3771 B(  0-C , 10-H ) :   0.6536
B(  0-C , 11-H ) :   1.0160 B(  0-C , 14-H ) :   0.1797 B(  0-C , 15-H ) :   0.1704
B(  0-C , 16-C ) :   0.1050 B(  1-C ,  2-C ) :   0.1799 B(  1-C ,  6-H ) :   0.5089
B(  1-C ,  7-H ) :  -0.4948 B(  1-C , 10-H ) :   0.2220 B(  1-C , 17-H ) :   0.1255
B(  2-C , 10-H ) :   0.1321 B(  2-C , 13-C ) :   1.2989 B(  2-C , 14-H ) :   0.7404
B(  2-C , 15-H ) :   0.6218 B(  2-C , 17-H ) :   0.1192 B(  2-C , 18-H ) :   0.1167
B(  3-C ,  4-S ) :   0.9193 B(  3-C ,  8-O ) :   0.1178 B(  3-C , 16-C ) :   0.1015
B(  3-C , 19-C ) :   1.2376 B(  3-C , 20-H ) :   0.8321 B(  3-C , 21-H ) :   0.8944
B(  3-C , 24-H ) :   0.1459 B(  3-C , 25-H ) :   0.1287 B(  4-S ,  8-O ) :   1.5929
B(  4-S ,  9-O ) :   1.4485 B(  4-S , 12-F ) :   0.6396 B(  5-H ,  6-H ) :  -0.1155
B(  5-H ,  7-H ) :   0.9691 B(  5-H ,  9-O ) :   0.1709 B(  5-H , 11-H ) :   0.1626
B(  5-H , 17-H ) :  -0.1201 B(  5-H , 18-H ) :   0.1650 B(  6-H , 11-H ) :  -0.1465
B(  6-H , 17-H ) :   0.1302 B(  6-H , 18-H ) :  -0.1604 B(  7-H , 10-H ) :  -0.1188
B(  7-H , 11-H ) :   0.1057 B(  7-H , 12-F ) :   0.1556 B(  7-H , 17-H ) :  -0.1359
B(  9-O , 12-F ) :   0.1213 B( 10-H , 11-H ) :  -0.2366 B( 10-H , 22-H ) :   0.1519
B( 11-H , 14-H ) :   0.1122 B( 13-C , 14-H ) :   0.1876 B( 13-C , 15-H ) :   0.2562
B( 13-C , 16-C ) :   1.2119 B( 13-C , 17-H ) :   0.8217 B( 13-C , 18-H ) :   0.7987
B( 13-C , 22-H ) :   0.1229 B( 13-C , 23-H ) :   0.1834 B( 14-H , 15-H ) :  -0.1045
B( 16-C , 17-H ) :   0.1995 B( 16-C , 18-H ) :   0.1839 B( 16-C , 19-C ) :   1.2839
B( 16-C , 22-H ) :   0.8362 B( 16-C , 23-H ) :   0.8090 B( 16-C , 24-H ) :   0.1556
B( 16-C , 25-H ) :   0.2585 B( 19-C , 21-H ) :   0.2248 B( 19-C , 24-H ) :   0.7187
B( 19-C , 25-H ) :   0.6447

Dispersion correction           -0.030347526
FINAL SINGLE POINT ENERGY      -922.884886557765

DIPOLE MOMENT
-------------
                                X             Y             Z
Electronic contribution:    -16.56113      -6.81990      -3.47830
Nuclear contribution   :     17.63907       5.79106       3.97609
                        -----------------------------------------
Total Dipole Moment    :      1.07794      -1.02884       0.49779
                        -----------------------------------------
Magnitude (a.u.)       :      1.57107
Magnitude (Debye)      :      3.99334

Rotational constants in cm-1:     0.048663     0.025472     0.020259
Rotational constants in MHz :  1458.892793   763.621130   607.350055

                             ****ORCA TERMINATED NORMALLY****
TOTAL RUN TIME: 0 days 0 hours 0 minutes 30 seconds 58 msec
