                         Program Version 5.0.0 -  RELEASE  -
|  1> !TPSS D3BJ RIJCOSX def2-SVP def2/J TightSCF
|  2> *xyz -1 1
|  3> C          0.84888        2.66797       -4.30235
|  4> C          2.09343        1.86104       -4.65684
|  5> H          2.44481        2.04157       -5.67499
|  6> H          2.90175        2.13786       -3.98034
|  7> S          1.87964        0.07859       -4.46297
|  8> O          3.20757       -0.46611       -4.42026
|  9> O          1.07506       -0.05616       -3.26876
| 10> O          1.13166       -0.31996       -5.67903
| 11> H          0.05064        2.40112       -4.96303
| 12> H          1.06043        3.71210       -4.40203
| 13> H          0.56237        2.45684       -3.29327
| 14> *
| 15>
| 16> %MaxCore 64000
| 17>
| 18> %pal nprocs 4
| 19> end
| 20>
| 21> %scf
| 22>   MaxIter 150
| 23> end
| 24>
| 25>
| 26>                          ****END OF INPUT****

CARTESIAN COORDINATES (ANGSTROEM)
---------------------------------
  C      0.848880    2.667970   -4.302350
  C      2.093430    1.861040   -4.656840
  H      2.444810    2.041570   -5.674990
  H      2.901750    2.137860   -3.980340
  S      1.879640    0.078590   -4.462970
  O      3.207570   -0.466110   -4.420260
  O      1.075060   -0.056160   -3.268760
  O      1.131660   -0.319960   -5.679030
  H      0.050640    2.401120   -4.963030
  H      1.060430    3.712100   -4.402030
  H      0.562370    2.456840   -3.293270

 Total Charge           Charge          ....   -1
 Multiplicity           Mult            ....    1
 Number of Electrons    NEL             ....   58
 Basis Dimension        Dim             ....  113

ORBITAL ENERGIES
----------------

  NO   OCC          E(Eh)            E(eV)
   0   2.0000     -88.323634     -2403.4083
   1   2.0000     -18.643768      -507.3227
   2   2.0000     -18.641281      -507.2551
   3   2.0000     -18.626163      -506.8437
   4   2.0000      -9.845957      -267.9221
   5   2.0000      -9.837788      -267.6998
   6   2.0000      -7.690694      -209.2744
   7   2.0000      -5.676232      -154.4581
   8   2.0000      -5.675936      -154.4501
   9   2.0000      -5.675523      -154.4388
  10   2.0000      -0.824626       -22.4392
  11   2.0000      -0.693535       -18.8720
  12   2.0000      -0.666280       -18.1304
  13   2.0000      -0.552925       -15.0459
  14   2.0000      -0.432269       -11.7626
  15   2.0000      -0.306931        -8.3520
  16   2.0000      -0.260140        -7.0788
  17   2.0000      -0.246608        -6.7105
  18   2.0000      -0.210411        -5.7256
  19   2.0000      -0.191734        -5.2173
  20   2.0000      -0.188196        -5.1211
  21   2.0000      -0.168105        -4.5744
  22   2.0000      -0.157851        -4.2953
  23   2.0000      -0.073081        -1.9886
  24   2.0000      -0.072801        -1.9810
  25   2.0000      -0.043633        -1.1873
  26   2.0000      -0.038372        -1.0442
  27   2.0000      -0.023715        -0.6453
  28   2.0000       0.010685         0.2908
  29   0.0000       0.196995         5.3605
  30   0.0000       0.246701         6.7131
  31   0.0000       0.249944         6.8013
  32   0.0000       0.258332         7.0296
  33   0.0000       0.285438         7.7672

MULLIKEN ATOMIC CHARGES
-----------------------
   0 C :    0.038916
   1 C :   -0.093304
   2 H :   -0.004755
   3 H :   -0.014470
   4 S :    0.806230
   5 O :   -0.544482
   6 O :   -0.554022
   7 O :   -0.596348
   8 H :   -0.001090
   9 H :   -0.041512
  10 H :    0.004838
Sum of atomic charges:   -1.0000000

LOEWDIN ATOMIC CHARGES
----------------------
   0 C :   -0.064300
   1 C :   -0.186988
   2 H :    0.001193
   3 H :   -0.003705
   4 S :    1.052299
   5 O :   -0.584104
   6 O :   -0.591844
   7 O :   -0.637578
   8 H :    0.009998
   9 H :   -0.005850
  10 H :    0.010879

  Mayer bond orders larger than 0.100000
B(  0-C ,  1-C ) :   1.0659 B(  0-C ,  8-H ) :   0.9654 B(  0-C ,  9-H ) :   0.9541
B(  0-C , 10-H ) :   0.9623 B(  1-C ,  2-H ) :   0.9399 B(  1-C ,  3-H ) :   0.9348
B(  1-C ,  4-S ) :   0.8660 B(  4-S ,  5-O ) :   1.6460 B(  4-S ,  6-O ) :   1.6173
B(  4-S ,  7-O ) :   1.5869

Dispersion correction           -0.012158092
FINAL SINGLE POINT ENERGY      -702.792332725867

DIPOLE MOMENT
-------------
                                X             Y             Z
Electronic contribution:      1.62115      -7.97174       0.06702
Nuclear contribution   :     -1.55288       9.51857       0.00420
                        -----------------------------------------
Total Dipole Moment    :      0.06827       1.54683       0.07123
                        -----------------------------------------
Magnitude (a.u.)       :      1.54997
Magnitude (Debye)      :      3.93972

Rotational constants in cm-1:     0.163401     0.083833     0.082462
Rotational constants in MHz :  4898.624208  2513.264548  2472.149188

                             ****ORCA TERMINATED NORMALLY****
TOTAL RUN TIME: 0 days 0 hours 0 minutes 7 seconds 203 msec
