                         Program Version 5.0.0 -  RELEASE  -
|  1> !TPSS D3BJ RIJCOSX def2-SVP def2/J TightSCF
|  2> *xyz 1 1
|  3> C         -0.46129        2.23469       -4.98962
|  4> C          0.84888        2.66797       -4.30235
|  5> C         -0.42384        2.39877       -6.47432
|  6> N         -0.95947        3.49265       -7.00740
|  7> N          0.14558        1.48689       -7.20399
|  8> H          0.56537        0.69681       -6.72386
|  9> H          0.22068        1.58177       -8.20752
| 10> H         -1.40624        4.18151       -6.40326
| 11> H         -0.93421        3.68160       -7.99947
| 12> H         -1.28888        2.82674       -4.59500
| 13> H         -0.65170        1.18634       -4.75655
| 14> H          1.66208        2.08894       -4.68750
| 15> H          0.76716        2.51042       -3.24717
| 16> H          1.02677        3.70527       -4.49537
| 17> *
| 18>
| 19> %MaxCore 64000
| 20>
| 21> %pal nprocs 4
| 22> end
| 23>
| 24> %scf
| 25>   MaxIter 150
| 26> end
| 27>
| 28>
| 29>                          ****END OF INPUT****

CARTESIAN COORDINATES (ANGSTROEM)
---------------------------------
  C     -0.461290    2.234690   -4.989620
  C      0.848880    2.667970   -4.302350
  C     -0.423840    2.398770   -6.474320
  N     -0.959470    3.492650   -7.007400
  N      0.145580    1.486890   -7.203990
  H      0.565370    0.696810   -6.723860
  H      0.220680    1.581770   -8.207520
  H     -1.406240    4.181510   -6.403260
  H     -0.934210    3.681600   -7.999470
  H     -1.288880    2.826740   -4.595000
  H     -0.651700    1.186340   -4.756550
  H      1.662080    2.088940   -4.687500
  H      0.767160    2.510420   -3.247170
  H      1.026770    3.705270   -4.495370

 Total Charge           Charge          ....    1
 Multiplicity           Mult            ....    1
 Number of Electrons    NEL             ....   40
 Basis Dimension        Dim             ....  115

ORBITAL ENERGIES
----------------

  NO   OCC          E(Eh)            E(eV)
   0   2.0000     -14.364336      -390.8735
   1   2.0000     -14.360482      -390.7686
   2   2.0000     -10.309767      -280.5430
   3   2.0000     -10.197903      -277.4991
   4   2.0000     -10.158443      -276.4253
   5   2.0000      -1.129106       -30.7245
   6   2.0000      -1.039566       -28.2880
   7   2.0000      -0.905079       -24.6285
   8   2.0000      -0.804479       -21.8910
   9   2.0000      -0.763385       -20.7728
  10   2.0000      -0.730133       -19.8679
  11   2.0000      -0.702924       -19.1275
  12   2.0000      -0.658412       -17.9163
  13   2.0000      -0.605208       -16.4685
  14   2.0000      -0.581960       -15.8359
  15   2.0000      -0.572167       -15.5695
  16   2.0000      -0.506118       -13.7722
  17   2.0000      -0.497464       -13.5367
  18   2.0000      -0.491983       -13.3875
  19   2.0000      -0.453912       -12.3516
  20   0.0000      -0.230305        -6.2669
  21   0.0000      -0.157951        -4.2981
  22   0.0000      -0.113776        -3.0960
  23   0.0000      -0.112322        -3.0564
  24   0.0000      -0.089231        -2.4281

MULLIKEN ATOMIC CHARGES
-----------------------
   0 C :   -0.020937
   1 C :    0.027950
   2 C :   -0.067908
   3 N :   -0.002107
   4 N :    0.043475
   5 H :    0.184926
   6 H :    0.173427
   7 H :    0.186541
   8 H :    0.169444
   9 H :    0.063833
  10 H :    0.077335
  11 H :    0.038597
  12 H :    0.079813
  13 H :    0.045610
Sum of atomic charges:    1.0000000

LOEWDIN ATOMIC CHARGES
----------------------
   0 C :   -0.025417
   1 C :   -0.007391
   2 C :    0.129273
   3 N :    0.099961
   4 N :    0.120707
   5 H :    0.122771
   6 H :    0.112968
   7 H :    0.122119
   8 H :    0.108383
   9 H :    0.051028
  10 H :    0.055211
  11 H :    0.028154
  12 H :    0.049564
  13 H :    0.032670

  Mayer bond orders larger than 0.100000
B(  0-C ,  1-C ) :   1.0717 B(  0-C ,  2-C ) :   1.0304 B(  0-C ,  9-H ) :   0.9220
B(  0-C , 10-H ) :   0.9217 B(  1-C , 11-H ) :   0.9706 B(  1-C , 12-H ) :   0.9619
B(  1-C , 13-H ) :   0.9685 B(  2-C ,  3-N ) :   1.4955 B(  2-C ,  4-N ) :   1.5293
B(  3-N ,  7-H ) :   0.9201 B(  3-N ,  8-H ) :   0.9312 B(  4-N ,  5-H ) :   0.9169
B(  4-N ,  6-H ) :   0.9274

Dispersion correction           -0.012421485
FINAL SINGLE POINT ENERGY      -228.913469444376

DIPOLE MOMENT
-------------
                                X             Y             Z
Electronic contribution:     -1.55525      -0.25732      -3.94240
Nuclear contribution   :      1.33202       0.27544       2.83701
                        -----------------------------------------
Total Dipole Moment    :     -0.22323       0.01812      -1.10539
                        -----------------------------------------
Magnitude (a.u.)       :      1.12785
Magnitude (Debye)      :      2.86678

Rotational constants in cm-1:     0.258570     0.126296     0.098869
Rotational constants in MHz :  7751.748523  3786.267300  2964.011691

                             ****ORCA TERMINATED NORMALLY****
TOTAL RUN TIME: 0 days 0 hours 0 minutes 8 seconds 221 msec
