                         Program Version 5.0.0 -  RELEASE  -
|  1> !TPSS D3BJ RIJCOSX def2-SVP def2/J TightSCF
|  2> *xyz 0 1
|  3> C          0.84888        2.66797       -4.30235
|  4> C          2.09343        1.86104       -4.65684
|  5> H          2.44481        2.04157       -5.67499
|  6> H          2.90175        2.13786       -3.98034
|  7> S          1.87964        0.07859       -4.46297
|  8> F          3.20757       -0.46611       -4.42026
|  9> O          1.07506       -0.05616       -3.26876
| 10> O          1.13166       -0.31996       -5.67903
| 11> H          0.05064        2.40112       -4.96303
| 12> H          1.06043        3.71210       -4.40203
| 13> H          0.56237        2.45684       -3.29327
| 14> *
| 15>
| 16> %MaxCore 64000
| 17>
| 18> %pal nprocs 4
| 19> end
| 20>
| 21> %scf
| 22>   MaxIter 150
| 23> end
| 24>
| 25>
| 26>                          ****END OF INPUT****

CARTESIAN COORDINATES (ANGSTROEM)
---------------------------------
  C      0.848880    2.667970   -4.302350
  C      2.093430    1.861040   -4.656840
  H      2.444810    2.041570   -5.674990
  H      2.901750    2.137860   -3.980340
  S      1.879640    0.078590   -4.462970
  F      3.207570   -0.466110   -4.420260
  O      1.075060   -0.056160   -3.268760
  O      1.131660   -0.319960   -5.679030
  H      0.050640    2.401120   -4.963030
  H      1.060430    3.712100   -4.402030
  H      0.562370    2.456840   -3.293270

 Total Charge           Charge          ....    0
 Multiplicity           Mult            ....    1
 Number of Electrons    NEL             ....   58
 Basis Dimension        Dim             ....  113

ORBITAL ENERGIES
----------------

  NO   OCC          E(Eh)            E(eV)
   0   2.0000     -88.595034     -2410.7934
   1   2.0000     -24.527413      -667.4248
   2   2.0000     -18.892052      -514.0789
   3   2.0000     -18.878625      -513.7135
   4   2.0000     -10.050746      -273.4947
   5   2.0000     -10.016647      -272.5668
   6   2.0000      -7.964839      -216.7343
   7   2.0000      -5.954629      -162.0337
   8   2.0000      -5.947888      -161.8503
   9   2.0000      -5.946161      -161.8033
  10   2.0000      -1.288124       -35.0516
  11   2.0000      -1.019728       -27.7482
  12   2.0000      -0.918678       -24.9985
  13   2.0000      -0.751641       -20.4532
  14   2.0000      -0.668706       -18.1964
  15   2.0000      -0.613102       -16.6833
  16   2.0000      -0.528022       -14.3682
  17   2.0000      -0.521544       -14.1919
  18   2.0000      -0.493044       -13.4164
  19   2.0000      -0.445449       -12.1213
  20   2.0000      -0.426649       -11.6097
  21   2.0000      -0.385275       -10.4839
  22   2.0000      -0.380437       -10.3522
  23   2.0000      -0.364126        -9.9084
  24   2.0000      -0.346027        -9.4159
  25   2.0000      -0.327605        -8.9146
  26   2.0000      -0.278865        -7.5883
  27   2.0000      -0.264572        -7.1994
  28   2.0000      -0.247036        -6.7222
  29   0.0000       0.009661         0.2629
  30   0.0000       0.033578         0.9137
  31   0.0000       0.052638         1.4324
  32   0.0000       0.066835         1.8187
  33   0.0000       0.085621         2.3299

MULLIKEN ATOMIC CHARGES
-----------------------
   0 C :    0.023292
   1 C :   -0.127589
   2 H :    0.067344
   3 H :    0.049998
   4 S :    0.880314
   5 F :   -0.147237
   6 O :   -0.418750
   7 O :   -0.455832
   8 H :    0.046442
   9 H :    0.034519
  10 H :    0.047499
Sum of atomic charges:    0.0000000

LOEWDIN ATOMIC CHARGES
----------------------
   0 C :   -0.037103
   1 C :   -0.148864
   2 H :    0.032145
   3 H :    0.023243
   4 S :    1.105225
   5 F :   -0.100643
   6 O :   -0.462476
   7 O :   -0.503709
   8 H :    0.030854
   9 H :    0.031554
  10 H :    0.029773

  Mayer bond orders larger than 0.100000
B(  0-C ,  1-C ) :   1.0777 B(  0-C ,  8-H ) :   0.9714 B(  0-C ,  9-H ) :   0.9594
B(  0-C , 10-H ) :   0.9656 B(  1-C ,  2-H ) :   0.9314 B(  1-C ,  3-H ) :   0.9272
B(  1-C ,  4-S ) :   0.9015 B(  4-S ,  5-F ) :   1.0379 B(  4-S ,  6-O ) :   1.7684
B(  4-S ,  7-O ) :   1.7401

Dispersion correction           -0.011631218
FINAL SINGLE POINT ENERGY      -727.296704742815

DIPOLE MOMENT
-------------
                                X             Y             Z
Electronic contribution:      4.13670      -9.45589       0.10987
Nuclear contribution   :     -3.08754      10.54185      -0.04092
                        -----------------------------------------
Total Dipole Moment    :      1.04916       1.08596       0.06895
                        -----------------------------------------
Magnitude (a.u.)       :      1.51156
Magnitude (Debye)      :      3.84207

Rotational constants in cm-1:     0.158925     0.081210     0.079022
Rotational constants in MHz :  4764.450166  2434.603461  2369.014434

                             ****ORCA TERMINATED NORMALLY****
TOTAL RUN TIME: 0 days 0 hours 0 minutes 8 seconds 88 msec
