                         Program Version 5.0.0 -  RELEASE  -
|  1> !TPSS D3BJ RIJCOSX def2-SVP def2/J TightSCF
|  2> *xyz 0 1
|  3> C         -0.46129        2.23469       -4.98962
|  4> C          0.84888        2.66797       -4.30235
|  5> C         -0.42384        2.39877       -6.47432
|  6> C         -0.95947        3.49265       -7.00740
|  7> N          0.14558        1.48689       -7.20399
|  8> H          0.56537        0.69681       -6.72386
|  9> H          0.22068        1.58177       -8.20752
| 10> H         -1.40624        4.18151       -6.40326
| 11> H         -0.93421        3.68160       -7.99947
| 12> H         -1.28888        2.82674       -4.59500
| 13> H         -0.65170        1.18634       -4.75655
| 14> H          1.66208        2.08894       -4.68750
| 15> H          0.76716        2.51042       -3.24717
| 16> H          1.02677        3.70527       -4.49537
| 17> *
| 18>
| 19> %MaxCore 64000
| 20>
| 21> %pal nprocs 4
| 22> end
| 23>
| 24> %scf
| 25>   MaxIter 150
| 26> end
| 27>
| 28>
| 29>                          ****END OF INPUT****

CARTESIAN COORDINATES (ANGSTROEM)
---------------------------------
  C     -0.461290    2.234690   -4.989620
  C      0.848880    2.667970   -4.302350
  C     -0.423840    2.398770   -6.474320
  C     -0.959470    3.492650   -7.007400
  N      0.145580    1.486890   -7.203990
  H      0.565370    0.696810   -6.723860
  H      0.220680    1.581770   -8.207520
  H     -1.406240    4.181510   -6.403260
  H     -0.934210    3.681600   -7.999470
  H     -1.288880    2.826740   -4.595000
  H     -0.651700    1.186340   -4.756550
  H      1.662080    2.088940   -4.687500
  H      0.767160    2.510420   -3.247170
  H      1.026770    3.705270   -4.495370

 Total Charge           Charge          ....    0
 Multiplicity           Mult            ....    1
 Number of Electrons    NEL             ....   40
 Basis Dimension        Dim             ....  115

ORBITAL ENERGIES
----------------

  NO   OCC          E(Eh)            E(eV)
   0   2.0000     -14.114141      -384.0653
   1   2.0000     -10.005502      -272.2635
   2   2.0000      -9.996076      -272.0071
   3   2.0000      -9.986808      -271.7548
   4   2.0000      -9.926365      -270.1101
   5   2.0000      -0.856148       -23.2970
   6   2.0000      -0.709997       -19.3200
   7   2.0000      -0.645301       -17.5595
   8   2.0000      -0.575990       -15.6735
   9   2.0000      -0.514103       -13.9895
  10   2.0000      -0.479723       -13.0539
  11   2.0000      -0.430032       -11.7018
  12   2.0000      -0.393608       -10.7106
  13   2.0000      -0.373278       -10.1574
  14   2.0000      -0.345330        -9.3969
  15   2.0000      -0.337360        -9.1800
  16   2.0000      -0.313423        -8.5287
  17   2.0000      -0.293647        -7.9905
  18   2.0000      -0.285680        -7.7737
  19   2.0000      -0.146845        -3.9958
  20   0.0000       0.032055         0.8723
  21   0.0000       0.044962         1.2235
  22   0.0000       0.081421         2.2156
  23   0.0000       0.090633         2.4662
  24   0.0000       0.106479         2.8974

MULLIKEN ATOMIC CHARGES
-----------------------
   0 C :    0.032037
   1 C :    0.041856
   2 C :   -0.162503
   3 C :   -0.040835
   4 N :   -0.041509
   5 H :    0.107769
   6 H :    0.114644
   7 H :   -0.035429
   8 H :   -0.052260
   9 H :    0.014628
  10 H :   -0.004545
  11 H :   -0.001413
  12 H :    0.012709
  13 H :    0.014850
Sum of atomic charges:   -0.0000000

LOEWDIN ATOMIC CHARGES
----------------------
   0 C :   -0.021655
   1 C :   -0.033432
   2 C :   -0.014257
   3 C :   -0.172496
   4 N :    0.015779
   5 H :    0.070064
   6 H :    0.077553
   7 H :   -0.002827
   8 H :   -0.012846
   9 H :    0.031072
  10 H :    0.013519
  11 H :    0.011772
  12 H :    0.017169
  13 H :    0.020585

  Mayer bond orders larger than 0.100000
B(  0-C ,  1-C ) :   1.0921 B(  0-C ,  2-C ) :   1.0341 B(  0-C ,  9-H ) :   0.9300
B(  0-C , 10-H ) :   0.9261 B(  1-C , 11-H ) :   0.9685 B(  1-C , 12-H ) :   0.9662
B(  1-C , 13-H ) :   0.9692 B(  2-C ,  3-C ) :   1.8281 B(  2-C ,  4-N ) :   1.2971
B(  3-C ,  7-H ) :   0.9361 B(  3-C ,  8-H ) :   0.9506 B(  4-N ,  5-H ) :   0.9456
B(  4-N ,  6-H ) :   0.9440

Dispersion correction           -0.012925976
FINAL SINGLE POINT ENERGY      -212.449774291449

DIPOLE MOMENT
-------------
                                X             Y             Z
Electronic contribution:     -0.68463      -1.22830      -2.63870
Nuclear contribution   :      1.14741       0.51394       2.60761
                        -----------------------------------------
Total Dipole Moment    :      0.46278      -0.71436      -0.03109
                        -----------------------------------------
Magnitude (a.u.)       :      0.85173
Magnitude (Debye)      :      2.16493

Rotational constants in cm-1:     0.269157     0.129188     0.102123
Rotational constants in MHz :  8069.118715  3872.945231  3061.580645

                             ****ORCA TERMINATED NORMALLY****
TOTAL RUN TIME: 0 days 0 hours 0 minutes 8 seconds 251 msec
