                         Program Version 5.0.0 -  RELEASE  -
|  1> !TPSS D3BJ RIJCOSX def2-SVP def2/J TightSCF
|  2> *xyz 0 1
|  3> C          0.84888        2.66797       -4.30235
|  4> C          2.09343        1.86104       -4.65684
|  5> H          2.44481        2.04157       -5.67499
|  6> H          2.90175        2.13786       -3.98034
|  7> S          1.87964        0.07859       -4.46297
|  8> O          3.20757       -0.46611       -4.42026
|  9> F          1.07506       -0.05616       -3.26876
| 10> O          1.13166       -0.31996       -5.67903
| 11> H          0.05064        2.40112       -4.96303
| 12> H          1.06043        3.71210       -4.40203
| 13> H          0.56237        2.45684       -3.29327
| 14> *
| 15>
| 16> %MaxCore 64000
| 17>
| 18> %pal nprocs 4
| 19> end
| 20>
| 21> %scf
| 22>   MaxIter 150
| 23> end
| 24>
| 25>
| 26>                          ****END OF INPUT****

CARTESIAN COORDINATES (ANGSTROEM)
---------------------------------
  C      0.848880    2.667970   -4.302350
  C      2.093430    1.861040   -4.656840
  H      2.444810    2.041570   -5.674990
  H      2.901750    2.137860   -3.980340
  S      1.879640    0.078590   -4.462970
  O      3.207570   -0.466110   -4.420260
  F      1.075060   -0.056160   -3.268760
  O      1.131660   -0.319960   -5.679030
  H      0.050640    2.401120   -4.963030
  H      1.060430    3.712100   -4.402030
  H      0.562370    2.456840   -3.293270

 Total Charge           Charge          ....    0
 Multiplicity           Mult            ....    1
 Number of Electrons    NEL             ....   58
 Basis Dimension        Dim             ....  113

ORBITAL ENERGIES
----------------

  NO   OCC          E(Eh)            E(eV)
   0   2.0000     -88.594492     -2410.7787
   1   2.0000     -24.522684      -667.2962
   2   2.0000     -18.895398      -514.1699
   3   2.0000     -18.879010      -513.7240
   4   2.0000     -10.050571      -273.4899
   5   2.0000     -10.023004      -272.7398
   6   2.0000      -7.964307      -216.7198
   7   2.0000      -5.954144      -162.0205
   8   2.0000      -5.947357      -161.8358
   9   2.0000      -5.945642      -161.7891
  10   2.0000      -1.279785       -34.8247
  11   2.0000      -1.023820       -27.8596
  12   2.0000      -0.921933       -25.0871
  13   2.0000      -0.756914       -20.5967
  14   2.0000      -0.662558       -18.0291
  15   2.0000      -0.616677       -16.7806
  16   2.0000      -0.535595       -14.5743
  17   2.0000      -0.515262       -14.0210
  18   2.0000      -0.483843       -13.1660
  19   2.0000      -0.447142       -12.1674
  20   2.0000      -0.422318       -11.4919
  21   2.0000      -0.399435       -10.8692
  22   2.0000      -0.383257       -10.4289
  23   2.0000      -0.369335       -10.0501
  24   2.0000      -0.352977        -9.6050
  25   2.0000      -0.329590        -8.9686
  26   2.0000      -0.281130        -7.6499
  27   2.0000      -0.265193        -7.2163
  28   2.0000      -0.250285        -6.8106
  29   0.0000       0.004472         0.1217
  30   0.0000       0.043769         1.1910
  31   0.0000       0.046421         1.2632
  32   0.0000       0.073100         1.9892
  33   0.0000       0.084985         2.3126

MULLIKEN ATOMIC CHARGES
-----------------------
   0 C :    0.002581
   1 C :   -0.128051
   2 H :    0.090743
   3 H :    0.060743
   4 S :    0.881930
   5 O :   -0.403156
   6 F :   -0.159497
   7 O :   -0.456417
   8 H :    0.044406
   9 H :    0.038868
  10 H :    0.027849
Sum of atomic charges:   -0.0000000

LOEWDIN ATOMIC CHARGES
----------------------
   0 C :   -0.052866
   1 C :   -0.144892
   2 H :    0.047672
   3 H :    0.028246
   4 S :    1.108064
   5 O :   -0.451544
   6 F :   -0.110064
   7 O :   -0.504680
   8 H :    0.027433
   9 H :    0.032576
  10 H :    0.020056

  Mayer bond orders larger than 0.100000
B(  0-C ,  1-C ) :   1.0550 B(  0-C ,  8-H ) :   0.9702 B(  0-C ,  9-H ) :   0.9602
B(  0-C , 10-H ) :   0.9712 B(  1-C ,  2-H ) :   0.9367 B(  1-C ,  3-H ) :   0.9322
B(  1-C ,  4-S ) :   0.9056 B(  4-S ,  5-O ) :   1.7931 B(  4-S ,  6-F ) :   1.0176
B(  4-S ,  7-O ) :   1.7407

Dispersion correction           -0.011552024
FINAL SINGLE POINT ENERGY      -727.301197180170

DIPOLE MOMENT
-------------
                                X             Y             Z
Electronic contribution:      0.58216      -8.75444       2.01099
Nuclear contribution   :     -0.86540      10.11467      -1.24082
                        -----------------------------------------
Total Dipole Moment    :     -0.28324       1.36024       0.77018
                        -----------------------------------------
Magnitude (a.u.)       :      1.58860
Magnitude (Debye)      :      4.03790

Rotational constants in cm-1:     0.154065     0.083345     0.080357
Rotational constants in MHz :  4618.752213  2498.631937  2409.037217

                             ****ORCA TERMINATED NORMALLY****
TOTAL RUN TIME: 0 days 0 hours 0 minutes 8 seconds 253 msec
