                         Program Version 5.0.0 -  RELEASE  -
|  1> !TPSS D3BJ RIJCOSX def2-SVP def2/J TightSCF
|  2> *xyz 0 1
|  3> C         -0.46129        2.23469       -4.98962
|  4> C          0.84888        2.66797       -4.30235
|  5> C         -0.42384        2.39877       -6.47432
|  6> N         -0.95947        3.49265       -7.00740
|  7> C          0.14558        1.48689       -7.20399
|  8> H          0.56537        0.69681       -6.72386
|  9> H          0.22068        1.58177       -8.20752
| 10> H         -1.40624        4.18151       -6.40326
| 11> H         -0.93421        3.68160       -7.99947
| 12> H         -1.28888        2.82674       -4.59500
| 13> H         -0.65170        1.18634       -4.75655
| 14> H          1.66208        2.08894       -4.68750
| 15> H          0.76716        2.51042       -3.24717
| 16> H          1.02677        3.70527       -4.49537
| 17> *
| 18>
| 19> %MaxCore 64000
| 20>
| 21> %pal nprocs 4
| 22> end
| 23>
| 24> %scf
| 25>   MaxIter 150
| 26> end
| 27>
| 28>
| 29>                          ****END OF INPUT****

CARTESIAN COORDINATES (ANGSTROEM)
---------------------------------
  C     -0.461290    2.234690   -4.989620
  C      0.848880    2.667970   -4.302350
  C     -0.423840    2.398770   -6.474320
  N     -0.959470    3.492650   -7.007400
  C      0.145580    1.486890   -7.203990
  H      0.565370    0.696810   -6.723860
  H      0.220680    1.581770   -8.207520
  H     -1.406240    4.181510   -6.403260
  H     -0.934210    3.681600   -7.999470
  H     -1.288880    2.826740   -4.595000
  H     -0.651700    1.186340   -4.756550
  H      1.662080    2.088940   -4.687500
  H      0.767160    2.510420   -3.247170
  H      1.026770    3.705270   -4.495370

 Total Charge           Charge          ....    0
 Multiplicity           Mult            ....    1
 Number of Electrons    NEL             ....   40
 Basis Dimension        Dim             ....  115

ORBITAL ENERGIES
----------------

  NO   OCC          E(Eh)            E(eV)
   0   2.0000     -14.110359      -383.9624
   1   2.0000     -10.003664      -272.2136
   2   2.0000      -9.995935      -272.0032
   3   2.0000      -9.985359      -271.7154
   4   2.0000      -9.925094      -270.0755
   5   2.0000      -0.843935       -22.9646
   6   2.0000      -0.711227       -19.3535
   7   2.0000      -0.648975       -17.6595
   8   2.0000      -0.576893       -15.6981
   9   2.0000      -0.508584       -13.8393
  10   2.0000      -0.470023       -12.7900
  11   2.0000      -0.432231       -11.7616
  12   2.0000      -0.394654       -10.7391
  13   2.0000      -0.368792       -10.0353
  14   2.0000      -0.346343        -9.4245
  15   2.0000      -0.338450        -9.2097
  16   2.0000      -0.311261        -8.4698
  17   2.0000      -0.296465        -8.0672
  18   2.0000      -0.281010        -7.6467
  19   2.0000      -0.149988        -4.0814
  20   0.0000       0.033641         0.9154
  21   0.0000       0.046863         1.2752
  22   0.0000       0.082435         2.2432
  23   0.0000       0.088210         2.4003
  24   0.0000       0.109433         2.9778

MULLIKEN ATOMIC CHARGES
-----------------------
   0 C :    0.033879
   1 C :    0.039809
   2 C :   -0.131227
   3 N :   -0.086666
   4 C :   -0.023542
   5 H :   -0.037318
   6 H :   -0.051468
   7 H :    0.107400
   8 H :    0.109968
   9 H :   -0.012186
  10 H :    0.020433
  11 H :    0.015068
  12 H :    0.010594
  13 H :    0.005257
Sum of atomic charges:    0.0000000

LOEWDIN ATOMIC CHARGES
----------------------
   0 C :   -0.021495
   1 C :   -0.031123
   2 C :   -0.007516
   3 N :   -0.004315
   4 C :   -0.160106
   5 H :   -0.001411
   6 H :   -0.009295
   7 H :    0.068455
   8 H :    0.072622
   9 H :    0.012596
  10 H :    0.030672
  11 H :    0.019509
  12 H :    0.015938
  13 H :    0.015471

  Mayer bond orders larger than 0.100000
B(  0-C ,  1-C ) :   1.0969 B(  0-C ,  2-C ) :   1.0218 B(  0-C ,  9-H ) :   0.9279
B(  0-C , 10-H ) :   0.9325 B(  1-C , 11-H ) :   0.9718 B(  1-C , 12-H ) :   0.9657
B(  1-C , 13-H ) :   0.9674 B(  2-C ,  3-N ) :   1.2608 B(  2-C ,  4-C ) :   1.8633
B(  3-N ,  7-H ) :   0.9481 B(  3-N ,  8-H ) :   0.9488 B(  4-C ,  5-H ) :   0.9279
B(  4-C ,  6-H ) :   0.9484

Dispersion correction           -0.012934394
FINAL SINGLE POINT ENERGY      -212.449326641115

DIPOLE MOMENT
-------------
                                X             Y             Z
Electronic contribution:     -1.73906       0.65247      -2.44538
Nuclear contribution   :      1.40335       0.04939       2.56207
                        -----------------------------------------
Total Dipole Moment    :     -0.33571       0.70186       0.11670
                        -----------------------------------------
Magnitude (a.u.)       :      0.78672
Magnitude (Debye)      :      1.99968

Rotational constants in cm-1:     0.271383     0.128194     0.101873
Rotational constants in MHz :  8135.853259  3843.152748  3054.074278

                             ****ORCA TERMINATED NORMALLY****
TOTAL RUN TIME: 0 days 0 hours 0 minutes 8 seconds 620 msec
