                         Program Version 5.0.0 -  RELEASE  -
|  1> !TPSS D3BJ RIJCOSX def2-SVP def2/J TightSCF
|  2> *xyz 0 1
|  3> C          0.84888        2.66797       -4.30235
|  4> C          2.09343        1.86104       -4.65684
|  5> H          2.44481        2.04157       -5.67499
|  6> H          2.90175        2.13786       -3.98034
|  7> S          1.87964        0.07859       -4.46297
|  8> O          3.20757       -0.46611       -4.42026
|  9> O          1.07506       -0.05616       -3.26876
| 10> F          1.13166       -0.31996       -5.67903
| 11> H          0.05064        2.40112       -4.96303
| 12> H          1.06043        3.71210       -4.40203
| 13> H          0.56237        2.45684       -3.29327
| 14> *
| 15>
| 16> %MaxCore 64000
| 17>
| 18> %pal nprocs 4
| 19> end
| 20>
| 21> %scf
| 22>   MaxIter 150
| 23> end
| 24>
| 25>
| 26>                          ****END OF INPUT****

CARTESIAN COORDINATES (ANGSTROEM)
---------------------------------
  C      0.848880    2.667970   -4.302350
  C      2.093430    1.861040   -4.656840
  H      2.444810    2.041570   -5.674990
  H      2.901750    2.137860   -3.980340
  S      1.879640    0.078590   -4.462970
  O      3.207570   -0.466110   -4.420260
  O      1.075060   -0.056160   -3.268760
  F      1.131660   -0.319960   -5.679030
  H      0.050640    2.401120   -4.963030
  H      1.060430    3.712100   -4.402030
  H      0.562370    2.456840   -3.293270

 Total Charge           Charge          ....    0
 Multiplicity           Mult            ....    1
 Number of Electrons    NEL             ....   58
 Basis Dimension        Dim             ....  113

ORBITAL ENERGIES
----------------

  NO   OCC          E(Eh)            E(eV)
   0   2.0000     -88.593624     -2410.7551
   1   2.0000     -24.503946      -666.7863
   2   2.0000     -18.895729      -514.1789
   3   2.0000     -18.893220      -514.1106
   4   2.0000     -10.049814      -273.4693
   5   2.0000     -10.017626      -272.5935
   6   2.0000      -7.963384      -216.6947
   7   2.0000      -5.952859      -161.9855
   8   2.0000      -5.946770      -161.8198
   9   2.0000      -5.944931      -161.7698
  10   2.0000      -1.248924       -33.9850
  11   2.0000      -1.032733       -28.1021
  12   2.0000      -0.942243       -25.6397
  13   2.0000      -0.753133       -20.4938
  14   2.0000      -0.653238       -17.7755
  15   2.0000      -0.607111       -16.5203
  16   2.0000      -0.518995       -14.1226
  17   2.0000      -0.493819       -13.4375
  18   2.0000      -0.484527       -13.1846
  19   2.0000      -0.444361       -12.0917
  20   2.0000      -0.424621       -11.5545
  21   2.0000      -0.399193       -10.8626
  22   2.0000      -0.381509       -10.3814
  23   2.0000      -0.360965        -9.8223
  24   2.0000      -0.355603        -9.6764
  25   2.0000      -0.332914        -9.0591
  26   2.0000      -0.286124        -7.7858
  27   2.0000      -0.279742        -7.6122
  28   2.0000      -0.265479        -7.2240
  29   0.0000       0.008472         0.2305
  30   0.0000       0.041999         1.1429
  31   0.0000       0.050158         1.3649
  32   0.0000       0.071931         1.9574
  33   0.0000       0.085318         2.3216

MULLIKEN ATOMIC CHARGES
-----------------------
   0 C :    0.012452
   1 C :   -0.137812
   2 H :    0.061412
   3 H :    0.083497
   4 S :    0.893871
   5 O :   -0.408762
   6 O :   -0.423267
   7 F :   -0.194657
   8 H :    0.028279
   9 H :    0.032657
  10 H :    0.052329
Sum of atomic charges:    0.0000000

LOEWDIN ATOMIC CHARGES
----------------------
   0 C :   -0.049197
   1 C :   -0.149964
   2 H :    0.028452
   3 H :    0.044161
   4 S :    1.113734
   5 O :   -0.455406
   6 O :   -0.465045
   7 F :   -0.149286
   8 H :    0.022465
   9 H :    0.030081
  10 H :    0.030004

  Mayer bond orders larger than 0.100000
B(  0-C ,  1-C ) :   1.0596 B(  0-C ,  8-H ) :   0.9731 B(  0-C ,  9-H ) :   0.9580
B(  0-C , 10-H ) :   0.9663 B(  1-C ,  2-H ) :   0.9332 B(  1-C ,  3-H ) :   0.9361
B(  1-C ,  4-S ) :   0.8979 B(  4-S ,  5-O ) :   1.7980 B(  4-S ,  6-O ) :   1.7747
B(  4-S ,  7-F ) :   0.9822

Dispersion correction           -0.011584549
FINAL SINGLE POINT ENERGY      -727.317968347231

DIPOLE MOMENT
-------------
                                X             Y             Z
Electronic contribution:      0.67087      -9.22037      -2.00907
Nuclear contribution   :     -0.92438      10.38956       1.27076
                        -----------------------------------------
Total Dipole Moment    :     -0.25351       1.16919      -0.73831
                        -----------------------------------------
Magnitude (a.u.)       :      1.40584
Magnitude (Debye)      :      3.57335

Rotational constants in cm-1:     0.154243     0.082247     0.080562
Rotational constants in MHz :  4624.087322  2465.703680  2415.175852

                             ****ORCA TERMINATED NORMALLY****
TOTAL RUN TIME: 0 days 0 hours 0 minutes 8 seconds 629 msec
