                         Program Version 5.0.0 -  RELEASE  -
|  1> !TPSS D3BJ RIJCOSX def2-TZVP def2/J TightSCF xyzfile
|  2>
|  3> *xyzfile 0 1 D1.xyz
|  4>
|  5> %MaxCore 64000
|  6>
|  7> %pal nprocs 18
|  8> end
|  9>
| 10> %scf
| 11>   MaxIter 150
| 12> end
| 13>
| 14>
| 15>                          ****END OF INPUT****

CARTESIAN COORDINATES (ANGSTROEM)
---------------------------------
  C     -0.461293    2.234686   -4.989619
  C      0.848883    2.667967   -4.302351
  C      2.093434    1.861037   -4.656845
  H      2.444814    2.041567   -5.674990
  H      2.901748    2.137864   -3.980338
  S      1.879644    0.078594   -4.462965
  C     -0.423841    2.398772   -6.474317
  C     -0.959467    3.492647   -7.007401
  N      0.145585    1.486891   -7.203987
  H      0.565371    0.696807   -6.723858
  H      0.220682    1.581768   -8.207520
  H     -1.406243    4.181507   -6.403261
  H     -0.934215    3.681601   -7.999468
  F      3.207574   -0.466111   -4.420259
  O      1.075064   -0.056160   -3.268758
  O      1.131661   -0.319960   -5.679031
  H      0.668432    2.559427   -3.232850
  H      1.034074    3.729426   -4.497081
  H     -1.288884    2.826737   -4.594997
  H     -0.651696    1.186343   -4.756552

 Total Charge           Charge          ....    0
 Multiplicity           Mult            ....    1
 Number of Electrons    NEL             ....   88
 Basis Dimension        Dim             ....  376

ORBITAL ENERGIES
----------------

  NO   OCC          E(Eh)            E(eV)
   0   2.0000     -88.601471     -2410.9686
   1   2.0000     -24.543665      -667.8671
   2   2.0000     -18.909531      -514.5545
   3   2.0000     -18.906754      -514.4789
   4   2.0000     -14.075309      -383.0086
   5   2.0000     -10.046515      -273.3796
   6   2.0000     -10.011284      -272.4209
   7   2.0000      -9.988987      -271.8141
   8   2.0000      -9.985286      -271.7134
   9   2.0000      -9.906352      -269.5655
  10   2.0000      -7.951146      -216.3617
  11   2.0000      -5.934234      -161.4787
  12   2.0000      -5.927923      -161.3070
  13   2.0000      -5.927090      -161.2843
  14   2.0000      -1.320146       -35.9230
  15   2.0000      -1.050028       -28.5727
  16   2.0000      -0.961081       -26.1523
  17   2.0000      -0.855915       -23.2906
  18   2.0000      -0.773577       -21.0501
  19   2.0000      -0.710314       -19.3286
  20   2.0000      -0.678498       -18.4629
  21   2.0000      -0.637601       -17.3500
  22   2.0000      -0.591351       -16.0915
  23   2.0000      -0.547847       -14.9077
  24   2.0000      -0.541763       -14.7421
  25   2.0000      -0.526621       -14.3301
  26   2.0000      -0.508194       -13.8287
  27   2.0000      -0.478751       -13.0275
  28   2.0000      -0.455968       -12.4075
  29   2.0000      -0.443593       -12.0708
  30   2.0000      -0.426226       -11.5982
  31   2.0000      -0.410725       -11.1764
  32   2.0000      -0.402468       -10.9517
  33   2.0000      -0.369411       -10.0522
  34   2.0000      -0.357347        -9.7239
  35   2.0000      -0.351100        -9.5539
  36   2.0000      -0.338965        -9.2237
  37   2.0000      -0.327973        -8.9246
  38   2.0000      -0.307455        -8.3663
  39   2.0000      -0.303085        -8.2474
  40   2.0000      -0.289474        -7.8770
  41   2.0000      -0.285501        -7.7689
  42   2.0000      -0.279258        -7.5990
  43   2.0000      -0.145713        -3.9650
  44   0.0000      -0.022337        -0.6078
  45   0.0000       0.008149         0.2217
  46   0.0000       0.024995         0.6801
  47   0.0000       0.028112         0.7650
  48   0.0000       0.035477         0.9654

MULLIKEN ATOMIC CHARGES
-----------------------
   0 C :   -0.289224
   1 C :   -0.110074
   2 C :   -0.303972
   3 H :    0.158800
   4 H :    0.134851
   5 S :    0.784062
   6 C :    0.182130
   7 C :   -0.423428
   8 N :   -0.440213
   9 H :    0.260506
  10 H :    0.214076
  11 H :    0.092897
  12 H :    0.083355
  13 F :   -0.063671
  14 O :   -0.359003
  15 O :   -0.420242
  16 H :    0.112711
  17 H :    0.110849
  18 H :    0.113956
  19 H :    0.161634
Sum of atomic charges:   -0.0000000

LOEWDIN ATOMIC CHARGES
----------------------
   0 C :   -0.212168
   1 C :   -0.259369
   2 C :   -0.368721
   3 H :    0.140312
   4 H :    0.135130
   5 S :    0.506403
   6 C :   -0.383151
   7 C :   -0.288491
   8 N :    0.022836
   9 H :    0.135648
  10 H :    0.166824
  11 H :    0.101057
  12 H :    0.091235
  13 F :    0.121630
  14 O :   -0.227363
  15 O :   -0.266537
  16 H :    0.143326
  17 H :    0.147436
  18 H :    0.150602
  19 H :    0.143360

  Mayer bond orders larger than 0.100000
B(  0-C ,  1-C ) :   0.9978 B(  0-C ,  6-C ) :   0.9646 B(  0-C , 18-H ) :   0.9457
B(  0-C , 19-H ) :   0.9658 B(  1-C ,  2-C ) :   1.0315 B(  1-C , 16-H ) :   0.9367
B(  1-C , 17-H ) :   0.9201 B(  2-C ,  3-H ) :   0.9174 B(  2-C ,  4-H ) :   0.9230
B(  2-C ,  5-S ) :   0.9341 B(  5-S , 13-F ) :   1.1779 B(  5-S , 14-O ) :   1.9373
B(  5-S , 15-O ) :   1.7620 B(  6-C ,  7-C ) :   1.7522 B(  6-C ,  8-N ) :   1.2414
B(  7-C , 11-H ) :   0.9740 B(  7-C , 12-H ) :   0.9745 B(  8-N ,  9-H ) :   0.8375
B(  8-N , 10-H ) :   0.9150 B(  9-H , 15-O ) :   0.1146

Dispersion correction           -0.028711715
FINAL SINGLE POINT ENERGY      -900.043505557680

DIPOLE MOMENT
-------------
                                X             Y             Z
Electronic contribution:     10.13291     -14.01317       5.44149
Nuclear contribution   :     -8.53047      14.15581      -5.17613
                        -----------------------------------------
Total Dipole Moment    :      1.60244       0.14264       0.26536
                        -----------------------------------------
Magnitude (a.u.)       :      1.63051
Magnitude (Debye)      :      4.14443

Rotational constants in cm-1:     0.081196     0.024861     0.022477
Rotational constants in MHz :  2434.181666   745.320670   673.846846

                             ****ORCA TERMINATED NORMALLY****
TOTAL RUN TIME: 0 days 0 hours 0 minutes 15 seconds 387 msec
