                         Program Version 5.0.0 -  RELEASE  -
|  1> !TPSS D3BJ RIJCOSX def2-TZVP def2/J TightSCF xyzfile
|  2>
|  3> *xyzfile 0 1 D3.xyz
|  4>
|  5> %MaxCore 64000
|  6>
|  7> %pal nprocs 18
|  8> end
|  9>
| 10> %scf
| 11>   MaxIter 150
| 12> end
| 13>
| 14>
| 15>                          ****END OF INPUT****

CARTESIAN COORDINATES (ANGSTROEM)
---------------------------------
  C     -0.461293    2.234686   -4.989619
  C      0.848883    2.667967   -4.302351
  C      2.093434    1.861037   -4.656845
  H      2.444814    2.041567   -5.674990
  H      2.901748    2.137864   -3.980338
  S      1.879644    0.078594   -4.462965
  C     -0.423841    2.398772   -6.474317
  C     -0.959467    3.492647   -7.007401
  N      0.145585    1.486891   -7.203987
  H      0.565371    0.696807   -6.723858
  H      0.220682    1.581768   -8.207520
  H     -1.406243    4.181507   -6.403261
  H     -0.934215    3.681601   -7.999468
  O      3.207574   -0.466111   -4.420259
  F      1.075064   -0.056160   -3.268758
  O      1.131661   -0.319960   -5.679031
  H      0.668432    2.559427   -3.232850
  H      1.034074    3.729426   -4.497081
  H     -1.288884    2.826737   -4.594997
  H     -0.651696    1.186343   -4.756552

 Total Charge           Charge          ....    0
 Multiplicity           Mult            ....    1
 Number of Electrons    NEL             ....   88
 Basis Dimension        Dim             ....  376

ORBITAL ENERGIES
----------------

  NO   OCC          E(Eh)            E(eV)
   0   2.0000     -88.600884     -2410.9526
   1   2.0000     -24.538184      -667.7179
   2   2.0000     -18.912382      -514.6321
   3   2.0000     -18.905985      -514.4580
   4   2.0000     -14.077953      -383.0806
   5   2.0000     -10.046289      -273.3734
   6   2.0000     -10.016117      -272.5524
   7   2.0000      -9.995319      -271.9865
   8   2.0000      -9.994360      -271.9604
   9   2.0000      -9.910946      -269.6906
  10   2.0000      -7.950536      -216.3451
  11   2.0000      -5.933814      -161.4673
  12   2.0000      -5.927324      -161.2907
  13   2.0000      -5.926319      -161.2633
  14   2.0000      -1.311692       -35.6929
  15   2.0000      -1.052782       -28.6476
  16   2.0000      -0.964263       -26.2389
  17   2.0000      -0.859509       -23.3884
  18   2.0000      -0.779294       -21.2057
  19   2.0000      -0.710061       -19.3217
  20   2.0000      -0.677325       -18.4310
  21   2.0000      -0.642345       -17.4791
  22   2.0000      -0.593650       -16.1540
  23   2.0000      -0.550015       -14.9667
  24   2.0000      -0.543017       -14.7762
  25   2.0000      -0.521333       -14.1862
  26   2.0000      -0.513804       -13.9813
  27   2.0000      -0.473894       -12.8953
  28   2.0000      -0.455285       -12.3889
  29   2.0000      -0.447002       -12.1636
  30   2.0000      -0.427232       -11.6256
  31   2.0000      -0.414291       -11.2734
  32   2.0000      -0.408112       -11.1053
  33   2.0000      -0.378018       -10.2864
  34   2.0000      -0.361327        -9.8322
  35   2.0000      -0.356982        -9.7140
  36   2.0000      -0.342406        -9.3173
  37   2.0000      -0.340911        -9.2767
  38   2.0000      -0.306492        -8.3401
  39   2.0000      -0.304337        -8.2814
  40   2.0000      -0.298835        -8.1317
  41   2.0000      -0.287142        -7.8135
  42   2.0000      -0.280809        -7.6412
  43   2.0000      -0.149609        -4.0711
  44   0.0000      -0.023484        -0.6390
  45   0.0000       0.012831         0.3491
  46   0.0000       0.017972         0.4890
  47   0.0000       0.025140         0.6841
  48   0.0000       0.037168         1.0114

MULLIKEN ATOMIC CHARGES
-----------------------
   0 C :   -0.288809
   1 C :   -0.141106
   2 C :   -0.291441
   3 H :    0.171789
   4 H :    0.145812
   5 S :    0.794096
   6 C :    0.191695
   7 C :   -0.421962
   8 N :   -0.439358
   9 H :    0.266129
  10 H :    0.216136
  11 H :    0.093235
  12 H :    0.086358
  13 O :   -0.363099
  14 F :   -0.066749
  15 O :   -0.421712
  16 H :    0.105386
  17 H :    0.111416
  18 H :    0.117476
  19 H :    0.134705
Sum of atomic charges:    0.0000000

LOEWDIN ATOMIC CHARGES
----------------------
   0 C :   -0.217941
   1 C :   -0.272483
   2 C :   -0.359467
   3 H :    0.150255
   4 H :    0.139696
   5 S :    0.510953
   6 C :   -0.383179
   7 C :   -0.285639
   8 N :    0.025024
   9 H :    0.136270
  10 H :    0.167945
  11 H :    0.101196
  12 H :    0.092402
  13 O :   -0.223575
  14 F :    0.116628
  15 O :   -0.266072
  16 H :    0.135659
  17 H :    0.146750
  18 H :    0.150867
  19 H :    0.134710

  Mayer bond orders larger than 0.100000
B(  0-C ,  1-C ) :   0.9787 B(  0-C ,  6-C ) :   0.9530 B(  0-C , 18-H ) :   0.9453
B(  0-C , 19-H ) :   0.9775 B(  1-C ,  2-C ) :   1.0205 B(  1-C , 16-H ) :   0.9475
B(  1-C , 17-H ) :   0.9211 B(  2-C ,  3-H ) :   0.9203 B(  2-C ,  4-H ) :   0.9304
B(  2-C ,  5-S ) :   0.9305 B(  5-S , 13-O ) :   1.9926 B(  5-S , 14-F ) :   1.1529
B(  5-S , 15-O ) :   1.7505 B(  6-C ,  7-C ) :   1.7549 B(  6-C ,  8-N ) :   1.2478
B(  7-C ,  8-N ) :   0.1033 B(  7-C , 11-H ) :   0.9723 B(  7-C , 12-H ) :   0.9771
B(  8-N ,  9-H ) :   0.8373 B(  8-N , 10-H ) :   0.9141 B(  9-H , 15-O ) :   0.1109

Dispersion correction           -0.028542976
FINAL SINGLE POINT ENERGY      -900.047481255823

DIPOLE MOMENT
-------------
                                X             Y             Z
Electronic contribution:      6.49895     -13.26118       7.32649
Nuclear contribution   :     -6.19944      13.70770      -6.43483
                        -----------------------------------------
Total Dipole Moment    :      0.29951       0.44652       0.89166
                        -----------------------------------------
Magnitude (a.u.)       :      1.04122
Magnitude (Debye)      :      2.64658

Rotational constants in cm-1:     0.079903     0.025241     0.022805
Rotational constants in MHz :  2395.439281   756.708181   683.680583

                             ****ORCA TERMINATED NORMALLY****
TOTAL RUN TIME: 0 days 0 hours 0 minutes 14 seconds 159 msec
