                         Program Version 5.0.0 -  RELEASE  -
|  1> !TPSS D3BJ RIJCOSX def2-TZVP def2/J TightSCF xyzfile
|  2>
|  3> *xyzfile 0 1 D5.xyz
|  4>
|  5> %MaxCore 64000
|  6>
|  7> %pal nprocs 18
|  8> end
|  9>
| 10> %scf
| 11>   MaxIter 150
| 12> end
| 13>
| 14>
| 15>                          ****END OF INPUT****

CARTESIAN COORDINATES (ANGSTROEM)
---------------------------------
  C     -0.461293    2.234686   -4.989619
  C      0.848883    2.667967   -4.302351
  C      2.093434    1.861037   -4.656845
  H      2.444814    2.041567   -5.674990
  H      2.901748    2.137864   -3.980338
  S      1.879644    0.078594   -4.462965
  C     -0.423841    2.398772   -6.474317
  C     -0.959467    3.492647   -7.007401
  N      0.145585    1.486891   -7.203987
  H      0.565371    0.696807   -6.723858
  H      0.220682    1.581768   -8.207520
  H     -1.406243    4.181507   -6.403261
  H     -0.934215    3.681601   -7.999468
  O      3.207574   -0.466111   -4.420259
  O      1.075064   -0.056160   -3.268758
  F      1.131661   -0.319960   -5.679031
  H      0.668432    2.559427   -3.232850
  H      1.034074    3.729426   -4.497081
  H     -1.288884    2.826737   -4.594997
  H     -0.651696    1.186343   -4.756552

 Total Charge           Charge          ....    0
 Multiplicity           Mult            ....    1
 Number of Electrons    NEL             ....   88
 Basis Dimension        Dim             ....  376

ORBITAL ENERGIES
----------------

  NO   OCC          E(Eh)            E(eV)
   0   2.0000     -88.591510     -2410.6975
   1   2.0000     -24.530455      -667.5076
   2   2.0000     -18.907337      -514.4948
   3   2.0000     -18.904023      -514.4046
   4   2.0000     -14.104714      -383.8088
   5   2.0000     -10.043359      -273.2937
   6   2.0000     -10.011544      -272.4280
   7   2.0000     -10.005800      -272.2717
   8   2.0000      -9.998643      -272.0769
   9   2.0000      -9.922669      -270.0096
  10   2.0000      -7.941669      -216.1038
  11   2.0000      -5.925339      -161.2367
  12   2.0000      -5.917881      -161.0337
  13   2.0000      -5.917528      -161.0241
  14   2.0000      -1.296353       -35.2756
  15   2.0000      -1.053370       -28.6636
  16   2.0000      -0.966442       -26.2982
  17   2.0000      -0.881264       -23.9804
  18   2.0000      -0.775820       -21.1111
  19   2.0000      -0.713076       -19.4038
  20   2.0000      -0.686585       -18.6829
  21   2.0000      -0.643790       -17.5184
  22   2.0000      -0.602537       -16.3959
  23   2.0000      -0.551418       -15.0048
  24   2.0000      -0.529331       -14.4038
  25   2.0000      -0.522882       -14.2283
  26   2.0000      -0.506831       -13.7916
  27   2.0000      -0.487294       -13.2599
  28   2.0000      -0.456561       -12.4237
  29   2.0000      -0.444880       -12.1058
  30   2.0000      -0.427680       -11.6378
  31   2.0000      -0.420013       -11.4291
  32   2.0000      -0.403887       -10.9903
  33   2.0000      -0.380043       -10.3415
  34   2.0000      -0.363583        -9.8936
  35   2.0000      -0.355912        -9.6848
  36   2.0000      -0.347399        -9.4532
  37   2.0000      -0.340155        -9.2561
  38   2.0000      -0.310392        -8.4462
  39   2.0000      -0.308997        -8.4082
  40   2.0000      -0.301688        -8.2094
  41   2.0000      -0.294249        -8.0069
  42   2.0000      -0.287148        -7.8137
  43   2.0000      -0.164352        -4.4722
  44   0.0000      -0.018957        -0.5158
  45   0.0000       0.013142         0.3576
  46   0.0000       0.017606         0.4791
  47   0.0000       0.022109         0.6016
  48   0.0000       0.036087         0.9820

MULLIKEN ATOMIC CHARGES
-----------------------
   0 C :   -0.306078
   1 C :   -0.094087
   2 C :   -0.319566
   3 H :    0.154873
   4 H :    0.158325
   5 S :    0.774515
   6 C :    0.188477
   7 C :   -0.407134
   8 N :   -0.445227
   9 H :    0.236794
  10 H :    0.227542
  11 H :    0.099654
  12 H :    0.088709
  13 O :   -0.373983
  14 O :   -0.370055
  15 F :   -0.106304
  16 H :    0.118802
  17 H :    0.106362
  18 H :    0.121166
  19 H :    0.147217
Sum of atomic charges:    0.0000000

LOEWDIN ATOMIC CHARGES
----------------------
   0 C :   -0.215459
   1 C :   -0.266165
   2 C :   -0.364801
   3 H :    0.136908
   4 H :    0.148885
   5 S :    0.501271
   6 C :   -0.383992
   7 C :   -0.271516
   8 N :    0.015976
   9 H :    0.139198
  10 H :    0.172498
  11 H :    0.104200
  12 H :    0.093149
  13 O :   -0.230414
  14 O :   -0.233775
  15 F :    0.074782
  16 H :    0.144390
  17 H :    0.144811
  18 H :    0.153277
  19 H :    0.136779

  Mayer bond orders larger than 0.100000
B(  0-C ,  1-C ) :   0.9867 B(  0-C ,  6-C ) :   0.9565 B(  0-C , 18-H ) :   0.9451
B(  0-C , 19-H ) :   0.9736 B(  1-C ,  2-C ) :   1.0151 B(  1-C , 16-H ) :   0.9375
B(  1-C , 17-H ) :   0.9186 B(  2-C ,  3-H ) :   0.9255 B(  2-C ,  4-H ) :   0.9287
B(  2-C ,  5-S ) :   0.9179 B(  5-S , 13-O ) :   1.9823 B(  5-S , 14-O ) :   1.9201
B(  5-S , 15-F ) :   1.0359 B(  6-C ,  7-C ) :   1.7725 B(  6-C ,  8-N ) :   1.2067
B(  7-C , 11-H ) :   0.9729 B(  7-C , 12-H ) :   0.9741 B(  8-N ,  9-H ) :   0.8834
B(  8-N , 10-H ) :   0.9095

Dispersion correction           -0.028406577
FINAL SINGLE POINT ENERGY      -900.049990670551

DIPOLE MOMENT
-------------
                                X             Y             Z
Electronic contribution:      6.45294     -13.52554       3.17499
Nuclear contribution   :     -6.26130      13.99605      -3.80018
                        -----------------------------------------
Total Dipole Moment    :      0.19164       0.47052      -0.62519
                        -----------------------------------------
Magnitude (a.u.)       :      0.80559
Magnitude (Debye)      :      2.04764

Rotational constants in cm-1:     0.079895     0.025630     0.022948
Rotational constants in MHz :  2395.188639   768.373696   687.955250

                             ****ORCA TERMINATED NORMALLY****
TOTAL RUN TIME: 0 days 0 hours 0 minutes 16 seconds 830 msec
