                         Program Version 5.0.0 -  RELEASE  -
|  1> !wB97X-D3 RIJCOSX def2-SVP def2/J TightSCF
|  2> *xyz -1 1
|  3> C          1.87218        0.42790       -2.07750
|  4> S          0.57902        0.14047       -3.29794
|  5> O          0.22886       -1.24687       -3.12787
|  6> O         -0.43927        1.11897       -3.01455
|  7> O          1.24788        0.40347       -4.59565
|  8> H          2.66832       -0.27048       -2.23022
|  9> H          1.46951        0.30034       -1.09440
| 10> H          2.24690        1.42458       -2.18288
| 11> *
| 12>
| 13> %MaxCore 64000
| 14>
| 15> %pal nprocs 8
| 16> end
| 17>
| 18> %scf
| 19>   MaxIter 150
| 20> end
| 21>
| 22>
| 23>                          ****END OF INPUT****

CARTESIAN COORDINATES (ANGSTROEM)
---------------------------------
  C      1.872180    0.427900   -2.077500
  S      0.579020    0.140470   -3.297940
  O      0.228860   -1.246870   -3.127870
  O     -0.439270    1.118970   -3.014550
  O      1.247880    0.403470   -4.595650
  H      2.668320   -0.270480   -2.230220
  H      1.469510    0.300340   -1.094400
  H      2.246900    1.424580   -2.182880

 Total Charge           Charge          ....   -1
 Multiplicity           Mult            ....    1
 Number of Electrons    NEL             ....   50
 Basis Dimension        Dim             ....   89

ORBITAL ENERGIES
----------------

  NO   OCC          E(Eh)            E(eV)
   0   2.0000     -88.936437     -2420.0835
   1   2.0000     -18.987072      -516.6645
   2   2.0000     -18.986924      -516.6605
   3   2.0000     -18.970288      -516.2078
   4   2.0000     -10.121667      -275.4246
   5   2.0000      -8.016781      -218.1477
   6   2.0000      -5.975866      -162.6116
   7   2.0000      -5.975654      -162.6058
   8   2.0000      -5.975506      -162.6018
   9   2.0000      -1.018560       -27.7164
  10   2.0000      -0.877316       -23.8730
  11   2.0000      -0.848628       -23.0923
  12   2.0000      -0.675977       -18.3943
  13   2.0000      -0.467741       -12.7279
  14   2.0000      -0.381006       -10.3677
  15   2.0000      -0.372690       -10.1414
  16   2.0000      -0.371593       -10.1116
  17   2.0000      -0.322742        -8.7822
  18   2.0000      -0.320505        -8.7214
  19   2.0000      -0.218979        -5.9587
  20   2.0000      -0.216843        -5.9006
  21   2.0000      -0.182509        -4.9663
  22   2.0000      -0.175071        -4.7639
  23   2.0000      -0.163309        -4.4439
  24   2.0000      -0.126961        -3.4548
  25   0.0000       0.313958         8.5432
  26   0.0000       0.364348         9.9144
  27   0.0000       0.366393         9.9701
  28   0.0000       0.401420        10.9232
  29   0.0000       0.469712        12.7815

MULLIKEN ATOMIC CHARGES
-----------------------
   0 C :   -0.076068
   1 S :    0.865082
   2 O :   -0.590869
   3 O :   -0.589299
   4 O :   -0.636841
   5 H :    0.011942
   6 H :    0.005306
   7 H :    0.010748
Sum of atomic charges:   -1.0000000

LOEWDIN ATOMIC CHARGES
----------------------
   0 C :   -0.215366
   1 S :    1.099063
   2 O :   -0.618432
   3 O :   -0.617799
   4 O :   -0.666152
   5 H :    0.007738
   6 H :    0.003888
   7 H :    0.007061

  Mayer bond orders larger than 0.100000
B(  0-C ,  1-S ) :   0.9122 B(  0-C ,  5-H ) :   0.9670 B(  0-C ,  6-H ) :   0.9640
B(  0-C ,  7-H ) :   0.9667 B(  1-S ,  2-O ) :   1.6381 B(  1-S ,  3-O ) :   1.6402
B(  1-S ,  4-O ) :   1.5915

Dispersion correction           -0.001525153
FINAL SINGLE POINT ENERGY      -663.357519983804

DIPOLE MOMENT
-------------
                                X             Y             Z
Electronic contribution:     -3.27615      -0.73950      -2.90845
Nuclear contribution   :      4.08143       0.90272       3.93680
                        -----------------------------------------
Total Dipole Moment    :      0.80528       0.16322       1.02835
                        -----------------------------------------
Magnitude (a.u.)       :      1.31629
Magnitude (Debye)      :      3.34574

Rotational constants in cm-1:     0.171796     0.158241     0.155560
Rotational constants in MHz :  5150.307583  4743.954688  4663.569252

                             ****ORCA TERMINATED NORMALLY****
TOTAL RUN TIME: 0 days 0 hours 0 minutes 5 seconds 880 msec
