                         Program Version 5.0.0 -  RELEASE  -
|  1> !wB97X-D3 RIJCOSX def2-SVP def2/J TightSCF
|  2> *xyz 1 1
|  3> C          3.38093        2.08304       -3.35013
|  4> N          4.53592        1.18245       -3.42852
|  5> C          4.67196        0.12227       -4.22060
|  6> N          5.86602       -0.50785       -4.22428
|  7> N          3.69888       -0.31284       -4.98699
|  8> H          2.73141       -0.05009       -4.84900
|  9> H          3.89005       -1.05517       -5.64373
| 10> H          5.25193        1.30346       -2.72101
| 11> H          6.69516       -0.06232       -3.85160
| 12> H          5.97538       -1.39688       -4.69141
| 13> H          2.69962        1.85926       -4.14426
| 14> H          3.71221        3.09654       -3.43937
| 15> H          2.88835        1.95032       -2.40957
| 16> *
| 17>
| 18> %MaxCore 64000
| 19>
| 20> %pal nprocs 8
| 21> end
| 22>
| 23> %scf
| 24>   MaxIter 150
| 25> end
| 26>
| 27>
| 28>                          ****END OF INPUT****

CARTESIAN COORDINATES (ANGSTROEM)
---------------------------------
  C      3.380930    2.083040   -3.350130
  N      4.535920    1.182450   -3.428520
  C      4.671960    0.122270   -4.220600
  N      5.866020   -0.507850   -4.224280
  N      3.698880   -0.312840   -4.986990
  H      2.731410   -0.050090   -4.849000
  H      3.890050   -1.055170   -5.643730
  H      5.251930    1.303460   -2.721010
  H      6.695160   -0.062320   -3.851600
  H      5.975380   -1.396880   -4.691410
  H      2.699620    1.859260   -4.144260
  H      3.712210    3.096540   -3.439370
  H      2.888350    1.950320   -2.409570

 Total Charge           Charge          ....    1
 Multiplicity           Mult            ....    1
 Number of Electrons    NEL             ....   40
 Basis Dimension        Dim             ....  110

ORBITAL ENERGIES
----------------

  NO   OCC          E(Eh)            E(eV)
   0   2.0000     -14.665134      -399.0586
   1   2.0000     -14.662582      -398.9891
   2   2.0000     -14.656680      -398.8285
   3   2.0000     -10.631243      -289.2908
   4   2.0000     -10.493670      -285.5473
   5   2.0000      -1.327316       -36.1181
   6   2.0000      -1.214108       -33.0376
   7   2.0000      -1.198044       -32.6004
   8   2.0000      -1.013407       -27.5762
   9   2.0000      -0.935290       -25.4505
  10   2.0000      -0.893611       -24.3164
  11   2.0000      -0.855524       -23.2800
  12   2.0000      -0.799973       -21.7684
  13   2.0000      -0.795500       -21.6466
  14   2.0000      -0.751130       -20.4393
  15   2.0000      -0.733949       -19.9718
  16   2.0000      -0.690427       -18.7875
  17   2.0000      -0.678378       -18.4596
  18   2.0000      -0.574435       -15.6312
  19   2.0000      -0.545043       -14.8314
  20   0.0000      -0.075654        -2.0586
  21   0.0000      -0.047618        -1.2958
  22   0.0000      -0.013192        -0.3590
  23   0.0000      -0.003040        -0.0827
  24   0.0000       0.011889         0.3235

MULLIKEN ATOMIC CHARGES
-----------------------
   0 C :    0.079509
   1 N :   -0.212588
   2 C :    0.121939
   3 N :   -0.104434
   4 N :   -0.062553
   5 H :    0.189389
   6 H :    0.184738
   7 H :    0.183458
   8 H :    0.187059
   9 H :    0.182423
  10 H :    0.056950
  11 H :    0.098612
  12 H :    0.095500
Sum of atomic charges:    1.0000000

LOEWDIN ATOMIC CHARGES
----------------------
   0 C :    0.059009
   1 N :    0.009589
   2 C :    0.159690
   3 N :    0.024088
   4 N :    0.052442
   5 H :    0.114066
   6 H :    0.115144
   7 H :    0.110528
   8 H :    0.113063
   9 H :    0.109832
  10 H :    0.034919
  11 H :    0.051481
  12 H :    0.046148

  Mayer bond orders larger than 0.100000
B(  0-C ,  1-N ) :   0.9221 B(  0-C , 10-H ) :   0.9759 B(  0-C , 11-H ) :   0.9726
B(  0-C , 12-H ) :   0.9757 B(  1-N ,  2-C ) :   1.3783 B(  1-N ,  7-H ) :   0.9110
B(  2-C ,  3-N ) :   1.3682 B(  2-C ,  4-N ) :   1.4164 B(  3-N ,  8-H ) :   0.9261
B(  3-N ,  9-H ) :   0.9296 B(  4-N ,  5-H ) :   0.9220 B(  4-N ,  6-H ) :   0.9232

Dispersion correction           -0.002351678
FINAL SINGLE POINT ENERGY      -244.839173682748

DIPOLE MOMENT
-------------
                                X             Y             Z
Electronic contribution:      1.70962      -2.02516      -0.74360
Nuclear contribution   :     -1.49827       1.51766       0.59175
                        -----------------------------------------
Total Dipole Moment    :      0.21135      -0.50749      -0.15184
                        -----------------------------------------
Magnitude (a.u.)       :      0.57033
Magnitude (Debye)      :      1.44966

Rotational constants in cm-1:     0.316446     0.130424     0.094259
Rotational constants in MHz :  9486.821695  3910.013387  2825.801764

                             ****ORCA TERMINATED NORMALLY****
TOTAL RUN TIME: 0 days 0 hours 0 minutes 8 seconds 517 msec
