                         Program Version 5.0.0 -  RELEASE  -
|  1> !wB97X-D3 RIJCOSX def2-SVP def2/J TightSCF
|  2> *xyz 0 1
|  3> C          1.87218        0.42790       -2.07750
|  4> S          0.57902        0.14047       -3.29794
|  5> F          0.22886       -1.24687       -3.12787
|  6> O         -0.43927        1.11897       -3.01455
|  7> O          1.24788        0.40347       -4.59565
|  8> H          2.66832       -0.27048       -2.23022
|  9> H          1.46951        0.30034       -1.09440
| 10> H          2.24690        1.42458       -2.18288
| 11> *
| 12>
| 13> %MaxCore 64000
| 14>
| 15> %pal nprocs 8
| 16> end
| 17>
| 18> %scf
| 19>   MaxIter 150
| 20> end
| 21>
| 22>
| 23>                          ****END OF INPUT****

CARTESIAN COORDINATES (ANGSTROEM)
---------------------------------
  C      1.872180    0.427900   -2.077500
  S      0.579020    0.140470   -3.297940
  F      0.228860   -1.246870   -3.127870
  O     -0.439270    1.118970   -3.014550
  O      1.247880    0.403470   -4.595650
  H      2.668320   -0.270480   -2.230220
  H      1.469510    0.300340   -1.094400
  H      2.246900    1.424580   -2.182880

 Total Charge           Charge          ....    0
 Multiplicity           Mult            ....    1
 Number of Electrons    NEL             ....   50
 Basis Dimension        Dim             ....   89

ORBITAL ENERGIES
----------------

  NO   OCC          E(Eh)            E(eV)
   0   2.0000     -89.218954     -2427.7712
   1   2.0000     -24.912126      -677.8934
   2   2.0000     -19.246026      -523.7110
   3   2.0000     -19.230072      -523.2769
   4   2.0000     -10.342128      -281.4236
   5   2.0000      -8.301536      -225.8963
   6   2.0000      -6.264710      -170.4714
   7   2.0000      -6.257938      -170.2871
   8   2.0000      -6.257101      -170.2644
   9   2.0000      -1.493226       -40.6327
  10   2.0000      -1.219531       -33.1851
  11   2.0000      -1.109405       -30.1885
  12   2.0000      -0.910405       -24.7734
  13   2.0000      -0.823682       -22.4135
  14   2.0000      -0.709916       -19.3178
  15   2.0000      -0.693504       -18.8712
  16   2.0000      -0.653305       -17.7773
  17   2.0000      -0.575564       -15.6619
  18   2.0000      -0.573396       -15.6029
  19   2.0000      -0.562190       -15.2980
  20   2.0000      -0.527525       -14.3547
  21   2.0000      -0.479858       -13.0576
  22   2.0000      -0.426272       -11.5995
  23   2.0000      -0.411344       -11.1932
  24   2.0000      -0.392952       -10.6928
  25   0.0000       0.118770         3.2319
  26   0.0000       0.151326         4.1178
  27   0.0000       0.154248         4.1973
  28   0.0000       0.175006         4.7622
  29   0.0000       0.189729         5.1628

MULLIKEN ATOMIC CHARGES
-----------------------
   0 C :   -0.098810
   1 S :    0.931355
   2 F :   -0.174279
   3 O :   -0.442404
   4 O :   -0.489334
   5 H :    0.082488
   6 H :    0.080022
   7 H :    0.110962
Sum of atomic charges:    0.0000000

LOEWDIN ATOMIC CHARGES
----------------------
   0 C :   -0.158398
   1 S :    1.158403
   2 F :   -0.117051
   3 O :   -0.482790
   4 O :   -0.530596
   5 H :    0.038305
   6 H :    0.036253
   7 H :    0.055874

  Mayer bond orders larger than 0.100000
B(  0-C ,  1-S ) :   0.9415 B(  0-C ,  5-H ) :   0.9557 B(  0-C ,  6-H ) :   0.9546
B(  0-C ,  7-H ) :   0.9597 B(  1-S ,  2-F ) :   1.0253 B(  1-S ,  3-O ) :   1.7909
B(  1-S ,  4-O ) :   1.7429

Dispersion correction           -0.001537553
FINAL SINGLE POINT ENERGY      -687.855660670709

DIPOLE MOMENT
-------------
                                X             Y             Z
Electronic contribution:     -3.82069      -3.06222      -2.53181
Nuclear contribution   :      4.52607       2.31146       3.82544
                        -----------------------------------------
Total Dipole Moment    :      0.70538      -0.75077       1.29363
                        -----------------------------------------
Magnitude (a.u.)       :      1.65369
Magnitude (Debye)      :      4.20335

Rotational constants in cm-1:     0.162724     0.156586     0.147157
Rotational constants in MHz :  4878.333818  4694.318771  4411.658495

                             ****ORCA TERMINATED NORMALLY****
TOTAL RUN TIME: 0 days 0 hours 0 minutes 6 seconds 78 msec
