                         Program Version 5.0.0 -  RELEASE  -
|  1> !wB97X-D3 RIJCOSX def2-SVP def2/J TightSCF
|  2> *xyz 0 1
|  3> C          3.38093        2.08304       -3.35013
|  4> C          4.53592        1.18245       -3.42852
|  5> C          4.67196        0.12227       -4.22060
|  6> N          5.86602       -0.50785       -4.22428
|  7> N          3.69888       -0.31284       -4.98699
|  8> H          2.73141       -0.05009       -4.84900
|  9> H          3.89005       -1.05517       -5.64373
| 10> H          5.25193        1.30346       -2.72101
| 11> H          6.69516       -0.06232       -3.85160
| 12> H          5.97538       -1.39688       -4.69141
| 13> H          2.69962        1.85926       -4.14426
| 14> H          3.71221        3.09654       -3.43937
| 15> H          2.88835        1.95032       -2.40957
| 16> *
| 17>
| 18> %MaxCore 64000
| 19>
| 20> %pal nprocs 8
| 21> end
| 22>
| 23> %scf
| 24>   MaxIter 150
| 25> end
| 26>
| 27>
| 28>                          ****END OF INPUT****

CARTESIAN COORDINATES (ANGSTROEM)
---------------------------------
  C      3.380930    2.083040   -3.350130
  C      4.535920    1.182450   -3.428520
  C      4.671960    0.122270   -4.220600
  N      5.866020   -0.507850   -4.224280
  N      3.698880   -0.312840   -4.986990
  H      2.731410   -0.050090   -4.849000
  H      3.890050   -1.055170   -5.643730
  H      5.251930    1.303460   -2.721010
  H      6.695160   -0.062320   -3.851600
  H      5.975380   -1.396880   -4.691410
  H      2.699620    1.859260   -4.144260
  H      3.712210    3.096540   -3.439370
  H      2.888350    1.950320   -2.409570

 Total Charge           Charge          ....    0
 Multiplicity           Mult            ....    1
 Number of Electrons    NEL             ....   40
 Basis Dimension        Dim             ....  110

ORBITAL ENERGIES
----------------

  NO   OCC          E(Eh)            E(eV)
   0   2.0000     -14.429467      -392.6458
   1   2.0000     -14.421304      -392.4236
   2   2.0000     -10.324254      -280.9372
   3   2.0000     -10.246929      -278.8331
   4   2.0000     -10.199243      -277.5355
   5   2.0000      -1.060186       -28.8491
   6   2.0000      -0.965086       -26.2613
   7   2.0000      -0.848638       -23.0926
   8   2.0000      -0.755105       -20.5474
   9   2.0000      -0.681112       -18.5340
  10   2.0000      -0.637723       -17.3533
  11   2.0000      -0.598738       -16.2925
  12   2.0000      -0.570414       -15.5218
  13   2.0000      -0.518161       -14.0999
  14   2.0000      -0.495405       -13.4807
  15   2.0000      -0.463228       -12.6051
  16   2.0000      -0.448266       -12.1979
  17   2.0000      -0.425241       -11.5714
  18   2.0000      -0.349418        -9.5081
  19   2.0000      -0.230939        -6.2842
  20   0.0000       0.136267         3.7080
  21   0.0000       0.168959         4.5976
  22   0.0000       0.185529         5.0485
  23   0.0000       0.194378         5.2893
  24   0.0000       0.210393         5.7251

MULLIKEN ATOMIC CHARGES
-----------------------
   0 C :    0.089378
   1 C :   -0.280195
   2 C :    0.015459
   3 N :   -0.144446
   4 N :   -0.104036
   5 H :    0.135359
   6 H :    0.111865
   7 H :   -0.069190
   8 H :    0.132951
   9 H :    0.105840
  10 H :   -0.024106
  11 H :    0.015916
  12 H :    0.015206
Sum of atomic charges:    0.0000000

LOEWDIN ATOMIC CHARGES
----------------------
   0 C :   -0.054130
   1 C :   -0.234540
   2 C :    0.025951
   3 N :   -0.045142
   4 N :   -0.020990
   5 H :    0.081754
   6 H :    0.067065
   7 H :   -0.009995
   8 H :    0.082574
   9 H :    0.060872
  10 H :    0.008859
  11 H :    0.021051
  12 H :    0.016672

  Mayer bond orders larger than 0.100000
B(  0-C ,  1-C ) :   1.0569 B(  0-C , 10-H ) :   0.9656 B(  0-C , 11-H ) :   0.9586
B(  0-C , 12-H ) :   0.9649 B(  1-C ,  2-C ) :   1.7160 B(  1-C ,  7-H ) :   0.9619
B(  2-C ,  3-N ) :   1.1991 B(  2-C ,  4-N ) :   1.2415 B(  3-N ,  8-H ) :   0.9470
B(  3-N ,  9-H ) :   0.9555 B(  4-N ,  5-H ) :   0.9416 B(  4-N ,  6-H ) :   0.9511

Dispersion correction           -0.002353165
FINAL SINGLE POINT ENERGY      -228.368663717185

DIPOLE MOMENT
-------------
                                X             Y             Z
Electronic contribution:      1.59359      -2.60266      -1.32846
Nuclear contribution   :     -1.47697       1.65537       0.71722
                        -----------------------------------------
Total Dipole Moment    :      0.11662      -0.94730      -0.61125
                        -----------------------------------------
Magnitude (a.u.)       :      1.13340
Magnitude (Debye)      :      2.88087

Rotational constants in cm-1:     0.321284     0.131400     0.095192
Rotational constants in MHz :  9631.850868  3939.260061  2853.789421

                             ****ORCA TERMINATED NORMALLY****
TOTAL RUN TIME: 0 days 0 hours 0 minutes 8 seconds 530 msec
