                         Program Version 5.0.0 -  RELEASE  -
|  1> !wB97X-D3 RIJCOSX def2-SVP def2/J TightSCF
|  2> *xyz 0 1
|  3> C          1.87218        0.42790       -2.07750
|  4> S          0.57902        0.14047       -3.29794
|  5> O          0.22886       -1.24687       -3.12787
|  6> F         -0.43927        1.11897       -3.01455
|  7> O          1.24788        0.40347       -4.59565
|  8> H          2.66832       -0.27048       -2.23022
|  9> H          1.46951        0.30034       -1.09440
| 10> H          2.24690        1.42458       -2.18288
| 11> *
| 12>
| 13> %MaxCore 64000
| 14>
| 15> %pal nprocs 8
| 16> end
| 17>
| 18> %scf
| 19>   MaxIter 150
| 20> end
| 21>
| 22>
| 23>                          ****END OF INPUT****

CARTESIAN COORDINATES (ANGSTROEM)
---------------------------------
  C      1.872180    0.427900   -2.077500
  S      0.579020    0.140470   -3.297940
  O      0.228860   -1.246870   -3.127870
  F     -0.439270    1.118970   -3.014550
  O      1.247880    0.403470   -4.595650
  H      2.668320   -0.270480   -2.230220
  H      1.469510    0.300340   -1.094400
  H      2.246900    1.424580   -2.182880

 Total Charge           Charge          ....    0
 Multiplicity           Mult            ....    1
 Number of Electrons    NEL             ....   50
 Basis Dimension        Dim             ....   89

ORBITAL ENERGIES
----------------

  NO   OCC          E(Eh)            E(eV)
   0   2.0000     -89.219121     -2427.7757
   1   2.0000     -24.912289      -677.8978
   2   2.0000     -19.246171      -523.7149
   3   2.0000     -19.230283      -523.2826
   4   2.0000     -10.342004      -281.4202
   5   2.0000      -8.301674      -225.9000
   6   2.0000      -6.264857      -170.4754
   7   2.0000      -6.258051      -170.2902
   8   2.0000      -6.257261      -170.2687
   9   2.0000      -1.493496       -40.6401
  10   2.0000      -1.219145       -33.1746
  11   2.0000      -1.110284       -30.2124
  12   2.0000      -0.909613       -24.7518
  13   2.0000      -0.823790       -22.4165
  14   2.0000      -0.710151       -19.3242
  15   2.0000      -0.693384       -18.8679
  16   2.0000      -0.653600       -17.7854
  17   2.0000      -0.575430       -15.6582
  18   2.0000      -0.572898       -15.5893
  19   2.0000      -0.562929       -15.3181
  20   2.0000      -0.527711       -14.3598
  21   2.0000      -0.479178       -13.0391
  22   2.0000      -0.425636       -11.5821
  23   2.0000      -0.411352       -11.1935
  24   2.0000      -0.394032       -10.7222
  25   0.0000       0.117931         3.2091
  26   0.0000       0.150104         4.0845
  27   0.0000       0.154790         4.2121
  28   0.0000       0.176849         4.8123
  29   0.0000       0.190124         5.1735

MULLIKEN ATOMIC CHARGES
-----------------------
   0 C :   -0.098089
   1 S :    0.932035
   2 O :   -0.443992
   3 F :   -0.173228
   4 O :   -0.490037
   5 H :    0.111759
   6 H :    0.078957
   7 H :    0.082594
Sum of atomic charges:    0.0000000

LOEWDIN ATOMIC CHARGES
----------------------
   0 C :   -0.157702
   1 S :    1.158451
   2 O :   -0.483425
   3 F :   -0.116422
   4 O :   -0.531155
   5 H :    0.056275
   6 H :    0.035759
   7 H :    0.038218

  Mayer bond orders larger than 0.100000
B(  0-C ,  1-S ) :   0.9422 B(  0-C ,  5-H ) :   0.9596 B(  0-C ,  6-H ) :   0.9546
B(  0-C ,  7-H ) :   0.9560 B(  1-S ,  2-O ) :   1.7893 B(  1-S ,  3-F ) :   1.0266
B(  1-S ,  4-O ) :   1.7433

Dispersion correction           -0.001534974
FINAL SINGLE POINT ENERGY      -687.855642468840

DIPOLE MOMENT
-------------
                                X             Y             Z
Electronic contribution:     -4.94454       0.91151      -2.33829
Nuclear contribution   :      5.19357      -0.05217       3.71223
                        -----------------------------------------
Total Dipole Moment    :      0.24904       0.85934       1.37394
                        -----------------------------------------
Magnitude (a.u.)       :      1.63957
Magnitude (Debye)      :      4.16745

Rotational constants in cm-1:     0.163837     0.155047     0.147593
Rotational constants in MHz :  4911.724022  4648.196128  4424.713532

                             ****ORCA TERMINATED NORMALLY****
TOTAL RUN TIME: 0 days 0 hours 0 minutes 6 seconds 17 msec
