                         Program Version 5.0.0 -  RELEASE  -
|  1> !wB97X-D3 RIJCOSX def2-SVP def2/J TightSCF
|  2> *xyz 0 1
|  3> C          3.38093        2.08304       -3.35013
|  4> N          4.53592        1.18245       -3.42852
|  5> C          4.67196        0.12227       -4.22060
|  6> C          5.86602       -0.50785       -4.22428
|  7> N          3.69888       -0.31284       -4.98699
|  8> H          2.73141       -0.05009       -4.84900
|  9> H          3.89005       -1.05517       -5.64373
| 10> H          5.25193        1.30346       -2.72101
| 11> H          6.69516       -0.06232       -3.85160
| 12> H          5.97538       -1.39688       -4.69141
| 13> H          2.69962        1.85926       -4.14426
| 14> H          3.71221        3.09654       -3.43937
| 15> H          2.88835        1.95032       -2.40957
| 16> *
| 17>
| 18> %MaxCore 64000
| 19>
| 20> %pal nprocs 8
| 21> end
| 22>
| 23> %scf
| 24>   MaxIter 150
| 25> end
| 26>
| 27>
| 28>                          ****END OF INPUT****

CARTESIAN COORDINATES (ANGSTROEM)
---------------------------------
  C      3.380930    2.083040   -3.350130
  N      4.535920    1.182450   -3.428520
  C      4.671960    0.122270   -4.220600
  C      5.866020   -0.507850   -4.224280
  N      3.698880   -0.312840   -4.986990
  H      2.731410   -0.050090   -4.849000
  H      3.890050   -1.055170   -5.643730
  H      5.251930    1.303460   -2.721010
  H      6.695160   -0.062320   -3.851600
  H      5.975380   -1.396880   -4.691410
  H      2.699620    1.859260   -4.144260
  H      3.712210    3.096540   -3.439370
  H      2.888350    1.950320   -2.409570

 Total Charge           Charge          ....    0
 Multiplicity           Mult            ....    1
 Number of Electrons    NEL             ....   40
 Basis Dimension        Dim             ....  110

ORBITAL ENERGIES
----------------

  NO   OCC          E(Eh)            E(eV)
   0   2.0000     -14.431769      -392.7084
   1   2.0000     -14.428937      -392.6314
   2   2.0000     -10.331056      -281.1223
   3   2.0000     -10.320556      -280.8366
   4   2.0000     -10.188130      -277.2331
   5   2.0000      -1.070238       -29.1227
   6   2.0000      -0.985765       -26.8240
   7   2.0000      -0.843292       -22.9471
   8   2.0000      -0.763230       -20.7686
   9   2.0000      -0.700409       -19.0591
  10   2.0000      -0.639961       -17.4142
  11   2.0000      -0.587268       -15.9804
  12   2.0000      -0.572863       -15.5884
  13   2.0000      -0.548250       -14.9186
  14   2.0000      -0.502056       -13.6616
  15   2.0000      -0.484377       -13.1806
  16   2.0000      -0.471197       -12.8219
  17   2.0000      -0.445932       -12.1344
  18   2.0000      -0.340418        -9.2632
  19   2.0000      -0.234290        -6.3754
  20   0.0000       0.134745         3.6666
  21   0.0000       0.169377         4.6090
  22   0.0000       0.179474         4.8837
  23   0.0000       0.183528         4.9941
  24   0.0000       0.218767         5.9529

MULLIKEN ATOMIC CHARGES
-----------------------
   0 C :    0.105105
   1 N :   -0.232359
   2 C :   -0.000141
   3 C :   -0.153579
   4 N :   -0.106982
   5 H :    0.115385
   6 H :    0.136877
   7 H :    0.136506
   8 H :   -0.040229
   9 H :   -0.049014
  10 H :    0.018542
  11 H :    0.036789
  12 H :    0.033099
Sum of atomic charges:    0.0000000

LOEWDIN ATOMIC CHARGES
----------------------
   0 C :    0.033627
   1 N :   -0.048854
   2 C :    0.042981
   3 C :   -0.283086
   4 N :   -0.016238
   5 H :    0.065623
   6 H :    0.087310
   7 H :    0.085639
   8 H :   -0.010377
   9 H :   -0.012921
  10 H :    0.019700
  11 H :    0.020980
  12 H :    0.015614

  Mayer bond orders larger than 0.100000
B(  0-C ,  1-N ) :   0.9898 B(  0-C , 10-H ) :   0.9763 B(  0-C , 11-H ) :   0.9781
B(  0-C , 12-H ) :   0.9793 B(  1-N ,  2-C ) :   1.1942 B(  1-N ,  7-H ) :   0.9330
B(  2-C ,  3-C ) :   1.7135 B(  2-C ,  4-N ) :   1.2427 B(  3-C ,  8-H ) :   0.9552
B(  3-C ,  9-H ) :   0.9537 B(  4-N ,  5-H ) :   0.9505 B(  4-N ,  6-H ) :   0.9423

Dispersion correction           -0.002365903
FINAL SINGLE POINT ENERGY      -228.355935470249

DIPOLE MOMENT
-------------
                                X             Y             Z
Electronic contribution:      0.06473      -0.79860      -0.47514
Nuclear contribution   :     -1.20756       1.31300       0.55604
                        -----------------------------------------
Total Dipole Moment    :     -1.14284       0.51440       0.08090
                        -----------------------------------------
Magnitude (a.u.)       :      1.25588
Magnitude (Debye)      :      3.19219

Rotational constants in cm-1:     0.323683     0.135884     0.097747
Rotational constants in MHz :  9703.770798  4073.695357  2930.389562

                             ****ORCA TERMINATED NORMALLY****
TOTAL RUN TIME: 0 days 0 hours 0 minutes 8 seconds 509 msec
