                         Program Version 5.0.0 -  RELEASE  -
|  1> !wB97X-D3 RIJCOSX def2-SVP def2/J TightSCF
|  2> *xyz 0 1
|  3> C          1.87218        0.42790       -2.07750
|  4> S          0.57902        0.14047       -3.29794
|  5> O          0.22886       -1.24687       -3.12787
|  6> O         -0.43927        1.11897       -3.01455
|  7> F          1.24788        0.40347       -4.59565
|  8> H          2.66832       -0.27048       -2.23022
|  9> H          1.46951        0.30034       -1.09440
| 10> H          2.24690        1.42458       -2.18288
| 11> *
| 12>
| 13> %MaxCore 64000
| 14>
| 15> %pal nprocs 8
| 16> end
| 17>
| 18> %scf
| 19>   MaxIter 150
| 20> end
| 21>
| 22>
| 23>                          ****END OF INPUT****

CARTESIAN COORDINATES (ANGSTROEM)
---------------------------------
  C      1.872180    0.427900   -2.077500
  S      0.579020    0.140470   -3.297940
  O      0.228860   -1.246870   -3.127870
  O     -0.439270    1.118970   -3.014550
  F      1.247880    0.403470   -4.595650
  H      2.668320   -0.270480   -2.230220
  H      1.469510    0.300340   -1.094400
  H      2.246900    1.424580   -2.182880

 Total Charge           Charge          ....    0
 Multiplicity           Mult            ....    1
 Number of Electrons    NEL             ....   50
 Basis Dimension        Dim             ....   89

ORBITAL ENERGIES
----------------

  NO   OCC          E(Eh)            E(eV)
   0   2.0000     -89.217736     -2427.7380
   1   2.0000     -24.889977      -677.2907
   2   2.0000     -19.246251      -523.7171
   3   2.0000     -19.246202      -523.7158
   4   2.0000     -10.341255      -281.3999
   5   2.0000      -8.300103      -225.8573
   6   2.0000      -6.263040      -170.4260
   7   2.0000      -6.256720      -170.2540
   8   2.0000      -6.255960      -170.2333
   9   2.0000      -1.456404       -39.6308
  10   2.0000      -1.230138       -33.4737
  11   2.0000      -1.133074       -30.8325
  12   2.0000      -0.907780       -24.7020
  13   2.0000      -0.805024       -21.9058
  14   2.0000      -0.692799       -18.8520
  15   2.0000      -0.667475       -18.1629
  16   2.0000      -0.650160       -17.6917
  17   2.0000      -0.576163       -15.6782
  18   2.0000      -0.574986       -15.6462
  19   2.0000      -0.561090       -15.2680
  20   2.0000      -0.535351       -14.5676
  21   2.0000      -0.486334       -13.2338
  22   2.0000      -0.432546       -11.7702
  23   2.0000      -0.425472       -11.5777
  24   2.0000      -0.410578       -11.1724
  25   0.0000       0.120027         3.2661
  26   0.0000       0.150409         4.0928
  27   0.0000       0.155737         4.2378
  28   0.0000       0.182093         4.9550
  29   0.0000       0.187953         5.1145

MULLIKEN ATOMIC CHARGES
-----------------------
   0 C :   -0.101581
   1 S :    0.942806
   2 O :   -0.449457
   3 O :   -0.448827
   4 F :   -0.216251
   5 H :    0.083393
   6 H :    0.108645
   7 H :    0.081273
Sum of atomic charges:    0.0000000

LOEWDIN ATOMIC CHARGES
----------------------
   0 C :   -0.159449
   1 S :    1.164471
   2 O :   -0.487556
   3 O :   -0.487671
   4 F :   -0.160218
   5 H :    0.038753
   6 H :    0.054101
   7 H :    0.037568

  Mayer bond orders larger than 0.100000
B(  0-C ,  1-S ) :   0.9435 B(  0-C ,  5-H ) :   0.9560 B(  0-C ,  6-H ) :   0.9596
B(  0-C ,  7-H ) :   0.9560 B(  1-S ,  2-O ) :   1.7929 B(  1-S ,  3-O ) :   1.7946
B(  1-S ,  4-F ) :   0.9780

Dispersion correction           -0.001534362
FINAL SINGLE POINT ENERGY      -687.875389452210

DIPOLE MOMENT
-------------
                                X             Y             Z
Electronic contribution:     -2.09585      -0.28703      -5.01069
Nuclear contribution   :      3.50800       0.66266       5.29185
                        -----------------------------------------
Total Dipole Moment    :      1.41215       0.37563       0.28116
                        -----------------------------------------
Magnitude (a.u.)       :      1.48806
Magnitude (Debye)      :      3.78235

Rotational constants in cm-1:     0.163942     0.153101     0.149133
Rotational constants in MHz :  4914.860621  4589.839477  4470.901507

                             ****ORCA TERMINATED NORMALLY****
TOTAL RUN TIME: 0 days 0 hours 0 minutes 6 seconds 128 msec
