                         Program Version 5.0.0 -  RELEASE  -
|  1> !wB97X-D3 RIJCOSX def2-SVP def2/J TightSCF
|  2> *xyz 0 1
|  3> C          3.38093        2.08304       -3.35013
|  4> N          4.53592        1.18245       -3.42852
|  5> C          4.67196        0.12227       -4.22060
|  6> N          5.86602       -0.50785       -4.22428
|  7> C          3.69888       -0.31284       -4.98699
|  8> H          2.73141       -0.05009       -4.84900
|  9> H          3.89005       -1.05517       -5.64373
| 10> H          5.25193        1.30346       -2.72101
| 11> H          6.69516       -0.06232       -3.85160
| 12> H          5.97538       -1.39688       -4.69141
| 13> H          2.69962        1.85926       -4.14426
| 14> H          3.71221        3.09654       -3.43937
| 15> H          2.88835        1.95032       -2.40957
| 16> *
| 17>
| 18> %MaxCore 64000
| 19>
| 20> %pal nprocs 8
| 21> end
| 22>
| 23> %scf
| 24>   MaxIter 150
| 25> end
| 26>
| 27>
| 28>                          ****END OF INPUT****

CARTESIAN COORDINATES (ANGSTROEM)
---------------------------------
  C      3.380930    2.083040   -3.350130
  N      4.535920    1.182450   -3.428520
  C      4.671960    0.122270   -4.220600
  N      5.866020   -0.507850   -4.224280
  C      3.698880   -0.312840   -4.986990
  H      2.731410   -0.050090   -4.849000
  H      3.890050   -1.055170   -5.643730
  H      5.251930    1.303460   -2.721010
  H      6.695160   -0.062320   -3.851600
  H      5.975380   -1.396880   -4.691410
  H      2.699620    1.859260   -4.144260
  H      3.712210    3.096540   -3.439370
  H      2.888350    1.950320   -2.409570

 Total Charge           Charge          ....    0
 Multiplicity           Mult            ....    1
 Number of Electrons    NEL             ....   40
 Basis Dimension        Dim             ....  110

ORBITAL ENERGIES
----------------

  NO   OCC          E(Eh)            E(eV)
   0   2.0000     -14.428948      -392.6316
   1   2.0000     -14.424197      -392.5024
   2   2.0000     -10.328190      -281.0443
   3   2.0000     -10.310641      -280.5668
   4   2.0000     -10.191634      -277.3285
   5   2.0000      -1.063100       -28.9284
   6   2.0000      -0.975772       -26.5521
   7   2.0000      -0.823225       -22.4011
   8   2.0000      -0.796930       -21.6856
   9   2.0000      -0.663426       -18.0527
  10   2.0000      -0.640552       -17.4303
  11   2.0000      -0.609229       -16.5780
  12   2.0000      -0.548446       -14.9240
  13   2.0000      -0.533052       -14.5051
  14   2.0000      -0.510502       -13.8915
  15   2.0000      -0.475996       -12.9525
  16   2.0000      -0.472788       -12.8652
  17   2.0000      -0.445000       -12.1091
  18   2.0000      -0.332662        -9.0522
  19   2.0000      -0.246194        -6.6993
  20   0.0000       0.141244         3.8435
  21   0.0000       0.171015         4.6536
  22   0.0000       0.185433         5.0459
  23   0.0000       0.189374         5.1531
  24   0.0000       0.209514         5.7012

MULLIKEN ATOMIC CHARGES
-----------------------
   0 C :    0.124030
   1 N :   -0.254471
   2 C :    0.077104
   3 N :   -0.154865
   4 C :   -0.177238
   5 H :   -0.029938
   6 H :   -0.047015
   7 H :    0.111837
   8 H :    0.111485
   9 H :    0.132913
  10 H :    0.048377
  11 H :    0.028332
  12 H :    0.029450
Sum of atomic charges:   -0.0000000

LOEWDIN ATOMIC CHARGES
----------------------
   0 C :    0.045748
   1 N :   -0.054205
   2 C :    0.048576
   3 N :   -0.043120
   4 C :   -0.262328
   5 H :   -0.006724
   6 H :   -0.007368
   7 H :    0.065226
   8 H :    0.063907
   9 H :    0.081485
  10 H :    0.033581
  11 H :    0.018579
  12 H :    0.016643

  Mayer bond orders larger than 0.100000
B(  0-C ,  1-N ) :   0.9753 B(  0-C , 10-H ) :   0.9711 B(  0-C , 11-H ) :   0.9814
B(  0-C , 12-H ) :   0.9830 B(  1-N ,  2-C ) :   1.1607 B(  1-N ,  7-H ) :   0.9394
B(  2-C ,  3-N ) :   1.2013 B(  2-C ,  4-C ) :   1.7696 B(  3-N ,  8-H ) :   0.9542
B(  3-N ,  9-H ) :   0.9487 B(  4-C ,  5-H ) :   0.9532 B(  4-C ,  6-H ) :   0.9437

Dispersion correction           -0.002350795
FINAL SINGLE POINT ENERGY      -228.359750591507

DIPOLE MOMENT
-------------
                                X             Y             Z
Electronic contribution:      2.40778      -0.99579       0.29146
Nuclear contribution   :     -1.64651       1.35250       0.40156
                        -----------------------------------------
Total Dipole Moment    :      0.76128       0.35671       0.69302
                        -----------------------------------------
Magnitude (a.u.)       :      1.08953
Magnitude (Debye)      :      2.76936

Rotational constants in cm-1:     0.339624     0.131069     0.096565
Rotational constants in MHz : 10181.679558  3929.342810  2894.941560

                             ****ORCA TERMINATED NORMALLY****
TOTAL RUN TIME: 0 days 0 hours 0 minutes 8 seconds 617 msec
