                         Program Version 5.0.0 -  RELEASE  -
|  1> !wB97X-D3 RIJCOSX def2-SVP def2/J TightSCF xyzfile
|  2>
|  3> *xyzfile 0 1 D1.xyz
|  4>
|  5> %MaxCore 64000
|  6>
|  7> %pal nprocs 18
|  8> end
|  9>
| 10> %scf
| 11>   MaxIter 150
| 12> end
| 13>
| 14>
| 15>                          ****END OF INPUT****

CARTESIAN COORDINATES (ANGSTROEM)
---------------------------------
  C      3.380928    2.083045   -3.350127
  C      4.535924    1.182447   -3.428518
  C      2.495557    1.816150   -2.136364
  C      1.872181    0.427903   -2.077497
  H      2.614270   -0.365825   -2.198894
  H      1.389953    0.273087   -1.112360
  S      0.579024    0.140472   -3.297943
  C      4.671956    0.122273   -4.220598
  N      5.866023   -0.507849   -4.224284
  N      3.698881   -0.312844   -4.986988
  H      2.731405   -0.050091   -4.849000
  H      3.890046   -1.055172   -5.643730
  H      5.251933    1.303459   -2.721014
  H      6.695165   -0.062322   -3.851596
  H      5.975383   -1.396884   -4.691414
  F      0.228860   -1.246868   -3.127871
  O     -0.439269    1.118966   -3.014550
  O      1.247881    0.403474   -4.595647
  H      1.697003    2.561969   -2.141109
  H      3.080787    1.987436   -1.225838
  H      2.806463    1.986511   -4.268484
  H      3.778714    3.098282   -3.307383

 Total Charge           Charge          ....    0
 Multiplicity           Mult            ....    1
 Number of Electrons    NEL             ....   96
 Basis Dimension        Dim             ....  213

ORBITAL ENERGIES
----------------

  NO   OCC          E(Eh)            E(eV)
   0   2.0000     -89.225502     -2427.9494
   1   2.0000     -24.919552      -678.0955
   2   2.0000     -19.254252      -523.9348
   3   2.0000     -19.249460      -523.8044
   4   2.0000     -14.420907      -392.4128
   5   2.0000     -14.402539      -391.9130
   6   2.0000     -10.338543      -281.3261
   7   2.0000     -10.323728      -280.9229
   8   2.0000     -10.295429      -280.1529
   9   2.0000     -10.258845      -279.1574
  10   2.0000     -10.197434      -277.4863
  11   2.0000      -8.308667      -226.0903
  12   2.0000      -6.271764      -170.6634
  13   2.0000      -6.265548      -170.4942
  14   2.0000      -6.263594      -170.4410
  15   2.0000      -1.500415       -40.8284
  16   2.0000      -1.232419       -33.5358
  17   2.0000      -1.130037       -30.7499
  18   2.0000      -1.052434       -28.6382
  19   2.0000      -0.957211       -26.0470
  20   2.0000      -0.935044       -25.4438
  21   2.0000      -0.870528       -23.6883
  22   2.0000      -0.830329       -22.5944
  23   2.0000      -0.784535       -21.3483
  24   2.0000      -0.730951       -19.8902
  25   2.0000      -0.703867       -19.1532
  26   2.0000      -0.690410       -18.7870
  27   2.0000      -0.680316       -18.5123
  28   2.0000      -0.650671       -17.7057
  29   2.0000      -0.631540       -17.1851
  30   2.0000      -0.612109       -16.6563
  31   2.0000      -0.586658       -15.9638
  32   2.0000      -0.583357       -15.8740
  33   2.0000      -0.561871       -15.2893
  34   2.0000      -0.547525       -14.8989
  35   2.0000      -0.530189       -14.4272
  36   2.0000      -0.500972       -13.6321
  37   2.0000      -0.495814       -13.4918
  38   2.0000      -0.485287       -13.2053
  39   2.0000      -0.473533       -12.8855
  40   2.0000      -0.447989       -12.1904
  41   2.0000      -0.441681       -12.0187
  42   2.0000      -0.425045       -11.5661
  43   2.0000      -0.422837       -11.5060
  44   2.0000      -0.405396       -11.0314
  45   2.0000      -0.397371       -10.8130
  46   2.0000      -0.340045        -9.2531
  47   2.0000      -0.232954        -6.3390
  48   0.0000       0.114606         3.1186
  49   0.0000       0.135214         3.6794
  50   0.0000       0.150104         4.0845
  51   0.0000       0.157525         4.2865
  52   0.0000       0.174280         4.7424

MULLIKEN ATOMIC CHARGES
-----------------------
   0 C :    0.054084
   1 C :   -0.267895
   2 C :   -0.004855
   3 C :   -0.134268
   4 H :    0.088015
   5 H :    0.077325
   6 S :    0.983502
   7 C :    0.012279
   8 N :   -0.133488
   9 N :   -0.095505
  10 H :    0.112817
  11 H :    0.102594
  12 H :   -0.084220
  13 H :    0.129793
  14 H :    0.105933
  15 F :   -0.168990
  16 O :   -0.427191
  17 O :   -0.482495
  18 H :    0.045667
  19 H :    0.041247
  20 H :    0.031074
  21 H :    0.014576
Sum of atomic charges:    0.0000000

LOEWDIN ATOMIC CHARGES
----------------------
   0 C :   -0.042638
   1 C :   -0.250454
   2 C :   -0.042452
   3 C :   -0.146523
   4 H :    0.037656
   5 H :    0.035830
   6 S :    1.178382
   7 C :    0.033849
   8 N :   -0.044296
   9 N :   -0.026202
  10 H :    0.014631
  11 H :    0.061677
  12 H :   -0.015327
  13 H :    0.080755
  14 H :    0.061352
  15 F :   -0.111670
  16 O :   -0.469792
  17 O :   -0.467116
  18 H :    0.028350
  19 H :    0.036525
  20 H :    0.020853
  21 H :    0.026609

  Mayer bond orders larger than 0.100000
B(  0-C ,  1-C ) :   1.0486 B(  0-C ,  2-C ) :   1.0680 B(  0-C , 20-H ) :   0.9474
B(  0-C , 21-H ) :   0.9254 B(  1-C ,  7-C ) :   1.6466 B(  1-C , 12-H ) :   0.9598
B(  2-C ,  3-C ) :   1.0200 B(  2-C , 18-H ) :   0.9465 B(  2-C , 19-H ) :   0.9437
B(  3-C ,  4-H ) :   0.9188 B(  3-C ,  5-H ) :   0.9316 B(  3-C ,  6-S ) :   0.9439
B(  6-S , 15-F ) :   1.0346 B(  6-S , 16-O ) :   1.8067 B(  6-S , 17-O ) :   1.6091
B(  7-C ,  8-N ) :   1.2116 B(  7-C ,  9-N ) :   1.3021 B(  8-N , 13-H ) :   0.9452
B(  8-N , 14-H ) :   0.9538 B(  9-N , 10-H ) :   0.8793 B(  9-N , 11-H ) :   0.9466
B( 10-H , 17-O ) :   0.1484

Dispersion correction           -0.009842530
FINAL SINGLE POINT ENERGY      -954.321461870007

DIPOLE MOMENT
-------------
                                X             Y             Z
Electronic contribution:    -15.32211      -6.90697      -1.21134
Nuclear contribution   :     15.92508       5.34175       1.81950
                        -----------------------------------------
Total Dipole Moment    :      0.60297      -1.56522       0.60816
                        -----------------------------------------
Magnitude (a.u.)       :      1.78419
Magnitude (Debye)      :      4.53506

Rotational constants in cm-1:     0.058561     0.020662     0.017762
Rotational constants in MHz :  1755.621534   619.433801   532.501507

                             ****ORCA TERMINATED NORMALLY****
TOTAL RUN TIME: 0 days 0 hours 0 minutes 15 seconds 909 msec
