                         Program Version 5.0.0 -  RELEASE  -
|  1> !wB97X-D3 RIJCOSX def2-SVP def2/J TightSCF xyzfile
|  2>
|  3> *xyzfile 0 1 D2.xyz
|  4>
|  5> %MaxCore 64000
|  6>
|  7> %pal nprocs 18
|  8> end
|  9>
| 10> %scf
| 11>   MaxIter 150
| 12> end
| 13>
| 14>
| 15>                          ****END OF INPUT****

CARTESIAN COORDINATES (ANGSTROEM)
---------------------------------
  C      3.380928    2.083045   -3.350127
  N      4.535924    1.182447   -3.428518
  C      2.495557    1.816150   -2.136364
  C      1.872181    0.427903   -2.077497
  H      2.614270   -0.365825   -2.198894
  H      1.389953    0.273087   -1.112360
  S      0.579024    0.140472   -3.297943
  C      4.671956    0.122273   -4.220598
  C      5.866023   -0.507849   -4.224284
  N      3.698881   -0.312844   -4.986988
  H      2.731405   -0.050091   -4.849000
  H      3.890046   -1.055172   -5.643730
  H      5.251933    1.303459   -2.721014
  H      6.695165   -0.062322   -3.851596
  H      5.975383   -1.396884   -4.691414
  F      0.228860   -1.246868   -3.127871
  O     -0.439269    1.118966   -3.014550
  O      1.247881    0.403474   -4.595647
  H      1.697003    2.561969   -2.141109
  H      3.080787    1.987436   -1.225838
  H      2.806463    1.986511   -4.268484
  H      3.778714    3.098282   -3.307383

 Total Charge           Charge          ....    0
 Multiplicity           Mult            ....    1
 Number of Electrons    NEL             ....   96
 Basis Dimension        Dim             ....  213

ORBITAL ENERGIES
----------------

  NO   OCC          E(Eh)            E(eV)
   0   2.0000     -89.241217     -2428.3770
   1   2.0000     -24.932293      -678.4422
   2   2.0000     -19.268938      -524.3345
   3   2.0000     -19.263340      -524.1821
   4   2.0000     -14.429455      -392.6454
   5   2.0000     -14.399974      -391.8432
   6   2.0000     -10.359774      -281.9038
   7   2.0000     -10.330025      -281.0943
   8   2.0000     -10.325918      -280.9825
   9   2.0000     -10.322735      -280.8959
  10   2.0000     -10.181933      -277.0645
  11   2.0000      -8.324211      -226.5133
  12   2.0000      -6.287254      -171.0849
  13   2.0000      -6.281042      -170.9158
  14   2.0000      -6.279328      -170.8692
  15   2.0000      -1.513130       -41.1744
  16   2.0000      -1.247105       -33.9354
  17   2.0000      -1.144364       -31.1397
  18   2.0000      -1.064566       -28.9683
  19   2.0000      -0.981973       -26.7209
  20   2.0000      -0.947459       -25.7817
  21   2.0000      -0.879833       -23.9415
  22   2.0000      -0.833062       -22.6688
  23   2.0000      -0.791576       -21.5399
  24   2.0000      -0.742446       -20.2030
  25   2.0000      -0.715452       -19.4685
  26   2.0000      -0.700776       -19.0691
  27   2.0000      -0.695705       -18.9311
  28   2.0000      -0.683102       -18.5882
  29   2.0000      -0.645164       -17.5558
  30   2.0000      -0.611424       -16.6377
  31   2.0000      -0.588844       -16.0232
  32   2.0000      -0.585086       -15.9210
  33   2.0000      -0.578921       -15.7532
  34   2.0000      -0.559139       -15.2149
  35   2.0000      -0.541973       -14.7478
  36   2.0000      -0.512848       -13.9553
  37   2.0000      -0.503830       -13.7099
  38   2.0000      -0.501657       -13.6508
  39   2.0000      -0.480386       -13.0720
  40   2.0000      -0.475324       -12.9342
  41   2.0000      -0.459835       -12.5128
  42   2.0000      -0.446796       -12.1579
  43   2.0000      -0.437158       -11.8957
  44   2.0000      -0.428692       -11.6653
  45   2.0000      -0.414288       -11.2733
  46   2.0000      -0.332594        -9.0503
  47   2.0000      -0.228793        -6.2258
  48   0.0000       0.100138         2.7249
  49   0.0000       0.115347         3.1388
  50   0.0000       0.140294         3.8176
  51   0.0000       0.155564         4.2331
  52   0.0000       0.162730         4.4281

MULLIKEN ATOMIC CHARGES
-----------------------
   0 C :    0.084294
   1 N :   -0.214969
   2 C :   -0.029097
   3 C :   -0.150628
   4 H :    0.103459
   5 H :    0.088306
   6 S :    0.991018
   7 C :   -0.012247
   8 C :   -0.158769
   9 N :   -0.106626
  10 H :    0.099991
  11 H :    0.126029
  12 H :    0.128616
  13 H :   -0.047268
  14 H :   -0.052076
  15 F :   -0.163138
  16 O :   -0.424884
  17 O :   -0.480141
  18 H :    0.061714
  19 H :    0.053623
  20 H :    0.063129
  21 H :    0.039664
Sum of atomic charges:   -0.0000000

LOEWDIN ATOMIC CHARGES
----------------------
   0 C :    0.032088
   1 N :   -0.043109
   2 C :   -0.054060
   3 C :   -0.149310
   4 H :    0.043212
   5 H :    0.040780
   6 S :    1.180554
   7 C :    0.035724
   8 C :   -0.292400
   9 N :   -0.026835
  10 H :    0.003913
  11 H :    0.081031
  12 H :    0.081092
  13 H :   -0.013950
  14 H :   -0.014091
  15 F :   -0.105695
  16 O :   -0.467703
  17 O :   -0.465488
  18 H :    0.038432
  19 H :    0.039766
  20 H :    0.028683
  21 H :    0.027367

  Mayer bond orders larger than 0.100000
B(  0-C ,  1-N ) :   0.9971 B(  0-C ,  2-C ) :   1.0575 B(  0-C , 20-H ) :   0.9483
B(  0-C , 21-H ) :   0.9552 B(  1-N ,  7-C ) :   1.1561 B(  1-N , 12-H ) :   0.9322
B(  2-C ,  3-C ) :   1.0249 B(  2-C , 18-H ) :   0.9432 B(  2-C , 19-H ) :   0.9437
B(  3-C ,  4-H ) :   0.9214 B(  3-C ,  5-H ) :   0.9321 B(  3-C ,  6-S ) :   0.9432
B(  6-S , 15-F ) :   1.0431 B(  6-S , 16-O ) :   1.8063 B(  6-S , 17-O ) :   1.6141
B(  7-C ,  8-C ) :   1.7094 B(  7-C ,  9-N ) :   1.2808 B(  8-C , 13-H ) :   0.9521
B(  8-C , 14-H ) :   0.9535 B(  9-N , 10-H ) :   0.8958 B(  9-N , 11-H ) :   0.9413
B( 10-H , 17-O ) :   0.1377

Dispersion correction           -0.009881783
FINAL SINGLE POINT ENERGY      -954.307107002833

DIPOLE MOMENT
-------------
                                X             Y             Z
Electronic contribution:    -16.88357      -5.30564      -0.33713
Nuclear contribution   :     16.05479       5.17692       1.74190
                        -----------------------------------------
Total Dipole Moment    :     -0.82878      -0.12872       1.40476
                        -----------------------------------------
Magnitude (a.u.)       :      1.63610
Magnitude (Debye)      :      4.15863

Rotational constants in cm-1:     0.058652     0.021107     0.018077
Rotational constants in MHz :  1758.344290   632.763813   541.920558

                             ****ORCA TERMINATED NORMALLY****
TOTAL RUN TIME: 0 days 0 hours 0 minutes 20 seconds 147 msec
