                         Program Version 5.0.0 -  RELEASE  -
|  1> !wB97X-D3 RIJCOSX def2-SVP def2/J TightSCF xyzfile
|  2>
|  3> *xyzfile 0 1 D8.xyz
|  4>
|  5> %MaxCore 64000
|  6>
|  7> %pal nprocs 18
|  8> end
|  9>
| 10> %scf
| 11>   MaxIter 150
| 12> end
| 13>
| 14>
| 15>                          ****END OF INPUT****

CARTESIAN COORDINATES (ANGSTROEM)
---------------------------------
  C      3.380928    2.083045   -3.350127
  N      4.535924    1.182447   -3.428518
  C      2.495557    1.816150   -2.136364
  C      1.872181    0.427903   -2.077497
  H      2.614270   -0.365825   -2.198894
  H      1.389953    0.273087   -1.112360
  S      0.579024    0.140472   -3.297943
  C      4.671956    0.122273   -4.220598
  C      5.866023   -0.507849   -4.224284
  N      3.698881   -0.312844   -4.986988
  H      2.731405   -0.050091   -4.849000
  H      3.890046   -1.055172   -5.643730
  H      5.251933    1.303459   -2.721014
  H      6.695165   -0.062322   -3.851596
  H      5.975383   -1.396884   -4.691414
  O      0.228860   -1.246868   -3.127871
  O     -0.439269    1.118966   -3.014550
  F      1.247881    0.403474   -4.595647
  H      1.697003    2.561969   -2.141109
  H      3.080787    1.987436   -1.225838
  H      2.806463    1.986511   -4.268484
  H      3.778714    3.098282   -3.307383

 Total Charge           Charge          ....    0
 Multiplicity           Mult            ....    1
 Number of Electrons    NEL             ....   96
 Basis Dimension        Dim             ....  213

ORBITAL ENERGIES
----------------

  NO   OCC          E(Eh)            E(eV)
   0   2.0000     -89.229163     -2428.0490
   1   2.0000     -24.920792      -678.1292
   2   2.0000     -19.262103      -524.1485
   3   2.0000     -19.261031      -524.1193
   4   2.0000     -14.443857      -393.0373
   5   2.0000     -14.431444      -392.6995
   6   2.0000     -10.354535      -281.7612
   7   2.0000     -10.347073      -281.5582
   8   2.0000     -10.340178      -281.3705
   9   2.0000     -10.327128      -281.0154
  10   2.0000     -10.197944      -277.5002
  11   2.0000      -8.312354      -226.1906
  12   2.0000      -6.275754      -170.7720
  13   2.0000      -6.268813      -170.5831
  14   2.0000      -6.267503      -170.5474
  15   2.0000      -1.489823       -40.5401
  16   2.0000      -1.246755       -33.9259
  17   2.0000      -1.147675       -31.2298
  18   2.0000      -1.084025       -29.4978
  19   2.0000      -1.002179       -27.2707
  20   2.0000      -0.950698       -25.8698
  21   2.0000      -0.880866       -23.9696
  22   2.0000      -0.833579       -22.6828
  23   2.0000      -0.808332       -21.9958
  24   2.0000      -0.749151       -20.3854
  25   2.0000      -0.716767       -19.5042
  26   2.0000      -0.713765       -19.4225
  27   2.0000      -0.698279       -19.0011
  28   2.0000      -0.663933       -18.0665
  29   2.0000      -0.636654       -17.3242
  30   2.0000      -0.616635       -16.7795
  31   2.0000      -0.598926       -16.2976
  32   2.0000      -0.591265       -16.0891
  33   2.0000      -0.582789       -15.8585
  34   2.0000      -0.566365       -15.4116
  35   2.0000      -0.554427       -15.0867
  36   2.0000      -0.525460       -14.2985
  37   2.0000      -0.504314       -13.7231
  38   2.0000      -0.502109       -13.6631
  39   2.0000      -0.488348       -13.2886
  40   2.0000      -0.480686       -13.0801
  41   2.0000      -0.471658       -12.8345
  42   2.0000      -0.453668       -12.3449
  43   2.0000      -0.444672       -12.1001
  44   2.0000      -0.430294       -11.7089
  45   2.0000      -0.424025       -11.5383
  46   2.0000      -0.352376        -9.5886
  47   2.0000      -0.245121        -6.6701
  48   0.0000       0.098165         2.6712
  49   0.0000       0.124342         3.3835
  50   0.0000       0.142364         3.8739
  51   0.0000       0.159538         4.3412
  52   0.0000       0.161415         4.3923

MULLIKEN ATOMIC CHARGES
-----------------------
   0 C :    0.070359
   1 N :   -0.208998
   2 C :   -0.038766
   3 C :   -0.151503
   4 H :    0.106148
   5 H :    0.113280
   6 S :    0.961075
   7 C :   -0.011219
   8 C :   -0.146754
   9 N :   -0.117138
  10 H :    0.105039
  11 H :    0.139333
  12 H :    0.135528
  13 H :   -0.038501
  14 H :   -0.043396
  15 O :   -0.426608
  16 O :   -0.430659
  17 F :   -0.213094
  18 H :    0.060502
  19 H :    0.051623
  20 H :    0.034980
  21 H :    0.048769
Sum of atomic charges:   -0.0000000

LOEWDIN ATOMIC CHARGES
----------------------
   0 C :    0.028856
   1 N :   -0.041323
   2 C :   -0.066730
   3 C :   -0.148413
   4 H :    0.044140
   5 H :    0.057574
   6 S :    1.167110
   7 C :    0.034680
   8 C :   -0.275493
   9 N :   -0.026401
  10 H :    0.014030
  11 H :    0.088475
  12 H :    0.085439
  13 H :   -0.009769
  14 H :   -0.010490
  15 O :   -0.473236
  16 O :   -0.476532
  17 F :   -0.113371
  18 H :    0.035588
  19 H :    0.038218
  20 H :    0.016167
  21 H :    0.031482

  Mayer bond orders larger than 0.100000
B(  0-C ,  1-N ) :   0.9983 B(  0-C ,  2-C ) :   1.0539 B(  0-C , 20-H ) :   0.9562
B(  0-C , 21-H ) :   0.9543 B(  1-N ,  7-C ) :   1.1614 B(  1-N , 12-H ) :   0.9306
B(  2-C ,  3-C ) :   1.0080 B(  2-C , 18-H ) :   0.9431 B(  2-C , 19-H ) :   0.9404
B(  3-C ,  4-H ) :   0.9282 B(  3-C ,  5-H ) :   0.9345 B(  3-C ,  6-S ) :   0.9358
B(  6-S , 15-O ) :   1.8070 B(  6-S , 16-O ) :   1.7974 B(  6-S , 17-F ) :   0.8985
B(  7-C ,  8-C ) :   1.7302 B(  7-C ,  9-N ) :   1.2514 B(  8-C , 13-H ) :   0.9537
B(  8-C , 14-H ) :   0.9544 B(  9-N , 10-H ) :   0.9310 B(  9-N , 11-H ) :   0.9388

Dispersion correction           -0.009882910
FINAL SINGLE POINT ENERGY      -954.313507806301

DIPOLE MOMENT
-------------
                                X             Y             Z
Electronic contribution:    -14.74007      -2.46243      -2.91483
Nuclear contribution   :     14.93782       3.36795       3.35075
                        -----------------------------------------
Total Dipole Moment    :      0.19775       0.90552       0.43592
                        -----------------------------------------
Magnitude (a.u.)       :      1.02425
Magnitude (Debye)      :      2.60345

Rotational constants in cm-1:     0.059219     0.021387     0.018380
Rotational constants in MHz :  1775.354399   641.172207   551.019443

                             ****ORCA TERMINATED NORMALLY****
TOTAL RUN TIME: 0 days 0 hours 0 minutes 20 seconds 238 msec
