                         Program Version 5.0.0 -  RELEASE  -
|  1> !wB97X-D3 RIJCOSX def2-SVP def2/J TightSCF
|  2> *xyz -1 1
|  3> C         -2.45380        0.05510        6.94145
|  4> C         -2.07842        1.48042        6.56410
|  5> O         -0.90125        1.85816        6.82810
|  6> O         -2.93658        2.17731        5.96415
|  7> H         -3.47026       -0.13135        6.66407
|  8> H         -2.34265       -0.07527        7.99765
|  9> H         -1.81248       -0.63046        6.42801
| 10> *
| 11> %MaxCore 64000
| 12>
| 13> %pal nprocs 18
| 14> end
| 15>
| 16> %scf
| 17>   MaxIter 150
| 18> end
| 19>
| 20>
| 21>                          ****END OF INPUT****

CARTESIAN COORDINATES (ANGSTROEM)
---------------------------------
  C     -2.453800    0.055100    6.941450
  C     -2.078420    1.480420    6.564100
  O     -0.901250    1.858160    6.828100
  O     -2.936580    2.177310    5.964150
  H     -3.470260   -0.131350    6.664070
  H     -2.342650   -0.075270    7.997650
  H     -1.812480   -0.630460    6.428010

 Total Charge           Charge          ....   -1
 Multiplicity           Mult            ....    1
 Number of Electrons    NEL             ....   32
 Basis Dimension        Dim             ....   71

ORBITAL ENERGIES
----------------

  NO   OCC          E(Eh)            E(eV)
   0   2.0000     -18.931800      -515.1605
   1   2.0000     -18.927920      -515.0549
   2   2.0000     -10.139023      -275.8968
   3   2.0000     -10.085068      -274.4287
   4   2.0000      -0.882121       -24.0037
   5   2.0000      -0.784679       -21.3522
   6   2.0000      -0.636139       -17.3102
   7   2.0000      -0.380527       -10.3547
   8   2.0000      -0.343885        -9.3576
   9   2.0000      -0.328162        -8.9297
  10   2.0000      -0.289252        -7.8710
  11   2.0000      -0.245362        -6.6766
  12   2.0000      -0.231081        -6.2880
  13   2.0000      -0.099379        -2.7042
  14   2.0000      -0.097349        -2.6490
  15   2.0000      -0.080457        -2.1894
  16   0.0000       0.329922         8.9776
  17   0.0000       0.356123         9.6906
  18   0.0000       0.392814        10.6890
  19   0.0000       0.425082        11.5671
  20   0.0000       0.517968        14.0946

MULLIKEN ATOMIC CHARGES
-----------------------
   0 C :   -0.008071
   1 C :    0.030072
   2 O :   -0.480619
   3 O :   -0.459551
   4 H :   -0.038616
   5 H :   -0.023818
   6 H :   -0.019397
Sum of atomic charges:   -1.0000000

LOEWDIN ATOMIC CHARGES
----------------------
   0 C :   -0.122480
   1 C :   -0.042254
   2 O :   -0.429961
   3 O :   -0.413849
   4 H :   -0.003447
   5 H :    0.005004
   6 H :    0.006986

  Mayer bond orders larger than 0.100000
B(  0-C ,  1-C ) :   0.9435 B(  0-C ,  4-H ) :   0.9638 B(  0-C ,  5-H ) :   0.9648
B(  0-C ,  6-H ) :   0.9669 B(  1-C ,  2-O ) :   1.8227 B(  1-C ,  3-O ) :   1.8568
B(  2-O ,  3-O ) :   0.1102

Dispersion correction           -0.000905266
FINAL SINGLE POINT ENERGY      -228.263700352866

DIPOLE MOMENT
-------------
                                X             Y             Z
Electronic contribution:      0.92291       3.46959      -0.93515
Nuclear contribution   :     -1.26064      -4.68337       1.27880
                        -----------------------------------------
Total Dipole Moment    :     -0.33773      -1.21378       0.34365
                        -----------------------------------------
Magnitude (a.u.)       :      1.30592
Magnitude (Debye)      :      3.31937

Rotational constants in cm-1:     0.391994     0.333933     0.186475
Rotational constants in MHz : 11751.676689 10011.065304  5590.392476

                             ****ORCA TERMINATED NORMALLY****
TOTAL RUN TIME: 0 days 0 hours 0 minutes 4 seconds 306 msec
