                         Program Version 5.0.0 -  RELEASE  -
|  1> !wB97X-D3 RIJCOSX def2-SVP def2/J TightSCF
|  2> *xyz 1 1
|  3> C         -0.69912        3.48945        3.75516
|  4> N         -1.08067        3.79296        5.15686
|  5> H         -0.87449        4.76274        5.42734
|  6> H         -0.68079        3.13476        5.83900
|  7> H         -2.05755        3.53169        5.34620
|  8> H         -1.14600        4.20803        3.10030
|  9> H         -1.04188        2.50941        3.49644
| 10> H          0.36562        3.53208        3.65813
| 11> *
| 12> %MaxCore 64000
| 13>
| 14> %pal nprocs 18
| 15> end
| 16>
| 17> %scf
| 18>   MaxIter 150
| 19> end
| 20>
| 21>
| 22>                          ****END OF INPUT****

CARTESIAN COORDINATES (ANGSTROEM)
---------------------------------
  C     -0.699120    3.489450    3.755160
  N     -1.080670    3.792960    5.156860
  H     -0.874490    4.762740    5.427340
  H     -0.680790    3.134760    5.839000
  H     -2.057550    3.531690    5.346200
  H     -1.146000    4.208030    3.100300
  H     -1.041880    2.509410    3.496440
  H      0.365620    3.532080    3.658130

 Total Charge           Charge          ....    1
 Multiplicity           Mult            ....    1
 Number of Electrons    NEL             ....   18
 Basis Dimension        Dim             ....   58

ORBITAL ENERGIES
----------------

  NO   OCC          E(Eh)            E(eV)
   0   2.0000     -14.789501      -402.4428
   1   2.0000     -10.547326      -287.0073
   2   2.0000      -1.337789       -36.4031
   3   2.0000      -1.050672       -28.5902
   4   2.0000      -0.929509       -25.2932
   5   2.0000      -0.891373       -24.2555
   6   2.0000      -0.818920       -22.2839
   7   2.0000      -0.726663       -19.7735
   8   2.0000      -0.720290       -19.6001
   9   0.0000      -0.103629        -2.8199
  10   0.0000      -0.037678        -1.0253
  11   0.0000      -0.032865        -0.8943
  12   0.0000      -0.002494        -0.0679
  13   0.0000       0.042476         1.1558

MULLIKEN ATOMIC CHARGES
-----------------------
   0 C :    0.002207
   1 N :   -0.053581
   2 H :    0.239949
   3 H :    0.221337
   4 H :    0.222501
   5 H :    0.124429
   6 H :    0.119174
   7 H :    0.123982
Sum of atomic charges:    1.0000000

LOEWDIN ATOMIC CHARGES
----------------------
   0 C :    0.069021
   1 N :    0.287343
   2 H :    0.153770
   3 H :    0.152652
   4 H :    0.153214
   5 H :    0.061876
   6 H :    0.060811
   7 H :    0.061313

  Mayer bond orders larger than 0.100000
B(  0-C ,  1-N ) :   0.9306 B(  0-C ,  5-H ) :   0.9718 B(  0-C ,  6-H ) :   0.9724
B(  0-C ,  7-H ) :   0.9728 B(  1-N ,  2-H ) :   0.9274 B(  1-N ,  3-H ) :   0.9313
B(  1-N ,  4-H ) :   0.9322

Dispersion correction           -0.000518568
FINAL SINGLE POINT ENERGY       -96.114684980807

DIPOLE MOMENT
-------------
                                X             Y             Z
Electronic contribution:     -0.25880       0.28799       1.02492
Nuclear contribution   :     -0.00699      -0.18064      -0.14199
                        -----------------------------------------
Total Dipole Moment    :     -0.26579       0.10734       0.88294
                        -----------------------------------------
Magnitude (a.u.)       :      0.92830
Magnitude (Debye)      :      2.35955

Rotational constants in cm-1:     2.906310     0.688008     0.676648
Rotational constants in MHz : 87128.982229 20625.947414 20285.402367

                             ****ORCA TERMINATED NORMALLY****
TOTAL RUN TIME: 0 days 0 hours 0 minutes 3 seconds 55 msec
