                         Program Version 5.0.0 -  RELEASE  -
|  1> !wB97X-D3 RIJCOSX def2-SVP def2/J TightSCF xyzfile
|  2>
|  3> *xyzfile 0 1 B.xyz
|  4>
|  5> %MaxCore 64000
|  6>
|  7> %pal nprocs 18
|  8> end
|  9>
| 10> %scf
| 11>   MaxIter 150
| 12> end
| 13>
| 14>
| 15>                          ****END OF INPUT****

CARTESIAN COORDINATES (ANGSTROEM)
---------------------------------
  C     -0.699123    3.489451    3.755163
  H     -0.966716    4.349013    3.140491
  N     -1.080669    3.792957    5.156857
  C      0.776956    3.138391    3.617408
  H     -1.331455    2.656510    3.446323
  H      1.371398    3.888342    4.149744
  H      1.046926    3.232057    2.561331
  C      1.118917    1.731170    4.115155
  H      2.200573    1.654226    4.254882
  C      0.659466    0.635182    3.153306
  H      0.677024    1.576674    5.103150
  H      1.312288    0.638870    2.274207
  H     -0.339563    0.868049    2.772876
  C      0.639957   -0.771175    3.755619
  C     -0.341821   -0.965537    4.915046
  H      1.648266   -1.028665    4.097015
  H      0.398568   -1.482386    2.958453
  H     -0.279892   -2.005646    5.252547
  C     -1.789164   -0.639231    4.557496
  H     -0.032380   -0.352918    5.765118
  H     -2.107151   -1.270102    3.719619
  H     -1.856352    0.391636    4.197604
  C     -2.790700   -0.785275    5.702812
  H     -2.867308   -1.835651    6.001675
  H     -3.774554   -0.486577    5.334807
  C     -2.453797    0.055101    6.941445
  C     -2.078419    1.480421    6.564098
  H     -1.625584   -0.382163    7.498914
  H     -3.325274    0.087746    7.599175
  H     -0.874488    4.762737    5.427344
  H     -0.680793    3.134762    5.839000
  H     -2.057550    3.531691    5.346197
  O     -0.901252    1.858156    6.828104
  O     -2.936582    2.177309    5.964151

 Total Charge           Charge          ....    0
 Multiplicity           Mult            ....    1
 Number of Electrons    NEL             ....  104
 Basis Dimension        Dim             ....  287

ORBITAL ENERGIES
----------------

  NO   OCC          E(Eh)            E(eV)
   0   2.0000     -19.166804      -521.5552
   1   2.0000     -19.164963      -521.5052
   2   2.0000     -14.518244      -395.0615
   3   2.0000     -10.359877      -281.9066
   4   2.0000     -10.356523      -281.8153
   5   2.0000     -10.312546      -280.6186
   6   2.0000     -10.286891      -279.9205
   7   2.0000     -10.283946      -279.8404
   8   2.0000     -10.276884      -279.6482
   9   2.0000     -10.267055      -279.3808
  10   2.0000     -10.266489      -279.3654
  11   2.0000     -10.265738      -279.3449
  12   2.0000     -10.255446      -279.0649
  13   2.0000      -1.127600       -30.6835
  14   2.0000      -1.089761       -29.6539
  15   2.0000      -1.021716       -27.8023
  16   2.0000      -0.933652       -25.4060
  17   2.0000      -0.903838       -24.5947
  18   2.0000      -0.874674       -23.8011
  19   2.0000      -0.826974       -22.5031
  20   2.0000      -0.793986       -21.6055
  21   2.0000      -0.754412       -20.5286
  22   2.0000      -0.715552       -19.4712
  23   2.0000      -0.699466       -19.0334
  24   2.0000      -0.679705       -18.4957
  25   2.0000      -0.654720       -17.8158
  26   2.0000      -0.646055       -17.5800
  27   2.0000      -0.603343       -16.4178
  28   2.0000      -0.578879       -15.7521
  29   2.0000      -0.574944       -15.6450
  30   2.0000      -0.572864       -15.5884
  31   2.0000      -0.544763       -14.8238
  32   2.0000      -0.538721       -14.6594
  33   2.0000      -0.530666       -14.4401
  34   2.0000      -0.517499       -14.0819
  35   2.0000      -0.505630       -13.7589
  36   2.0000      -0.495635       -13.4869
  37   2.0000      -0.491307       -13.3691
  38   2.0000      -0.482261       -13.1230
  39   2.0000      -0.472316       -12.8524
  40   2.0000      -0.456198       -12.4138
  41   2.0000      -0.450759       -12.2658
  42   2.0000      -0.442494       -12.0409
  43   2.0000      -0.427816       -11.6415
  44   2.0000      -0.417608       -11.3637
  45   2.0000      -0.411740       -11.2040
  46   2.0000      -0.397764       -10.8237
  47   2.0000      -0.391860       -10.6630
  48   2.0000      -0.385859       -10.4998
  49   2.0000      -0.331291        -9.0149
  50   2.0000      -0.320489        -8.7209
  51   2.0000      -0.318238        -8.6597
  52   0.0000       0.106139         2.8882
  53   0.0000       0.139981         3.8091
  54   0.0000       0.145882         3.9697
  55   0.0000       0.153144         4.1673
  56   0.0000       0.159735         4.3466

MULLIKEN ATOMIC CHARGES
-----------------------
   0 C :    0.035314
   1 H :    0.052469
   2 N :   -0.007527
   3 C :   -0.046352
   4 H :    0.065077
   5 H :    0.027435
   6 H :    0.037263
   7 C :   -0.056193
   8 H :    0.025826
   9 C :   -0.063136
  10 H :    0.046207
  11 H :    0.017150
  12 H :    0.009713
  13 C :    0.009607
  14 C :   -0.052066
  15 H :    0.015421
  16 H :    0.014132
  17 H :    0.013529
  18 C :   -0.061056
  19 H :    0.045326
  20 H :    0.009904
  21 H :    0.006846
  22 C :   -0.017947
  23 H :    0.015298
  24 H :    0.029661
  25 C :    0.023156
  26 C :    0.119646
  27 H :    0.023846
  28 H :    0.033033
  29 H :    0.165871
  30 H :    0.153403
  31 H :    0.167351
  32 O :   -0.426328
  33 O :   -0.431877
Sum of atomic charges:    0.0000000

LOEWDIN ATOMIC CHARGES
----------------------
   0 C :    0.047204
   1 H :    0.030344
   2 N :    0.255198
   3 C :   -0.045601
   4 H :    0.036687
   5 H :    0.025209
   6 H :    0.032857
   7 C :   -0.044606
   8 H :    0.027912
   9 C :   -0.041868
  10 H :    0.025037
  11 H :    0.021470
  12 H :    0.012655
  13 C :   -0.035707
  14 C :   -0.044385
  15 H :    0.021958
  16 H :    0.021034
  17 H :    0.021776
  18 C :   -0.045092
  19 H :    0.023008
  20 H :    0.019864
  21 H :    0.011243
  22 C :   -0.029770
  23 H :    0.019211
  24 H :    0.026441
  25 C :   -0.067054
  26 C :    0.033626
  27 H :    0.022842
  28 H :    0.034701
  29 H :    0.108378
  30 H :    0.056377
  31 H :    0.075913
  32 O :   -0.323169
  33 O :   -0.333696

  Mayer bond orders larger than 0.100000
B(  0-C ,  1-H ) :   0.9593 B(  0-C ,  2-N ) :   0.9788 B(  0-C ,  3-C ) :   1.0615
B(  0-C ,  4-H ) :   0.9489 B(  2-N , 29-H ) :   0.9438 B(  2-N , 30-H ) :   0.8130
B(  2-N , 31-H ) :   0.8317 B(  3-C ,  5-H ) :   0.9516 B(  3-C ,  6-H ) :   0.9444
B(  3-C ,  7-C ) :   1.0653 B(  7-C ,  8-H ) :   0.9416 B(  7-C ,  9-C ) :   1.0421
B(  7-C , 10-H ) :   0.9412 B(  9-C , 11-H ) :   0.9440 B(  9-C , 12-H ) :   0.9529
B(  9-C , 13-C ) :   1.0782 B( 13-C , 14-C ) :   1.0819 B( 13-C , 15-H ) :   0.9476
B( 13-C , 16-H ) :   0.9464 B( 14-C , 17-H ) :   0.9447 B( 14-C , 18-C ) :   1.0543
B( 14-C , 19-H ) :   0.9385 B( 18-C , 20-H ) :   0.9434 B( 18-C , 21-H ) :   0.9294
B( 18-C , 22-C ) :   1.0948 B( 22-C , 23-H ) :   0.9527 B( 22-C , 24-H ) :   0.9453
B( 22-C , 25-C ) :   1.0693 B( 25-C , 26-C ) :   0.9749 B( 25-C , 27-H ) :   0.9404
B( 25-C , 28-H ) :   0.9330 B( 26-C , 32-O ) :   1.6200 B( 26-C , 33-O ) :   1.6804
B( 30-H , 32-O ) :   0.2409 B( 31-H , 33-O ) :   0.2061

Dispersion correction           -0.017663531
FINAL SINGLE POINT ENERGY      -598.365671020640

DIPOLE MOMENT
-------------
                                X             Y             Z
Electronic contribution:     -4.69913       4.98025       6.71496
Nuclear contribution   :      5.60885      -3.40606      -8.06960
                        -----------------------------------------
Total Dipole Moment    :      0.90972       1.57419      -1.35464
                        -----------------------------------------
Magnitude (a.u.)       :      2.26732
Magnitude (Debye)      :      5.76306

Rotational constants in cm-1:     0.028465     0.023505     0.015110
Rotational constants in MHz :   853.363165   704.655786   452.976312

                             ****ORCA TERMINATED NORMALLY****
TOTAL RUN TIME: 0 days 0 hours 0 minutes 33 seconds 259 msec
