                         Program Version 5.0.0 -  RELEASE  -
|  1> !wB97X-D3 RIJCOSX def2-SVP def2/J TightSCF
|  2> *xyz 0 1
|  3> C         -2.45380        0.05510        6.94145
|  4> C         -2.07842        1.48042        6.56410
|  5> F         -0.90125        1.85816        6.82810
|  6> O         -2.93658        2.17731        5.96415
|  7> H         -3.47026       -0.13135        6.66407
|  8> H         -2.34265       -0.07527        7.99765
|  9> H         -1.81248       -0.63046        6.42801
| 10> *
| 11> %MaxCore 64000
| 12>
| 13> %pal nprocs 18
| 14> end
| 15>
| 16> %scf
| 17>   MaxIter 150
| 18> end
| 19>
| 20>
| 21>                          ****END OF INPUT****

CARTESIAN COORDINATES (ANGSTROEM)
---------------------------------
  C     -2.453800    0.055100    6.941450
  C     -2.078420    1.480420    6.564100
  F     -0.901250    1.858160    6.828100
  O     -2.936580    2.177310    5.964150
  H     -3.470260   -0.131350    6.664070
  H     -2.342650   -0.075270    7.997650
  H     -1.812480   -0.630460    6.428010

 Total Charge           Charge          ....    0
 Multiplicity           Mult            ....    1
 Number of Electrons    NEL             ....   32
 Basis Dimension        Dim             ....   71

ORBITAL ENERGIES
----------------

  NO   OCC          E(Eh)            E(eV)
   0   2.0000     -24.856789      -676.3876
   1   2.0000     -19.241711      -523.5936
   2   2.0000     -10.466755      -284.8149
   3   2.0000     -10.313293      -280.6390
   4   2.0000      -1.409407       -38.3519
   5   2.0000      -1.131954       -30.8020
   6   2.0000      -0.881238       -23.9797
   7   2.0000      -0.754612       -20.5340
   8   2.0000      -0.646363       -17.5884
   9   2.0000      -0.642943       -17.4954
  10   2.0000      -0.598984       -16.2992
  11   2.0000      -0.542228       -14.7548
  12   2.0000      -0.529865       -14.4184
  13   2.0000      -0.495326       -13.4785
  14   2.0000      -0.444999       -12.1090
  15   2.0000      -0.384575       -10.4648
  16   0.0000       0.066551         1.8109
  17   0.0000       0.150805         4.1036
  18   0.0000       0.209850         5.7103
  19   0.0000       0.214867         5.8468
  20   0.0000       0.262894         7.1537

MULLIKEN ATOMIC CHARGES
-----------------------
   0 C :   -0.066587
   1 C :    0.228539
   2 F :   -0.095592
   3 O :   -0.272000
   4 H :    0.073002
   5 H :    0.064409
   6 H :    0.068228
Sum of atomic charges:   -0.0000000

LOEWDIN ATOMIC CHARGES
----------------------
   0 C :   -0.080276
   1 C :    0.117828
   2 F :    0.026725
   3 O :   -0.204353
   4 H :    0.048904
   5 H :    0.044583
   6 H :    0.046588

  Mayer bond orders larger than 0.100000
B(  0-C ,  1-C ) :   1.0283 B(  0-C ,  4-H ) :   0.9703 B(  0-C ,  5-H ) :   0.9550
B(  0-C ,  6-H ) :   0.9555 B(  1-C ,  2-F ) :   1.1698 B(  1-C ,  3-O ) :   2.0829

Dispersion correction           -0.000899388
FINAL SINGLE POINT ENERGY      -252.821560958011

DIPOLE MOMENT
-------------
                                X             Y             Z
Electronic contribution:      2.83352       4.17909      -0.50824
Nuclear contribution   :     -2.49112      -5.16552       1.01592
                        -----------------------------------------
Total Dipole Moment    :      0.34241      -0.98643       0.50767
                        -----------------------------------------
Magnitude (a.u.)       :      1.16104
Magnitude (Debye)      :      2.95112

Rotational constants in cm-1:     0.367635     0.321184     0.176974
Rotational constants in MHz : 11021.414238  9628.842971  5305.560130

                             ****ORCA TERMINATED NORMALLY****
TOTAL RUN TIME: 0 days 0 hours 0 minutes 4 seconds 27 msec
