                         Program Version 5.0.0 -  RELEASE  -
|  1> !wB97X-D3 RIJCOSX def2-SVP def2/J TightSCF
|  2> *xyz 0 1
|  3> C         -0.69912        3.48945        3.75516
|  4> C         -1.08067        3.79296        5.15686
|  5> H         -0.87449        4.76274        5.42734
|  6> H         -0.68079        3.13476        5.83900
|  7> H         -2.05755        3.53169        5.34620
|  8> H         -1.14600        4.20803        3.10030
|  9> H         -1.04188        2.50941        3.49644
| 10> H          0.36562        3.53208        3.65813
| 11> *
| 12> %MaxCore 64000
| 13>
| 14> %pal nprocs 18
| 15> end
| 16>
| 17> %scf
| 18>   MaxIter 150
| 19> end
| 20>
| 21>
| 22>                          ****END OF INPUT****

CARTESIAN COORDINATES (ANGSTROEM)
---------------------------------
  C     -0.699120    3.489450    3.755160
  C     -1.080670    3.792960    5.156860
  H     -0.874490    4.762740    5.427340
  H     -0.680790    3.134760    5.839000
  H     -2.057550    3.531690    5.346200
  H     -1.146000    4.208030    3.100300
  H     -1.041880    2.509410    3.496440
  H      0.365620    3.532080    3.658130

 Total Charge           Charge          ....    0
 Multiplicity           Mult            ....    1
 Number of Electrons    NEL             ....   18
 Basis Dimension        Dim             ....   58

ORBITAL ENERGIES
----------------

  NO   OCC          E(Eh)            E(eV)
   0   2.0000     -10.265613      -279.3415
   1   2.0000     -10.251358      -278.9536
   2   2.0000      -0.877176       -23.8692
   3   2.0000      -0.728795       -19.8315
   4   2.0000      -0.556413       -15.1408
   5   2.0000      -0.535177       -14.5629
   6   2.0000      -0.468226       -12.7411
   7   2.0000      -0.447068       -12.1653
   8   2.0000      -0.424234       -11.5440
   9   0.0000       0.158699         4.3184
  10   0.0000       0.209849         5.7103
  11   0.0000       0.221117         6.0169
  12   0.0000       0.225441         6.1346
  13   0.0000       0.256028         6.9669

MULLIKEN ATOMIC CHARGES
-----------------------
   0 C :   -0.075052
   1 C :   -0.022576
   2 H :    0.020492
   3 H :   -0.001169
   4 H :   -0.000558
   5 H :    0.027662
   6 H :    0.024091
   7 H :    0.027111
Sum of atomic charges:    0.0000000

LOEWDIN ATOMIC CHARGES
----------------------
   0 C :   -0.057552
   1 C :   -0.058815
   2 H :    0.015546
   3 H :    0.017280
   4 H :    0.017777
   5 H :    0.022013
   6 H :    0.022438
   7 H :    0.021313

  Mayer bond orders larger than 0.100000
B(  0-C ,  1-C ) :   1.1109 B(  0-C ,  5-H ) :   0.9812 B(  0-C ,  6-H ) :   0.9800
B(  0-C ,  7-H ) :   0.9815 B(  1-C ,  2-H ) :   0.9800 B(  1-C ,  3-H ) :   0.9696
B(  1-C ,  4-H ) :   0.9707

Dispersion correction           -0.000507793
FINAL SINGLE POINT ENERGY       -79.728363322493

DIPOLE MOMENT
-------------
                                X             Y             Z
Electronic contribution:      0.05362       0.10129      -0.06528
Nuclear contribution   :     -0.07174      -0.12630       0.09844
                        -----------------------------------------
Total Dipole Moment    :     -0.01812      -0.02501       0.03317
                        -----------------------------------------
Magnitude (a.u.)       :      0.04532
Magnitude (Debye)      :      0.11519

Rotational constants in cm-1:     2.906543     0.717882     0.705537
Rotational constants in MHz : 87135.978289 21521.550473 21151.459355

                             ****ORCA TERMINATED NORMALLY****
TOTAL RUN TIME: 0 days 0 hours 0 minutes 3 seconds 347 msec
