                         Program Version 5.0.0 -  RELEASE  -
|  1> !wB97X-D3 RIJCOSX def2-SVP def2/J TightSCF
|  2> *xyz 0 1
|  3> C         -2.45380        0.05510        6.94145
|  4> C         -2.07842        1.48042        6.56410
|  5> O         -0.90125        1.85816        6.82810
|  6> F         -2.93658        2.17731        5.96415
|  7> H         -3.47026       -0.13135        6.66407
|  8> H         -2.34265       -0.07527        7.99765
|  9> H         -1.81248       -0.63046        6.42801
| 10> *
| 11> %MaxCore 64000
| 12>
| 13> %pal nprocs 18
| 14> end
| 15>
| 16> %scf
| 17>   MaxIter 150
| 18> end
| 19>
| 20>
| 21>                          ****END OF INPUT****

CARTESIAN COORDINATES (ANGSTROEM)
---------------------------------
  C     -2.453800    0.055100    6.941450
  C     -2.078420    1.480420    6.564100
  O     -0.901250    1.858160    6.828100
  F     -2.936580    2.177310    5.964150
  H     -3.470260   -0.131350    6.664070
  H     -2.342650   -0.075270    7.997650
  H     -1.812480   -0.630460    6.428010

 Total Charge           Charge          ....    0
 Multiplicity           Mult            ....    1
 Number of Electrons    NEL             ....   32
 Basis Dimension        Dim             ....   71

ORBITAL ENERGIES
----------------

  NO   OCC          E(Eh)            E(eV)
   0   2.0000     -24.859264      -676.4550
   1   2.0000     -19.239375      -523.5300
   2   2.0000     -10.467266      -284.8288
   3   2.0000     -10.313694      -280.6499
   4   2.0000      -1.414095       -38.4795
   5   2.0000      -1.127454       -30.6796
   6   2.0000      -0.881062       -23.9749
   7   2.0000      -0.757451       -20.6113
   8   2.0000      -0.648136       -17.6367
   9   2.0000      -0.645255       -17.5583
  10   2.0000      -0.599421       -16.3111
  11   2.0000      -0.543175       -14.7806
  12   2.0000      -0.529435       -14.4066
  13   2.0000      -0.494177       -13.4472
  14   2.0000      -0.439726       -11.9655
  15   2.0000      -0.383569       -10.4374
  16   0.0000       0.062455         1.6995
  17   0.0000       0.151549         4.1239
  18   0.0000       0.203300         5.5321
  19   0.0000       0.223650         6.0858
  20   0.0000       0.267948         7.2912

MULLIKEN ATOMIC CHARGES
-----------------------
   0 C :   -0.070788
   1 C :    0.229191
   2 O :   -0.284712
   3 F :   -0.085576
   4 H :    0.044875
   5 H :    0.082434
   6 H :    0.084577
Sum of atomic charges:   -0.0000000

LOEWDIN ATOMIC CHARGES
----------------------
   0 C :   -0.080786
   1 C :    0.116877
   2 O :   -0.214647
   3 F :    0.036224
   4 H :    0.032114
   5 H :    0.054653
   6 H :    0.055565

  Mayer bond orders larger than 0.100000
B(  0-C ,  1-C ) :   1.0244 B(  0-C ,  4-H ) :   0.9612 B(  0-C ,  5-H ) :   0.9599
B(  0-C ,  6-H ) :   0.9598 B(  1-C ,  2-O ) :   2.0576 B(  1-C ,  3-F ) :   1.1874

Dispersion correction           -0.000909221
FINAL SINGLE POINT ENERGY      -252.818716993881

DIPOLE MOMENT
-------------
                                X             Y             Z
Electronic contribution:     -0.44043       4.68281      -1.89383
Nuclear contribution   :     -0.38801      -5.49530       1.90863
                        -----------------------------------------
Total Dipole Moment    :     -0.82844      -0.81249       0.01480
                        -----------------------------------------
Magnitude (a.u.)       :      1.16046
Magnitude (Debye)      :      2.94965

Rotational constants in cm-1:     0.368583     0.320435     0.176966
Rotational constants in MHz : 11049.843408  9606.394840  5305.299921

                             ****ORCA TERMINATED NORMALLY****
TOTAL RUN TIME: 0 days 0 hours 0 minutes 4 seconds 232 msec
