                         Program Version 5.0.0 -  RELEASE  -
|  1> !TPSS D3BJ RIJCOSX def2-TZVPD def2/J TightSCF
|  2> *xyz -1 1
|  3> C          3.76678       -2.26611       -6.51175
|  4> C          2.49670       -1.84416       -5.73570
|  5> H          1.62642       -2.21743       -6.30895
|  6> H          2.48182       -2.45607       -4.79341
|  7> O          2.45973       -0.50920       -5.50576
|  8> H          3.82914       -1.70941       -7.42340
|  9> H          3.71764       -3.31144       -6.73483
| 10> H          4.63199       -2.06931       -5.91377
| 11> *
| 12>
| 13> %MaxCore 64000
| 14>
| 15> %pal nprocs 4
| 16> end
| 17>
| 18> %scf
| 19>   MaxIter 150
| 20> end
| 21>
| 22>
| 23>                          ****END OF INPUT****

CARTESIAN COORDINATES (ANGSTROEM)
---------------------------------
  C      3.766780   -2.266110   -6.511750
  C      2.496700   -1.844160   -5.735700
  H      1.626420   -2.217430   -6.308950
  H      2.481820   -2.456070   -4.793410
  O      2.459730   -0.509200   -5.505760
  H      3.829140   -1.709410   -7.423400
  H      3.717640   -3.311440   -6.734830
  H      4.631990   -2.069310   -5.913770

 Total Charge           Charge          ....   -1
 Multiplicity           Mult            ....    1
 Number of Electrons    NEL             ....   26
 Basis Dimension        Dim             ....  159

ORBITAL ENERGIES
----------------

  NO   OCC          E(Eh)            E(eV)
   0   2.0000     -18.561552      -505.0855
   1   2.0000      -9.801883      -266.7228
   2   2.0000      -9.776000      -266.0185
   3   2.0000      -0.626923       -17.0594
   4   2.0000      -0.471959       -12.8427
   5   2.0000      -0.327394        -8.9089
   6   2.0000      -0.209162        -5.6916
   7   2.0000      -0.187783        -5.1098
   8   2.0000      -0.135184        -3.6785
   9   2.0000      -0.121894        -3.3169
  10   2.0000      -0.079074        -2.1517
  11   2.0000       0.061642         1.6774
  12   2.0000       0.063748         1.7347
  13   0.0000       0.146852         3.9960
  14   0.0000       0.168887         4.5957
  15   0.0000       0.193927         5.2770
  16   0.0000       0.197233         5.3670
  17   0.0000       0.218597         5.9483

MULLIKEN ATOMIC CHARGES
-----------------------
   0 C :   -1.060676
   1 C :   -0.057118
   2 H :    0.143013
   3 H :    0.134989
   4 O :   -1.001902
   5 H :    0.243578
   6 H :    0.352605
   7 H :    0.245510
Sum of atomic charges:   -1.0000000

LOEWDIN ATOMIC CHARGES
----------------------
   0 C :   -0.171787
   1 C :   -0.620785
   2 H :    0.044156
   3 H :    0.049354
   4 O :   -0.382661
   5 H :    0.033189
   6 H :    0.016555
   7 H :    0.031978

  Mayer bond orders larger than 0.100000
B(  0-C ,  1-C ) :   0.9397 B(  0-C ,  4-O ) :   0.6187 B(  0-C ,  5-H ) :   0.9786
B(  0-C ,  6-H ) :   0.9255 B(  0-C ,  7-H ) :   0.9718 B(  1-C ,  2-H ) :   1.0557
B(  1-C ,  3-H ) :   1.0485 B(  1-C ,  4-O ) :   0.6923 B(  2-H ,  3-H ) :   0.1019
B(  4-O ,  6-H ) :  -0.1028

Dispersion correction           -0.004556868
FINAL SINGLE POINT ENERGY      -154.515597564284

DIPOLE MOMENT
-------------
                                X             Y             Z
Electronic contribution:     -1.16212       2.71056       1.03109
Nuclear contribution   :      1.63615      -3.79938      -1.48621
                        -----------------------------------------
Total Dipole Moment    :      0.47404      -1.08882      -0.45512
                        -----------------------------------------
Magnitude (a.u.)       :      1.27176
Magnitude (Debye)      :      3.23255

Rotational constants in cm-1:     1.265582     0.329289     0.289024
Rotational constants in MHz : 37941.194363  9871.829581  8664.719106

                             ****ORCA TERMINATED NORMALLY****
TOTAL RUN TIME: 0 days 0 hours 0 minutes 11 seconds 740 msec
