                         Program Version 5.0.0 -  RELEASE  -
|  1> !TPSS D3BJ RIJCOSX def2-TZVPD def2/J TightSCF
|  2> *xyz 1 1
|  3> C          4.99986       -1.59613       -5.92488
|  4> N          5.28156       -1.97413       -4.53576
|  5> C          3.76678       -2.26611       -6.51175
|  6> C          4.79250       -1.36132       -3.45730
|  7> N          3.93990       -0.37492       -3.55736
|  8> N          5.25986       -1.75422       -2.23913
|  9> H          5.92282       -2.52145       -2.18672
| 10> H          4.65468       -1.64040       -1.44202
| 11> H          5.70914       -2.87560       -4.38702
| 12> H          3.33010       -0.31764       -4.36125
| 13> H          3.69849        0.11447       -2.70833
| 14> H          4.84333       -0.51793       -5.94302
| 15> H          5.90170       -1.82250       -6.49647
| 16> H          3.63046       -1.94025       -7.52177
| 17> H          2.90710       -2.00116       -5.93240
| 18> H          3.89538       -3.32820       -6.49392
| 19> *
| 20>
| 21> %MaxCore 64000
| 22>
| 23> %pal nprocs 4
| 24> end
| 25>
| 26> %scf
| 27>   MaxIter 150
| 28> end
| 29>
| 30>
| 31>                          ****END OF INPUT****

CARTESIAN COORDINATES (ANGSTROEM)
---------------------------------
  C      4.999860   -1.596130   -5.924880
  N      5.281560   -1.974130   -4.535760
  C      3.766780   -2.266110   -6.511750
  C      4.792500   -1.361320   -3.457300
  N      3.939900   -0.374920   -3.557360
  N      5.259860   -1.754220   -2.239130
  H      5.922820   -2.521450   -2.186720
  H      4.654680   -1.640400   -1.442020
  H      5.709140   -2.875600   -4.387020
  H      3.330100   -0.317640   -4.361250
  H      3.698490    0.114470   -2.708330
  H      4.843330   -0.517930   -5.943020
  H      5.901700   -1.822500   -6.496470
  H      3.630460   -1.940250   -7.521770
  H      2.907100   -2.001160   -5.932400
  H      3.895380   -3.328200   -6.493920

 Total Charge           Charge          ....    1
 Multiplicity           Mult            ....    1
 Number of Electrons    NEL             ....   48
 Basis Dimension        Dim             ....  312

ORBITAL ENERGIES
----------------

  NO   OCC          E(Eh)            E(eV)
   0   2.0000     -14.328423      -389.8962
   1   2.0000     -14.323443      -389.7607
   2   2.0000     -14.319331      -389.6488
   3   2.0000     -10.308325      -280.5038
   4   2.0000     -10.191981      -277.3379
   5   2.0000     -10.126084      -275.5448
   6   2.0000      -1.146887       -31.2084
   7   2.0000      -1.044558       -28.4239
   8   2.0000      -1.030163       -28.0322
   9   2.0000      -0.876541       -23.8519
  10   2.0000      -0.791804       -21.5461
  11   2.0000      -0.754076       -20.5195
  12   2.0000      -0.739675       -20.1276
  13   2.0000      -0.692839       -18.8531
  14   2.0000      -0.651954       -17.7406
  15   2.0000      -0.647656       -17.6236
  16   2.0000      -0.599875       -16.3234
  17   2.0000      -0.584374       -15.9016
  18   2.0000      -0.567727       -15.4486
  19   2.0000      -0.521559       -14.1924
  20   2.0000      -0.498446       -13.5634
  21   2.0000      -0.480901       -13.0860
  22   2.0000      -0.441057       -12.0018
  23   2.0000      -0.415472       -11.3056
  24   0.0000      -0.203312        -5.5324
  25   0.0000      -0.172001        -4.6804
  26   0.0000      -0.141909        -3.8616
  27   0.0000      -0.130885        -3.5616
  28   0.0000      -0.114080        -3.1043

MULLIKEN ATOMIC CHARGES
-----------------------
   0 C :   -0.436365
   1 N :   -0.162069
   2 C :   -0.718934
   3 C :    0.736976
   4 N :   -0.313501
   5 N :   -0.393312
   6 H :    0.207006
   7 H :    0.216978
   8 H :    0.212051
   9 H :    0.210497
  10 H :    0.188094
  11 H :    0.323071
  12 H :    0.146946
  13 H :    0.257499
  14 H :    0.272811
  15 H :    0.252252
Sum of atomic charges:    1.0000000

LOEWDIN ATOMIC CHARGES
----------------------
   0 C :   -0.195288
   1 N :    0.092390
   2 C :   -0.053711
   3 C :   -0.440730
   4 N :    0.230628
   5 N :    0.199648
   6 H :    0.132572
   7 H :    0.126423
   8 H :    0.161847
   9 H :    0.132546
  10 H :    0.144045
  11 H :    0.117442
  12 H :    0.128909
  13 H :    0.082968
  14 H :    0.063924
  15 H :    0.076385

  Mayer bond orders larger than 0.100000
B(  0-C ,  1-N ) :   0.9442 B(  0-C ,  2-C ) :   0.9171 B(  0-C ,  4-N ) :   0.1269
B(  0-C , 11-H ) :   0.8554 B(  0-C , 12-H ) :   0.9793 B(  1-N ,  3-C ) :   1.1850
B(  1-N ,  8-H ) :   0.9723 B(  2-C , 13-H ) :   0.9668 B(  2-C , 14-H ) :   0.9295
B(  2-C , 15-H ) :   0.9650 B(  3-C ,  4-N ) :   1.1846 B(  3-C ,  5-N ) :   1.0592
B(  4-N ,  9-H ) :   0.9445 B(  4-N , 10-H ) :   0.9989 B(  5-N ,  6-H ) :   0.9598
B(  5-N ,  7-H ) :   0.9833

Dispersion correction           -0.015191775
FINAL SINGLE POINT ENERGY      -284.559281886317

DIPOLE MOMENT
-------------
                                X             Y             Z
Electronic contribution:      1.75602       1.09695       4.70061
Nuclear contribution   :     -1.95709      -1.20097      -3.70214
                        -----------------------------------------
Total Dipole Moment    :     -0.20107      -0.10402       0.99847
                        -----------------------------------------
Magnitude (a.u.)       :      1.02381
Magnitude (Debye)      :      2.60233

Rotational constants in cm-1:     0.241661     0.071598     0.061743
Rotational constants in MHz :  7244.800091  2146.442409  1851.001864

                             ****ORCA TERMINATED NORMALLY****
TOTAL RUN TIME: 0 days 0 hours 0 minutes 35 seconds 109 msec
