                         Program Version 5.0.0 -  RELEASE  -
|  1> !TPSS D3BJ RIJCOSX def2-TZVPD def2/J TightSCF xyzfile
|  2>
|  3> *xyzfile 0 1 B.xyz
|  4>
|  5> %MaxCore 64000
|  6>
|  7> %pal nprocs 4
|  8> end
|  9>
| 10> %scf
| 11>   MaxIter 150
| 12> end
| 13>
| 14>
| 15>                          ****END OF INPUT****

CARTESIAN COORDINATES (ANGSTROEM)
---------------------------------
  C      4.999862   -1.596133   -5.924876
  N      5.281560   -1.974132   -4.535764
  C      3.766779   -2.266110   -6.511752
  C      2.496702   -1.844161   -5.735704
  H      1.626416   -2.217434   -6.308950
  H      2.481824   -2.456069   -4.793414
  O      2.459729   -0.509204   -5.505757
  C      4.792500   -1.361316   -3.457295
  N      3.939898   -0.374925   -3.557359
  N      5.259860   -1.754224   -2.239133
  H      5.922824   -2.521451   -2.186720
  H      4.654678   -1.640404   -1.442016
  H      5.709139   -2.875599   -4.387021
  H      3.330101   -0.317639   -4.361247
  H      3.698494    0.114468   -2.708333
  H      4.843333   -0.517930   -5.943019
  H      5.901695   -1.822503   -6.496467
  H      3.886191   -3.357076   -6.533604
  H      3.685602   -1.922168   -7.547128

 Total Charge           Charge          ....    0
 Multiplicity           Mult            ....    1
 Number of Electrons    NEL             ....   64
 Basis Dimension        Dim             ....  398

ORBITAL ENERGIES
----------------

  NO   OCC          E(Eh)            E(eV)
   0   2.0000     -18.744952      -510.0761
   1   2.0000     -14.162977      -385.3942
   2   2.0000     -14.155162      -385.1816
   3   2.0000     -14.114818      -384.0837
   4   2.0000     -10.130661      -275.6693
   5   2.0000     -10.019398      -272.6417
   6   2.0000      -9.970040      -271.2986
   7   2.0000      -9.955288      -270.8972
   8   2.0000      -0.972264       -26.4567
   9   2.0000      -0.873030       -23.7563
  10   2.0000      -0.857010       -23.3204
  11   2.0000      -0.819742       -22.3063
  12   2.0000      -0.701113       -19.0783
  13   2.0000      -0.624804       -17.0018
  14   2.0000      -0.583892       -15.8885
  15   2.0000      -0.561434       -15.2774
  16   2.0000      -0.537663       -14.6305
  17   2.0000      -0.496574       -13.5125
  18   2.0000      -0.475510       -12.9393
  19   2.0000      -0.458379       -12.4731
  20   2.0000      -0.428054       -11.6479
  21   2.0000      -0.413741       -11.2585
  22   2.0000      -0.394309       -10.7297
  23   2.0000      -0.364514        -9.9189
  24   2.0000      -0.325195        -8.8490
  25   2.0000      -0.303920        -8.2701
  26   2.0000      -0.294240        -8.0067
  27   2.0000      -0.269030        -7.3207
  28   2.0000      -0.261025        -7.1029
  29   2.0000      -0.241599        -6.5743
  30   2.0000      -0.131905        -3.5893
  31   2.0000      -0.125048        -3.4027
  32   0.0000      -0.043860        -1.1935
  33   0.0000      -0.027137        -0.7384
  34   0.0000      -0.006863        -0.1867
  35   0.0000       0.008295         0.2257
  36   0.0000       0.027985         0.7615

MULLIKEN ATOMIC CHARGES
-----------------------
   0 C :   -0.439154
   1 N :   -0.220723
   2 C :   -0.112997
   3 C :   -0.227674
   4 H :    0.127602
   5 H :    0.217074
   6 O :   -0.984451
   7 C :    0.704232
   8 N :   -0.263178
   9 N :   -0.475631
  10 H :    0.173187
  11 H :    0.185804
  12 H :    0.203083
  13 H :    0.228034
  14 H :    0.142436
  15 H :    0.330320
  16 H :    0.101302
  17 H :    0.152563
  18 H :    0.158171
Sum of atomic charges:   -0.0000000

LOEWDIN ATOMIC CHARGES
----------------------
   0 C :   -0.174886
   1 N :    0.083998
   2 C :   -0.178965
   3 C :   -0.446018
   4 H :    0.091493
   5 H :    0.086867
   6 O :   -0.272809
   7 C :   -0.464843
   8 N :    0.219218
   9 N :    0.155257
  10 H :    0.107975
  11 H :    0.107668
  12 H :    0.145779
  13 H :   -0.017548
  14 H :    0.126407
  15 H :    0.118778
  16 H :    0.111031
  17 H :    0.095850
  18 H :    0.104749

  Mayer bond orders larger than 0.100000
B(  0-C ,  1-N ) :   0.9689 B(  0-C ,  2-C ) :   1.0215 B(  0-C ,  6-O ) :   0.1410
B(  0-C , 15-H ) :   0.7830 B(  0-C , 16-H ) :   0.9584 B(  1-N ,  7-C ) :   1.1491
B(  1-N , 12-H ) :   0.9672 B(  2-C ,  3-C ) :   0.9796 B(  2-C , 17-H ) :   0.9838
B(  2-C , 18-H ) :   0.8845 B(  3-C ,  4-H ) :   1.0705 B(  3-C ,  5-H ) :   0.8983
B(  3-C ,  6-O ) :   0.9025 B(  6-O , 13-H ) :   0.2212 B(  7-C ,  8-N ) :   1.2501
B(  7-C ,  9-N ) :   0.9085 B(  8-N , 13-H ) :   0.7326 B(  8-N , 14-H ) :   1.0414
B(  9-N , 10-H ) :   0.9906 B(  9-N , 11-H ) :   1.0144

Dispersion correction           -0.021769315
FINAL SINGLE POINT ENERGY      -398.725041739315

DIPOLE MOMENT
-------------
                                X             Y             Z
Electronic contribution:      1.80089       2.05106       3.59799
Nuclear contribution   :      0.51577      -3.31768      -1.36804
                        -----------------------------------------
Total Dipole Moment    :      2.31665      -1.26662       2.22996
                        -----------------------------------------
Magnitude (a.u.)       :      3.45600
Magnitude (Debye)      :      8.78444

Rotational constants in cm-1:     0.111492     0.050787     0.040163
Rotational constants in MHz :  3342.457536  1522.560798  1204.057148

                             ****ORCA TERMINATED NORMALLY****
TOTAL RUN TIME: 0 days 0 hours 0 minutes 50 seconds 153 msec
