                         Program Version 5.0.0 -  RELEASE  -
|  1> !TPSS D3BJ RIJCOSX def2-TZVPD def2/J TightSCF
|  2> *xyz 0 1
|  3> C          3.76678       -2.26611       -6.51175
|  4> C          2.49670       -1.84416       -5.73570
|  5> H          1.62642       -2.21743       -6.30895
|  6> H          2.48182       -2.45607       -4.79341
|  7> F          2.45973       -0.50920       -5.50576
|  8> H          3.82914       -1.70941       -7.42340
|  9> H          3.71764       -3.31144       -6.73483
| 10> H          4.63199       -2.06931       -5.91377
| 11> *
| 12>
| 13> %MaxCore 64000
| 14>
| 15> %pal nprocs 4
| 16> end
| 17>
| 18> %scf
| 19>   MaxIter 150
| 20> end
| 21>
| 22>
| 23>                          ****END OF INPUT****

CARTESIAN COORDINATES (ANGSTROEM)
---------------------------------
  C      3.766780   -2.266110   -6.511750
  C      2.496700   -1.844160   -5.735700
  H      1.626420   -2.217430   -6.308950
  H      2.481820   -2.456070   -4.793410
  F      2.459730   -0.509200   -5.505760
  H      3.829140   -1.709410   -7.423400
  H      3.717640   -3.311440   -6.734830
  H      4.631990   -2.069310   -5.913770

 Total Charge           Charge          ....    0
 Multiplicity           Mult            ....    1
 Number of Electrons    NEL             ....   26
 Basis Dimension        Dim             ....  159

ORBITAL ENERGIES
----------------

  NO   OCC          E(Eh)            E(eV)
   0   2.0000     -24.400595      -663.9740
   1   2.0000     -10.062988      -273.8278
   2   2.0000      -9.979915      -271.5673
   3   2.0000      -1.129876       -30.7455
   4   2.0000      -0.706657       -19.2291
   5   2.0000      -0.582171       -15.8417
   6   2.0000      -0.463520       -12.6130
   7   2.0000      -0.447374       -12.1737
   8   2.0000      -0.409805       -11.1514
   9   2.0000      -0.362985        -9.8773
  10   2.0000      -0.361621        -9.8402
  11   2.0000      -0.289999        -7.8913
  12   2.0000      -0.288681        -7.8554
  13   0.0000       0.000829         0.0226
  14   0.0000       0.027950         0.7606
  15   0.0000       0.041708         1.1349
  16   0.0000       0.047067         1.2808
  17   0.0000       0.073261         1.9935

MULLIKEN ATOMIC CHARGES
-----------------------
   0 C :   -0.737768
   1 C :    0.026181
   2 H :    0.164725
   3 H :    0.157769
   4 F :   -0.296381
   5 H :    0.211560
   6 H :    0.263168
   7 H :    0.210747
Sum of atomic charges:   -0.0000000

LOEWDIN ATOMIC CHARGES
----------------------
   0 C :   -0.075965
   1 C :   -0.301247
   2 H :    0.105159
   3 H :    0.112640
   4 F :   -0.022602
   5 H :    0.060311
   6 H :    0.062253
   7 H :    0.059450

  Mayer bond orders larger than 0.100000
B(  0-C ,  1-C ) :   1.0033 B(  0-C ,  5-H ) :   0.9588 B(  0-C ,  6-H ) :   0.9233
B(  0-C ,  7-H ) :   0.9577 B(  1-C ,  2-H ) :   0.9619 B(  1-C ,  3-H ) :   0.9579
B(  1-C ,  4-F ) :   0.7910

Dispersion correction           -0.004202250
FINAL SINGLE POINT ENERGY      -179.157449696944

DIPOLE MOMENT
-------------
                                X             Y             Z
Electronic contribution:     -2.08129       4.37573       1.81806
Nuclear contribution   :      2.16248      -5.01128      -1.96962
                        -----------------------------------------
Total Dipole Moment    :      0.08119      -0.63555      -0.15156
                        -----------------------------------------
Magnitude (a.u.)       :      0.65840
Magnitude (Debye)      :      1.67351

Rotational constants in cm-1:     1.244010     0.306580     0.270375
Rotational constants in MHz : 37294.476802  9191.037795  8105.639967

                             ****ORCA TERMINATED NORMALLY****
TOTAL RUN TIME: 0 days 0 hours 0 minutes 8 seconds 971 msec
