                         Program Version 5.0.0 -  RELEASE  -
|  1> !TPSS D3BJ RIJCOSX def2-TZVPD def2/J TightSCF
|  2> *xyz 0 1
|  3> C          4.99986       -1.59613       -5.92488
|  4> C          5.28156       -1.97413       -4.53576
|  5> C          3.76678       -2.26611       -6.51175
|  6> C          4.79250       -1.36132       -3.45730
|  7> N          3.93990       -0.37492       -3.55736
|  8> N          5.25986       -1.75422       -2.23913
|  9> H          5.92282       -2.52145       -2.18672
| 10> H          4.65468       -1.64040       -1.44202
| 11> H          5.70914       -2.87560       -4.38702
| 12> H          3.33010       -0.31764       -4.36125
| 13> H          3.69849        0.11447       -2.70833
| 14> H          4.84333       -0.51793       -5.94302
| 15> H          5.90170       -1.82250       -6.49647
| 16> H          3.63046       -1.94025       -7.52177
| 17> H          2.90710       -2.00116       -5.93240
| 18> H          3.89538       -3.32820       -6.49392
| 19> *
| 20>
| 21> %MaxCore 64000
| 22>
| 23> %pal nprocs 4
| 24> end
| 25>
| 26> %scf
| 27>   MaxIter 150
| 28> end
| 29>
| 30>
| 31>                          ****END OF INPUT****

CARTESIAN COORDINATES (ANGSTROEM)
---------------------------------
  C      4.999860   -1.596130   -5.924880
  C      5.281560   -1.974130   -4.535760
  C      3.766780   -2.266110   -6.511750
  C      4.792500   -1.361320   -3.457300
  N      3.939900   -0.374920   -3.557360
  N      5.259860   -1.754220   -2.239130
  H      5.922820   -2.521450   -2.186720
  H      4.654680   -1.640400   -1.442020
  H      5.709140   -2.875600   -4.387020
  H      3.330100   -0.317640   -4.361250
  H      3.698490    0.114470   -2.708330
  H      4.843330   -0.517930   -5.943020
  H      5.901700   -1.822500   -6.496470
  H      3.630460   -1.940250   -7.521770
  H      2.907100   -2.001160   -5.932400
  H      3.895380   -3.328200   -6.493920

 Total Charge           Charge          ....    0
 Multiplicity           Mult            ....    1
 Number of Electrons    NEL             ....   48
 Basis Dimension        Dim             ....  312

ORBITAL ENERGIES
----------------

  NO   OCC          E(Eh)            E(eV)
   0   2.0000     -14.107194      -383.8763
   1   2.0000     -14.098972      -383.6525
   2   2.0000     -10.020983      -272.6848
   3   2.0000      -9.958614      -270.9877
   4   2.0000      -9.953778      -270.8561
   5   2.0000      -9.908835      -269.6331
   6   2.0000      -0.898138       -24.4396
   7   2.0000      -0.812757       -22.1162
   8   2.0000      -0.715754       -19.4767
   9   2.0000      -0.640956       -17.4413
  10   2.0000      -0.566488       -15.4149
  11   2.0000      -0.529907       -14.4195
  12   2.0000      -0.499965       -13.6047
  13   2.0000      -0.460176       -12.5220
  14   2.0000      -0.435261       -11.8440
  15   2.0000      -0.402190       -10.9442
  16   2.0000      -0.374709       -10.1964
  17   2.0000      -0.353448        -9.6178
  18   2.0000      -0.342710        -9.3256
  19   2.0000      -0.312650        -8.5076
  20   2.0000      -0.290207        -7.8969
  21   2.0000      -0.284409        -7.7392
  22   2.0000      -0.226418        -6.1611
  23   2.0000      -0.134193        -3.6516
  24   0.0000      -0.013976        -0.3803
  25   0.0000       0.012506         0.3403
  26   0.0000       0.022837         0.6214
  27   0.0000       0.032155         0.8750
  28   0.0000       0.046710         1.2710

MULLIKEN ATOMIC CHARGES
-----------------------
   0 C :   -0.502131
   1 C :   -0.879373
   2 C :   -0.786823
   3 C :    1.064650
   4 N :   -0.434598
   5 N :   -0.533618
   6 H :    0.168501
   7 H :    0.168882
   8 H :    0.298778
   9 H :    0.170166
  10 H :    0.162802
  11 H :    0.247108
  12 H :    0.101056
  13 H :    0.215761
  14 H :    0.279195
  15 H :    0.259646
Sum of atomic charges:   -0.0000000

LOEWDIN ATOMIC CHARGES
----------------------
   0 C :   -0.277862
   1 C :   -0.133504
   2 C :   -0.104038
   3 C :   -0.546714
   4 N :    0.137658
   5 N :    0.103557
   6 H :    0.102469
   7 H :    0.082526
   8 H :    0.059847
   9 H :    0.105880
  10 H :    0.103969
  11 H :    0.093873
  12 H :    0.098898
  13 H :    0.055736
  14 H :    0.054545
  15 H :    0.063161

  Mayer bond orders larger than 0.100000
B(  0-C ,  1-C ) :   1.0643 B(  0-C ,  2-C ) :   0.7393 B(  0-C , 11-H ) :   0.9490
B(  0-C , 12-H ) :   1.0483 B(  1-C ,  3-C ) :   1.2771 B(  1-C ,  4-N ) :   0.1754
B(  1-C ,  5-N ) :   0.1796 B(  1-C ,  8-H ) :   0.9569 B(  2-C , 13-H ) :   0.9688
B(  2-C , 14-H ) :   0.9399 B(  2-C , 15-H ) :   0.9757 B(  3-C ,  4-N ) :   0.8933
B(  3-C ,  5-N ) :   0.7681 B(  3-C ,  8-H ) :  -0.1015 B(  4-N ,  9-H ) :   0.9858
B(  4-N , 10-H ) :   1.0281 B(  5-N ,  6-H ) :   0.9979 B(  5-N ,  7-H ) :   1.0441

Dispersion correction           -0.015813573
FINAL SINGLE POINT ENERGY      -268.070248296558

DIPOLE MOMENT
-------------
                                X             Y             Z
Electronic contribution:      1.24563       1.39136       4.50812
Nuclear contribution   :     -1.82485      -1.28952      -3.74132
                        -----------------------------------------
Total Dipole Moment    :     -0.57923       0.10184       0.76681
                        -----------------------------------------
Magnitude (a.u.)       :      0.96637
Magnitude (Debye)      :      2.45631

Rotational constants in cm-1:     0.245790     0.071632     0.062004
Rotational constants in MHz :  7368.599517  2147.482078  1858.844841

                             ****ORCA TERMINATED NORMALLY****
TOTAL RUN TIME: 0 days 0 hours 0 minutes 32 seconds 675 msec
