                         Program Version 5.0.0 -  RELEASE  -
|  1> !TPSS D3BJ RIJCOSX def2-TZVPD def2/J TightSCF
|  2> *xyz 0 1
|  3> C          4.99986       -1.59613       -5.92488
|  4> N          5.28156       -1.97413       -4.53576
|  5> C          3.76678       -2.26611       -6.51175
|  6> C          4.79250       -1.36132       -3.45730
|  7> C          3.93990       -0.37492       -3.55736
|  8> N          5.25986       -1.75422       -2.23913
|  9> H          5.92282       -2.52145       -2.18672
| 10> H          4.65468       -1.64040       -1.44202
| 11> H          5.70914       -2.87560       -4.38702
| 12> H          3.33010       -0.31764       -4.36125
| 13> H          3.69849        0.11447       -2.70833
| 14> H          4.84333       -0.51793       -5.94302
| 15> H          5.90170       -1.82250       -6.49647
| 16> H          3.63046       -1.94025       -7.52177
| 17> H          2.90710       -2.00116       -5.93240
| 18> H          3.89538       -3.32820       -6.49392
| 19> *
| 20>
| 21> %MaxCore 64000
| 22>
| 23> %pal nprocs 4
| 24> end
| 25>
| 26> %scf
| 27>   MaxIter 150
| 28> end
| 29>
| 30>
| 31>                          ****END OF INPUT****

CARTESIAN COORDINATES (ANGSTROEM)
---------------------------------
  C      4.999860   -1.596130   -5.924880
  N      5.281560   -1.974130   -4.535760
  C      3.766780   -2.266110   -6.511750
  C      4.792500   -1.361320   -3.457300
  C      3.939900   -0.374920   -3.557360
  N      5.259860   -1.754220   -2.239130
  H      5.922820   -2.521450   -2.186720
  H      4.654680   -1.640400   -1.442020
  H      5.709140   -2.875600   -4.387020
  H      3.330100   -0.317640   -4.361250
  H      3.698490    0.114470   -2.708330
  H      4.843330   -0.517930   -5.943020
  H      5.901700   -1.822500   -6.496470
  H      3.630460   -1.940250   -7.521770
  H      2.907100   -2.001160   -5.932400
  H      3.895380   -3.328200   -6.493920

 Total Charge           Charge          ....    0
 Multiplicity           Mult            ....    1
 Number of Electrons    NEL             ....   48
 Basis Dimension        Dim             ....  312

ORBITAL ENERGIES
----------------

  NO   OCC          E(Eh)            E(eV)
   0   2.0000     -14.102768      -383.7558
   1   2.0000     -14.099597      -383.6695
   2   2.0000     -10.021856      -272.7086
   3   2.0000     -10.016507      -272.5630
   4   2.0000      -9.970464      -271.3101
   5   2.0000      -9.898968      -269.3646
   6   2.0000      -0.896657       -24.3993
   7   2.0000      -0.819001       -22.2861
   8   2.0000      -0.701330       -19.0842
   9   2.0000      -0.661468       -17.9995
  10   2.0000      -0.587911       -15.9979
  11   2.0000      -0.517681       -14.0868
  12   2.0000      -0.495811       -13.4917
  13   2.0000      -0.468234       -12.7413
  14   2.0000      -0.415327       -11.3016
  15   2.0000      -0.405114       -11.0237
  16   2.0000      -0.382037       -10.3957
  17   2.0000      -0.357899        -9.7389
  18   2.0000      -0.345723        -9.4076
  19   2.0000      -0.334903        -9.1132
  20   2.0000      -0.317659        -8.6439
  21   2.0000      -0.307753        -8.3744
  22   2.0000      -0.212176        -5.7736
  23   2.0000      -0.143714        -3.9107
  24   0.0000      -0.011174        -0.3041
  25   0.0000       0.012042         0.3277
  26   0.0000       0.021029         0.5722
  27   0.0000       0.028694         0.7808
  28   0.0000       0.047230         1.2852

MULLIKEN ATOMIC CHARGES
-----------------------
   0 C :   -0.447880
   1 N :   -0.277428
   2 C :   -0.772218
   3 C :    0.932135
   4 C :   -1.324355
   5 N :   -0.477169
   6 H :    0.164079
   7 H :    0.188678
   8 H :    0.189188
   9 H :    0.297328
  10 H :    0.269098
  11 H :    0.365167
  12 H :    0.141568
  13 H :    0.257912
  14 H :    0.260457
  15 H :    0.233438
Sum of atomic charges:    0.0000000

LOEWDIN ATOMIC CHARGES
----------------------
   0 C :   -0.231946
   1 N :    0.016272
   2 C :   -0.080703
   3 C :   -0.557935
   4 C :    0.006452
   5 N :    0.109987
   6 H :    0.091272
   7 H :    0.096879
   8 H :    0.129482
   9 H :    0.008565
  10 H :    0.014032
  11 H :    0.106843
  12 H :    0.106928
  13 H :    0.062811
  14 H :    0.060267
  15 H :    0.060794

  Mayer bond orders larger than 0.100000
B(  0-C ,  1-N ) :   0.9119 B(  0-C ,  2-C ) :   0.8592 B(  0-C ,  4-C ) :   0.2610
B(  0-C , 11-H ) :   0.8590 B(  0-C , 12-H ) :   0.9551 B(  1-N ,  3-C ) :   1.0019
B(  1-N ,  8-H ) :   0.9926 B(  2-C , 13-H ) :   0.9471 B(  2-C , 14-H ) :   0.9769
B(  2-C , 15-H ) :   0.9658 B(  3-C ,  4-C ) :   1.2517 B(  3-C ,  5-N ) :   0.8416
B(  4-C ,  9-H ) :   0.9256 B(  4-C , 10-H ) :   1.0327 B(  5-N ,  6-H ) :   1.0123
B(  5-N ,  7-H ) :   1.0017

Dispersion correction           -0.015758979
FINAL SINGLE POINT ENERGY      -268.065660728461

DIPOLE MOMENT
-------------
                                X             Y             Z
Electronic contribution:      2.40668      -0.07283       3.49148
Nuclear contribution   :     -2.10948      -0.95026      -3.53375
                        -----------------------------------------
Total Dipole Moment    :      0.29721      -1.02309      -0.04227
                        -----------------------------------------
Magnitude (a.u.)       :      1.06622
Magnitude (Debye)      :      2.71012

Rotational constants in cm-1:     0.255209     0.072067     0.062929
Rotational constants in MHz :  7650.964615  2160.525743  1886.569524

                             ****ORCA TERMINATED NORMALLY****
TOTAL RUN TIME: 0 days 0 hours 0 minutes 33 seconds 689 msec
