                         Program Version 5.0.0 -  RELEASE  -
|  1> !TPSS D3BJ RIJCOSX def2-TZVPD def2/J TightSCF
|  2> *xyz 0 1
|  3> C          4.99986       -1.59613       -5.92488
|  4> N          5.28156       -1.97413       -4.53576
|  5> C          3.76678       -2.26611       -6.51175
|  6> C          4.79250       -1.36132       -3.45730
|  7> N          3.93990       -0.37492       -3.55736
|  8> C          5.25986       -1.75422       -2.23913
|  9> H          5.92282       -2.52145       -2.18672
| 10> H          4.65468       -1.64040       -1.44202
| 11> H          5.70914       -2.87560       -4.38702
| 12> H          3.33010       -0.31764       -4.36125
| 13> H          3.69849        0.11447       -2.70833
| 14> H          4.84333       -0.51793       -5.94302
| 15> H          5.90170       -1.82250       -6.49647
| 16> H          3.63046       -1.94025       -7.52177
| 17> H          2.90710       -2.00116       -5.93240
| 18> H          3.89538       -3.32820       -6.49392
| 19> *
| 20>
| 21> %MaxCore 64000
| 22>
| 23> %pal nprocs 4
| 24> end
| 25>
| 26> %scf
| 27>   MaxIter 150
| 28> end
| 29>
| 30>
| 31>                          ****END OF INPUT****

CARTESIAN COORDINATES (ANGSTROEM)
---------------------------------
  C      4.999860   -1.596130   -5.924880
  N      5.281560   -1.974130   -4.535760
  C      3.766780   -2.266110   -6.511750
  C      4.792500   -1.361320   -3.457300
  N      3.939900   -0.374920   -3.557360
  C      5.259860   -1.754220   -2.239130
  H      5.922820   -2.521450   -2.186720
  H      4.654680   -1.640400   -1.442020
  H      5.709140   -2.875600   -4.387020
  H      3.330100   -0.317640   -4.361250
  H      3.698490    0.114470   -2.708330
  H      4.843330   -0.517930   -5.943020
  H      5.901700   -1.822500   -6.496470
  H      3.630460   -1.940250   -7.521770
  H      2.907100   -2.001160   -5.932400
  H      3.895380   -3.328200   -6.493920

 Total Charge           Charge          ....    0
 Multiplicity           Mult            ....    1
 Number of Electrons    NEL             ....   48
 Basis Dimension        Dim             ....  312

ORBITAL ENERGIES
----------------

  NO   OCC          E(Eh)            E(eV)
   0   2.0000     -14.106831      -383.8664
   1   2.0000     -14.103029      -383.7629
   2   2.0000     -10.025707      -272.8134
   3   2.0000     -10.024852      -272.7901
   4   2.0000      -9.980946      -271.5953
   5   2.0000      -9.895674      -269.2750
   6   2.0000      -0.906738       -24.6736
   7   2.0000      -0.829726       -22.5780
   8   2.0000      -0.717160       -19.5149
   9   2.0000      -0.643457       -17.5094
  10   2.0000      -0.579985       -15.7822
  11   2.0000      -0.555200       -15.1078
  12   2.0000      -0.499973       -13.6050
  13   2.0000      -0.455573       -12.3968
  14   2.0000      -0.440753       -11.9935
  15   2.0000      -0.405994       -11.0477
  16   2.0000      -0.388704       -10.5772
  17   2.0000      -0.365175        -9.9369
  18   2.0000      -0.347234        -9.4487
  19   2.0000      -0.329586        -8.9685
  20   2.0000      -0.328754        -8.9459
  21   2.0000      -0.309294        -8.4163
  22   2.0000      -0.219026        -5.9600
  23   2.0000      -0.131228        -3.5709
  24   0.0000      -0.014262        -0.3881
  25   0.0000       0.014549         0.3959
  26   0.0000       0.017275         0.4701
  27   0.0000       0.022951         0.6245
  28   0.0000       0.042530         1.1573

MULLIKEN ATOMIC CHARGES
-----------------------
   0 C :   -0.404995
   1 N :   -0.243698
   2 C :   -0.776848
   3 C :    0.882710
   4 N :   -0.433395
   5 C :   -1.292766
   6 H :    0.262282
   7 H :    0.284224
   8 H :    0.161761
   9 H :    0.175954
  10 H :    0.163093
  11 H :    0.331133
  12 H :    0.139575
  13 H :    0.251579
  14 H :    0.272332
  15 H :    0.227060
Sum of atomic charges:    0.0000000

LOEWDIN ATOMIC CHARGES
----------------------
   0 C :   -0.234641
   1 N :    0.026756
   2 C :   -0.084113
   3 C :   -0.571568
   4 N :    0.133184
   5 C :   -0.003865
   6 H :   -0.002242
   7 H :   -0.007972
   8 H :    0.139396
   9 H :    0.095556
  10 H :    0.115419
  11 H :    0.103697
  12 H :    0.107817
  13 H :    0.062293
  14 H :    0.056641
  15 H :    0.063642

  Mayer bond orders larger than 0.100000
B(  0-C ,  1-N ) :   0.8988 B(  0-C ,  2-C ) :   0.8546 B(  0-C ,  4-N ) :   0.1557
B(  0-C , 11-H ) :   0.8733 B(  0-C , 12-H ) :   0.9925 B(  1-N ,  3-C ) :   1.0306
B(  1-N ,  5-C ) :   0.1267 B(  1-N ,  8-H ) :   0.9926 B(  2-C , 13-H ) :   0.9737
B(  2-C , 14-H ) :   0.9552 B(  2-C , 15-H ) :   0.9778 B(  3-C ,  4-N ) :   1.0139
B(  3-C ,  5-C ) :   1.0814 B(  4-N ,  5-C ) :   0.1242 B(  4-N ,  9-H ) :   0.9775
B(  4-N , 10-H ) :   1.0238 B(  5-C ,  6-H ) :   1.0183 B(  5-C ,  7-H ) :   1.0277

Dispersion correction           -0.015658555
FINAL SINGLE POINT ENERGY      -268.059869959498

DIPOLE MOMENT
-------------
                                X             Y             Z
Electronic contribution:      1.17109       1.24598       2.15433
Nuclear contribution   :     -1.82946      -1.24287      -3.25410
                        -----------------------------------------
Total Dipole Moment    :     -0.65837       0.00311      -1.09977
                        -----------------------------------------
Magnitude (a.u.)       :      1.28178
Magnitude (Debye)      :      3.25802

Rotational constants in cm-1:     0.244672     0.074506     0.064043
Rotational constants in MHz :  7335.067153  2233.624025  1919.970379

                             ****ORCA TERMINATED NORMALLY****
TOTAL RUN TIME: 0 days 0 hours 0 minutes 34 seconds 86 msec
