                         Program Version 5.0.0 -  RELEASE  -
|  1> !TPSS D3BJ RIJCOSX def2-TZVPD def2/J TightSCF xyzfile
|  2>
|  3> *xyzfile 0 1 D1.xyz
|  4>
|  5> %MaxCore 64000
|  6>
|  7> %pal nprocs 4
|  8> end
|  9>
| 10> %scf
| 11>   MaxIter 150
| 12> end
| 13>
| 14>
| 15>                          ****END OF INPUT****

CARTESIAN COORDINATES (ANGSTROEM)
---------------------------------
  C      4.999862   -1.596133   -5.924876
  C      5.281560   -1.974132   -4.535764
  C      3.766779   -2.266110   -6.511752
  C      2.496702   -1.844161   -5.735704
  H      1.626416   -2.217434   -6.308950
  H      2.481824   -2.456069   -4.793414
  F      2.459729   -0.509204   -5.505757
  C      4.792500   -1.361316   -3.457295
  N      3.939898   -0.374925   -3.557359
  N      5.259860   -1.754224   -2.239133
  H      5.922824   -2.521451   -2.186720
  H      4.654678   -1.640404   -1.442016
  H      5.709139   -2.875599   -4.387021
  H      3.330101   -0.317639   -4.361247
  H      3.698494    0.114468   -2.708333
  H      4.843333   -0.517930   -5.943019
  H      5.901695   -1.822503   -6.496467
  H      3.886191   -3.357076   -6.533604
  H      3.685602   -1.922168   -7.547128

 Total Charge           Charge          ....    0
 Multiplicity           Mult            ....    1
 Number of Electrons    NEL             ....   64
 Basis Dimension        Dim             ....  398

ORBITAL ENERGIES
----------------

  NO   OCC          E(Eh)            E(eV)
   0   2.0000     -24.432741      -664.8487
   1   2.0000     -14.093502      -383.5037
   2   2.0000     -14.079468      -383.1218
   3   2.0000     -10.066368      -273.9198
   4   2.0000     -10.015100      -272.5247
   5   2.0000      -9.980238      -271.5761
   6   2.0000      -9.961229      -271.0588
   7   2.0000      -9.905049      -269.5301
   8   2.0000      -1.169773       -31.8312
   9   2.0000      -0.886709       -24.1286
  10   2.0000      -0.802588       -21.8395
  11   2.0000      -0.736610       -20.0442
  12   2.0000      -0.668667       -18.1954
  13   2.0000      -0.618611       -16.8333
  14   2.0000      -0.551069       -14.9953
  15   2.0000      -0.537197       -14.6179
  16   2.0000      -0.496302       -13.5051
  17   2.0000      -0.480291       -13.0694
  18   2.0000      -0.465862       -12.6767
  19   2.0000      -0.453524       -12.3410
  20   2.0000      -0.439132       -11.9494
  21   2.0000      -0.412413       -11.2223
  22   2.0000      -0.380613       -10.3570
  23   2.0000      -0.361373        -9.8335
  24   2.0000      -0.353240        -9.6121
  25   2.0000      -0.330002        -8.9798
  26   2.0000      -0.309978        -8.4349
  27   2.0000      -0.297791        -8.1033
  28   2.0000      -0.289200        -7.8695
  29   2.0000      -0.278711        -7.5841
  30   2.0000      -0.215466        -5.8631
  31   2.0000      -0.130579        -3.5532
  32   0.0000      -0.007355        -0.2001
  33   0.0000       0.009333         0.2540
  34   0.0000       0.019313         0.5255
  35   0.0000       0.023755         0.6464
  36   0.0000       0.037442         1.0189

MULLIKEN ATOMIC CHARGES
-----------------------
   0 C :   -0.353176
   1 C :   -1.250444
   2 C :   -0.140469
   3 C :   -0.107617
   4 H :    0.132457
   5 H :    0.274652
   6 F :   -0.367642
   7 C :    1.253664
   8 N :   -0.464588
   9 N :   -0.567957
  10 H :    0.156963
  11 H :    0.164686
  12 H :    0.267236
  13 H :    0.269343
  14 H :    0.123288
  15 H :    0.265898
  16 H :    0.048563
  17 H :    0.191621
  18 H :    0.103520
Sum of atomic charges:    0.0000000

LOEWDIN ATOMIC CHARGES
----------------------
   0 C :   -0.227904
   1 C :   -0.127108
   2 C :   -0.169071
   3 C :   -0.222288
   4 H :    0.114957
   5 H :    0.127845
   6 F :   -0.014378
   7 C :   -0.542398
   8 N :    0.153102
   9 N :    0.106030
  10 H :    0.100167
  11 H :    0.082291
  12 H :    0.059256
  13 H :    0.028729
  14 H :    0.106927
  15 H :    0.105489
  16 H :    0.104261
  17 H :    0.115130
  18 H :    0.098963

  Mayer bond orders larger than 0.100000
B(  0-C ,  1-C ) :   1.0582 B(  0-C ,  2-C ) :   0.8515 B(  0-C , 15-H ) :   0.8542
B(  0-C , 16-H ) :   1.0937 B(  1-C ,  3-C ) :   0.1827 B(  1-C ,  7-C ) :   1.0656
B(  1-C ,  8-N ) :   0.2062 B(  1-C ,  9-N ) :   0.1532 B(  1-C , 12-H ) :   1.0556
B(  2-C ,  3-C ) :   1.0808 B(  2-C , 17-H ) :   0.9423 B(  2-C , 18-H ) :   0.9106
B(  3-C ,  4-H ) :   0.9750 B(  3-C ,  5-H ) :   0.8822 B(  3-C ,  6-F ) :   0.7176
B(  7-C ,  8-N ) :   0.8438 B(  7-C ,  9-N ) :   0.7141 B(  7-C , 12-H ) :  -0.1493
B(  8-N , 13-H ) :   0.8389 B(  8-N , 14-H ) :   1.0635 B(  9-N , 10-H ) :   1.0122
B(  9-N , 11-H ) :   1.0529

Dispersion correction           -0.021743583
FINAL SINGLE POINT ENERGY      -406.679832939205

DIPOLE MOMENT
-------------
                                X             Y             Z
Electronic contribution:     -3.32005       4.03030       0.79029
Nuclear contribution   :      2.63975      -4.51113      -0.34926
                        -----------------------------------------
Total Dipole Moment    :     -0.68030      -0.48083       0.44103
                        -----------------------------------------
Magnitude (a.u.)       :      0.94261
Magnitude (Debye)      :      2.39593

Rotational constants in cm-1:     0.109429     0.049838     0.039337
Rotational constants in MHz :  3280.611039  1494.113088  1179.280063

                             ****ORCA TERMINATED NORMALLY****
TOTAL RUN TIME: 0 days 0 hours 0 minutes 48 seconds 460 msec
