                         Program Version 5.0.0 -  RELEASE  -
|  1> !TPSS D3BJ RIJCOSX def2-TZVPD def2/J TightSCF xyzfile
|  2>
|  3> *xyzfile 0 1 D2.xyz
|  4>
|  5> %MaxCore 64000
|  6>
|  7> %pal nprocs 4
|  8> end
|  9>
| 10> %scf
| 11>   MaxIter 150
| 12> end
| 13>
| 14>
| 15>                          ****END OF INPUT****

CARTESIAN COORDINATES (ANGSTROEM)
---------------------------------
  C      4.999862   -1.596133   -5.924876
  N      5.281560   -1.974132   -4.535764
  C      3.766779   -2.266110   -6.511752
  C      2.496702   -1.844161   -5.735704
  H      1.626416   -2.217434   -6.308950
  H      2.481824   -2.456069   -4.793414
  F      2.459729   -0.509204   -5.505757
  C      4.792500   -1.361316   -3.457295
  C      3.939898   -0.374925   -3.557359
  N      5.259860   -1.754224   -2.239133
  H      5.922824   -2.521451   -2.186720
  H      4.654678   -1.640404   -1.442016
  H      5.709139   -2.875599   -4.387021
  H      3.330101   -0.317639   -4.361247
  H      3.698494    0.114468   -2.708333
  H      4.843333   -0.517930   -5.943019
  H      5.901695   -1.822503   -6.496467
  H      3.886191   -3.357076   -6.533604
  H      3.685602   -1.922168   -7.547128

 Total Charge           Charge          ....    0
 Multiplicity           Mult            ....    1
 Number of Electrons    NEL             ....   64
 Basis Dimension        Dim             ....  398

ORBITAL ENERGIES
----------------

  NO   OCC          E(Eh)            E(eV)
   0   2.0000     -24.410344      -664.2392
   1   2.0000     -14.100080      -383.6827
   2   2.0000     -14.092011      -383.4631
   3   2.0000     -10.065618      -273.8994
   4   2.0000     -10.019297      -272.6389
   5   2.0000     -10.011424      -272.4247
   6   2.0000      -9.995499      -271.9914
   7   2.0000      -9.874112      -268.6883
   8   2.0000      -1.149745       -31.2861
   9   2.0000      -0.892204       -24.2781
  10   2.0000      -0.815294       -22.1853
  11   2.0000      -0.727913       -19.8075
  12   2.0000      -0.656326       -17.8595
  13   2.0000      -0.639611       -17.4047
  14   2.0000      -0.563800       -15.3418
  15   2.0000      -0.520194       -14.1552
  16   2.0000      -0.499387       -13.5890
  17   2.0000      -0.469515       -12.7762
  18   2.0000      -0.468022       -12.7355
  19   2.0000      -0.451918       -12.2973
  20   2.0000      -0.434339       -11.8190
  21   2.0000      -0.414412       -11.2767
  22   2.0000      -0.381214       -10.3734
  23   2.0000      -0.365660        -9.9501
  24   2.0000      -0.347424        -9.4539
  25   2.0000      -0.337519        -9.1843
  26   2.0000      -0.324583        -8.8324
  27   2.0000      -0.304756        -8.2928
  28   2.0000      -0.294079        -8.0023
  29   2.0000      -0.264282        -7.1915
  30   2.0000      -0.208708        -5.6792
  31   2.0000      -0.133596        -3.6353
  32   0.0000      -0.013579        -0.3695
  33   0.0000       0.007152         0.1946
  34   0.0000       0.015810         0.4302
  35   0.0000       0.023224         0.6320
  36   0.0000       0.037180         1.0117

MULLIKEN ATOMIC CHARGES
-----------------------
   0 C :   -0.505628
   1 N :   -0.324601
   2 C :   -0.113764
   3 C :   -0.159353
   4 H :    0.127823
   5 H :    0.300513
   6 F :   -0.299241
   7 C :    1.063659
   8 C :   -1.766327
   9 N :   -0.540819
  10 H :    0.155441
  11 H :    0.175111
  12 H :    0.176700
  13 H :    0.677442
  14 H :    0.269002
  15 H :    0.363824
  16 H :    0.110813
  17 H :    0.126878
  18 H :    0.162526
Sum of atomic charges:   -0.0000000

LOEWDIN ATOMIC CHARGES
----------------------
   0 C :   -0.181399
   1 N :    0.027025
   2 C :   -0.152219
   3 C :   -0.225402
   4 H :    0.114605
   5 H :    0.127182
   6 F :   -0.031673
   7 C :   -0.552257
   8 C :    0.024682
   9 N :    0.107385
  10 H :    0.087354
  11 H :    0.095365
  12 H :    0.129045
  13 H :   -0.039651
  14 H :    0.023702
  15 H :    0.118458
  16 H :    0.112288
  17 H :    0.111199
  18 H :    0.104312

  Mayer bond orders larger than 0.100000
B(  0-C ,  1-N ) :   0.9578 B(  0-C ,  2-C ) :   0.9995 B(  0-C ,  8-C ) :   0.1886
B(  0-C , 15-H ) :   0.7846 B(  0-C , 16-H ) :   0.9822 B(  1-N ,  7-C ) :   0.9332
B(  1-N , 12-H ) :   1.0089 B(  2-C ,  3-C ) :   1.1151 B(  2-C , 17-H ) :   0.9647
B(  2-C , 18-H ) :   0.9031 B(  3-C ,  4-H ) :   0.9767 B(  3-C ,  5-H ) :   0.8632
B(  3-C ,  6-F ) :   0.7580 B(  3-C ,  8-C ) :   0.1337 B(  6-F ,  8-C ) :   0.1295
B(  6-F , 13-H ) :  -0.2976 B(  7-C ,  8-C ) :   0.9361 B(  7-C ,  9-N ) :   0.7388
B(  8-C ,  9-N ) :   0.1046 B(  8-C , 13-H ) :   0.7074 B(  8-C , 14-H ) :   1.0854
B(  9-N , 10-H ) :   1.0295 B(  9-N , 11-H ) :   1.0215

Dispersion correction           -0.021693307
FINAL SINGLE POINT ENERGY      -406.651099860564

DIPOLE MOMENT
-------------
                                X             Y             Z
Electronic contribution:     -2.27564       2.75221      -0.13912
Nuclear contribution   :      2.43398      -4.26587      -0.19921
                        -----------------------------------------
Total Dipole Moment    :      0.15835      -1.51366      -0.33833
                        -----------------------------------------
Magnitude (a.u.)       :      1.55907
Magnitude (Debye)      :      3.96284

Rotational constants in cm-1:     0.110089     0.049944     0.039407
Rotational constants in MHz :  3300.378855  1497.273856  1181.385913

                             ****ORCA TERMINATED NORMALLY****
TOTAL RUN TIME: 0 days 0 hours 0 minutes 45 seconds 956 msec
