                         Program Version 5.0.0 -  RELEASE  -
|  1> !TPSS D3BJ RIJCOSX def2-TZVPD def2/J TightSCF xyzfile
|  2>
|  3> *xyzfile 0 1 D3.xyz
|  4>
|  5> %MaxCore 64000
|  6>
|  7> %pal nprocs 4
|  8> end
|  9>
| 10> %scf
| 11>   MaxIter 150
| 12> end
| 13>
| 14>
| 15>                          ****END OF INPUT****

CARTESIAN COORDINATES (ANGSTROEM)
---------------------------------
  C      4.999862   -1.596133   -5.924876
  N      5.281560   -1.974132   -4.535764
  C      3.766779   -2.266110   -6.511752
  C      2.496702   -1.844161   -5.735704
  H      1.626416   -2.217434   -6.308950
  H      2.481824   -2.456069   -4.793414
  F      2.459729   -0.509204   -5.505757
  C      4.792500   -1.361316   -3.457295
  N      3.939898   -0.374925   -3.557359
  C      5.259860   -1.754224   -2.239133
  H      5.922824   -2.521451   -2.186720
  H      4.654678   -1.640404   -1.442016
  H      5.709139   -2.875599   -4.387021
  H      3.330101   -0.317639   -4.361247
  H      3.698494    0.114468   -2.708333
  H      4.843333   -0.517930   -5.943019
  H      5.901695   -1.822503   -6.496467
  H      3.886191   -3.357076   -6.533604
  H      3.685602   -1.922168   -7.547128

 Total Charge           Charge          ....    0
 Multiplicity           Mult            ....    1
 Number of Electrons    NEL             ....   64
 Basis Dimension        Dim             ....  398

ORBITAL ENERGIES
----------------

  NO   OCC          E(Eh)            E(eV)
   0   2.0000     -24.446795      -665.2311
   1   2.0000     -14.100867      -383.7041
   2   2.0000     -14.077362      -383.0645
   3   2.0000     -10.085317      -274.4354
   4   2.0000     -10.027384      -272.8590
   5   2.0000     -10.016267      -272.5565
   6   2.0000     -10.007124      -272.3077
   7   2.0000      -9.886351      -269.0213
   8   2.0000      -1.184187       -32.2234
   9   2.0000      -0.898113       -24.4389
  10   2.0000      -0.820881       -22.3373
  11   2.0000      -0.742858       -20.2142
  12   2.0000      -0.673528       -18.3276
  13   2.0000      -0.618793       -16.8382
  14   2.0000      -0.570998       -15.5377
  15   2.0000      -0.548134       -14.9155
  16   2.0000      -0.523613       -14.2482
  17   2.0000      -0.496067       -13.4987
  18   2.0000      -0.467495       -12.7212
  19   2.0000      -0.456043       -12.4096
  20   2.0000      -0.430763       -11.7216
  21   2.0000      -0.426785       -11.6134
  22   2.0000      -0.391641       -10.6571
  23   2.0000      -0.382652       -10.4125
  24   2.0000      -0.348064        -9.4713
  25   2.0000      -0.339984        -9.2514
  26   2.0000      -0.334209        -9.0943
  27   2.0000      -0.315791        -8.5931
  28   2.0000      -0.306101        -8.3294
  29   2.0000      -0.301026        -8.1913
  30   2.0000      -0.210222        -5.7204
  31   2.0000      -0.122558        -3.3350
  32   0.0000      -0.014337        -0.3901
  33   0.0000       0.007752         0.2109
  34   0.0000       0.012543         0.3413
  35   0.0000       0.014572         0.3965
  36   0.0000       0.037873         1.0306

MULLIKEN ATOMIC CHARGES
-----------------------
   0 C :   -0.450990
   1 N :   -0.276617
   2 C :   -0.136842
   3 C :   -0.127005
   4 H :    0.138735
   5 H :    0.268805
   6 F :   -0.367962
   7 C :    0.833127
   8 N :   -0.454078
   9 C :   -1.350496
  10 H :    0.290384
  11 H :    0.298697
  12 H :    0.164830
  13 H :    0.300273
  14 H :    0.120882
  15 H :    0.338543
  16 H :    0.102368
  17 H :    0.137395
  18 H :    0.169951
Sum of atomic charges:   -0.0000000

LOEWDIN ATOMIC CHARGES
----------------------
   0 C :   -0.184158
   1 N :    0.037869
   2 C :   -0.152828
   3 C :   -0.218288
   4 H :    0.118543
   5 H :    0.132061
   6 F :   -0.013718
   7 C :   -0.572810
   8 N :    0.150168
   9 C :   -0.009294
  10 H :   -0.007077
  11 H :   -0.010161
  12 H :    0.139731
  13 H :    0.024097
  14 H :    0.118186
  15 H :    0.114606
  16 H :    0.113204
  17 H :    0.114866
  18 H :    0.105003

  Mayer bond orders larger than 0.100000
B(  0-C ,  1-N ) :   0.9228 B(  0-C ,  2-C ) :   0.9868 B(  0-C , 15-H ) :   0.8026
B(  0-C , 16-H ) :   1.0165 B(  1-N ,  7-C ) :   0.9965 B(  1-N ,  9-C ) :   0.1456
B(  1-N , 12-H ) :   0.9850 B(  2-C ,  3-C ) :   1.1122 B(  2-C , 17-H ) :   0.9520
B(  2-C , 18-H ) :   0.9294 B(  3-C ,  4-H ) :   0.9784 B(  3-C ,  5-H ) :   0.8802
B(  3-C ,  6-F ) :   0.7299 B(  7-C ,  8-N ) :   0.9944 B(  7-C ,  9-C ) :   1.0832
B(  8-N ,  9-C ) :   0.1362 B(  8-N , 13-H ) :   0.8019 B(  8-N , 14-H ) :   1.0536
B(  9-C , 10-H ) :   0.9890 B(  9-C , 11-H ) :   1.0061

Dispersion correction           -0.021536407
FINAL SINGLE POINT ENERGY      -406.664813770237

DIPOLE MOMENT
-------------
                                X             Y             Z
Electronic contribution:     -3.48420       3.90523      -1.49306
Nuclear contribution   :      2.63642      -4.47741       0.00296
                        -----------------------------------------
Total Dipole Moment    :     -0.84778      -0.57218      -1.49010
                        -----------------------------------------
Magnitude (a.u.)       :      1.80735
Magnitude (Debye)      :      4.59393

Rotational constants in cm-1:     0.108041     0.051979     0.040387
Rotational constants in MHz :  3238.993235  1558.297571  1210.782552

                             ****ORCA TERMINATED NORMALLY****
TOTAL RUN TIME: 0 days 0 hours 0 minutes 43 seconds 266 msec
