                         Program Version 5.0.0 -  RELEASE  -
|  1> !BLYP D3BJ RIJCOSX def2-SVPD def2/J TightSCF
|  2> *xyz -1 1
|  3> C          0.61188        1.65763       -4.50029
|  4> C          1.69499        1.54179       -5.57045
|  5> H          2.69733        1.73466       -5.18400
|  6> H          1.50666        2.27224       -6.35808
|  7> S          1.78029       -0.03313       -6.42874
|  8> O          2.56929        0.21366       -7.60736
|  9> O          0.41688       -0.46297       -6.61859
| 10> C          0.68036        0.65542       -3.34804
| 11> H         -0.35687        1.54923       -4.99113
| 12> H          0.65023        2.67544       -4.09600
| 13> O          2.50513       -0.93326       -5.48257
| 14> H          0.64318       -0.34009       -3.73853
| 15> H         -0.14865        0.81153       -2.68980
| 16> H          1.59447        0.79330       -2.80925
| 17> *
| 18> %MaxCore 64000
| 19>
| 20> %pal nprocs 8
| 21> end
| 22>
| 23> %scf
| 24>   MaxIter 150
| 25> end
| 26>
| 27>
| 28>                          ****END OF INPUT****

CARTESIAN COORDINATES (ANGSTROEM)
---------------------------------
  C      0.611880    1.657630   -4.500290
  C      1.694990    1.541790   -5.570450
  H      2.697330    1.734660   -5.184000
  H      1.506660    2.272240   -6.358080
  S      1.780290   -0.033130   -6.428740
  O      2.569290    0.213660   -7.607360
  O      0.416880   -0.462970   -6.618590
  C      0.680360    0.655420   -3.348040
  H     -0.356870    1.549230   -4.991130
  H      0.650230    2.675440   -4.096000
  O      2.505130   -0.933260   -5.482570
  H      0.643180   -0.340090   -3.738530
  H     -0.148650    0.811530   -2.689800
  H      1.594470    0.793300   -2.809250

 Total Charge           Charge          ....   -1
 Multiplicity           Mult            ....    1
 Number of Electrons    NEL             ....   66
 Basis Dimension        Dim             ....  212

ORBITAL ENERGIES
----------------

  NO   OCC          E(Eh)            E(eV)
   0   2.0000     -88.129891     -2398.1363
   1   2.0000     -18.575716      -505.4709
   2   2.0000     -18.573957      -505.4231
   3   2.0000     -18.556455      -504.9468
   4   2.0000      -9.792026      -266.4546
   5   2.0000      -9.783285      -266.2167
   6   2.0000      -9.774955      -265.9900
   7   2.0000      -7.666601      -208.6188
   8   2.0000      -5.701783      -155.1534
   9   2.0000      -5.701551      -155.1471
  10   2.0000      -5.700819      -155.1272
  11   2.0000      -0.837273       -22.7833
  12   2.0000      -0.706926       -19.2364
  13   2.0000      -0.673983       -18.3400
  14   2.0000      -0.571326       -15.5466
  15   2.0000      -0.489590       -13.3224
  16   2.0000      -0.401456       -10.9242
  17   2.0000      -0.318816        -8.6754
  18   2.0000      -0.275684        -7.5017
  19   2.0000      -0.266057        -7.2398
  20   2.0000      -0.240993        -6.5577
  21   2.0000      -0.228972        -6.2307
  22   2.0000      -0.206922        -5.6306
  23   2.0000      -0.199534        -5.4296
  24   2.0000      -0.177915        -4.8413
  25   2.0000      -0.171742        -4.6733
  26   2.0000      -0.158590        -4.3154
  27   2.0000      -0.102242        -2.7821
  28   2.0000      -0.101036        -2.7493
  29   2.0000      -0.071810        -1.9540
  30   2.0000      -0.067518        -1.8373
  31   2.0000      -0.048808        -1.3281
  32   2.0000      -0.017579        -0.4784
  33   0.0000       0.119123         3.2415
  34   0.0000       0.145365         3.9556
  35   0.0000       0.153776         4.1844
  36   0.0000       0.161710         4.4003
  37   0.0000       0.181819         4.9475

MULLIKEN ATOMIC CHARGES
-----------------------
   0 C :    0.009346
   1 C :    0.325252
   2 H :   -0.165590
   3 H :   -0.177334
   4 S :    1.114933
   5 O :   -0.741815
   6 O :   -0.734896
   7 C :    1.205828
   8 H :   -0.131192
   9 H :   -0.315017
  10 O :   -0.775861
  11 H :   -0.211978
  12 H :   -0.238608
  13 H :   -0.163069
Sum of atomic charges:   -1.0000000

LOEWDIN ATOMIC CHARGES
----------------------
   0 C :   -0.088189
   1 C :   -0.090658
   2 H :    0.001599
   3 H :   -0.006940
   4 S :    0.814594
   5 O :   -0.551760
   6 O :   -0.545837
   7 C :    0.133969
   8 H :    0.007725
   9 H :   -0.000273
  10 O :   -0.576724
  11 H :   -0.033054
  12 H :   -0.039172
  13 H :   -0.025279

  Mayer bond orders larger than 0.100000
B(  0-C ,  1-C ) :   1.2509 B(  0-C ,  2-H ) :   0.1681 B(  0-C ,  3-H ) :   0.1880
B(  0-C ,  7-C ) :   1.2627 B(  0-C ,  8-H ) :   0.8010 B(  0-C ,  9-H ) :   0.7464
B(  0-C , 11-H ) :   0.2903 B(  0-C , 12-H ) :   0.2908 B(  0-C , 13-H ) :   0.2921
B(  1-C ,  2-H ) :   0.8466 B(  1-C ,  3-H ) :   0.8285 B(  1-C ,  4-S ) :   0.8855
B(  1-C ,  8-H ) :   0.1776 B(  1-C ,  9-H ) :   0.2089 B(  4-S ,  5-O ) :   1.4002
B(  4-S ,  6-O ) :   1.3192 B(  4-S , 10-O ) :   1.2768 B(  7-C ,  8-H ) :   0.1174
B(  7-C , 11-H ) :   0.6961 B(  7-C , 12-H ) :   0.6092 B(  7-C , 13-H ) :   0.6373
B( 11-H , 13-H ) :   0.1156

Dispersion correction           -0.027981787
FINAL SINGLE POINT ENERGY      -741.976161015796

DIPOLE MOMENT
-------------
                                X             Y             Z
Electronic contribution:      3.18592      -5.30704      -8.63300
Nuclear contribution   :     -3.81113       6.97418       9.97106
                        -----------------------------------------
Total Dipole Moment    :     -0.62521       1.66714       1.33806
                        -----------------------------------------
Magnitude (a.u.)       :      2.22725
Magnitude (Debye)      :      5.66122

Rotational constants in cm-1:     0.136135     0.055477     0.052562
Rotational constants in MHz :  4081.221574  1663.170947  1575.772362

                             ****ORCA TERMINATED NORMALLY****
TOTAL RUN TIME: 0 days 0 hours 0 minutes 5 seconds 763 msec
