                         Program Version 5.0.0 -  RELEASE  -
|  1> !BLYP D3BJ RIJCOSX def2-SVPD def2/J TightSCF
|  2> *xyz 1 1
|  3> C          1.96337       -1.74915       -1.89689
|  4> N          2.73849       -2.01517       -3.09711
|  5> C          4.04974       -2.15472       -3.15204
|  6> N          4.65821       -1.98629       -4.31866
|  7> N          4.76423       -2.45444       -2.05049
|  8> H          4.28736       -2.77626       -1.21750
|  9> H          5.75082       -2.65835       -2.12599
| 10> H          2.34518       -1.69027       -3.97145
| 11> H          4.10900       -1.59268       -5.07176
| 12> H          5.64910       -2.15646       -4.42724
| 13> C          2.08852       -0.30091       -1.41520
| 14> H          2.23127       -2.45162       -1.10264
| 15> H          0.93025       -1.97780       -2.15544
| 16> C          1.96899        0.73358       -2.53565
| 17> H          3.05136       -0.16860       -0.91187
| 18> H          1.31650       -0.13623       -0.65725
| 19> H          2.73046        0.55745       -3.26643
| 20> H          2.08619        1.71595       -2.12808
| 21> H          1.00672        0.65098       -2.99620
| 22> *
| 23> %MaxCore 64000
| 24>
| 25> %pal nprocs 8
| 26> end
| 27>
| 28> %scf
| 29>   MaxIter 150
| 30> end
| 31>
| 32>
| 33>                          ****END OF INPUT****

CARTESIAN COORDINATES (ANGSTROEM)
---------------------------------
  C      1.963370   -1.749150   -1.896890
  N      2.738490   -2.015170   -3.097110
  C      4.049740   -2.154720   -3.152040
  N      4.658210   -1.986290   -4.318660
  N      4.764230   -2.454440   -2.050490
  H      4.287360   -2.776260   -1.217500
  H      5.750820   -2.658350   -2.125990
  H      2.345180   -1.690270   -3.971450
  H      4.109000   -1.592680   -5.071760
  H      5.649100   -2.156460   -4.427240
  C      2.088520   -0.300910   -1.415200
  H      2.231270   -2.451620   -1.102640
  H      0.930250   -1.977800   -2.155440
  C      1.968990    0.733580   -2.535650
  H      3.051360   -0.168600   -0.911870
  H      1.316500   -0.136230   -0.657250
  H      2.730460    0.557450   -3.266430
  H      2.086190    1.715950   -2.128080
  H      1.006720    0.650980   -2.996200

 Total Charge           Charge          ....    1
 Multiplicity           Mult            ....    1
 Number of Electrons    NEL             ....   56
 Basis Dimension        Dim             ....  236

ORBITAL ENERGIES
----------------

  NO   OCC          E(Eh)            E(eV)
   0   2.0000     -14.246388      -387.6639
   1   2.0000     -14.243841      -387.5946
   2   2.0000     -14.242244      -387.5512
   3   2.0000     -10.244983      -278.7802
   4   2.0000     -10.123942      -275.4865
   5   2.0000     -10.065238      -273.8891
   6   2.0000     -10.043747      -273.3043
   7   2.0000      -1.114728       -30.3333
   8   2.0000      -1.011073       -27.5127
   9   2.0000      -0.999518       -27.1983
  10   2.0000      -0.856840       -23.3158
  11   2.0000      -0.789680       -21.4883
  12   2.0000      -0.757889       -20.6232
  13   2.0000      -0.723702       -19.6929
  14   2.0000      -0.706111       -19.2143
  15   2.0000      -0.664465       -18.0810
  16   2.0000      -0.639942       -17.4137
  17   2.0000      -0.633106       -17.2277
  18   2.0000      -0.602586       -16.3972
  19   2.0000      -0.572729       -15.5848
  20   2.0000      -0.550201       -14.9717
  21   2.0000      -0.534100       -14.5336
  22   2.0000      -0.501283       -13.6406
  23   2.0000      -0.461549       -12.5594
  24   2.0000      -0.451362       -12.2822
  25   2.0000      -0.439180       -11.9507
  26   2.0000      -0.428730       -11.6663
  27   2.0000      -0.404843       -11.0163
  28   0.0000      -0.198602        -5.4042
  29   0.0000      -0.179361        -4.8807
  30   0.0000      -0.148603        -4.0437
  31   0.0000      -0.135428        -3.6852
  32   0.0000      -0.114339        -3.1113

MULLIKEN ATOMIC CHARGES
-----------------------
   0 C :    1.057393
   1 N :   -0.238679
   2 C :    1.036233
   3 N :    0.182225
   4 N :    0.284817
   5 H :   -0.107179
   6 H :   -0.243252
   7 H :   -0.164184
   8 H :   -0.061125
   9 H :   -0.186819
  10 C :   -0.019253
  11 H :   -0.266608
  12 H :   -0.432768
  13 C :    1.209642
  14 H :   -0.143576
  15 H :   -0.248463
  16 H :   -0.317610
  17 H :   -0.233225
  18 H :   -0.107568
Sum of atomic charges:    1.0000000

LOEWDIN ATOMIC CHARGES
----------------------
   0 C :    0.079516
   1 N :    0.062673
   2 C :   -0.064135
   3 N :    0.285993
   4 N :    0.301195
   5 H :    0.016240
   6 H :    0.030855
   7 H :    0.046978
   8 H :    0.032524
   9 H :    0.037525
  10 C :   -0.035025
  11 H :    0.022095
  12 H :    0.038006
  13 C :    0.150777
  14 H :    0.016565
  15 H :    0.033260
  16 H :   -0.039374
  17 H :   -0.005286
  18 H :   -0.010381

  Mayer bond orders larger than 0.100000
B(  0-C ,  1-N ) :   1.0268 B(  0-C ,  2-C ) :  -0.1130 B(  0-C ,  7-H ) :  -0.1499
B(  0-C , 10-C ) :   1.0680 B(  0-C , 11-H ) :   0.7975 B(  0-C , 12-H ) :   0.5398
B(  0-C , 14-H ) :   0.1028 B(  0-C , 15-H ) :   0.1486 B(  1-N ,  2-C ) :   1.1197
B(  1-N ,  3-N ) :   0.3308 B(  1-N ,  4-N ) :   0.2248 B(  1-N ,  7-H ) :   1.1674
B(  1-N , 11-H ) :   0.1450 B(  1-N , 12-H ) :   0.3284 B(  2-C ,  3-N ) :   0.8689
B(  2-C ,  4-N ) :   1.0447 B(  2-C ,  5-H ) :  -0.1409 B(  2-C ,  6-H ) :  -0.1801
B(  2-C ,  7-H ) :  -0.2226 B(  2-C ,  8-H ) :  -0.1580 B(  2-C ,  9-H ) :  -0.1803
B(  3-N ,  4-N ) :   0.1726 B(  3-N ,  8-H ) :   1.1504 B(  3-N ,  9-H ) :   1.3058
B(  4-N ,  5-H ) :   1.0906 B(  4-N ,  6-H ) :   1.2925 B(  5-H ,  6-H ) :  -0.2353
B(  8-H ,  9-H ) :  -0.1986 B( 10-C , 11-H ) :   0.1276 B( 10-C , 12-H ) :   0.1622
B( 10-C , 13-C ) :   1.3007 B( 10-C , 14-H ) :   0.8496 B( 10-C , 15-H ) :   0.8428
B( 10-C , 16-H ) :   0.2728 B( 10-C , 17-H ) :   0.2742 B( 10-C , 18-H ) :   0.2660
B( 11-H , 12-H ) :  -0.1626 B( 13-C , 16-H ) :   0.6910 B( 13-C , 17-H ) :   0.6647
B( 13-C , 18-H ) :   0.6485 B( 16-H , 18-H ) :   0.1234

Dispersion correction           -0.032443615
FINAL SINGLE POINT ENERGY      -323.372882228968

DIPOLE MOMENT
-------------
                                X             Y             Z
Electronic contribution:      3.86684      -4.87846      -2.30414
Nuclear contribution   :     -2.72963       4.05673       1.67650
                        -----------------------------------------
Total Dipole Moment    :      1.13721      -0.82173      -0.62764
                        -----------------------------------------
Magnitude (a.u.)       :      1.53701
Magnitude (Debye)      :      3.90678

Rotational constants in cm-1:     0.140891     0.054763     0.048590
Rotational constants in MHz :  4223.814968  1641.764475  1456.690885

                             ****ORCA TERMINATED NORMALLY****
TOTAL RUN TIME: 0 days 0 hours 0 minutes 7 seconds 99 msec
