                         Program Version 5.0.0 -  RELEASE  -
|  1> !BLYP D3BJ RIJCOSX def2-SVPD def2/J TightSCF
|  2> *xyz 0 1
|  3> C          0.61188        1.65763       -4.50029
|  4> C          1.69499        1.54179       -5.57045
|  5> H          2.69733        1.73466       -5.18400
|  6> H          1.50666        2.27224       -6.35808
|  7> S          1.78029       -0.03313       -6.42874
|  8> F          2.56929        0.21366       -7.60736
|  9> O          0.41688       -0.46297       -6.61859
| 10> C          0.68036        0.65542       -3.34804
| 11> H         -0.35687        1.54923       -4.99113
| 12> H          0.65023        2.67544       -4.09600
| 13> O          2.50513       -0.93326       -5.48257
| 14> H          0.64318       -0.34009       -3.73853
| 15> H         -0.14865        0.81153       -2.68980
| 16> H          1.59447        0.79330       -2.80925
| 17> *
| 18> %MaxCore 64000
| 19>
| 20> %pal nprocs 8
| 21> end
| 22>
| 23> %scf
| 24>   MaxIter 150
| 25> end
| 26>
| 27>
| 28>                          ****END OF INPUT****

CARTESIAN COORDINATES (ANGSTROEM)
---------------------------------
  C      0.611880    1.657630   -4.500290
  C      1.694990    1.541790   -5.570450
  H      2.697330    1.734660   -5.184000
  H      1.506660    2.272240   -6.358080
  S      1.780290   -0.033130   -6.428740
  F      2.569290    0.213660   -7.607360
  O      0.416880   -0.462970   -6.618590
  C      0.680360    0.655420   -3.348040
  H     -0.356870    1.549230   -4.991130
  H      0.650230    2.675440   -4.096000
  O      2.505130   -0.933260   -5.482570
  H      0.643180   -0.340090   -3.738530
  H     -0.148650    0.811530   -2.689800
  H      1.594470    0.793300   -2.809250

 Total Charge           Charge          ....    0
 Multiplicity           Mult            ....    1
 Number of Electrons    NEL             ....   66
 Basis Dimension        Dim             ....  212

ORBITAL ENERGIES
----------------

  NO   OCC          E(Eh)            E(eV)
   0   2.0000     -88.382206     -2405.0021
   1   2.0000     -24.419033      -664.4757
   2   2.0000     -18.804531      -511.6973
   3   2.0000     -18.785454      -511.1782
   4   2.0000      -9.981211      -271.6026
   5   2.0000      -9.950406      -270.7643
   6   2.0000      -9.914846      -269.7967
   7   2.0000      -7.919969      -215.5133
   8   2.0000      -5.959273      -162.1601
   9   2.0000      -5.952872      -161.9859
  10   2.0000      -5.951137      -161.9387
  11   2.0000      -1.266551       -34.4646
  12   2.0000      -1.010982       -27.5102
  13   2.0000      -0.906171       -24.6582
  14   2.0000      -0.746753       -20.3202
  15   2.0000      -0.680289       -18.5116
  16   2.0000      -0.635832       -17.3019
  17   2.0000      -0.568088       -15.4585
  18   2.0000      -0.520298       -14.1580
  19   2.0000      -0.513924       -13.9846
  20   2.0000      -0.493031       -13.4160
  21   2.0000      -0.438740       -11.9387
  22   2.0000      -0.430322       -11.7097
  23   2.0000      -0.403888       -10.9904
  24   2.0000      -0.393101       -10.6968
  25   2.0000      -0.377202       -10.2642
  26   2.0000      -0.338192        -9.2027
  27   2.0000      -0.330092        -8.9823
  28   2.0000      -0.325285        -8.8514
  29   2.0000      -0.311993        -8.4898
  30   2.0000      -0.288680        -7.8554
  31   2.0000      -0.268122        -7.2960
  32   2.0000      -0.253697        -6.9034
  33   0.0000      -0.026692        -0.7263
  34   0.0000      -0.008249        -0.2245
  35   0.0000       0.016381         0.4458
  36   0.0000       0.020625         0.5612
  37   0.0000       0.023711         0.6452

MULLIKEN ATOMIC CHARGES
-----------------------
   0 C :    0.017705
   1 C :    0.288316
   2 H :   -0.112373
   3 H :   -0.123334
   4 S :    1.325885
   5 F :   -0.389076
   6 O :   -0.593753
   7 C :    1.226090
   8 H :   -0.115912
   9 H :   -0.288727
  10 O :   -0.635004
  11 H :   -0.231540
  12 H :   -0.217929
  13 H :   -0.150348
Sum of atomic charges:    0.0000000

LOEWDIN ATOMIC CHARGES
----------------------
   0 C :   -0.057932
   1 C :   -0.057410
   2 H :    0.021220
   3 H :    0.010848
   4 S :    1.079410
   5 F :   -0.242553
   6 O :   -0.437660
   7 C :    0.156470
   8 H :    0.022339
   9 H :    0.028246
  10 O :   -0.465979
  11 H :   -0.027631
  12 H :   -0.016802
  13 H :   -0.012565

  Mayer bond orders larger than 0.100000
B(  0-C ,  1-C ) :   1.3054 B(  0-C ,  2-H ) :   0.1585 B(  0-C ,  3-H ) :   0.1960
B(  0-C ,  7-C ) :   1.2847 B(  0-C ,  8-H ) :   0.8009 B(  0-C ,  9-H ) :   0.7433
B(  0-C , 11-H ) :   0.2770 B(  0-C , 12-H ) :   0.2807 B(  0-C , 13-H ) :   0.2833
B(  1-C ,  2-H ) :   0.8559 B(  1-C ,  3-H ) :   0.7942 B(  1-C ,  4-S ) :   0.9241
B(  1-C ,  8-H ) :   0.1729 B(  1-C ,  9-H ) :   0.2026 B(  4-S ,  5-F ) :   0.7401
B(  4-S ,  6-O ) :   1.5159 B(  4-S , 10-O ) :   1.4653 B(  6-O , 10-O ) :   0.1058
B(  7-C ,  8-H ) :   0.1137 B(  7-C , 11-H ) :   0.7013 B(  7-C , 12-H ) :   0.6117
B(  7-C , 13-H ) :   0.6406 B( 11-H , 13-H ) :   0.1080

Dispersion correction           -0.027055181
FINAL SINGLE POINT ENERGY      -766.467231066603

DIPOLE MOMENT
-------------
                                X             Y             Z
Electronic contribution:      5.09386      -5.45163     -11.96470
Nuclear contribution   :     -4.93724       7.05784      11.92827
                        -----------------------------------------
Total Dipole Moment    :      0.15661       1.60621      -0.03643
                        -----------------------------------------
Magnitude (a.u.)       :      1.61424
Magnitude (Debye)      :      4.10307

Rotational constants in cm-1:     0.134572     0.053398     0.050578
Rotational constants in MHz :  4034.377338  1600.833917  1516.302250

                             ****ORCA TERMINATED NORMALLY****
TOTAL RUN TIME: 0 days 0 hours 0 minutes 5 seconds 708 msec
