                         Program Version 5.0.0 -  RELEASE  -
|  1> !BLYP D3BJ RIJCOSX def2-SVPD def2/J TightSCF
|  2> *xyz 0 1
|  3> C          1.96337       -1.74915       -1.89689
|  4> C          2.73849       -2.01517       -3.09711
|  5> C          4.04974       -2.15472       -3.15204
|  6> N          4.65821       -1.98629       -4.31866
|  7> N          4.76423       -2.45444       -2.05049
|  8> H          4.28736       -2.77626       -1.21750
|  9> H          5.75082       -2.65835       -2.12599
| 10> H          2.34518       -1.69027       -3.97145
| 11> H          4.10900       -1.59268       -5.07176
| 12> H          5.64910       -2.15646       -4.42724
| 13> C          2.08852       -0.30091       -1.41520
| 14> H          2.23127       -2.45162       -1.10264
| 15> H          0.93025       -1.97780       -2.15544
| 16> C          1.96899        0.73358       -2.53565
| 17> H          3.05136       -0.16860       -0.91187
| 18> H          1.31650       -0.13623       -0.65725
| 19> H          2.73046        0.55745       -3.26643
| 20> H          2.08619        1.71595       -2.12808
| 21> H          1.00672        0.65098       -2.99620
| 22> *
| 23> %MaxCore 64000
| 24>
| 25> %pal nprocs 8
| 26> end
| 27>
| 28> %scf
| 29>   MaxIter 150
| 30> end
| 31>
| 32>
| 33>                          ****END OF INPUT****

CARTESIAN COORDINATES (ANGSTROEM)
---------------------------------
  C      1.963370   -1.749150   -1.896890
  C      2.738490   -2.015170   -3.097110
  C      4.049740   -2.154720   -3.152040
  N      4.658210   -1.986290   -4.318660
  N      4.764230   -2.454440   -2.050490
  H      4.287360   -2.776260   -1.217500
  H      5.750820   -2.658350   -2.125990
  H      2.345180   -1.690270   -3.971450
  H      4.109000   -1.592680   -5.071760
  H      5.649100   -2.156460   -4.427240
  C      2.088520   -0.300910   -1.415200
  H      2.231270   -2.451620   -1.102640
  H      0.930250   -1.977800   -2.155440
  C      1.968990    0.733580   -2.535650
  H      3.051360   -0.168600   -0.911870
  H      1.316500   -0.136230   -0.657250
  H      2.730460    0.557450   -3.266430
  H      2.086190    1.715950   -2.128080
  H      1.006720    0.650980   -2.996200

 Total Charge           Charge          ....    0
 Multiplicity           Mult            ....    1
 Number of Electrons    NEL             ....   56
 Basis Dimension        Dim             ....  236

ORBITAL ENERGIES
----------------

  NO   OCC          E(Eh)            E(eV)
   0   2.0000     -14.026973      -381.6933
   1   2.0000     -14.025266      -381.6469
   2   2.0000      -9.960429      -271.0371
   3   2.0000      -9.897541      -269.3258
   4   2.0000      -9.895076      -269.2587
   5   2.0000      -9.889807      -269.1153
   6   2.0000      -9.843354      -267.8513
   7   2.0000      -0.863334       -23.4925
   8   2.0000      -0.781091       -21.2546
   9   2.0000      -0.698745       -19.0138
  10   2.0000      -0.637401       -17.3446
  11   2.0000      -0.584196       -15.8968
  12   2.0000      -0.532340       -14.4857
  13   2.0000      -0.504166       -13.7191
  14   2.0000      -0.487337       -13.2611
  15   2.0000      -0.447334       -12.1726
  16   2.0000      -0.424228       -11.5438
  17   2.0000      -0.391695       -10.6586
  18   2.0000      -0.382593       -10.4109
  19   2.0000      -0.357192        -9.7197
  20   2.0000      -0.334534        -9.1031
  21   2.0000      -0.325693        -8.8625
  22   2.0000      -0.309477        -8.4213
  23   2.0000      -0.285919        -7.7802
  24   2.0000      -0.269397        -7.3307
  25   2.0000      -0.265041        -7.2121
  26   2.0000      -0.220138        -5.9903
  27   2.0000      -0.126395        -3.4394
  28   0.0000      -0.009990        -0.2718
  29   0.0000       0.017231         0.4689
  30   0.0000       0.021426         0.5830
  31   0.0000       0.035835         0.9751
  32   0.0000       0.048220         1.3121

MULLIKEN ATOMIC CHARGES
-----------------------
   0 C :    0.595040
   1 C :   -0.242232
   2 C :    0.556240
   3 N :    0.232074
   4 N :    0.207710
   5 H :   -0.086626
   6 H :   -0.362913
   7 H :   -0.200248
   8 H :   -0.031734
   9 H :   -0.311638
  10 C :   -0.012417
  11 H :   -0.246600
  12 H :   -0.220456
  13 C :    1.178559
  14 H :   -0.169565
  15 H :   -0.219955
  16 H :   -0.314311
  17 H :   -0.220535
  18 H :   -0.130393
Sum of atomic charges:   -0.0000000

LOEWDIN ATOMIC CHARGES
----------------------
   0 C :   -0.053417
   1 C :   -0.041207
   2 C :   -0.232091
   3 N :    0.203137
   4 N :    0.223352
   5 H :   -0.013919
   6 H :   -0.020297
   7 H :   -0.053938
   8 H :    0.000336
   9 H :   -0.015144
  10 C :   -0.061505
  11 H :   -0.003238
  12 H :    0.008507
  13 C :    0.132433
  14 H :    0.007551
  15 H :    0.006377
  16 H :   -0.036338
  17 H :   -0.028781
  18 H :   -0.021820

  Mayer bond orders larger than 0.100000
B(  0-C ,  1-C ) :   1.1798 B(  0-C ,  7-H ) :   0.4136 B(  0-C , 10-C ) :   1.1361
B(  0-C , 11-H ) :   0.7072 B(  0-C , 12-H ) :   0.5704 B(  0-C , 14-H ) :   0.1320
B(  0-C , 15-H ) :   0.1941 B(  1-C ,  2-C ) :   1.6561 B(  1-C ,  3-N ) :   0.3267
B(  1-C ,  4-N ) :   0.2822 B(  1-C ,  7-H ) :   0.5186 B(  1-C , 10-C ) :   0.1083
B(  1-C , 11-H ) :   0.3121 B(  1-C , 12-H ) :   0.3771 B(  2-C ,  3-N ) :   0.9418
B(  2-C ,  4-N ) :   1.0285 B(  2-C ,  6-H ) :  -0.2133 B(  2-C ,  7-H ) :   0.4013
B(  2-C ,  9-H ) :  -0.1529 B(  2-C , 11-H ) :  -0.1349 B(  3-N ,  4-N ) :   0.1188
B(  3-N ,  8-H ) :   1.1208 B(  3-N ,  9-H ) :   1.3099 B(  4-N ,  5-H ) :   1.0639
B(  4-N ,  6-H ) :   1.3701 B(  5-H ,  6-H ) :  -0.2324 B(  8-H ,  9-H ) :  -0.1989
B( 10-C , 11-H ) :   0.1078 B( 10-C , 12-H ) :   0.1413 B( 10-C , 13-C ) :   1.2725
B( 10-C , 14-H ) :   0.8620 B( 10-C , 15-H ) :   0.7725 B( 10-C , 16-H ) :   0.3148
B( 10-C , 17-H ) :   0.2894 B( 10-C , 18-H ) :   0.2824 B( 13-C , 14-H ) :   0.1023
B( 13-C , 16-H ) :   0.6791 B( 13-C , 17-H ) :   0.6367 B( 13-C , 18-H ) :   0.6478
B( 16-H , 18-H ) :   0.1177

Dispersion correction           -0.033728672
FINAL SINGLE POINT ENERGY      -306.888852675774

DIPOLE MOMENT
-------------
                                X             Y             Z
Electronic contribution:      3.82986      -4.07234      -1.74089
Nuclear contribution   :     -2.83106       3.92601       1.57906
                        -----------------------------------------
Total Dipole Moment    :      0.99880      -0.14633      -0.16182
                        -----------------------------------------
Magnitude (a.u.)       :      1.02235
Magnitude (Debye)      :      2.59861

Rotational constants in cm-1:     0.142679     0.055043     0.048600
Rotational constants in MHz :  4277.395781  1650.135877  1456.977167

                             ****ORCA TERMINATED NORMALLY****
TOTAL RUN TIME: 0 days 0 hours 0 minutes 6 seconds 913 msec
