                         Program Version 5.0.0 -  RELEASE  -
|  1> !BLYP D3BJ RIJCOSX def2-SVPD def2/J TightSCF
|  2> *xyz 0 1
|  3> C          0.61188        1.65763       -4.50029
|  4> C          1.69499        1.54179       -5.57045
|  5> H          2.69733        1.73466       -5.18400
|  6> H          1.50666        2.27224       -6.35808
|  7> S          1.78029       -0.03313       -6.42874
|  8> O          2.56929        0.21366       -7.60736
|  9> F          0.41688       -0.46297       -6.61859
| 10> C          0.68036        0.65542       -3.34804
| 11> H         -0.35687        1.54923       -4.99113
| 12> H          0.65023        2.67544       -4.09600
| 13> O          2.50513       -0.93326       -5.48257
| 14> H          0.64318       -0.34009       -3.73853
| 15> H         -0.14865        0.81153       -2.68980
| 16> H          1.59447        0.79330       -2.80925
| 17> *
| 18> %MaxCore 64000
| 19>
| 20> %pal nprocs 8
| 21> end
| 22>
| 23> %scf
| 24>   MaxIter 150
| 25> end
| 26>
| 27>
| 28>                          ****END OF INPUT****

CARTESIAN COORDINATES (ANGSTROEM)
---------------------------------
  C      0.611880    1.657630   -4.500290
  C      1.694990    1.541790   -5.570450
  H      2.697330    1.734660   -5.184000
  H      1.506660    2.272240   -6.358080
  S      1.780290   -0.033130   -6.428740
  O      2.569290    0.213660   -7.607360
  F      0.416880   -0.462970   -6.618590
  C      0.680360    0.655420   -3.348040
  H     -0.356870    1.549230   -4.991130
  H      0.650230    2.675440   -4.096000
  O      2.505130   -0.933260   -5.482570
  H      0.643180   -0.340090   -3.738530
  H     -0.148650    0.811530   -2.689800
  H      1.594470    0.793300   -2.809250

 Total Charge           Charge          ....    0
 Multiplicity           Mult            ....    1
 Number of Electrons    NEL             ....   66
 Basis Dimension        Dim             ....  212

ORBITAL ENERGIES
----------------

  NO   OCC          E(Eh)            E(eV)
   0   2.0000     -88.381846     -2404.9923
   1   2.0000     -24.419431      -664.4865
   2   2.0000     -18.803246      -511.6623
   3   2.0000     -18.784825      -511.1611
   4   2.0000      -9.980977      -271.5962
   5   2.0000      -9.955237      -270.8958
   6   2.0000      -9.923137      -270.0223
   7   2.0000      -7.919595      -215.5031
   8   2.0000      -5.959121      -162.1559
   9   2.0000      -5.952362      -161.9720
  10   2.0000      -5.950684      -161.9264
  11   2.0000      -1.265739       -34.4425
  12   2.0000      -1.011172       -27.5154
  13   2.0000      -0.905462       -24.6389
  14   2.0000      -0.751408       -20.4469
  15   2.0000      -0.678433       -18.4611
  16   2.0000      -0.640733       -17.4352
  17   2.0000      -0.570544       -15.5253
  18   2.0000      -0.529122       -14.3981
  19   2.0000      -0.519677       -14.1411
  20   2.0000      -0.482243       -13.1225
  21   2.0000      -0.440176       -11.9778
  22   2.0000      -0.430101       -11.7036
  23   2.0000      -0.408890       -11.1265
  24   2.0000      -0.391558       -10.6548
  25   2.0000      -0.384936       -10.4746
  26   2.0000      -0.340149        -9.2559
  27   2.0000      -0.336136        -9.1467
  28   2.0000      -0.334536        -9.1032
  29   2.0000      -0.318826        -8.6757
  30   2.0000      -0.285055        -7.7568
  31   2.0000      -0.268572        -7.3082
  32   2.0000      -0.251968        -6.8564
  33   0.0000      -0.033384        -0.9084
  34   0.0000      -0.000242        -0.0066
  35   0.0000       0.014128         0.3845
  36   0.0000       0.017731         0.4825
  37   0.0000       0.020473         0.5571

MULLIKEN ATOMIC CHARGES
-----------------------
   0 C :    0.038429
   1 C :    0.319391
   2 H :   -0.123850
   3 H :   -0.139892
   4 S :    1.272848
   5 O :   -0.589068
   6 F :   -0.362467
   7 C :    1.248309
   8 H :   -0.139603
   9 H :   -0.290577
  10 O :   -0.630325
  11 H :   -0.245055
  12 H :   -0.215162
  13 H :   -0.142978
Sum of atomic charges:    0.0000000

LOEWDIN ATOMIC CHARGES
----------------------
   0 C :   -0.072293
   1 C :   -0.045127
   2 H :    0.033812
   3 H :    0.014844
   4 S :    1.075371
   5 O :   -0.437473
   6 F :   -0.240005
   7 C :    0.152354
   8 H :    0.016458
   9 H :    0.026253
  10 O :   -0.463679
  11 H :   -0.033851
  12 H :   -0.017157
  13 H :   -0.009507

  Mayer bond orders larger than 0.100000
B(  0-C ,  1-C ) :   1.2511 B(  0-C ,  2-H ) :   0.1594 B(  0-C ,  3-H ) :   0.1791
B(  0-C ,  7-C ) :   1.2884 B(  0-C ,  8-H ) :   0.7954 B(  0-C ,  9-H ) :   0.7468
B(  0-C , 11-H ) :   0.2847 B(  0-C , 12-H ) :   0.2803 B(  0-C , 13-H ) :   0.2904
B(  1-C ,  2-H ) :   0.8501 B(  1-C ,  3-H ) :   0.8406 B(  1-C ,  4-S ) :   0.9525
B(  1-C ,  8-H ) :   0.1653 B(  1-C ,  9-H ) :   0.2001 B(  4-S ,  5-O ) :   1.6085
B(  4-S ,  6-F ) :   0.7160 B(  4-S , 10-O ) :   1.4934 B(  7-C ,  8-H ) :   0.1102
B(  7-C , 11-H ) :   0.6861 B(  7-C , 12-H ) :   0.6117 B(  7-C , 13-H ) :   0.6402
B( 11-H , 13-H ) :   0.1200

Dispersion correction           -0.026840779
FINAL SINGLE POINT ENERGY      -766.466112618260

DIPOLE MOMENT
-------------
                                X             Y             Z
Electronic contribution:      1.47573      -6.57074     -10.24538
Nuclear contribution   :     -2.62245       7.78551      10.86491
                        -----------------------------------------
Total Dipole Moment    :     -1.14672       1.21478       0.61953
                        -----------------------------------------
Magnitude (a.u.)       :      1.78170
Magnitude (Debye)      :      4.52873

Rotational constants in cm-1:     0.129509     0.054228     0.052367
Rotational constants in MHz :  3882.596420  1625.701900  1569.934536

                             ****ORCA TERMINATED NORMALLY****
TOTAL RUN TIME: 0 days 0 hours 0 minutes 5 seconds 427 msec
