                         Program Version 5.0.0 -  RELEASE  -
|  1> !BLYP D3BJ RIJCOSX def2-SVPD def2/J TightSCF
|  2> *xyz 0 1
|  3> C          1.96337       -1.74915       -1.89689
|  4> N          2.73849       -2.01517       -3.09711
|  5> C          4.04974       -2.15472       -3.15204
|  6> C          4.65821       -1.98629       -4.31866
|  7> N          4.76423       -2.45444       -2.05049
|  8> H          4.28736       -2.77626       -1.21750
|  9> H          5.75082       -2.65835       -2.12599
| 10> H          2.34518       -1.69027       -3.97145
| 11> H          4.10900       -1.59268       -5.07176
| 12> H          5.64910       -2.15646       -4.42724
| 13> C          2.08852       -0.30091       -1.41520
| 14> H          2.23127       -2.45162       -1.10264
| 15> H          0.93025       -1.97780       -2.15544
| 16> C          1.96899        0.73358       -2.53565
| 17> H          3.05136       -0.16860       -0.91187
| 18> H          1.31650       -0.13623       -0.65725
| 19> H          2.73046        0.55745       -3.26643
| 20> H          2.08619        1.71595       -2.12808
| 21> H          1.00672        0.65098       -2.99620
| 22> *
| 23> %MaxCore 64000
| 24>
| 25> %pal nprocs 8
| 26> end
| 27>
| 28> %scf
| 29>   MaxIter 150
| 30> end
| 31>
| 32>
| 33>                          ****END OF INPUT****

CARTESIAN COORDINATES (ANGSTROEM)
---------------------------------
  C      1.963370   -1.749150   -1.896890
  N      2.738490   -2.015170   -3.097110
  C      4.049740   -2.154720   -3.152040
  C      4.658210   -1.986290   -4.318660
  N      4.764230   -2.454440   -2.050490
  H      4.287360   -2.776260   -1.217500
  H      5.750820   -2.658350   -2.125990
  H      2.345180   -1.690270   -3.971450
  H      4.109000   -1.592680   -5.071760
  H      5.649100   -2.156460   -4.427240
  C      2.088520   -0.300910   -1.415200
  H      2.231270   -2.451620   -1.102640
  H      0.930250   -1.977800   -2.155440
  C      1.968990    0.733580   -2.535650
  H      3.051360   -0.168600   -0.911870
  H      1.316500   -0.136230   -0.657250
  H      2.730460    0.557450   -3.266430
  H      2.086190    1.715950   -2.128080
  H      1.006720    0.650980   -2.996200

 Total Charge           Charge          ....    0
 Multiplicity           Mult            ....    1
 Number of Electrons    NEL             ....   56
 Basis Dimension        Dim             ....  236

ORBITAL ENERGIES
----------------

  NO   OCC          E(Eh)            E(eV)
   0   2.0000     -14.024563      -381.6278
   1   2.0000     -14.021428      -381.5425
   2   2.0000      -9.960849      -271.0485
   3   2.0000      -9.958252      -270.9778
   4   2.0000      -9.920221      -269.9429
   5   2.0000      -9.908737      -269.6304
   6   2.0000      -9.836943      -267.6768
   7   2.0000      -0.870813       -23.6960
   8   2.0000      -0.792149       -21.5555
   9   2.0000      -0.701879       -19.0991
  10   2.0000      -0.644598       -17.5404
  11   2.0000      -0.593849       -16.1594
  12   2.0000      -0.543667       -14.7939
  13   2.0000      -0.522038       -14.2054
  14   2.0000      -0.476768       -12.9735
  15   2.0000      -0.439794       -11.9674
  16   2.0000      -0.429294       -11.6817
  17   2.0000      -0.403842       -10.9891
  18   2.0000      -0.393388       -10.7046
  19   2.0000      -0.356398        -9.6981
  20   2.0000      -0.342297        -9.3144
  21   2.0000      -0.342135        -9.3100
  22   2.0000      -0.323938        -8.8148
  23   2.0000      -0.306644        -8.3442
  24   2.0000      -0.304158        -8.2766
  25   2.0000      -0.293817        -7.9952
  26   2.0000      -0.209283        -5.6949
  27   2.0000      -0.128772        -3.5041
  28   0.0000      -0.008477        -0.2307
  29   0.0000       0.011877         0.3232
  30   0.0000       0.022079         0.6008
  31   0.0000       0.028616         0.7787
  32   0.0000       0.048437         1.3181

MULLIKEN ATOMIC CHARGES
-----------------------
   0 C :    1.084322
   1 N :   -0.170657
   2 C :    0.453743
   3 C :    0.639693
   4 N :    0.410626
   5 H :   -0.199988
   6 H :   -0.271424
   7 H :   -0.191981
   8 H :   -0.383115
   9 H :   -0.614065
  10 C :   -0.059088
  11 H :   -0.299368
  12 H :   -0.485030
  13 C :    1.197316
  14 H :   -0.128187
  15 H :   -0.309486
  16 H :   -0.293645
  17 H :   -0.254081
  18 H :   -0.125585
Sum of atomic charges:    0.0000000

LOEWDIN ATOMIC CHARGES
----------------------
   0 C :    0.049263
   1 N :    0.004271
   2 C :   -0.254267
   3 C :    0.160353
   4 N :    0.221758
   5 H :   -0.030568
   6 H :   -0.001840
   7 H :    0.023454
   8 H :   -0.107435
   9 H :   -0.106466
  10 C :   -0.054415
  11 H :    0.003503
  12 H :    0.014306
  13 C :    0.137806
  14 H :    0.009148
  15 H :    0.009846
  16 H :   -0.032742
  17 H :   -0.023445
  18 H :   -0.022531

  Mayer bond orders larger than 0.100000
B(  0-C ,  1-N ) :   0.9694 B(  0-C ,  7-H ) :  -0.1525 B(  0-C , 10-C ) :   1.0450
B(  0-C , 11-H ) :   0.7862 B(  0-C , 12-H ) :   0.5172 B(  0-C , 15-H ) :   0.1537
B(  1-N ,  2-C ) :   1.1364 B(  1-N ,  3-C ) :   0.3233 B(  1-N ,  4-N ) :   0.1517
B(  1-N ,  7-H ) :   1.1008 B(  1-N , 11-H ) :   0.1675 B(  1-N , 12-H ) :   0.3374
B(  2-C ,  3-C ) :   1.0866 B(  2-C ,  4-N ) :   1.0988 B(  2-C ,  6-H ) :  -0.1178
B(  2-C ,  7-H ) :  -0.1401 B(  2-C ,  8-H ) :   0.1298 B(  2-C ,  9-H ) :   0.1929
B(  3-C ,  4-N ) :   0.2406 B(  3-C ,  8-H ) :   0.7789 B(  3-C ,  9-H ) :   0.5900
B(  4-N ,  5-H ) :   1.0238 B(  4-N ,  6-H ) :   1.2492 B(  4-N , 11-H ) :   0.1105
B(  5-H ,  6-H ) :  -0.2270 B( 10-C , 11-H ) :   0.1282 B( 10-C , 12-H ) :   0.1788
B( 10-C , 13-C ) :   1.2914 B( 10-C , 14-H ) :   0.8544 B( 10-C , 15-H ) :   0.8711
B( 10-C , 16-H ) :   0.2731 B( 10-C , 17-H ) :   0.2794 B( 10-C , 18-H ) :   0.2712
B( 11-H , 12-H ) :  -0.1687 B( 13-C , 16-H ) :   0.7060 B( 13-C , 17-H ) :   0.6464
B( 13-C , 18-H ) :   0.6496 B( 16-H , 18-H ) :   0.1254

Dispersion correction           -0.033353035
FINAL SINGLE POINT ENERGY      -306.884973284149

DIPOLE MOMENT
-------------
                                X             Y             Z
Electronic contribution:      1.95246      -3.93075      -0.44631
Nuclear contribution   :     -2.41054       3.93233       1.31148
                        -----------------------------------------
Total Dipole Moment    :     -0.45808       0.00158       0.86517
                        -----------------------------------------
Magnitude (a.u.)       :      0.97896
Magnitude (Debye)      :      2.48831

Rotational constants in cm-1:     0.144008     0.056232     0.050126
Rotational constants in MHz :  4317.255215  1685.791221  1502.728769

                             ****ORCA TERMINATED NORMALLY****
TOTAL RUN TIME: 0 days 0 hours 0 minutes 7 seconds 488 msec
