                         Program Version 5.0.0 -  RELEASE  -
|  1> !BLYP D3BJ RIJCOSX def2-SVPD def2/J TightSCF
|  2> *xyz 0 1
|  3> C          0.61188        1.65763       -4.50029
|  4> C          1.69499        1.54179       -5.57045
|  5> H          2.69733        1.73466       -5.18400
|  6> H          1.50666        2.27224       -6.35808
|  7> S          1.78029       -0.03313       -6.42874
|  8> O          2.56929        0.21366       -7.60736
|  9> O          0.41688       -0.46297       -6.61859
| 10> C          0.68036        0.65542       -3.34804
| 11> H         -0.35687        1.54923       -4.99113
| 12> H          0.65023        2.67544       -4.09600
| 13> F          2.50513       -0.93326       -5.48257
| 14> H          0.64318       -0.34009       -3.73853
| 15> H         -0.14865        0.81153       -2.68980
| 16> H          1.59447        0.79330       -2.80925
| 17> *
| 18> %MaxCore 64000
| 19>
| 20> %pal nprocs 8
| 21> end
| 22>
| 23> %scf
| 24>   MaxIter 150
| 25> end
| 26>
| 27>
| 28>                          ****END OF INPUT****

CARTESIAN COORDINATES (ANGSTROEM)
---------------------------------
  C      0.611880    1.657630   -4.500290
  C      1.694990    1.541790   -5.570450
  H      2.697330    1.734660   -5.184000
  H      1.506660    2.272240   -6.358080
  S      1.780290   -0.033130   -6.428740
  O      2.569290    0.213660   -7.607360
  O      0.416880   -0.462970   -6.618590
  C      0.680360    0.655420   -3.348040
  H     -0.356870    1.549230   -4.991130
  H      0.650230    2.675440   -4.096000
  F      2.505130   -0.933260   -5.482570
  H      0.643180   -0.340090   -3.738530
  H     -0.148650    0.811530   -2.689800
  H      1.594470    0.793300   -2.809250

 Total Charge           Charge          ....    0
 Multiplicity           Mult            ....    1
 Number of Electrons    NEL             ....   66
 Basis Dimension        Dim             ....  212

ORBITAL ENERGIES
----------------

  NO   OCC          E(Eh)            E(eV)
   0   2.0000     -88.379269     -2404.9222
   1   2.0000     -24.392227      -663.7462
   2   2.0000     -18.803684      -511.6742
   3   2.0000     -18.802735      -511.6484
   4   2.0000      -9.979926      -271.5676
   5   2.0000      -9.950999      -270.7804
   6   2.0000      -9.927294      -270.1354
   7   2.0000      -7.916959      -215.4314
   8   2.0000      -5.956097      -162.0736
   9   2.0000      -5.950082      -161.9100
  10   2.0000      -5.948324      -161.8621
  11   2.0000      -1.222441       -33.2643
  12   2.0000      -1.021688       -27.8015
  13   2.0000      -0.932774       -25.3821
  14   2.0000      -0.749024       -20.3820
  15   2.0000      -0.674030       -18.3413
  16   2.0000      -0.624759       -17.0006
  17   2.0000      -0.567415       -15.4401
  18   2.0000      -0.504379       -13.7248
  19   2.0000      -0.489998       -13.3335
  20   2.0000      -0.485106       -13.2004
  21   2.0000      -0.441338       -12.0094
  22   2.0000      -0.426622       -11.6090
  23   2.0000      -0.406440       -11.0598
  24   2.0000      -0.398547       -10.8450
  25   2.0000      -0.388040       -10.5591
  26   2.0000      -0.345570        -9.4034
  27   2.0000      -0.340859        -9.2752
  28   2.0000      -0.328499        -8.9389
  29   2.0000      -0.318770        -8.6742
  30   2.0000      -0.292247        -7.9524
  31   2.0000      -0.286061        -7.7841
  32   2.0000      -0.273342        -7.4380
  33   0.0000      -0.024750        -0.6735
  34   0.0000      -0.001496        -0.0407
  35   0.0000       0.012024         0.3272
  36   0.0000       0.017404         0.4736
  37   0.0000       0.025680         0.6988

MULLIKEN ATOMIC CHARGES
-----------------------
   0 C :    0.067461
   1 C :    0.291398
   2 H :   -0.111728
   3 H :   -0.130115
   4 S :    1.276724
   5 O :   -0.600349
   6 O :   -0.607644
   7 C :    1.212079
   8 H :   -0.115037
   9 H :   -0.286789
  10 F :   -0.375142
  11 H :   -0.260201
  12 H :   -0.211621
  13 H :   -0.149037
Sum of atomic charges:    0.0000000

LOEWDIN ATOMIC CHARGES
----------------------
   0 C :   -0.067296
   1 C :   -0.047491
   2 H :    0.019982
   3 H :    0.025812
   4 S :    1.070354
   5 O :   -0.438540
   6 O :   -0.435949
   7 C :    0.151304
   8 H :    0.022686
   9 H :    0.026417
  10 F :   -0.265836
  11 H :   -0.031447
  12 H :   -0.014760
  13 H :   -0.015236

  Mayer bond orders larger than 0.100000
B(  0-C ,  1-C ) :   1.2872 B(  0-C ,  2-H ) :   0.1639 B(  0-C ,  3-H ) :   0.1718
B(  0-C ,  7-C ) :   1.2825 B(  0-C ,  8-H ) :   0.8048 B(  0-C ,  9-H ) :   0.7336
B(  0-C , 11-H ) :   0.2741 B(  0-C , 12-H ) :   0.2773 B(  0-C , 13-H ) :   0.2827
B(  1-C ,  2-H ) :   0.8536 B(  1-C ,  3-H ) :   0.8225 B(  1-C ,  4-S ) :   0.9496
B(  1-C ,  8-H ) :   0.1776 B(  1-C ,  9-H ) :   0.2023 B(  4-S ,  5-O ) :   1.6029
B(  4-S ,  6-O ) :   1.5396 B(  4-S , 10-F ) :   0.6459 B(  5-O ,  6-O ) :   0.1184
B(  7-C ,  8-H ) :   0.1155 B(  7-C , 11-H ) :   0.6944 B(  7-C , 12-H ) :   0.6240
B(  7-C , 13-H ) :   0.6453 B( 11-H , 13-H ) :   0.1040

Dispersion correction           -0.026850081
FINAL SINGLE POINT ENERGY      -766.490128705563

DIPOLE MOMENT
-------------
                                X             Y             Z
Electronic contribution:      4.97284      -7.37647      -8.31982
Nuclear contribution   :     -4.86824       8.29128       9.64318
                        -----------------------------------------
Total Dipole Moment    :      0.10460       0.91481       1.32336
                        -----------------------------------------
Magnitude (a.u.)       :      1.61218
Magnitude (Debye)      :      4.09782

Rotational constants in cm-1:     0.129339     0.055092     0.051542
Rotational constants in MHz :  3877.477482  1651.602611  1545.182728

                             ****ORCA TERMINATED NORMALLY****
TOTAL RUN TIME: 0 days 0 hours 0 minutes 5 seconds 556 msec
