                         Program Version 5.0.0 -  RELEASE  -
|  1> !BLYP D3BJ RIJCOSX def2-SVPD def2/J TightSCF
|  2> *xyz 0 1
|  3> C          1.96337       -1.74915       -1.89689
|  4> N          2.73849       -2.01517       -3.09711
|  5> C          4.04974       -2.15472       -3.15204
|  6> N          4.65821       -1.98629       -4.31866
|  7> C          4.76423       -2.45444       -2.05049
|  8> H          4.28736       -2.77626       -1.21750
|  9> H          5.75082       -2.65835       -2.12599
| 10> H          2.34518       -1.69027       -3.97145
| 11> H          4.10900       -1.59268       -5.07176
| 12> H          5.64910       -2.15646       -4.42724
| 13> C          2.08852       -0.30091       -1.41520
| 14> H          2.23127       -2.45162       -1.10264
| 15> H          0.93025       -1.97780       -2.15544
| 16> C          1.96899        0.73358       -2.53565
| 17> H          3.05136       -0.16860       -0.91187
| 18> H          1.31650       -0.13623       -0.65725
| 19> H          2.73046        0.55745       -3.26643
| 20> H          2.08619        1.71595       -2.12808
| 21> H          1.00672        0.65098       -2.99620
| 22> *
| 23> %MaxCore 64000
| 24>
| 25> %pal nprocs 8
| 26> end
| 27>
| 28> %scf
| 29>   MaxIter 150
| 30> end
| 31>
| 32>
| 33>                          ****END OF INPUT****

CARTESIAN COORDINATES (ANGSTROEM)
---------------------------------
  C      1.963370   -1.749150   -1.896890
  N      2.738490   -2.015170   -3.097110
  C      4.049740   -2.154720   -3.152040
  N      4.658210   -1.986290   -4.318660
  C      4.764230   -2.454440   -2.050490
  H      4.287360   -2.776260   -1.217500
  H      5.750820   -2.658350   -2.125990
  H      2.345180   -1.690270   -3.971450
  H      4.109000   -1.592680   -5.071760
  H      5.649100   -2.156460   -4.427240
  C      2.088520   -0.300910   -1.415200
  H      2.231270   -2.451620   -1.102640
  H      0.930250   -1.977800   -2.155440
  C      1.968990    0.733580   -2.535650
  H      3.051360   -0.168600   -0.911870
  H      1.316500   -0.136230   -0.657250
  H      2.730460    0.557450   -3.266430
  H      2.086190    1.715950   -2.128080
  H      1.006720    0.650980   -2.996200

 Total Charge           Charge          ....    0
 Multiplicity           Mult            ....    1
 Number of Electrons    NEL             ....   56
 Basis Dimension        Dim             ....  236

ORBITAL ENERGIES
----------------

  NO   OCC          E(Eh)            E(eV)
   0   2.0000     -14.026892      -381.6911
   1   2.0000     -14.025246      -381.6464
   2   2.0000      -9.962206      -271.0854
   3   2.0000      -9.952468      -270.8204
   4   2.0000      -9.914815      -269.7958
   5   2.0000      -9.908318      -269.6191
   6   2.0000      -9.836676      -267.6696
   7   2.0000      -0.876335       -23.8463
   8   2.0000      -0.796013       -21.6606
   9   2.0000      -0.692977       -18.8569
  10   2.0000      -0.630462       -17.1557
  11   2.0000      -0.615574       -16.7506
  12   2.0000      -0.540444       -14.7062
  13   2.0000      -0.491941       -13.3864
  14   2.0000      -0.489413       -13.3176
  15   2.0000      -0.467908       -12.7324
  16   2.0000      -0.420570       -11.4443
  17   2.0000      -0.398757       -10.8507
  18   2.0000      -0.388554       -10.5731
  19   2.0000      -0.354740        -9.6530
  20   2.0000      -0.344222        -9.3668
  21   2.0000      -0.333229        -9.0676
  22   2.0000      -0.320923        -8.7328
  23   2.0000      -0.305541        -8.3142
  24   2.0000      -0.302596        -8.2340
  25   2.0000      -0.287355        -7.8193
  26   2.0000      -0.207515        -5.6468
  27   2.0000      -0.129933        -3.5357
  28   0.0000      -0.012706        -0.3457
  29   0.0000       0.014620         0.3978
  30   0.0000       0.024893         0.6774
  31   0.0000       0.030354         0.8260
  32   0.0000       0.044577         1.2130

MULLIKEN ATOMIC CHARGES
-----------------------
   0 C :    1.034512
   1 N :   -0.192012
   2 C :    0.524447
   3 N :    0.309272
   4 C :    0.635693
   5 H :   -0.179180
   6 H :   -0.800616
   7 H :   -0.292135
   8 H :   -0.180624
   9 H :   -0.216492
  10 C :   -0.019879
  11 H :   -0.163449
  12 H :   -0.510936
  13 C :    1.190544
  14 H :   -0.187444
  15 H :   -0.274553
  16 H :   -0.304240
  17 H :   -0.250547
  18 H :   -0.122360
Sum of atomic charges:    0.0000000

LOEWDIN ATOMIC CHARGES
----------------------
   0 C :    0.058314
   1 N :    0.000922
   2 C :   -0.256303
   3 N :    0.207796
   4 C :    0.175431
   5 H :   -0.118271
   6 H :   -0.112535
   7 H :    0.009492
   8 H :   -0.017650
   9 H :    0.004820
  10 C :   -0.048133
  11 H :    0.012418
  12 H :    0.014297
  13 C :    0.133000
  14 H :    0.010131
  15 H :    0.012659
  16 H :   -0.038107
  17 H :   -0.023897
  18 H :   -0.024386

  Mayer bond orders larger than 0.100000
B(  0-C ,  1-N ) :   0.9735 B(  0-C ,  2-C ) :  -0.1108 B(  0-C ,  4-C ) :   0.1237
B(  0-C ,  7-H ) :  -0.1463 B(  0-C , 10-C ) :   1.0160 B(  0-C , 11-H ) :   0.8054
B(  0-C , 12-H ) :   0.5967 B(  0-C , 14-H ) :   0.1311 B(  0-C , 15-H ) :   0.1482
B(  1-N ,  2-C ) :   1.0155 B(  1-N ,  3-N ) :   0.2113 B(  1-N ,  4-C ) :   0.4283
B(  1-N ,  7-H ) :   1.1653 B(  1-N , 11-H ) :   0.1026 B(  1-N , 12-H ) :   0.2677
B(  2-C ,  3-N ) :   0.9383 B(  2-C ,  4-C ) :   1.4158 B(  2-C ,  5-H ) :   0.3266
B(  2-C ,  6-H ) :   0.1649 B(  2-C ,  7-H ) :  -0.1968 B(  2-C ,  9-H ) :  -0.1190
B(  2-C , 11-H ) :  -0.1038 B(  2-C , 12-H ) :   0.1139 B(  3-N ,  4-C ) :   0.2577
B(  3-N ,  8-H ) :   1.1232 B(  3-N ,  9-H ) :   1.2767 B(  4-C ,  5-H ) :   0.5055
B(  4-C ,  6-H ) :   0.7132 B(  5-H , 11-H ) :   0.1452 B(  5-H , 12-H ) :  -0.1175
B(  8-H ,  9-H ) :  -0.1815 B( 10-C , 11-H ) :   0.1003 B( 10-C , 12-H ) :   0.1756
B( 10-C , 13-C ) :   1.2803 B( 10-C , 14-H ) :   0.8682 B( 10-C , 15-H ) :   0.8406
B( 10-C , 16-H ) :   0.2824 B( 10-C , 17-H ) :   0.2789 B( 10-C , 18-H ) :   0.2753
B( 11-H , 12-H ) :  -0.2234 B( 13-C , 16-H ) :   0.7033 B( 13-C , 17-H ) :   0.6476
B( 13-C , 18-H ) :   0.6469 B( 16-H , 18-H ) :   0.1193

Dispersion correction           -0.033498611
FINAL SINGLE POINT ENERGY      -306.884159216035

DIPOLE MOMENT
-------------
                                X             Y             Z
Electronic contribution:      1.88039      -3.43140      -2.60421
Nuclear contribution   :     -2.38731       3.82978       1.80833
                        -----------------------------------------
Total Dipole Moment    :     -0.50693       0.39839      -0.79588
                        -----------------------------------------
Magnitude (a.u.)       :      1.02426
Magnitude (Debye)      :      2.60347

Rotational constants in cm-1:     0.144922     0.055791     0.049560
Rotational constants in MHz :  4344.653038  1672.561873  1485.775629

                             ****ORCA TERMINATED NORMALLY****
TOTAL RUN TIME: 0 days 0 hours 0 minutes 6 seconds 965 msec
