                         Program Version 5.0.0 -  RELEASE  -
|  1> !BLYP D3BJ RIJCOSX def2-SVPD def2/J TightSCF xyzfile
|  2>
|  3> *xyzfile 0 1 D1.xyz
|  4>
|  5> %MaxCore 64000
|  6>
|  7> %pal nprocs 4
|  8> end
|  9>
| 10> %scf
| 11>   MaxIter 150
| 12> end
| 13>
| 14>
| 15>                          ****END OF INPUT****

CARTESIAN COORDINATES (ANGSTROEM)
---------------------------------
  C      1.963365   -1.749150   -1.896887
  C      2.738490   -2.015170   -3.097113
  C      0.611877    1.657634   -4.500288
  C      1.694991    1.541794   -5.570447
  H      2.697326    1.734659   -5.183996
  H      1.506656    2.272239   -6.358076
  S      1.780287   -0.033128   -6.428739
  C      4.049736   -2.154717   -3.152044
  N      4.658206   -1.986293   -4.318655
  N      4.764231   -2.454435   -2.050491
  H      4.287363   -2.776259   -1.217496
  H      5.750825   -2.658351   -2.125988
  H      2.345176   -1.690274   -3.971447
  H      4.109004   -1.592677   -5.071760
  H      5.649095   -2.156462   -4.427237
  F      2.569287    0.213657   -7.607360
  O      0.416880   -0.462969   -6.618595
  C      2.088520   -0.300912   -1.415204
  H      2.231272   -2.451616   -1.102643
  H      0.930249   -1.977801   -2.155438
  C      0.680356    0.655418   -3.348038
  H     -0.356865    1.549231   -4.991128
  H      0.650228    2.675438   -4.096000
  C      1.968993    0.733582   -2.535654
  H      3.051356   -0.168602   -0.911868
  H      1.316501   -0.136231   -0.657252
  O      2.505129   -0.933263   -5.482570
  H      2.824195    0.624726   -3.208464
  H      2.058919    1.730331   -2.093112
  H      0.542252   -0.344731   -3.766662
  H     -0.174219    0.829692   -2.685182

 Total Charge           Charge          ....    0
 Multiplicity           Mult            ....    1
 Number of Electrons    NEL             ....  120
 Basis Dimension        Dim             ....  432

ORBITAL ENERGIES
----------------

  NO   OCC          E(Eh)            E(eV)
   0   2.0000     -88.392270     -2405.2760
   1   2.0000     -24.426726      -664.6850
   2   2.0000     -18.812399      -511.9114
   3   2.0000     -18.798968      -511.5459
   4   2.0000     -14.009707      -381.2235
   5   2.0000     -13.994530      -380.8105
   6   2.0000      -9.983894      -271.6756
   7   2.0000      -9.946505      -270.6582
   8   2.0000      -9.938292      -270.4347
   9   2.0000      -9.915693      -269.8197
  10   2.0000      -9.904634      -269.5188
  11   2.0000      -9.893988      -269.2291
  12   2.0000      -9.883120      -268.9334
  13   2.0000      -9.813645      -267.0429
  14   2.0000      -7.929063      -215.7608
  15   2.0000      -5.968489      -162.4108
  16   2.0000      -5.962123      -162.2376
  17   2.0000      -5.960115      -162.1830
  18   2.0000      -1.274003       -34.6674
  19   2.0000      -1.021190       -27.7880
  20   2.0000      -0.922044       -25.0901
  21   2.0000      -0.841305       -22.8931
  22   2.0000      -0.759592       -20.6696
  23   2.0000      -0.751838       -20.4586
  24   2.0000      -0.707414       -19.2497
  25   2.0000      -0.675895       -18.3921
  26   2.0000      -0.648397       -17.6438
  27   2.0000      -0.615921       -16.7601
  28   2.0000      -0.579998       -15.7825
  29   2.0000      -0.551106       -14.9963
  30   2.0000      -0.535421       -14.5695
  31   2.0000      -0.522004       -14.2044
  32   2.0000      -0.518480       -14.1085
  33   2.0000      -0.490012       -13.3339
  34   2.0000      -0.485605       -13.2140
  35   2.0000      -0.468853       -12.7581
  36   2.0000      -0.444693       -12.1007
  37   2.0000      -0.439162       -11.9502
  38   2.0000      -0.428513       -11.6604
  39   2.0000      -0.414371       -11.2756
  40   2.0000      -0.411325       -11.1927
  41   2.0000      -0.392782       -10.6881
  42   2.0000      -0.383156       -10.4262
  43   2.0000      -0.375821       -10.2266
  44   2.0000      -0.364459        -9.9174
  45   2.0000      -0.348336        -9.4787
  46   2.0000      -0.337191        -9.1754
  47   2.0000      -0.330790        -9.0012
  48   2.0000      -0.320422        -8.7191
  49   2.0000      -0.311532        -8.4772
  50   2.0000      -0.300904        -8.1880
  51   2.0000      -0.292595        -7.9619
  52   2.0000      -0.285183        -7.7602
  53   2.0000      -0.279532        -7.6064
  54   2.0000      -0.271656        -7.3921
  55   2.0000      -0.269419        -7.3313
  56   2.0000      -0.256723        -6.9858
  57   2.0000      -0.242866        -6.6087
  58   2.0000      -0.199071        -5.4170
  59   2.0000      -0.105552        -2.8722
  60   0.0000      -0.031424        -0.8551
  61   0.0000      -0.010489        -0.2854
  62   0.0000       0.003575         0.0973
  63   0.0000       0.010568         0.2876
  64   0.0000       0.018833         0.5125

MULLIKEN ATOMIC CHARGES
-----------------------
   0 C :    0.622587
   1 C :    0.307303
   2 C :    0.736545
   3 C :    0.406280
   4 H :   -0.027566
   5 H :   -0.265848
   6 S :    1.445062
   7 C :    0.443042
   8 N :    0.484587
   9 N :    0.258909
  10 H :   -0.106618
  11 H :   -0.366174
  12 H :   -0.672896
  13 H :   -0.289847
  14 H :   -0.371022
  15 F :   -0.422176
  16 O :   -0.626777
  17 C :    0.900201
  18 H :   -0.559179
  19 H :   -0.005879
  20 C :    0.295143
  21 H :   -0.163382
  22 H :   -0.189228
  23 C :    0.163507
  24 H :   -0.177690
  25 H :   -0.098949
  26 O :   -0.671083
  27 H :   -0.130357
  28 H :   -0.364207
  29 H :   -0.207858
  30 H :   -0.346428
Sum of atomic charges:   -0.0000000

LOEWDIN ATOMIC CHARGES
----------------------
   0 C :   -0.039351
   1 C :   -0.016636
   2 C :   -0.011969
   3 C :   -0.043021
   4 H :    0.016183
   5 H :    0.012342
   6 S :    1.149111
   7 C :   -0.210589
   8 N :    0.221606
   9 N :    0.217646
  10 H :   -0.018571
  11 H :   -0.025196
  12 H :   -0.132801
  13 H :   -0.087123
  14 H :   -0.019265
  15 F :   -0.234603
  16 O :   -0.418434
  17 C :   -0.012545
  18 H :   -0.006686
  19 H :    0.004880
  20 C :   -0.007563
  21 H :    0.024089
  22 H :    0.032881
  23 C :   -0.020044
  24 H :    0.011451
  25 H :    0.008403
  26 O :   -0.452248
  27 H :    0.003664
  28 H :    0.016275
  29 H :    0.008466
  30 H :    0.029647

  Mayer bond orders larger than 0.100000
B(  0-C ,  1-C ) :   0.9358 B(  0-C ,  7-C ) :   0.2490 B(  0-C , 12-H ) :   0.5741
B(  0-C , 17-C ) :   1.0537 B(  0-C , 18-H ) :   0.5954 B(  0-C , 19-H ) :   0.5485
B(  0-C , 23-C ) :   0.2424 B(  0-C , 24-H ) :   0.1592 B(  0-C , 25-H ) :   0.2545
B(  1-C ,  7-C ) :   1.5399 B(  1-C ,  8-N ) :   0.2914 B(  1-C ,  9-N ) :   0.3071
B(  1-C , 10-H ) :  -0.1205 B(  1-C , 12-H ) :  -0.2614 B(  1-C , 17-C ) :   0.1645
B(  1-C , 18-H ) :   0.3373 B(  1-C , 19-H ) :   0.3826 B(  1-C , 26-O ) :  -0.1318
B(  1-C , 28-H ) :   0.1354 B(  2-C ,  3-C ) :   1.2500 B(  2-C ,  4-H ) :   0.1434
B(  2-C ,  5-H ) :   0.2506 B(  2-C , 20-C ) :   1.2098 B(  2-C , 21-H ) :   0.5021
B(  2-C , 22-H ) :   0.6341 B(  3-C ,  4-H ) :   0.8296 B(  3-C ,  5-H ) :   0.6549
B(  3-C ,  6-S ) :   0.9867 B(  3-C , 20-C ) :   0.1057 B(  3-C , 21-H ) :   0.1436
B(  3-C , 22-H ) :   0.2033 B(  6-S , 15-F ) :   0.6664 B(  6-S , 16-O ) :   1.4904
B(  6-S , 26-O ) :   1.3871 B(  7-C ,  8-N ) :   0.8771 B(  7-C ,  9-N ) :   0.9979
B(  7-C , 11-H ) :  -0.1872 B(  7-C , 12-H ) :   0.7484 B(  7-C , 13-H ) :  -0.1417
B(  7-C , 14-H ) :  -0.2436 B(  8-N ,  9-N ) :   0.1156 B(  8-N , 12-H ) :   0.1042
B(  8-N , 13-H ) :   1.1819 B(  8-N , 14-H ) :   1.3328 B(  9-N , 10-H ) :   1.0850
B(  9-N , 11-H ) :   1.3480 B( 10-H , 11-H ) :  -0.2392 B( 12-H , 23-C ) :   0.1386
B( 12-H , 26-O ) :   0.1938 B( 12-H , 27-H ) :   0.1232 B( 12-H , 28-H ) :  -0.1822
B( 13-H , 14-H ) :  -0.2225 B( 13-H , 26-O ) :   0.1434 B( 16-O , 26-O ) :   0.1705
B( 17-C , 18-H ) :   0.1047 B( 17-C , 19-H ) :   0.1226 B( 17-C , 23-C ) :   1.1619
B( 17-C , 24-H ) :   0.5856 B( 17-C , 25-H ) :   0.5368 B( 17-C , 27-H ) :   0.1430
B( 17-C , 28-H ) :   0.1315 B( 18-H , 19-H ) :  -0.1145 B( 19-H , 23-C ) :  -0.1030
B( 20-C , 21-H ) :   0.3683 B( 20-C , 22-H ) :   0.1108 B( 20-C , 23-C ) :   1.1812
B( 20-C , 27-H ) :   0.1595 B( 20-C , 28-H ) :   0.1984 B( 20-C , 29-H ) :   0.8665
B( 20-C , 30-H ) :   0.6619 B( 21-H , 22-H ) :  -0.1476 B( 23-C , 24-H ) :   0.3444
B( 23-C , 25-H ) :   0.1922 B( 23-C , 27-H ) :   0.8045 B( 23-C , 28-H ) :   0.7182
B( 23-C , 29-H ) :   0.1488 B( 23-C , 30-H ) :   0.1857 B( 24-H , 25-H ) :  -0.1553

Dispersion correction           -0.076237429
FINAL SINGLE POINT ENERGY     -1072.167150424900

DIPOLE MOMENT
-------------
                                X             Y             Z
Electronic contribution:      0.71223      -1.04542     -23.49496
Nuclear contribution   :      0.18720       2.58739      22.98820
                        -----------------------------------------
Total Dipole Moment    :      0.89943       1.54197      -0.50675
                        -----------------------------------------
Magnitude (a.u.)       :      1.85566
Magnitude (Debye)      :      4.71670

Rotational constants in cm-1:     0.028798     0.014448     0.010940
Rotational constants in MHz :   863.355869   433.126694   327.985023

                             ****ORCA TERMINATED NORMALLY****
TOTAL RUN TIME: 0 days 0 hours 0 minutes 43 seconds 236 msec
