                         Program Version 5.0.0 -  RELEASE  -
|  1> !BLYP D3BJ RIJCOSX def2-SVPD def2/J TightSCF xyzfile
|  2>
|  3> *xyzfile 0 1 D3.xyz
|  4>
|  5> %MaxCore 64000
|  6>
|  7> %pal nprocs 4
|  8> end
|  9>
| 10> %scf
| 11>   MaxIter 150
| 12> end
| 13>
| 14>
| 15>                          ****END OF INPUT****

CARTESIAN COORDINATES (ANGSTROEM)
---------------------------------
  C      1.963365   -1.749150   -1.896887
  N      2.738490   -2.015170   -3.097113
  C      0.611877    1.657634   -4.500288
  C      1.694991    1.541794   -5.570447
  H      2.697326    1.734659   -5.183996
  H      1.506656    2.272239   -6.358076
  S      1.780287   -0.033128   -6.428739
  C      4.049736   -2.154717   -3.152044
  N      4.658206   -1.986293   -4.318655
  C      4.764231   -2.454435   -2.050491
  H      4.287363   -2.776259   -1.217496
  H      5.750825   -2.658351   -2.125988
  H      2.345176   -1.690274   -3.971447
  H      4.109004   -1.592677   -5.071760
  H      5.649095   -2.156462   -4.427237
  F      2.569287    0.213657   -7.607360
  O      0.416880   -0.462969   -6.618595
  C      2.088520   -0.300912   -1.415204
  H      2.231272   -2.451616   -1.102643
  H      0.930249   -1.977801   -2.155438
  C      0.680356    0.655418   -3.348038
  H     -0.356865    1.549231   -4.991128
  H      0.650228    2.675438   -4.096000
  C      1.968993    0.733582   -2.535654
  H      3.051356   -0.168602   -0.911868
  H      1.316501   -0.136231   -0.657252
  O      2.505129   -0.933263   -5.482570
  H      2.824195    0.624726   -3.208464
  H      2.058919    1.730331   -2.093112
  H      0.542252   -0.344731   -3.766662
  H     -0.174219    0.829692   -2.685182

 Total Charge           Charge          ....    0
 Multiplicity           Mult            ....    1
 Number of Electrons    NEL             ....  120
 Basis Dimension        Dim             ....  432

ORBITAL ENERGIES
----------------

  NO   OCC          E(Eh)            E(eV)
   0   2.0000     -88.411222     -2405.7917
   1   2.0000     -24.442974      -665.1271
   2   2.0000     -18.828409      -512.3471
   3   2.0000     -18.819569      -512.1065
   4   2.0000     -13.992665      -380.7598
   5   2.0000     -13.991418      -380.7258
   6   2.0000      -9.997967      -272.0585
   7   2.0000      -9.960336      -271.0345
   8   2.0000      -9.938289      -270.4346
   9   2.0000      -9.937232      -270.4058
  10   2.0000      -9.932235      -270.2699
  11   2.0000      -9.920393      -269.9476
  12   2.0000      -9.908906      -269.6350
  13   2.0000      -9.814865      -267.0760
  14   2.0000      -7.947729      -216.2687
  15   2.0000      -5.987048      -162.9159
  16   2.0000      -5.981017      -162.7517
  17   2.0000      -5.978717      -162.6892
  18   2.0000      -1.290041       -35.1038
  19   2.0000      -1.038777       -28.2666
  20   2.0000      -0.941204       -25.6115
  21   2.0000      -0.849131       -23.1060
  22   2.0000      -0.771836       -21.0027
  23   2.0000      -0.765118       -20.8199
  24   2.0000      -0.715180       -19.4610
  25   2.0000      -0.683267       -18.5926
  26   2.0000      -0.649970       -17.6866
  27   2.0000      -0.612648       -16.6710
  28   2.0000      -0.603322       -16.4172
  29   2.0000      -0.571016       -15.5381
  30   2.0000      -0.546869       -14.8811
  31   2.0000      -0.536758       -14.6059
  32   2.0000      -0.525648       -14.3036
  33   2.0000      -0.507380       -13.8065
  34   2.0000      -0.478928       -13.0323
  35   2.0000      -0.467182       -12.7127
  36   2.0000      -0.460336       -12.5264
  37   2.0000      -0.453457       -12.3392
  38   2.0000      -0.440942       -11.9986
  39   2.0000      -0.427292       -11.6272
  40   2.0000      -0.409043       -11.1306
  41   2.0000      -0.404917       -11.0184
  42   2.0000      -0.389964       -10.6115
  43   2.0000      -0.377796       -10.2803
  44   2.0000      -0.373771       -10.1708
  45   2.0000      -0.363670        -9.8960
  46   2.0000      -0.343328        -9.3424
  47   2.0000      -0.339275        -9.2321
  48   2.0000      -0.323180        -8.7942
  49   2.0000      -0.319562        -8.6957
  50   2.0000      -0.316138        -8.6026
  51   2.0000      -0.305056        -8.3010
  52   2.0000      -0.302434        -8.2296
  53   2.0000      -0.295961        -8.0535
  54   2.0000      -0.286475        -7.7954
  55   2.0000      -0.285649        -7.7729
  56   2.0000      -0.284145        -7.7320
  57   2.0000      -0.273845        -7.4517
  58   2.0000      -0.181516        -4.9393
  59   2.0000      -0.107878        -2.9355
  60   0.0000      -0.045648        -1.2422
  61   0.0000      -0.021856        -0.5947
  62   0.0000      -0.001052        -0.0286
  63   0.0000       0.005372         0.1462
  64   0.0000       0.009435         0.2567

MULLIKEN ATOMIC CHARGES
-----------------------
   0 C :    1.240781
   1 N :    0.435895
   2 C :    0.740944
   3 C :    0.406286
   4 H :   -0.017113
   5 H :   -0.266596
   6 S :    1.465735
   7 C :    0.518883
   8 N :    0.766631
   9 C :    0.655310
  10 H :   -0.105559
  11 H :   -0.875646
  12 H :   -0.971853
  13 H :   -0.446309
  14 H :   -0.338073
  15 F :   -0.413106
  16 O :   -0.620050
  17 C :    0.778153
  18 H :   -0.523382
  19 H :   -0.344691
  20 C :    0.278909
  21 H :   -0.151699
  22 H :   -0.183054
  23 C :    0.306788
  24 H :   -0.267352
  25 H :   -0.185962
  26 O :   -0.764461
  27 H :   -0.089535
  28 H :   -0.486700
  29 H :   -0.195352
  30 H :   -0.347822
Sum of atomic charges:    0.0000000

LOEWDIN ATOMIC CHARGES
----------------------
   0 C :    0.070245
   1 N :    0.029834
   2 C :   -0.009486
   3 C :   -0.040032
   4 H :    0.018138
   5 H :    0.014998
   6 S :    1.153944
   7 C :   -0.237256
   8 N :    0.226076
   9 C :    0.164803
  10 H :   -0.125585
  11 H :   -0.119410
  12 H :   -0.088522
  13 H :   -0.101021
  14 H :    0.000711
  15 F :   -0.225356
  16 O :   -0.413886
  17 C :    0.000189
  18 H :    0.008864
  19 H :    0.010765
  20 C :   -0.012636
  21 H :    0.025587
  22 H :    0.035721
  23 C :   -0.019243
  24 H :    0.012746
  25 H :    0.014332
  26 O :   -0.452542
  27 H :    0.003679
  28 H :    0.019627
  29 H :    0.003359
  30 H :    0.031358

  Mayer bond orders larger than 0.100000
B(  0-C ,  1-N ) :   1.0234 B(  0-C ,  7-C ) :  -0.1298 B(  0-C ,  9-C ) :   0.1105
B(  0-C , 12-H ) :  -0.4025 B(  0-C , 17-C ) :   0.9714 B(  0-C , 18-H ) :   0.7252
B(  0-C , 19-H ) :   0.5381 B(  0-C , 23-C ) :   0.1811 B(  0-C , 25-H ) :   0.1421
B(  1-N ,  7-C ) :   0.9319 B(  1-N ,  9-C ) :   0.5476 B(  1-N , 12-H ) :   0.7118
B(  1-N , 13-H ) :   0.1221 B(  1-N , 19-H ) :   0.1846 B(  2-C ,  3-C ) :   1.2508
B(  2-C ,  4-H ) :   0.1378 B(  2-C ,  5-H ) :   0.2450 B(  2-C , 20-C ) :   1.2083
B(  2-C , 21-H ) :   0.4975 B(  2-C , 22-H ) :   0.6435 B(  2-C , 29-H ) :   0.1128
B(  3-C ,  4-H ) :   0.8345 B(  3-C ,  5-H ) :   0.6590 B(  3-C ,  6-S ) :   0.9783
B(  3-C , 20-C ) :   0.1084 B(  3-C , 21-H ) :   0.1435 B(  3-C , 22-H ) :   0.2031
B(  6-S , 15-F ) :   0.6741 B(  6-S , 16-O ) :   1.5011 B(  6-S , 26-O ) :   1.3722
B(  7-C ,  8-N ) :   0.9095 B(  7-C ,  9-C ) :   1.2212 B(  7-C , 10-H ) :   0.3874
B(  7-C , 11-H ) :   0.2975 B(  7-C , 12-H ) :  -0.3587 B(  7-C , 14-H ) :  -0.1793
B(  7-C , 19-H ) :   0.1102 B(  8-N ,  9-C ) :   0.2617 B(  8-N , 11-H ) :   0.1170
B(  8-N , 13-H ) :   0.9556 B(  8-N , 14-H ) :   1.2779 B(  9-C , 10-H ) :   0.4787
B(  9-C , 11-H ) :   0.5271 B(  9-C , 12-H ) :  -0.1542 B(  9-C , 13-H ) :  -0.1067
B(  9-C , 19-H ) :  -0.1136 B( 10-H , 13-H ) :   0.1218 B( 10-H , 18-H ) :   0.1710
B( 10-H , 19-H ) :  -0.1325 B( 12-H , 19-H ) :   0.1396 B( 12-H , 23-C ) :  -0.1119
B( 12-H , 26-O ) :   0.1728 B( 12-H , 27-H ) :   0.1492 B( 12-H , 28-H ) :  -0.1425
B( 13-H , 14-H ) :  -0.2111 B( 13-H , 26-O ) :   0.2535 B( 16-O , 26-O ) :   0.1700
B( 17-C , 18-H ) :   0.1303 B( 17-C , 19-H ) :   0.1253 B( 17-C , 23-C ) :   1.1915
B( 17-C , 24-H ) :   0.6321 B( 17-C , 25-H ) :   0.7054 B( 17-C , 27-H ) :   0.1317
B( 18-H , 19-H ) :  -0.2823 B( 19-H , 23-C ) :  -0.1018 B( 19-H , 29-H ) :   0.1051
B( 20-C , 21-H ) :   0.3683 B( 20-C , 22-H ) :   0.1080 B( 20-C , 23-C ) :   1.1780
B( 20-C , 27-H ) :   0.1613 B( 20-C , 28-H ) :   0.1879 B( 20-C , 29-H ) :   0.8809
B( 20-C , 30-H ) :   0.6687 B( 21-H , 22-H ) :  -0.1440 B( 23-C , 24-H ) :   0.3066
B( 23-C , 25-H ) :   0.1629 B( 23-C , 27-H ) :   0.7753 B( 23-C , 28-H ) :   0.6977
B( 23-C , 29-H ) :   0.1271 B( 23-C , 30-H ) :   0.1588 B( 24-H , 25-H ) :  -0.1545

Dispersion correction           -0.075647685
FINAL SINGLE POINT ENERGY     -1072.174265542636

DIPOLE MOMENT
-------------
                                X             Y             Z
Electronic contribution:     -1.12791      -0.27111     -24.47956
Nuclear contribution   :      0.44707       2.53104      23.12246
                        -----------------------------------------
Total Dipole Moment    :     -0.68084       2.25994      -1.35710
                        -----------------------------------------
Magnitude (a.u.)       :      2.72261
Magnitude (Debye)      :      6.92032

Rotational constants in cm-1:     0.028906     0.014696     0.011110
Rotational constants in MHz :   866.591909   440.585554   333.081943

                             ****ORCA TERMINATED NORMALLY****
TOTAL RUN TIME: 0 days 0 hours 0 minutes 47 seconds 476 msec
