                         Program Version 5.0.0 -  RELEASE  -
|  1> !BLYP D3BJ RIJCOSX def2-SVPD def2/J TightSCF xyzfile
|  2>
|  3> *xyzfile 0 1 D6.xyz
|  4>
|  5> %MaxCore 64000
|  6>
|  7> %pal nprocs 4
|  8> end
|  9>
| 10> %scf
| 11>   MaxIter 150
| 12> end
| 13>
| 14>
| 15>                          ****END OF INPUT****

CARTESIAN COORDINATES (ANGSTROEM)
---------------------------------
  C      1.963365   -1.749150   -1.896887
  N      2.738490   -2.015170   -3.097113
  C      0.611877    1.657634   -4.500288
  C      1.694991    1.541794   -5.570447
  H      2.697326    1.734659   -5.183996
  H      1.506656    2.272239   -6.358076
  S      1.780287   -0.033128   -6.428739
  C      4.049736   -2.154717   -3.152044
  N      4.658206   -1.986293   -4.318655
  C      4.764231   -2.454435   -2.050491
  H      4.287363   -2.776259   -1.217496
  H      5.750825   -2.658351   -2.125988
  H      2.345176   -1.690274   -3.971447
  H      4.109004   -1.592677   -5.071760
  H      5.649095   -2.156462   -4.427237
  O      2.569287    0.213657   -7.607360
  F      0.416880   -0.462969   -6.618595
  C      2.088520   -0.300912   -1.415204
  H      2.231272   -2.451616   -1.102643
  H      0.930249   -1.977801   -2.155438
  C      0.680356    0.655418   -3.348038
  H     -0.356865    1.549231   -4.991128
  H      0.650228    2.675438   -4.096000
  C      1.968993    0.733582   -2.535654
  H      3.051356   -0.168602   -0.911868
  H      1.316501   -0.136231   -0.657252
  O      2.505129   -0.933263   -5.482570
  H      2.824195    0.624726   -3.208464
  H      2.058919    1.730331   -2.093112
  H      0.542252   -0.344731   -3.766662
  H     -0.174219    0.829692   -2.685182

 Total Charge           Charge          ....    0
 Multiplicity           Mult            ....    1
 Number of Electrons    NEL             ....  120
 Basis Dimension        Dim             ....  432

ORBITAL ENERGIES
----------------

  NO   OCC          E(Eh)            E(eV)
   0   2.0000     -88.411003     -2405.7857
   1   2.0000     -24.442504      -665.1143
   2   2.0000     -18.827638      -512.3261
   3   2.0000     -18.819122      -512.0943
   4   2.0000     -13.992370      -380.7517
   5   2.0000     -13.991625      -380.7315
   6   2.0000      -9.997707      -272.0514
   7   2.0000      -9.964491      -271.1476
   8   2.0000      -9.940033      -270.4820
   9   2.0000      -9.939927      -270.4792
  10   2.0000      -9.938562      -270.4420
  11   2.0000      -9.924593      -270.0619
  12   2.0000      -9.911930      -269.7173
  13   2.0000      -9.815318      -267.0884
  14   2.0000      -7.947463      -216.2615
  15   2.0000      -5.986941      -162.9129
  16   2.0000      -5.980713      -162.7435
  17   2.0000      -5.978353      -162.6793
  18   2.0000      -1.288437       -35.0602
  19   2.0000      -1.039309       -28.2810
  20   2.0000      -0.940846       -25.6017
  21   2.0000      -0.849502       -23.1161
  22   2.0000      -0.774176       -21.0664
  23   2.0000      -0.767551       -20.8861
  24   2.0000      -0.716085       -19.4857
  25   2.0000      -0.682096       -18.5608
  26   2.0000      -0.654377       -17.8065
  27   2.0000      -0.614720       -16.7274
  28   2.0000      -0.603749       -16.4288
  29   2.0000      -0.573863       -15.6156
  30   2.0000      -0.548912       -14.9366
  31   2.0000      -0.544823       -14.8254
  32   2.0000      -0.522152       -14.2085
  33   2.0000      -0.510510       -13.8917
  34   2.0000      -0.475887       -12.9495
  35   2.0000      -0.467325       -12.7165
  36   2.0000      -0.455829       -12.4037
  37   2.0000      -0.453136       -12.3304
  38   2.0000      -0.443990       -12.0816
  39   2.0000      -0.431763       -11.7489
  40   2.0000      -0.412627       -11.2281
  41   2.0000      -0.406642       -11.0653
  42   2.0000      -0.392289       -10.6747
  43   2.0000      -0.382596       -10.4110
  44   2.0000      -0.379403       -10.3241
  45   2.0000      -0.359561        -9.7841
  46   2.0000      -0.347472        -9.4552
  47   2.0000      -0.346124        -9.4185
  48   2.0000      -0.329006        -8.9527
  49   2.0000      -0.321793        -8.7564
  50   2.0000      -0.313783        -8.5385
  51   2.0000      -0.310164        -8.4400
  52   2.0000      -0.301897        -8.2150
  53   2.0000      -0.298196        -8.1143
  54   2.0000      -0.289446        -7.8762
  55   2.0000      -0.288100        -7.8396
  56   2.0000      -0.283695        -7.7197
  57   2.0000      -0.274758        -7.4766
  58   2.0000      -0.181806        -4.9472
  59   2.0000      -0.108353        -2.9484
  60   0.0000      -0.049670        -1.3516
  61   0.0000      -0.013825        -0.3762
  62   0.0000      -0.003967        -0.1080
  63   0.0000       0.001004         0.0273
  64   0.0000       0.008540         0.2324

MULLIKEN ATOMIC CHARGES
-----------------------
   0 C :    1.245669
   1 N :    0.437831
   2 C :    0.778369
   3 C :    0.433058
   4 H :   -0.052115
   5 H :   -0.274873
   6 S :    1.365047
   7 C :    0.517546
   8 N :    0.770037
   9 C :    0.654416
  10 H :   -0.108128
  11 H :   -0.872884
  12 H :   -0.970701
  13 H :   -0.440099
  14 H :   -0.336644
  15 O :   -0.565454
  16 F :   -0.413878
  17 C :    0.775687
  18 H :   -0.517350
  19 H :   -0.361954
  20 C :    0.305506
  21 H :   -0.170558
  22 H :   -0.189273
  23 C :    0.289167
  24 H :   -0.268202
  25 H :   -0.182325
  26 O :   -0.747636
  27 H :   -0.078954
  28 H :   -0.484465
  29 H :   -0.188455
  30 H :   -0.348389
Sum of atomic charges:   -0.0000000

LOEWDIN ATOMIC CHARGES
----------------------
   0 C :    0.068609
   1 N :    0.027018
   2 C :   -0.024941
   3 C :   -0.027734
   4 H :    0.030403
   5 H :    0.019080
   6 S :    1.149336
   7 C :   -0.237675
   8 N :    0.230333
   9 C :    0.165092
  10 H :   -0.125946
  11 H :   -0.118694
  12 H :   -0.094934
  13 H :   -0.093193
  14 H :    0.003033
  15 O :   -0.413368
  16 F :   -0.223786
  17 C :    0.000588
  18 H :    0.008796
  19 H :    0.008545
  20 C :   -0.018977
  21 H :    0.019753
  22 H :    0.033497
  23 C :   -0.016656
  24 H :    0.013659
  25 H :    0.014226
  26 O :   -0.451114
  27 H :    0.005599
  28 H :    0.021159
  29 H :   -0.002446
  30 H :    0.030737

  Mayer bond orders larger than 0.100000
B(  0-C ,  1-N ) :   1.0191 B(  0-C ,  7-C ) :  -0.1310 B(  0-C ,  9-C ) :   0.1102
B(  0-C , 12-H ) :  -0.4047 B(  0-C , 17-C ) :   0.9723 B(  0-C , 18-H ) :   0.7227
B(  0-C , 19-H ) :   0.5359 B(  0-C , 23-C ) :   0.1824 B(  0-C , 25-H ) :   0.1427
B(  1-N ,  7-C ) :   0.9287 B(  1-N ,  9-C ) :   0.5541 B(  1-N , 12-H ) :   0.7079
B(  1-N , 13-H ) :   0.1272 B(  1-N , 19-H ) :   0.1860 B(  1-N , 26-O ) :  -0.1067
B(  2-C ,  3-C ) :   1.2136 B(  2-C ,  4-H ) :   0.1311 B(  2-C ,  5-H ) :   0.2205
B(  2-C , 20-C ) :   1.2122 B(  2-C , 21-H ) :   0.4761 B(  2-C , 22-H ) :   0.6446
B(  2-C , 29-H ) :   0.1075 B(  3-C ,  4-H ) :   0.8476 B(  3-C ,  5-H ) :   0.7207
B(  3-C ,  6-S ) :   0.9950 B(  3-C , 21-H ) :   0.1414 B(  3-C , 22-H ) :   0.1953
B(  6-S , 15-O ) :   1.6262 B(  6-S , 16-F ) :   0.6179 B(  6-S , 26-O ) :   1.4053
B(  7-C ,  8-N ) :   0.9105 B(  7-C ,  9-C ) :   1.2218 B(  7-C , 10-H ) :   0.3893
B(  7-C , 11-H ) :   0.3016 B(  7-C , 12-H ) :  -0.3574 B(  7-C , 14-H ) :  -0.1784
B(  7-C , 19-H ) :   0.1104 B(  8-N ,  9-C ) :   0.2639 B(  8-N , 11-H ) :   0.1171
B(  8-N , 13-H ) :   0.9550 B(  8-N , 14-H ) :   1.2777 B(  9-C , 10-H ) :   0.4767
B(  9-C , 11-H ) :   0.5238 B(  9-C , 12-H ) :  -0.1578 B(  9-C , 13-H ) :  -0.1063
B(  9-C , 19-H ) :  -0.1123 B( 10-H , 13-H ) :   0.1224 B( 10-H , 18-H ) :   0.1733
B( 10-H , 19-H ) :  -0.1330 B( 12-H , 19-H ) :   0.1325 B( 12-H , 23-C ) :  -0.1084
B( 12-H , 26-O ) :   0.1863 B( 12-H , 27-H ) :   0.1434 B( 12-H , 28-H ) :  -0.1378
B( 13-H , 14-H ) :  -0.2124 B( 13-H , 26-O ) :   0.2269 B( 15-O , 26-O ) :   0.1015
B( 16-F , 26-O ) :   0.1609 B( 17-C , 18-H ) :   0.1317 B( 17-C , 19-H ) :   0.1260
B( 17-C , 23-C ) :   1.1914 B( 17-C , 24-H ) :   0.6333 B( 17-C , 25-H ) :   0.7042
B( 17-C , 27-H ) :   0.1317 B( 18-H , 19-H ) :  -0.2794 B( 19-H , 23-C ) :  -0.1022
B( 20-C , 21-H ) :   0.3658 B( 20-C , 22-H ) :   0.1065 B( 20-C , 23-C ) :   1.1900
B( 20-C , 27-H ) :   0.1623 B( 20-C , 28-H ) :   0.1826 B( 20-C , 29-H ) :   0.8602
B( 20-C , 30-H ) :   0.6675 B( 21-H , 22-H ) :  -0.1570 B( 23-C , 24-H ) :   0.3039
B( 23-C , 25-H ) :   0.1628 B( 23-C , 27-H ) :   0.7753 B( 23-C , 28-H ) :   0.7019
B( 23-C , 29-H ) :   0.1409 B( 23-C , 30-H ) :   0.1570 B( 24-H , 25-H ) :  -0.1536

Dispersion correction           -0.075416863
FINAL SINGLE POINT ENERGY     -1072.173929972217

DIPOLE MOMENT
-------------
                                X             Y             Z
Electronic contribution:     -4.80267      -1.42654     -22.71854
Nuclear contribution   :      2.90585       3.30398      21.99296
                        -----------------------------------------
Total Dipole Moment    :     -1.89682       1.87745      -0.72558
                        -----------------------------------------
Magnitude (a.u.)       :      2.76572
Magnitude (Debye)      :      7.02989

Rotational constants in cm-1:     0.029065     0.014689     0.011200
Rotational constants in MHz :   871.338526   440.374927   335.770911

                             ****ORCA TERMINATED NORMALLY****
TOTAL RUN TIME: 0 days 0 hours 0 minutes 48 seconds 467 msec
