                         Program Version 5.0.0 -  RELEASE  -
|  1> !BLYP D3BJ RIJCOSX def2-SVPD def2/J TightSCF xyzfile
|  2>
|  3> *xyzfile 0 1 D9.xyz
|  4>
|  5> %MaxCore 64000
|  6>
|  7> %pal nprocs 4
|  8> end
|  9>
| 10> %scf
| 11>   MaxIter 150
| 12> end
| 13>
| 14>
| 15>                          ****END OF INPUT****

CARTESIAN COORDINATES (ANGSTROEM)
---------------------------------
  C      1.963365   -1.749150   -1.896887
  N      2.738490   -2.015170   -3.097113
  C      0.611877    1.657634   -4.500288
  C      1.694991    1.541794   -5.570447
  H      2.697326    1.734659   -5.183996
  H      1.506656    2.272239   -6.358076
  S      1.780287   -0.033128   -6.428739
  C      4.049736   -2.154717   -3.152044
  N      4.658206   -1.986293   -4.318655
  C      4.764231   -2.454435   -2.050491
  H      4.287363   -2.776259   -1.217496
  H      5.750825   -2.658351   -2.125988
  H      2.345176   -1.690274   -3.971447
  H      4.109004   -1.592677   -5.071760
  H      5.649095   -2.156462   -4.427237
  O      2.569287    0.213657   -7.607360
  O      0.416880   -0.462969   -6.618595
  C      2.088520   -0.300912   -1.415204
  H      2.231272   -2.451616   -1.102643
  H      0.930249   -1.977801   -2.155438
  C      0.680356    0.655418   -3.348038
  H     -0.356865    1.549231   -4.991128
  H      0.650228    2.675438   -4.096000
  C      1.968993    0.733582   -2.535654
  H      3.051356   -0.168602   -0.911868
  H      1.316501   -0.136231   -0.657252
  F      2.505129   -0.933263   -5.482570
  H      2.824195    0.624726   -3.208464
  H      2.058919    1.730331   -2.093112
  H      0.542252   -0.344731   -3.766662
  H     -0.174219    0.829692   -2.685182

 Total Charge           Charge          ....    0
 Multiplicity           Mult            ....    1
 Number of Electrons    NEL             ....  120
 Basis Dimension        Dim             ....  432

ORBITAL ENERGIES
----------------

  NO   OCC          E(Eh)            E(eV)
   0   2.0000     -88.398021     -2405.4324
   1   2.0000     -24.425331      -664.6471
   2   2.0000     -18.820553      -512.1333
   3   2.0000     -18.820141      -512.1221
   4   2.0000     -14.021644      -381.5483
   5   2.0000     -14.019783      -381.4977
   6   2.0000      -9.991367      -271.8789
   7   2.0000      -9.960528      -271.0397
   8   2.0000      -9.957303      -270.9520
   9   2.0000      -9.954685      -270.8808
  10   2.0000      -9.941473      -270.5212
  11   2.0000      -9.932703      -270.2826
  12   2.0000      -9.922311      -269.9998
  13   2.0000      -9.835321      -267.6327
  14   2.0000      -7.934959      -215.9212
  15   2.0000      -5.974530      -162.5752
  16   2.0000      -5.967891      -162.3946
  17   2.0000      -5.966055      -162.3446
  18   2.0000      -1.257814       -34.2269
  19   2.0000      -1.040827       -28.3223
  20   2.0000      -0.949400       -25.8345
  21   2.0000      -0.875885       -23.8340
  22   2.0000      -0.795677       -21.6515
  23   2.0000      -0.765401       -20.8276
  24   2.0000      -0.719222       -19.5710
  25   2.0000      -0.687847       -18.7173
  26   2.0000      -0.659691       -17.9511
  27   2.0000      -0.622475       -16.9384
  28   2.0000      -0.618873       -16.8404
  29   2.0000      -0.572802       -15.5867
  30   2.0000      -0.541199       -14.7268
  31   2.0000      -0.535628       -14.5752
  32   2.0000      -0.519087       -14.1251
  33   2.0000      -0.505439       -13.7537
  34   2.0000      -0.487636       -13.2692
  35   2.0000      -0.483404       -13.1541
  36   2.0000      -0.463472       -12.6117
  37   2.0000      -0.452764       -12.3203
  38   2.0000      -0.447960       -12.1896
  39   2.0000      -0.431815       -11.7503
  40   2.0000      -0.419873       -11.4253
  41   2.0000      -0.413329       -11.2473
  42   2.0000      -0.397141       -10.8068
  43   2.0000      -0.390899       -10.6369
  44   2.0000      -0.381344       -10.3769
  45   2.0000      -0.361323        -9.8321
  46   2.0000      -0.353959        -9.6317
  47   2.0000      -0.352128        -9.5819
  48   2.0000      -0.337121        -9.1735
  49   2.0000      -0.327296        -8.9062
  50   2.0000      -0.325198        -8.8491
  51   2.0000      -0.318836        -8.6760
  52   2.0000      -0.309928        -8.4336
  53   2.0000      -0.303959        -8.2712
  54   2.0000      -0.300542        -8.1782
  55   2.0000      -0.296814        -8.0767
  56   2.0000      -0.289659        -7.8820
  57   2.0000      -0.287291        -7.8176
  58   2.0000      -0.206293        -5.6135
  59   2.0000      -0.129228        -3.5165
  60   0.0000      -0.037665        -1.0249
  61   0.0000      -0.012038        -0.3276
  62   0.0000      -0.004290        -0.1167
  63   0.0000       0.000044         0.0012
  64   0.0000       0.010455         0.2845

MULLIKEN ATOMIC CHARGES
-----------------------
   0 C :    1.253679
   1 N :    0.413525
   2 C :    0.809202
   3 C :    0.423654
   4 H :   -0.012210
   5 H :   -0.344709
   6 S :    1.355655
   7 C :    0.516748
   8 N :    0.797533
   9 C :    0.657936
  10 H :   -0.089519
  11 H :   -0.863792
  12 H :   -0.973456
  13 H :   -0.488016
  14 H :   -0.304102
  15 O :   -0.587730
  16 O :   -0.642981
  17 C :    0.767843
  18 H :   -0.510918
  19 H :   -0.343280
  20 C :    0.277773
  21 H :   -0.162385
  22 H :   -0.179853
  23 C :    0.279634
  24 H :   -0.266972
  25 H :   -0.192219
  26 F :   -0.495246
  27 H :   -0.086020
  28 H :   -0.466911
  29 H :   -0.242120
  30 H :   -0.300744
Sum of atomic charges:   -0.0000000

LOEWDIN ATOMIC CHARGES
----------------------
   0 C :    0.072040
   1 N :    0.023538
   2 C :   -0.019915
   3 C :   -0.033900
   4 H :    0.015880
   5 H :    0.028380
   6 S :    1.100698
   7 C :   -0.238368
   8 N :    0.227113
   9 C :    0.174635
  10 H :   -0.118872
  11 H :   -0.112195
  12 H :   -0.063022
  13 H :   -0.071020
  14 H :    0.009442
  15 O :   -0.421706
  16 O :   -0.419327
  17 C :    0.001641
  18 H :    0.012188
  19 H :    0.012923
  20 C :   -0.016960
  21 H :    0.025582
  22 H :    0.032795
  23 C :   -0.021632
  24 H :    0.014268
  25 H :    0.017325
  26 F :   -0.286304
  27 H :    0.000315
  28 H :    0.023075
  29 H :   -0.001352
  30 H :    0.032736

  Mayer bond orders larger than 0.100000
B(  0-C ,  1-N ) :   1.0093 B(  0-C ,  7-C ) :  -0.1268 B(  0-C ,  9-C ) :   0.1119
B(  0-C , 12-H ) :  -0.3950 B(  0-C , 17-C ) :   0.9725 B(  0-C , 18-H ) :   0.7221
B(  0-C , 19-H ) :   0.5407 B(  0-C , 23-C ) :   0.1764 B(  0-C , 25-H ) :   0.1273
B(  1-N ,  7-C ) :   0.9316 B(  1-N ,  9-C ) :   0.5530 B(  1-N , 12-H ) :   0.7548
B(  1-N , 13-H ) :   0.1111 B(  1-N , 19-H ) :   0.1989 B(  1-N , 26-F ) :  -0.1076
B(  2-C ,  3-C ) :   1.2028 B(  2-C ,  4-H ) :   0.1520 B(  2-C ,  5-H ) :   0.2195
B(  2-C , 20-C ) :   1.2151 B(  2-C , 21-H ) :   0.4929 B(  2-C , 22-H ) :   0.6231
B(  2-C , 29-H ) :   0.1220 B(  3-C ,  4-H ) :   0.8453 B(  3-C ,  5-H ) :   0.6445
B(  3-C ,  6-S ) :   0.9885 B(  3-C , 20-C ) :   0.1273 B(  3-C , 21-H ) :   0.1588
B(  3-C , 22-H ) :   0.1878 B(  5-H ,  6-S ) :   0.1313 B(  6-S , 15-O ) :   1.5754
B(  6-S , 16-O ) :   1.4894 B(  6-S , 26-F ) :   0.6474 B(  7-C ,  8-N ) :   0.8918
B(  7-C ,  9-C ) :   1.2492 B(  7-C , 10-H ) :   0.3920 B(  7-C , 11-H ) :   0.2663
B(  7-C , 12-H ) :  -0.3904 B(  7-C , 14-H ) :  -0.1733 B(  7-C , 19-H ) :   0.1112
B(  8-N ,  9-C ) :   0.2767 B(  8-N , 11-H ) :   0.1035 B(  8-N , 13-H ) :   0.9448
B(  8-N , 14-H ) :   1.2580 B(  9-C , 10-H ) :   0.4716 B(  9-C , 11-H ) :   0.5637
B(  9-C , 12-H ) :  -0.1625 B(  9-C , 19-H ) :  -0.1071 B( 10-H , 13-H ) :   0.1155
B( 10-H , 18-H ) :   0.1748 B( 10-H , 19-H ) :  -0.1322 B( 12-H , 19-H ) :   0.1289
B( 12-H , 27-H ) :   0.1249 B( 12-H , 28-H ) :  -0.1188 B( 13-H , 14-H ) :  -0.1838
B( 13-H , 26-F ) :   0.2667 B( 15-O , 16-O ) :   0.1160 B( 16-O , 26-F ) :   0.1119
B( 17-C , 18-H ) :   0.1319 B( 17-C , 19-H ) :   0.1228 B( 17-C , 23-C ) :   1.1820
B( 17-C , 24-H ) :   0.6378 B( 17-C , 25-H ) :   0.7169 B( 17-C , 27-H ) :   0.1400
B( 18-H , 19-H ) :  -0.2869 B( 19-H , 29-H ) :   0.1020 B( 20-C , 21-H ) :   0.3706
B( 20-C , 22-H ) :   0.1095 B( 20-C , 23-C ) :   1.1920 B( 20-C , 27-H ) :   0.1418
B( 20-C , 28-H ) :   0.1846 B( 20-C , 29-H ) :   0.8657 B( 20-C , 30-H ) :   0.6655
B( 21-H , 22-H ) :  -0.1445 B( 23-C , 24-H ) :   0.3063 B( 23-C , 25-H ) :   0.1663
B( 23-C , 27-H ) :   0.7798 B( 23-C , 28-H ) :   0.7255 B( 23-C , 29-H ) :   0.1149
B( 23-C , 30-H ) :   0.1799 B( 24-H , 25-H ) :  -0.1510

Dispersion correction           -0.074711399
FINAL SINGLE POINT ENERGY     -1072.183126928999

DIPOLE MOMENT
-------------
                                X             Y             Z
Electronic contribution:     -1.05693      -2.39395     -20.35110
Nuclear contribution   :      0.52036       3.84122      20.69523
                        -----------------------------------------
Total Dipole Moment    :     -0.53657       1.44727       0.34412
                        -----------------------------------------
Magnitude (a.u.)       :      1.58143
Magnitude (Debye)      :      4.01967

Rotational constants in cm-1:     0.029184     0.014996     0.011314
Rotational constants in MHz :   874.907122   449.569665   339.178205

                             ****ORCA TERMINATED NORMALLY****
TOTAL RUN TIME: 0 days 0 hours 0 minutes 43 seconds 341 msec
