                         Program Version 5.0.0 -  RELEASE  -
|  1> !TPSS D3BJ RIJCOSX def2-TZVP def2/J TightSCF
|  2> *xyz -1 1
|  3> C          0.84888        2.66797       -4.30235
|  4> C          2.09343        1.86104       -4.65684
|  5> H          2.44481        2.04157       -5.67499
|  6> H          2.90175        2.13786       -3.98034
|  7> S          1.87964        0.07859       -4.46297
|  8> O          3.20757       -0.46611       -4.42026
|  9> O          1.07506       -0.05616       -3.26876
| 10> O          1.13166       -0.31996       -5.67903
| 11> H          0.05064        2.40112       -4.96303
| 12> H          1.06043        3.71210       -4.40203
| 13> H          0.56237        2.45684       -3.29327
| 14> *
| 15>
| 16> %MaxCore 64000
| 17>
| 18> %pal nprocs 4
| 19> end
| 20>
| 21> %scf
| 22>   MaxIter 150
| 23> end
| 24>
| 25>
| 26>                          ****END OF INPUT****

CARTESIAN COORDINATES (ANGSTROEM)
---------------------------------
  C      0.848880    2.667970   -4.302350
  C      2.093430    1.861040   -4.656840
  H      2.444810    2.041570   -5.674990
  H      2.901750    2.137860   -3.980340
  S      1.879640    0.078590   -4.462970
  O      3.207570   -0.466110   -4.420260
  O      1.075060   -0.056160   -3.268760
  O      1.131660   -0.319960   -5.679030
  H      0.050640    2.401120   -4.963030
  H      1.060430    3.712100   -4.402030
  H      0.562370    2.456840   -3.293270

 Total Charge           Charge          ....   -1
 Multiplicity           Mult            ....    1
 Number of Electrons    NEL             ....   58
 Basis Dimension        Dim             ....  222

ORBITAL ENERGIES
----------------

  NO   OCC          E(Eh)            E(eV)
   0   2.0000     -88.317075     -2403.2298
   1   2.0000     -18.655738      -507.6484
   2   2.0000     -18.652787      -507.5681
   3   2.0000     -18.639839      -507.2158
   4   2.0000      -9.834352      -267.6063
   5   2.0000      -9.832024      -267.5430
   6   2.0000      -7.665790      -208.5967
   7   2.0000      -5.645350      -153.6178
   8   2.0000      -5.644456      -153.5935
   9   2.0000      -5.644234      -153.5874
  10   2.0000      -0.841339       -22.8940
  11   2.0000      -0.720661       -19.6102
  12   2.0000      -0.695635       -18.9292
  13   2.0000      -0.566408       -15.4128
  14   2.0000      -0.444809       -12.1039
  15   2.0000      -0.322938        -8.7876
  16   2.0000      -0.267597        -7.2817
  17   2.0000      -0.260772        -7.0960
  18   2.0000      -0.220717        -6.0060
  19   2.0000      -0.206139        -5.6093
  20   2.0000      -0.201899        -5.4940
  21   2.0000      -0.180481        -4.9111
  22   2.0000      -0.168553        -4.5866
  23   2.0000      -0.098852        -2.6899
  24   2.0000      -0.097850        -2.6626
  25   2.0000      -0.067376        -1.8334
  26   2.0000      -0.060926        -1.6579
  27   2.0000      -0.048912        -1.3310
  28   2.0000      -0.014422        -0.3924
  29   0.0000       0.168056         4.5730
  30   0.0000       0.209764         5.7080
  31   0.0000       0.223308         6.0765
  32   0.0000       0.229659         6.2494
  33   0.0000       0.255586         6.9549

MULLIKEN ATOMIC CHARGES
-----------------------
   0 C :   -0.312901
   1 C :   -0.210448
   2 H :    0.066158
   3 H :    0.059014
   4 S :    0.755229
   5 O :   -0.520134
   6 O :   -0.531149
   7 O :   -0.571097
   8 H :    0.097185
   9 H :    0.055486
  10 H :    0.112657
Sum of atomic charges:   -1.0000000

LOEWDIN ATOMIC CHARGES
----------------------
   0 C :   -0.341190
   1 C :   -0.431046
   2 H :    0.111456
   3 H :    0.110321
   4 S :    0.366318
   5 O :   -0.354270
   6 O :   -0.361550
   7 O :   -0.414854
   8 H :    0.109627
   9 H :    0.093786
  10 H :    0.111402

  Mayer bond orders larger than 0.100000
B(  0-C ,  1-C ) :   0.9980 B(  0-C ,  8-H ) :   0.9697 B(  0-C ,  9-H ) :   0.9526
B(  0-C , 10-H ) :   0.9671 B(  1-C ,  2-H ) :   0.9514 B(  1-C ,  3-H ) :   0.9426
B(  1-C ,  4-S ) :   0.8693 B(  4-S ,  5-O ) :   1.8355 B(  4-S ,  6-O ) :   1.7686
B(  4-S ,  7-O ) :   1.7627

Dispersion correction           -0.012158092
FINAL SINGLE POINT ENERGY      -703.372288769454

DIPOLE MOMENT
-------------
                                X             Y             Z
Electronic contribution:      1.61327      -7.86312       0.05927
Nuclear contribution   :     -1.55288       9.51857       0.00420
                        -----------------------------------------
Total Dipole Moment    :      0.06039       1.65546       0.06348
                        -----------------------------------------
Magnitude (a.u.)       :      1.65777
Magnitude (Debye)      :      4.21372

Rotational constants in cm-1:     0.163401     0.083833     0.082462
Rotational constants in MHz :  4898.624208  2513.264548  2472.149188

                             ****ORCA TERMINATED NORMALLY****
TOTAL RUN TIME: 0 days 0 hours 0 minutes 16 seconds 534 msec
