                         Program Version 5.0.0 -  RELEASE  -
|  1> !TPSS D3BJ RIJCOSX def2-TZVP def2/J TightSCF
|  2> *xyz 1 1
|  3> C         -0.46129        2.23469       -4.98962
|  4> C          0.84888        2.66797       -4.30235
|  5> C         -0.42384        2.39877       -6.47432
|  6> N         -0.95947        3.49265       -7.00740
|  7> N          0.14558        1.48689       -7.20399
|  8> H          0.56537        0.69681       -6.72386
|  9> H          0.22068        1.58177       -8.20752
| 10> H         -1.40624        4.18151       -6.40326
| 11> H         -0.93421        3.68160       -7.99947
| 12> H         -1.28888        2.82674       -4.59500
| 13> H         -0.65170        1.18634       -4.75655
| 14> H          1.66208        2.08894       -4.68750
| 15> H          0.76716        2.51042       -3.24717
| 16> H          1.02677        3.70527       -4.49537
| 17> *
| 18>
| 19> %MaxCore 64000
| 20>
| 21> %pal nprocs 4
| 22> end
| 23>
| 24> %scf
| 25>   MaxIter 150
| 26> end
| 27>
| 28>
| 29>                          ****END OF INPUT****

CARTESIAN COORDINATES (ANGSTROEM)
---------------------------------
  C     -0.461290    2.234690   -4.989620
  C      0.848880    2.667970   -4.302350
  C     -0.423840    2.398770   -6.474320
  N     -0.959470    3.492650   -7.007400
  N      0.145580    1.486890   -7.203990
  H      0.565370    0.696810   -6.723860
  H      0.220680    1.581770   -8.207520
  H     -1.406240    4.181510   -6.403260
  H     -0.934210    3.681600   -7.999470
  H     -1.288880    2.826740   -4.595000
  H     -0.651700    1.186340   -4.756550
  H      1.662080    2.088940   -4.687500
  H      0.767160    2.510420   -3.247170
  H      1.026770    3.705270   -4.495370

 Total Charge           Charge          ....    1
 Multiplicity           Mult            ....    1
 Number of Electrons    NEL             ....   40
 Basis Dimension        Dim             ....  209

ORBITAL ENERGIES
----------------

  NO   OCC          E(Eh)            E(eV)
   0   2.0000     -14.348012      -390.4292
   1   2.0000     -14.344496      -390.3336
   2   2.0000     -10.295962      -280.1674
   3   2.0000     -10.183635      -277.1108
   4   2.0000     -10.140871      -275.9471
   5   2.0000      -1.138318       -30.9752
   6   2.0000      -1.049737       -28.5648
   7   2.0000      -0.912117       -24.8200
   8   2.0000      -0.810483       -22.0544
   9   2.0000      -0.766543       -20.8587
  10   2.0000      -0.729908       -19.8618
  11   2.0000      -0.706126       -19.2147
  12   2.0000      -0.658068       -17.9069
  13   2.0000      -0.605298       -16.4710
  14   2.0000      -0.583232       -15.8706
  15   2.0000      -0.572377       -15.5752
  16   2.0000      -0.506971       -13.7954
  17   2.0000      -0.498439       -13.5632
  18   2.0000      -0.493458       -13.4277
  19   2.0000      -0.455239       -12.3877
  20   0.0000      -0.234187        -6.3726
  21   0.0000      -0.173356        -4.7172
  22   0.0000      -0.127925        -3.4810
  23   0.0000      -0.126028        -3.4294
  24   0.0000      -0.100448        -2.7333

MULLIKEN ATOMIC CHARGES
-----------------------
   0 C :   -0.238177
   1 C :   -0.319050
   2 C :    0.287054
   3 N :   -0.341543
   4 N :   -0.303132
   5 H :    0.301627
   6 H :    0.283548
   7 H :    0.301627
   8 H :    0.282307
   9 H :    0.143626
  10 H :    0.160317
  11 H :    0.131158
  12 H :    0.172675
  13 H :    0.137964
Sum of atomic charges:    1.0000000

LOEWDIN ATOMIC CHARGES
----------------------
   0 C :   -0.216148
   1 C :   -0.250251
   2 C :   -0.304460
   3 N :    0.111541
   4 N :    0.134481
   5 H :    0.214028
   6 H :    0.200336
   7 H :    0.209849
   8 H :    0.194098
   9 H :    0.158713
  10 H :    0.162333
  11 H :    0.122710
  12 H :    0.136844
  13 H :    0.125926

  Mayer bond orders larger than 0.100000
B(  0-C ,  1-C ) :   1.0024 B(  0-C ,  2-C ) :   1.0172 B(  0-C ,  9-H ) :   0.9406
B(  0-C , 10-H ) :   0.9339 B(  1-C , 11-H ) :   0.9630 B(  1-C , 12-H ) :   0.9543
B(  1-C , 13-H ) :   0.9587 B(  2-C ,  3-N ) :   1.4546 B(  2-C ,  4-N ) :   1.4896
B(  3-N ,  7-H ) :   0.8785 B(  3-N ,  8-H ) :   0.8842 B(  4-N ,  5-H ) :   0.8773
B(  4-N ,  6-H ) :   0.8820

Dispersion correction           -0.012421485
FINAL SINGLE POINT ENERGY      -229.164025902459

DIPOLE MOMENT
-------------
                                X             Y             Z
Electronic contribution:     -1.55040      -0.26148      -3.89123
Nuclear contribution   :      1.33202       0.27544       2.83701
                        -----------------------------------------
Total Dipole Moment    :     -0.21838       0.01397      -1.05423
                        -----------------------------------------
Magnitude (a.u.)       :      1.07670
Magnitude (Debye)      :      2.73675

Rotational constants in cm-1:     0.258570     0.126296     0.098869
Rotational constants in MHz :  7751.748523  3786.267300  2964.011691

                             ****ORCA TERMINATED NORMALLY****
TOTAL RUN TIME: 0 days 0 hours 0 minutes 15 seconds 231 msec
