                         Program Version 5.0.0 -  RELEASE  -
|  1> !TPSS D3BJ RIJCOSX def2-TZVP def2/J TightSCF xyzfile
|  2>
|  3> *xyzfile 0 1 B.xyz
|  4>
|  5> %MaxCore 64000
|  6>
|  7> %pal nprocs 18
|  8> end
|  9>
| 10> %scf
| 11>   MaxIter 150
| 12> end
| 13>
| 14>
| 15>                          ****END OF INPUT****

CARTESIAN COORDINATES (ANGSTROEM)
---------------------------------
  C     -0.461293    2.234686   -4.989619
  C      0.848883    2.667967   -4.302351
  C      2.093434    1.861037   -4.656845
  H      2.444814    2.041567   -5.674990
  H      2.901748    2.137864   -3.980338
  S      1.879644    0.078594   -4.462965
  C     -0.423841    2.398772   -6.474317
  N     -0.959467    3.492647   -7.007401
  N      0.145585    1.486891   -7.203987
  H      0.565371    0.696807   -6.723858
  H      0.220682    1.581768   -8.207520
  H     -1.406243    4.181507   -6.403261
  H     -0.934215    3.681601   -7.999468
  O      3.207574   -0.466111   -4.420259
  O      1.075064   -0.056160   -3.268758
  O      1.131661   -0.319960   -5.679031
  H      0.668432    2.559427   -3.232850
  H      1.034074    3.729426   -4.497081
  H     -1.288884    2.826737   -4.594997
  H     -0.651696    1.186343   -4.756552

 Total Charge           Charge          ....    0
 Multiplicity           Mult            ....    1
 Number of Electrons    NEL             ....   88
 Basis Dimension        Dim             ....  376

ORBITAL ENERGIES
----------------

  NO   OCC          E(Eh)            E(eV)
   0   2.0000     -88.474326     -2407.5088
   1   2.0000     -18.817878      -512.0605
   2   2.0000     -18.803588      -511.6716
   3   2.0000     -18.801575      -511.6169
   4   2.0000     -14.207482      -386.6052
   5   2.0000     -14.174952      -385.7201
   6   2.0000     -10.145698      -276.0785
   7   2.0000     -10.034106      -273.0419
   8   2.0000     -10.012756      -272.4609
   9   2.0000      -9.987110      -271.7631
  10   2.0000      -7.823207      -212.8803
  11   2.0000      -5.803112      -157.9107
  12   2.0000      -5.802184      -157.8855
  13   2.0000      -5.800932      -157.8514
  14   2.0000      -0.999357       -27.1939
  15   2.0000      -0.988504       -26.8986
  16   2.0000      -0.901505       -24.5312
  17   2.0000      -0.868857       -23.6428
  18   2.0000      -0.867429       -23.6039
  19   2.0000      -0.773944       -21.0601
  20   2.0000      -0.698439       -19.0055
  21   2.0000      -0.640332       -17.4243
  22   2.0000      -0.597238       -16.2517
  23   2.0000      -0.582686       -15.8557
  24   2.0000      -0.555636       -15.1196
  25   2.0000      -0.513909       -13.9842
  26   2.0000      -0.470842       -12.8123
  27   2.0000      -0.466647       -12.6981
  28   2.0000      -0.438367       -11.9286
  29   2.0000      -0.426969       -11.6184
  30   2.0000      -0.401788       -10.9332
  31   2.0000      -0.388424       -10.5695
  32   2.0000      -0.364088        -9.9073
  33   2.0000      -0.356466        -9.6999
  34   2.0000      -0.349976        -9.5233
  35   2.0000      -0.332538        -9.0488
  36   2.0000      -0.320356        -8.7173
  37   2.0000      -0.307413        -8.3651
  38   2.0000      -0.256799        -6.9879
  39   2.0000      -0.251025        -6.8307
  40   2.0000      -0.225833        -6.1452
  41   2.0000      -0.214300        -5.8314
  42   2.0000      -0.210293        -5.7224
  43   2.0000      -0.174395        -4.7455
  44   0.0000      -0.086493        -2.3536
  45   0.0000      -0.047860        -1.3023
  46   0.0000      -0.008484        -0.2309
  47   0.0000       0.012553         0.3416
  48   0.0000       0.040017         1.0889

MULLIKEN ATOMIC CHARGES
-----------------------
   0 C :   -0.284633
   1 C :   -0.109164
   2 C :   -0.323368
   3 H :    0.106568
   4 H :    0.127112
   5 S :    0.795884
   6 C :    0.256104
   7 N :   -0.377136
   8 N :   -0.289428
   9 H :    0.304501
  10 H :    0.232459
  11 H :    0.275973
  12 H :    0.254755
  13 O :   -0.466525
  14 O :   -0.477752
  15 O :   -0.554371
  16 H :    0.131037
  17 H :    0.079127
  18 H :    0.106747
  19 H :    0.212110
Sum of atomic charges:    0.0000000

LOEWDIN ATOMIC CHARGES
----------------------
   0 C :   -0.207700
   1 C :   -0.268352
   2 C :   -0.393203
   3 H :    0.120084
   4 H :    0.136872
   5 S :    0.398987
   6 C :   -0.315664
   7 N :    0.067451
   8 N :    0.136540
   9 H :    0.149590
  10 H :    0.177799
  11 H :    0.194480
  12 H :    0.178798
  13 O :   -0.298505
  14 O :   -0.316969
  15 O :   -0.359645
  16 H :    0.153719
  17 H :    0.130005
  18 H :    0.144849
  19 H :    0.170865

  Mayer bond orders larger than 0.100000
B(  0-C ,  1-C ) :   0.9787 B(  0-C ,  6-C ) :   1.0110 B(  0-C , 18-H ) :   0.9367
B(  0-C , 19-H ) :   0.9187 B(  1-C ,  2-C ) :   1.0242 B(  1-C , 16-H ) :   0.9256
B(  1-C , 17-H ) :   0.9258 B(  2-C ,  3-H ) :   0.9408 B(  2-C ,  4-H ) :   0.9413
B(  2-C ,  5-S ) :   0.8948 B(  5-S , 13-O ) :   1.9125 B(  5-S , 14-O ) :   1.7820
B(  5-S , 15-O ) :   1.4838 B(  6-C ,  7-N ) :   1.3572 B(  6-C ,  8-N ) :   1.5921
B(  7-N , 11-H ) :   0.8897 B(  7-N , 12-H ) :   0.8952 B(  8-N ,  9-H ) :   0.7330
B(  8-N , 10-H ) :   0.8993 B(  9-H , 15-O ) :   0.2171

Dispersion correction           -0.028721026
FINAL SINGLE POINT ENERGY      -892.149020034378

DIPOLE MOMENT
-------------
                                X             Y             Z
Electronic contribution:      3.16314      -7.80932       1.13411
Nuclear contribution   :     -5.91573      12.15027      -4.18945
                        -----------------------------------------
Total Dipole Moment    :     -2.75259       4.34095      -3.05534
                        -----------------------------------------
Magnitude (a.u.)       :      5.97961
Magnitude (Debye)      :     15.19896

Rotational constants in cm-1:     0.082044     0.024757     0.022371
Rotational constants in MHz :  2459.631375   742.181961   670.660570

                             ****ORCA TERMINATED NORMALLY****
TOTAL RUN TIME: 0 days 0 hours 0 minutes 14 seconds 506 msec
