                         Program Version 5.0.0 -  RELEASE  -
|  1> !TPSS D3BJ RIJCOSX def2-TZVP def2/J TightSCF
|  2> *xyz 0 1
|  3> C          0.84888        2.66797       -4.30235
|  4> C          2.09343        1.86104       -4.65684
|  5> H          2.44481        2.04157       -5.67499
|  6> H          2.90175        2.13786       -3.98034
|  7> S          1.87964        0.07859       -4.46297
|  8> F          3.20757       -0.46611       -4.42026
|  9> O          1.07506       -0.05616       -3.26876
| 10> O          1.13166       -0.31996       -5.67903
| 11> H          0.05064        2.40112       -4.96303
| 12> H          1.06043        3.71210       -4.40203
| 13> H          0.56237        2.45684       -3.29327
| 14> *
| 15>
| 16> %MaxCore 64000
| 17>
| 18> %pal nprocs 4
| 19> end
| 20>
| 21> %scf
| 22>   MaxIter 150
| 23> end
| 24>
| 25>
| 26>                          ****END OF INPUT****

CARTESIAN COORDINATES (ANGSTROEM)
---------------------------------
  C      0.848880    2.667970   -4.302350
  C      2.093430    1.861040   -4.656840
  H      2.444810    2.041570   -5.674990
  H      2.901750    2.137860   -3.980340
  S      1.879640    0.078590   -4.462970
  F      3.207570   -0.466110   -4.420260
  O      1.075060   -0.056160   -3.268760
  O      1.131660   -0.319960   -5.679030
  H      0.050640    2.401120   -4.963030
  H      1.060430    3.712100   -4.402030
  H      0.562370    2.456840   -3.293270

 Total Charge           Charge          ....    0
 Multiplicity           Mult            ....    1
 Number of Electrons    NEL             ....   58
 Basis Dimension        Dim             ....  222

ORBITAL ENERGIES
----------------

  NO   OCC          E(Eh)            E(eV)
   0   2.0000     -88.581601     -2410.4279
   1   2.0000     -24.527923      -667.4387
   2   2.0000     -18.892109      -514.0804
   3   2.0000     -18.880000      -513.7509
   4   2.0000     -10.039729      -273.1949
   5   2.0000      -9.999343      -272.0960
   6   2.0000      -7.931136      -215.8172
   7   2.0000      -5.914334      -160.9372
   8   2.0000      -5.907573      -160.7532
   9   2.0000      -5.907326      -160.7465
  10   2.0000      -1.304415       -35.4949
  11   2.0000      -1.027615       -27.9628
  12   2.0000      -0.933272       -25.3956
  13   2.0000      -0.758575       -20.6419
  14   2.0000      -0.677275       -18.4296
  15   2.0000      -0.618729       -16.8365
  16   2.0000      -0.532152       -14.4806
  17   2.0000      -0.528228       -14.3738
  18   2.0000      -0.502084       -13.6624
  19   2.0000      -0.447759       -12.1841
  20   2.0000      -0.433242       -11.7891
  21   2.0000      -0.394165       -10.7258
  22   2.0000      -0.384355       -10.4588
  23   2.0000      -0.366139        -9.9631
  24   2.0000      -0.348979        -9.4962
  25   2.0000      -0.336995        -9.1701
  26   2.0000      -0.290042        -7.8924
  27   2.0000      -0.276591        -7.5264
  28   2.0000      -0.260087        -7.0773
  29   0.0000      -0.004146        -0.1128
  30   0.0000       0.017935         0.4880
  31   0.0000       0.038711         1.0534
  32   0.0000       0.046750         1.2721
  33   0.0000       0.060008         1.6329

MULLIKEN ATOMIC CHARGES
-----------------------
   0 C :   -0.337243
   1 C :   -0.221210
   2 H :    0.135765
   3 H :    0.116719
   4 S :    0.765789
   5 F :   -0.068468
   6 O :   -0.381668
   7 O :   -0.416542
   8 H :    0.138609
   9 H :    0.124127
  10 H :    0.144122
Sum of atomic charges:   -0.0000000

LOEWDIN ATOMIC CHARGES
----------------------
   0 C :   -0.298383
   1 C :   -0.395856
   2 H :    0.134237
   3 H :    0.129181
   4 S :    0.482913
   5 F :    0.114753
   6 O :   -0.244925
   7 O :   -0.291934
   8 H :    0.124238
   9 H :    0.121777
  10 H :    0.124000

  Mayer bond orders larger than 0.100000
B(  0-C ,  1-C ) :   1.0210 B(  0-C ,  8-H ) :   0.9654 B(  0-C ,  9-H ) :   0.9497
B(  0-C , 10-H ) :   0.9616 B(  1-C ,  2-H ) :   0.9307 B(  1-C ,  3-H ) :   0.9269
B(  1-C ,  4-S ) :   0.9129 B(  4-S ,  5-F ) :   1.1649 B(  4-S ,  6-O ) :   1.9250
B(  4-S ,  7-O ) :   1.9071

Dispersion correction           -0.011631218
FINAL SINGLE POINT ENERGY      -727.895880647069

DIPOLE MOMENT
-------------
                                X             Y             Z
Electronic contribution:      4.12312      -9.40759       0.10351
Nuclear contribution   :     -3.08754      10.54185      -0.04092
                        -----------------------------------------
Total Dipole Moment    :      1.03558       1.13426       0.06260
                        -----------------------------------------
Magnitude (a.u.)       :      1.53717
Magnitude (Debye)      :      3.90717

Rotational constants in cm-1:     0.158925     0.081210     0.079022
Rotational constants in MHz :  4764.450166  2434.603461  2369.014434

                             ****ORCA TERMINATED NORMALLY****
TOTAL RUN TIME: 0 days 0 hours 0 minutes 11 seconds 228 msec
