                         Program Version 5.0.0 -  RELEASE  -
|  1> !TPSS D3BJ RIJCOSX def2-TZVP def2/J TightSCF
|  2> *xyz 0 1
|  3> C         -0.46129        2.23469       -4.98962
|  4> C          0.84888        2.66797       -4.30235
|  5> C         -0.42384        2.39877       -6.47432
|  6> C         -0.95947        3.49265       -7.00740
|  7> N          0.14558        1.48689       -7.20399
|  8> H          0.56537        0.69681       -6.72386
|  9> H          0.22068        1.58177       -8.20752
| 10> H         -1.40624        4.18151       -6.40326
| 11> H         -0.93421        3.68160       -7.99947
| 12> H         -1.28888        2.82674       -4.59500
| 13> H         -0.65170        1.18634       -4.75655
| 14> H          1.66208        2.08894       -4.68750
| 15> H          0.76716        2.51042       -3.24717
| 16> H          1.02677        3.70527       -4.49537
| 17> *
| 18>
| 19> %MaxCore 64000
| 20>
| 21> %pal nprocs 4
| 22> end
| 23>
| 24> %scf
| 25>   MaxIter 150
| 26> end
| 27>
| 28>
| 29>                          ****END OF INPUT****

CARTESIAN COORDINATES (ANGSTROEM)
---------------------------------
  C     -0.461290    2.234690   -4.989620
  C      0.848880    2.667970   -4.302350
  C     -0.423840    2.398770   -6.474320
  C     -0.959470    3.492650   -7.007400
  N      0.145580    1.486890   -7.203990
  H      0.565370    0.696810   -6.723860
  H      0.220680    1.581770   -8.207520
  H     -1.406240    4.181510   -6.403260
  H     -0.934210    3.681600   -7.999470
  H     -1.288880    2.826740   -4.595000
  H     -0.651700    1.186340   -4.756550
  H      1.662080    2.088940   -4.687500
  H      0.767160    2.510420   -3.247170
  H      1.026770    3.705270   -4.495370

 Total Charge           Charge          ....    0
 Multiplicity           Mult            ....    1
 Number of Electrons    NEL             ....   40
 Basis Dimension        Dim             ....  209

ORBITAL ENERGIES
----------------

  NO   OCC          E(Eh)            E(eV)
   0   2.0000     -14.103158      -383.7664
   1   2.0000      -9.996006      -272.0052
   2   2.0000      -9.983371      -271.6613
   3   2.0000      -9.969752      -271.2908
   4   2.0000      -9.913145      -269.7504
   5   2.0000      -0.871774       -23.7222
   6   2.0000      -0.720735       -19.6122
   7   2.0000      -0.657322       -17.8867
   8   2.0000      -0.585172       -15.9233
   9   2.0000      -0.521586       -14.1931
  10   2.0000      -0.485779       -13.2187
  11   2.0000      -0.435343       -11.8463
  12   2.0000      -0.396784       -10.7970
  13   2.0000      -0.377472       -10.2715
  14   2.0000      -0.350033        -9.5249
  15   2.0000      -0.341822        -9.3014
  16   2.0000      -0.316357        -8.6085
  17   2.0000      -0.297078        -8.0839
  18   2.0000      -0.290987        -7.9181
  19   2.0000      -0.154973        -4.2170
  20   0.0000       0.011913         0.3242
  21   0.0000       0.028051         0.7633
  22   0.0000       0.056120         1.5271
  23   0.0000       0.066797         1.8176
  24   0.0000       0.077870         2.1189

MULLIKEN ATOMIC CHARGES
-----------------------
   0 C :   -0.188879
   1 C :   -0.309691
   2 C :    0.193259
   3 C :   -0.413841
   4 N :   -0.436751
   5 H :    0.229840
   6 H :    0.231547
   7 H :    0.100476
   8 H :    0.084095
   9 H :    0.105684
  10 H :    0.079271
  11 H :    0.096178
  12 H :    0.111454
  13 H :    0.117358
Sum of atomic charges:   -0.0000000

LOEWDIN ATOMIC CHARGES
----------------------
   0 C :   -0.234287
   1 C :   -0.285176
   2 C :   -0.380758
   3 C :   -0.276765
   4 N :    0.020510
   5 H :    0.172619
   6 H :    0.173783
   7 H :    0.104175
   8 H :    0.091822
   9 H :    0.145397
  10 H :    0.130797
  11 H :    0.109863
  12 H :    0.111463
  13 H :    0.116557

  Mayer bond orders larger than 0.100000
B(  0-C ,  1-C ) :   1.0021 B(  0-C ,  2-C ) :   0.9997 B(  0-C ,  9-H ) :   0.9595
B(  0-C , 10-H ) :   0.9462 B(  1-C , 11-H ) :   0.9705 B(  1-C , 12-H ) :   0.9652
B(  1-C , 13-H ) :   0.9726 B(  2-C ,  3-C ) :   1.7710 B(  2-C ,  4-N ) :   1.2065
B(  3-C ,  7-H ) :   0.9764 B(  3-C ,  8-H ) :   0.9727 B(  4-N ,  5-H ) :   0.9158
B(  4-N ,  6-H ) :   0.9081

Dispersion correction           -0.012925976
FINAL SINGLE POINT ENERGY      -212.686604993371

DIPOLE MOMENT
-------------
                                X             Y             Z
Electronic contribution:     -0.70499      -1.19704      -2.61573
Nuclear contribution   :      1.14741       0.51394       2.60761
                        -----------------------------------------
Total Dipole Moment    :      0.44242      -0.68310      -0.00813
                        -----------------------------------------
Magnitude (a.u.)       :      0.81390
Magnitude (Debye)      :      2.06877

Rotational constants in cm-1:     0.269157     0.129188     0.102123
Rotational constants in MHz :  8069.118715  3872.945231  3061.580645

                             ****ORCA TERMINATED NORMALLY****
TOTAL RUN TIME: 0 days 0 hours 0 minutes 12 seconds 77 msec
