                         Program Version 5.0.0 -  RELEASE  -
|  1> !TPSS D3BJ RIJCOSX def2-TZVP def2/J TightSCF
|  2> *xyz 0 1
|  3> C          0.84888        2.66797       -4.30235
|  4> C          2.09343        1.86104       -4.65684
|  5> H          2.44481        2.04157       -5.67499
|  6> H          2.90175        2.13786       -3.98034
|  7> S          1.87964        0.07859       -4.46297
|  8> O          3.20757       -0.46611       -4.42026
|  9> F          1.07506       -0.05616       -3.26876
| 10> O          1.13166       -0.31996       -5.67903
| 11> H          0.05064        2.40112       -4.96303
| 12> H          1.06043        3.71210       -4.40203
| 13> H          0.56237        2.45684       -3.29327
| 14> *
| 15>
| 16> %MaxCore 64000
| 17>
| 18> %pal nprocs 4
| 19> end
| 20>
| 21> %scf
| 22>   MaxIter 150
| 23> end
| 24>
| 25>
| 26>                          ****END OF INPUT****

CARTESIAN COORDINATES (ANGSTROEM)
---------------------------------
  C      0.848880    2.667970   -4.302350
  C      2.093430    1.861040   -4.656840
  H      2.444810    2.041570   -5.674990
  H      2.901750    2.137860   -3.980340
  S      1.879640    0.078590   -4.462970
  O      3.207570   -0.466110   -4.420260
  F      1.075060   -0.056160   -3.268760
  O      1.131660   -0.319960   -5.679030
  H      0.050640    2.401120   -4.963030
  H      1.060430    3.712100   -4.402030
  H      0.562370    2.456840   -3.293270

 Total Charge           Charge          ....    0
 Multiplicity           Mult            ....    1
 Number of Electrons    NEL             ....   58
 Basis Dimension        Dim             ....  222

ORBITAL ENERGIES
----------------

  NO   OCC          E(Eh)            E(eV)
   0   2.0000     -88.581107     -2410.4145
   1   2.0000     -24.522689      -667.2963
   2   2.0000     -18.895591      -514.1752
   3   2.0000     -18.880252      -513.7578
   4   2.0000     -10.039770      -273.1960
   5   2.0000     -10.005359      -272.2596
   6   2.0000      -7.930657      -215.8041
   7   2.0000      -5.914011      -160.9284
   8   2.0000      -5.907021      -160.7382
   9   2.0000      -5.906811      -160.7325
  10   2.0000      -1.296192       -35.2712
  11   2.0000      -1.031728       -28.0747
  12   2.0000      -0.936299       -25.4780
  13   2.0000      -0.763599       -20.7786
  14   2.0000      -0.671146       -18.2628
  15   2.0000      -0.622291       -16.9334
  16   2.0000      -0.538966       -14.6660
  17   2.0000      -0.521992       -14.2041
  18   2.0000      -0.493674       -13.4335
  19   2.0000      -0.449832       -12.2406
  20   2.0000      -0.427350       -11.6288
  21   2.0000      -0.403432       -10.9779
  22   2.0000      -0.392127       -10.6703
  23   2.0000      -0.371266       -10.1027
  24   2.0000      -0.356135        -9.6909
  25   2.0000      -0.338689        -9.2162
  26   2.0000      -0.291807        -7.9405
  27   2.0000      -0.277186        -7.5426
  28   2.0000      -0.263129        -7.1601
  29   0.0000      -0.010090        -0.2746
  30   0.0000       0.025701         0.6993
  31   0.0000       0.032819         0.8931
  32   0.0000       0.053102         1.4450
  33   0.0000       0.060035         1.6336

MULLIKEN ATOMIC CHARGES
-----------------------
   0 C :   -0.350768
   1 C :   -0.220308
   2 H :    0.151648
   3 H :    0.130805
   4 S :    0.768059
   5 O :   -0.368032
   6 F :   -0.080650
   7 O :   -0.419655
   8 H :    0.140634
   9 H :    0.126912
  10 H :    0.121355
Sum of atomic charges:   -0.0000000

LOEWDIN ATOMIC CHARGES
----------------------
   0 C :   -0.313573
   1 C :   -0.387836
   2 H :    0.144752
   3 H :    0.133863
   4 S :    0.485825
   5 O :   -0.235787
   6 F :    0.105717
   7 O :   -0.292695
   8 H :    0.122258
   9 H :    0.122104
  10 H :    0.115372

  Mayer bond orders larger than 0.100000
B(  0-C ,  1-C ) :   1.0071 B(  0-C ,  8-H ) :   0.9641 B(  0-C ,  9-H ) :   0.9539
B(  0-C , 10-H ) :   0.9655 B(  1-C ,  2-H ) :   0.9354 B(  1-C ,  3-H ) :   0.9320
B(  1-C ,  4-S ) :   0.9073 B(  4-S ,  5-O ) :   1.9712 B(  4-S ,  6-F ) :   1.1399
B(  4-S ,  7-O ) :   1.9027

Dispersion correction           -0.011552024
FINAL SINGLE POINT ENERGY      -727.900060857156

DIPOLE MOMENT
-------------
                                X             Y             Z
Electronic contribution:      0.57555      -8.70108       2.00387
Nuclear contribution   :     -0.86540      10.11467      -1.24082
                        -----------------------------------------
Total Dipole Moment    :     -0.28985       1.41359       0.76306
                        -----------------------------------------
Magnitude (a.u.)       :      1.63234
Magnitude (Debye)      :      4.14907

Rotational constants in cm-1:     0.154065     0.083345     0.080357
Rotational constants in MHz :  4618.752213  2498.631937  2409.037217

                             ****ORCA TERMINATED NORMALLY****
TOTAL RUN TIME: 0 days 0 hours 0 minutes 11 seconds 400 msec
