                         Program Version 5.0.0 -  RELEASE  -
|  1> !TPSS D3BJ RIJCOSX def2-TZVP def2/J TightSCF
|  2> *xyz 0 1
|  3> C         -0.46129        2.23469       -4.98962
|  4> C          0.84888        2.66797       -4.30235
|  5> C         -0.42384        2.39877       -6.47432
|  6> N         -0.95947        3.49265       -7.00740
|  7> C          0.14558        1.48689       -7.20399
|  8> H          0.56537        0.69681       -6.72386
|  9> H          0.22068        1.58177       -8.20752
| 10> H         -1.40624        4.18151       -6.40326
| 11> H         -0.93421        3.68160       -7.99947
| 12> H         -1.28888        2.82674       -4.59500
| 13> H         -0.65170        1.18634       -4.75655
| 14> H          1.66208        2.08894       -4.68750
| 15> H          0.76716        2.51042       -3.24717
| 16> H          1.02677        3.70527       -4.49537
| 17> *
| 18>
| 19> %MaxCore 64000
| 20>
| 21> %pal nprocs 4
| 22> end
| 23>
| 24> %scf
| 25>   MaxIter 150
| 26> end
| 27>
| 28>
| 29>                          ****END OF INPUT****

CARTESIAN COORDINATES (ANGSTROEM)
---------------------------------
  C     -0.461290    2.234690   -4.989620
  C      0.848880    2.667970   -4.302350
  C     -0.423840    2.398770   -6.474320
  N     -0.959470    3.492650   -7.007400
  C      0.145580    1.486890   -7.203990
  H      0.565370    0.696810   -6.723860
  H      0.220680    1.581770   -8.207520
  H     -1.406240    4.181510   -6.403260
  H     -0.934210    3.681600   -7.999470
  H     -1.288880    2.826740   -4.595000
  H     -0.651700    1.186340   -4.756550
  H      1.662080    2.088940   -4.687500
  H      0.767160    2.510420   -3.247170
  H      1.026770    3.705270   -4.495370

 Total Charge           Charge          ....    0
 Multiplicity           Mult            ....    1
 Number of Electrons    NEL             ....   40
 Basis Dimension        Dim             ....  209

ORBITAL ENERGIES
----------------

  NO   OCC          E(Eh)            E(eV)
   0   2.0000     -14.099835      -383.6760
   1   2.0000      -9.994072      -271.9525
   2   2.0000      -9.983191      -271.6564
   3   2.0000      -9.968360      -271.2529
   4   2.0000      -9.911527      -269.7064
   5   2.0000      -0.859722       -23.3942
   6   2.0000      -0.722224       -19.6527
   7   2.0000      -0.661011       -17.9870
   8   2.0000      -0.586028       -15.9466
   9   2.0000      -0.516208       -14.0467
  10   2.0000      -0.476022       -12.9532
  11   2.0000      -0.437733       -11.9113
  12   2.0000      -0.397960       -10.8290
  13   2.0000      -0.372943       -10.1483
  14   2.0000      -0.351280        -9.5588
  15   2.0000      -0.342258        -9.3133
  16   2.0000      -0.314206        -8.5500
  17   2.0000      -0.299800        -8.1580
  18   2.0000      -0.286723        -7.8021
  19   2.0000      -0.158210        -4.3051
  20   0.0000       0.013912         0.3786
  21   0.0000       0.028791         0.7834
  22   0.0000       0.056657         1.5417
  23   0.0000       0.064666         1.7596
  24   0.0000       0.080801         2.1987

MULLIKEN ATOMIC CHARGES
-----------------------
   0 C :   -0.182715
   1 C :   -0.312153
   2 C :    0.219542
   3 N :   -0.472332
   4 C :   -0.401516
   5 H :    0.102617
   6 H :    0.082001
   7 H :    0.228801
   8 H :    0.229448
   9 H :    0.070795
  10 H :    0.108198
  11 H :    0.116325
  12 H :    0.108939
  13 H :    0.102051
Sum of atomic charges:   -0.0000000

LOEWDIN ATOMIC CHARGES
----------------------
   0 C :   -0.232598
   1 C :   -0.283134
   2 C :   -0.371606
   3 N :   -0.002052
   4 C :   -0.264871
   5 H :    0.109100
   6 H :    0.096719
   7 H :    0.167613
   8 H :    0.167265
   9 H :    0.129698
  10 H :    0.144845
  11 H :    0.115946
  12 H :    0.110541
  13 H :    0.112533

  Mayer bond orders larger than 0.100000
B(  0-C ,  1-C ) :   1.0071 B(  0-C ,  2-C ) :   0.9838 B(  0-C ,  9-H ) :   0.9478
B(  0-C , 10-H ) :   0.9620 B(  1-C , 11-H ) :   0.9714 B(  1-C , 12-H ) :   0.9648
B(  1-C , 13-H ) :   0.9720 B(  2-C ,  3-N ) :   1.1640 B(  2-C ,  4-C ) :   1.8026
B(  3-N ,  7-H ) :   0.9164 B(  3-N ,  8-H ) :   0.9104 B(  4-C ,  5-H ) :   0.9766
B(  4-C ,  6-H ) :   0.9713

Dispersion correction           -0.012934394
FINAL SINGLE POINT ENERGY      -212.686607319742

DIPOLE MOMENT
-------------
                                X             Y             Z
Electronic contribution:     -1.71838       0.61476      -2.43232
Nuclear contribution   :      1.40335       0.04939       2.56207
                        -----------------------------------------
Total Dipole Moment    :     -0.31503       0.66415       0.12976
                        -----------------------------------------
Magnitude (a.u.)       :      0.74644
Magnitude (Debye)      :      1.89730

Rotational constants in cm-1:     0.271383     0.128194     0.101873
Rotational constants in MHz :  8135.853259  3843.152748  3054.074278

                             ****ORCA TERMINATED NORMALLY****
TOTAL RUN TIME: 0 days 0 hours 0 minutes 9 seconds 861 msec
