                         Program Version 5.0.0 -  RELEASE  -
|  1> !TPSS D3BJ RIJCOSX def2-TZVP def2/J TightSCF
|  2> *xyz 0 1
|  3> C          0.84888        2.66797       -4.30235
|  4> C          2.09343        1.86104       -4.65684
|  5> H          2.44481        2.04157       -5.67499
|  6> H          2.90175        2.13786       -3.98034
|  7> S          1.87964        0.07859       -4.46297
|  8> O          3.20757       -0.46611       -4.42026
|  9> O          1.07506       -0.05616       -3.26876
| 10> F          1.13166       -0.31996       -5.67903
| 11> H          0.05064        2.40112       -4.96303
| 12> H          1.06043        3.71210       -4.40203
| 13> H          0.56237        2.45684       -3.29327
| 14> *
| 15>
| 16> %MaxCore 64000
| 17>
| 18> %pal nprocs 4
| 19> end
| 20>
| 21> %scf
| 22>   MaxIter 150
| 23> end
| 24>
| 25>
| 26>                          ****END OF INPUT****

CARTESIAN COORDINATES (ANGSTROEM)
---------------------------------
  C      0.848880    2.667970   -4.302350
  C      2.093430    1.861040   -4.656840
  H      2.444810    2.041570   -5.674990
  H      2.901750    2.137860   -3.980340
  S      1.879640    0.078590   -4.462970
  O      3.207570   -0.466110   -4.420260
  O      1.075060   -0.056160   -3.268760
  F      1.131660   -0.319960   -5.679030
  H      0.050640    2.401120   -4.963030
  H      1.060430    3.712100   -4.402030
  H      0.562370    2.456840   -3.293270

 Total Charge           Charge          ....    0
 Multiplicity           Mult            ....    1
 Number of Electrons    NEL             ....   58
 Basis Dimension        Dim             ....  222

ORBITAL ENERGIES
----------------

  NO   OCC          E(Eh)            E(eV)
   0   2.0000     -88.579319     -2410.3658
   1   2.0000     -24.504681      -666.8063
   2   2.0000     -18.895456      -514.1715
   3   2.0000     -18.892412      -514.0887
   4   2.0000     -10.038984      -273.1746
   5   2.0000     -10.000037      -272.1149
   6   2.0000      -7.928981      -215.7585
   7   2.0000      -5.912274      -160.8811
   8   2.0000      -5.905441      -160.6952
   9   2.0000      -5.905182      -160.6882
  10   2.0000      -1.266825       -34.4721
  11   2.0000      -1.040250       -28.3067
  12   2.0000      -0.954869       -25.9833
  13   2.0000      -0.759901       -20.6780
  14   2.0000      -0.661673       -18.0050
  15   2.0000      -0.613586       -16.6965
  16   2.0000      -0.521712       -14.1965
  17   2.0000      -0.501459       -13.6454
  18   2.0000      -0.494036       -13.4434
  19   2.0000      -0.447873       -12.1872
  20   2.0000      -0.429807       -11.6956
  21   2.0000      -0.406587       -11.0638
  22   2.0000      -0.386906       -10.5282
  23   2.0000      -0.363072        -9.8797
  24   2.0000      -0.359864        -9.7924
  25   2.0000      -0.340133        -9.2555
  26   2.0000      -0.296579        -8.0703
  27   2.0000      -0.289702        -7.8832
  28   2.0000      -0.276981        -7.5370
  29   0.0000      -0.005353        -0.1457
  30   0.0000       0.025107         0.6832
  31   0.0000       0.033550         0.9129
  32   0.0000       0.054599         1.4857
  33   0.0000       0.065024         1.7694

MULLIKEN ATOMIC CHARGES
-----------------------
   0 C :   -0.334730
   1 C :   -0.235763
   2 H :    0.128938
   3 H :    0.146292
   4 S :    0.776531
   5 O :   -0.376007
   6 O :   -0.390918
   7 F :   -0.105813
   8 H :    0.117861
   9 H :    0.122761
  10 H :    0.150848
Sum of atomic charges:    0.0000000

LOEWDIN ATOMIC CHARGES
----------------------
   0 C :   -0.310243
   1 C :   -0.391685
   2 H :    0.131112
   3 H :    0.144524
   4 S :    0.492635
   5 O :   -0.239206
   6 O :   -0.247448
   7 F :    0.058478
   8 H :    0.117200
   9 H :    0.120412
  10 H :    0.124221

  Mayer bond orders larger than 0.100000
B(  0-C ,  1-C ) :   1.0082 B(  0-C ,  8-H ) :   0.9668 B(  0-C ,  9-H ) :   0.9516
B(  0-C , 10-H ) :   0.9610 B(  1-C ,  2-H ) :   0.9370 B(  1-C ,  3-H ) :   0.9345
B(  1-C ,  4-S ) :   0.9064 B(  4-S ,  5-O ) :   1.9681 B(  4-S ,  6-O ) :   1.9209
B(  4-S ,  7-F ) :   1.1138

Dispersion correction           -0.011584549
FINAL SINGLE POINT ENERGY      -727.915282414353

DIPOLE MOMENT
-------------
                                X             Y             Z
Electronic contribution:      0.65779      -9.16948      -2.01612
Nuclear contribution   :     -0.92438      10.38956       1.27076
                        -----------------------------------------
Total Dipole Moment    :     -0.26659       1.22008      -0.74536
                        -----------------------------------------
Magnitude (a.u.)       :      1.45438
Magnitude (Debye)      :      3.69674

Rotational constants in cm-1:     0.154243     0.082247     0.080562
Rotational constants in MHz :  4624.087322  2465.703680  2415.175852

                             ****ORCA TERMINATED NORMALLY****
TOTAL RUN TIME: 0 days 0 hours 0 minutes 10 seconds 259 msec
