                         Program Version 5.0.0 -  RELEASE  -
|  1> !TPSS D3BJ RIJCOSX def2-TZVP def2/J TightSCF xyzfile
|  2>
|  3> *xyzfile 0 1 D2.xyz
|  4>
|  5> %MaxCore 64000
|  6>
|  7> %pal nprocs 18
|  8> end
|  9>
| 10> %scf
| 11>   MaxIter 150
| 12> end
| 13>
| 14>
| 15>                          ****END OF INPUT****

CARTESIAN COORDINATES (ANGSTROEM)
---------------------------------
  C     -0.461293    2.234686   -4.989619
  C      0.848883    2.667967   -4.302351
  C      2.093434    1.861037   -4.656845
  H      2.444814    2.041567   -5.674990
  H      2.901748    2.137864   -3.980338
  S      1.879644    0.078594   -4.462965
  C     -0.423841    2.398772   -6.474317
  N     -0.959467    3.492647   -7.007401
  C      0.145585    1.486891   -7.203987
  H      0.565371    0.696807   -6.723858
  H      0.220682    1.581768   -8.207520
  H     -1.406243    4.181507   -6.403261
  H     -0.934215    3.681601   -7.999468
  F      3.207574   -0.466111   -4.420259
  O      1.075064   -0.056160   -3.268758
  O      1.131661   -0.319960   -5.679031
  H      0.668432    2.559427   -3.232850
  H      1.034074    3.729426   -4.497081
  H     -1.288884    2.826737   -4.594997
  H     -0.651696    1.186343   -4.756552

 Total Charge           Charge          ....    0
 Multiplicity           Mult            ....    1
 Number of Electrons    NEL             ....   88
 Basis Dimension        Dim             ....  376

ORBITAL ENERGIES
----------------

  NO   OCC          E(Eh)            E(eV)
   0   2.0000     -88.582761     -2410.4595
   1   2.0000     -24.527494      -667.4271
   2   2.0000     -18.893218      -514.1106
   3   2.0000     -18.883421      -513.8440
   4   2.0000     -14.094413      -383.5285
   5   2.0000     -10.035088      -273.0686
   6   2.0000     -10.008560      -272.3468
   7   2.0000      -9.986588      -271.7489
   8   2.0000      -9.985468      -271.7184
   9   2.0000      -9.890614      -269.1373
  10   2.0000      -7.932503      -215.8544
  11   2.0000      -5.915709      -160.9746
  12   2.0000      -5.909183      -160.7970
  13   2.0000      -5.908428      -160.7765
  14   2.0000      -1.304157       -35.4879
  15   2.0000      -1.031586       -28.0709
  16   2.0000      -0.940508       -25.5925
  17   2.0000      -0.855004       -23.2658
  18   2.0000      -0.766243       -20.8505
  19   2.0000      -0.707504       -19.2522
  20   2.0000      -0.664982       -18.0951
  21   2.0000      -0.642945       -17.4954
  22   2.0000      -0.583645       -15.8818
  23   2.0000      -0.534119       -14.5341
  24   2.0000      -0.528454       -14.3800
  25   2.0000      -0.510486       -13.8910
  26   2.0000      -0.508222       -13.8294
  27   2.0000      -0.468867       -12.7585
  28   2.0000      -0.448017       -12.1912
  29   2.0000      -0.438953       -11.9445
  30   2.0000      -0.425276       -11.5724
  31   2.0000      -0.408335       -11.1113
  32   2.0000      -0.393951       -10.7200
  33   2.0000      -0.362577        -9.8662
  34   2.0000      -0.357290        -9.7224
  35   2.0000      -0.343287        -9.3413
  36   2.0000      -0.329091        -8.9550
  37   2.0000      -0.323610        -8.8059
  38   2.0000      -0.297342        -8.0911
  39   2.0000      -0.293842        -7.9959
  40   2.0000      -0.280017        -7.6197
  41   2.0000      -0.269671        -7.3381
  42   2.0000      -0.253335        -6.8936
  43   2.0000      -0.151014        -4.1093
  44   0.0000      -0.004504        -0.1226
  45   0.0000       0.009783         0.2662
  46   0.0000       0.028504         0.7756
  47   0.0000       0.034194         0.9305
  48   0.0000       0.041093         1.1182

MULLIKEN ATOMIC CHARGES
-----------------------
   0 C :   -0.289622
   1 C :   -0.102880
   2 C :   -0.304977
   3 H :    0.165194
   4 H :    0.127795
   5 S :    0.758673
   6 C :    0.210150
   7 N :   -0.477423
   8 C :   -0.447610
   9 H :    0.190003
  10 H :    0.069500
  11 H :    0.222136
  12 H :    0.228788
  13 F :   -0.069753
  14 O :   -0.373304
  15 O :   -0.382938
  16 H :    0.114008
  17 H :    0.099514
  18 H :    0.084124
  19 H :    0.178624
Sum of atomic charges:    0.0000000

LOEWDIN ATOMIC CHARGES
----------------------
   0 C :   -0.212784
   1 C :   -0.260847
   2 C :   -0.367722
   3 H :    0.141770
   4 H :    0.132656
   5 S :    0.495039
   6 C :   -0.380299
   7 N :   -0.008825
   8 C :   -0.256682
   9 H :    0.089746
  10 H :    0.093078
  11 H :    0.163623
  12 H :    0.165998
  13 F :    0.115975
  14 O :   -0.240448
  15 O :   -0.245831
  16 H :    0.143080
  17 H :    0.142642
  18 H :    0.135308
  19 H :    0.154523

  Mayer bond orders larger than 0.100000
B(  0-C ,  1-C ) :   0.9994 B(  0-C ,  6-C ) :   0.9655 B(  0-C , 18-H ) :   0.9399
B(  0-C , 19-H ) :   0.9737 B(  1-C ,  2-C ) :   1.0326 B(  1-C , 16-H ) :   0.9384
B(  1-C , 17-H ) :   0.9220 B(  2-C ,  3-H ) :   0.9201 B(  2-C ,  4-H ) :   0.9240
B(  2-C ,  5-S ) :   0.9302 B(  5-S , 13-F ) :   1.1665 B(  5-S , 14-O ) :   1.9159
B(  5-S , 15-O ) :   1.8218 B(  6-C ,  7-N ) :   1.1337 B(  6-C ,  8-C ) :   1.7667
B(  7-N , 11-H ) :   0.9176 B(  7-N , 12-H ) :   0.9127 B(  8-C ,  9-H ) :   0.9385
B(  8-C , 10-H ) :   0.9736

Dispersion correction           -0.028900209
FINAL SINGLE POINT ENERGY      -900.024470578471

DIPOLE MOMENT
-------------
                                X             Y             Z
Electronic contribution:      9.18643     -12.48231       5.36788
Nuclear contribution   :     -8.42493      13.96425      -5.19491
                        -----------------------------------------
Total Dipole Moment    :      0.76150       1.48194       0.17297
                        -----------------------------------------
Magnitude (a.u.)       :      1.67510
Magnitude (Debye)      :      4.25776

Rotational constants in cm-1:     0.082815     0.024151     0.022015
Rotational constants in MHz :  2482.732265   724.035221   660.002136

                             ****ORCA TERMINATED NORMALLY****
TOTAL RUN TIME: 0 days 0 hours 0 minutes 14 seconds 423 msec
