                         Program Version 5.0.0 -  RELEASE  -
|  1> !TPSS D3BJ RIJCOSX def2-TZVP def2/J TightSCF xyzfile
|  2>
|  3> *xyzfile 0 1 D4.xyz
|  4>
|  5> %MaxCore 64000
|  6>
|  7> %pal nprocs 18
|  8> end
|  9>
| 10> %scf
| 11>   MaxIter 150
| 12> end
| 13>
| 14>
| 15>                          ****END OF INPUT****

CARTESIAN COORDINATES (ANGSTROEM)
---------------------------------
  C     -0.461293    2.234686   -4.989619
  C      0.848883    2.667967   -4.302351
  C      2.093434    1.861037   -4.656845
  H      2.444814    2.041567   -5.674990
  H      2.901748    2.137864   -3.980338
  S      1.879644    0.078594   -4.462965
  C     -0.423841    2.398772   -6.474317
  N     -0.959467    3.492647   -7.007401
  C      0.145585    1.486891   -7.203987
  H      0.565371    0.696807   -6.723858
  H      0.220682    1.581768   -8.207520
  H     -1.406243    4.181507   -6.403261
  H     -0.934215    3.681601   -7.999468
  O      3.207574   -0.466111   -4.420259
  F      1.075064   -0.056160   -3.268758
  O      1.131661   -0.319960   -5.679031
  H      0.668432    2.559427   -3.232850
  H      1.034074    3.729426   -4.497081
  H     -1.288884    2.826737   -4.594997
  H     -0.651696    1.186343   -4.756552

 Total Charge           Charge          ....    0
 Multiplicity           Mult            ....    1
 Number of Electrons    NEL             ....   88
 Basis Dimension        Dim             ....  376

ORBITAL ENERGIES
----------------

  NO   OCC          E(Eh)            E(eV)
   0   2.0000     -88.581916     -2410.4365
   1   2.0000     -24.523072      -667.3067
   2   2.0000     -18.895214      -514.1649
   3   2.0000     -18.882596      -513.8216
   4   2.0000     -14.098147      -383.6301
   5   2.0000     -10.034939      -273.0646
   6   2.0000     -10.013519      -272.4817
   7   2.0000      -9.995481      -271.9909
   8   2.0000      -9.991384      -271.8794
   9   2.0000      -9.894176      -269.2342
  10   2.0000      -7.931662      -215.8315
  11   2.0000      -5.915100      -160.9581
  12   2.0000      -5.908228      -160.7711
  13   2.0000      -5.907493      -160.7511
  14   2.0000      -1.296823       -35.2883
  15   2.0000      -1.034010       -28.1368
  16   2.0000      -0.943066       -25.6621
  17   2.0000      -0.859254       -23.3815
  18   2.0000      -0.772599       -21.0235
  19   2.0000      -0.708133       -19.2693
  20   2.0000      -0.663723       -18.0608
  21   2.0000      -0.646903       -17.6031
  22   2.0000      -0.586523       -15.9601
  23   2.0000      -0.540570       -14.7097
  24   2.0000      -0.526370       -14.3232
  25   2.0000      -0.516414       -14.0523
  26   2.0000      -0.500608       -13.6222
  27   2.0000      -0.471435       -12.8284
  28   2.0000      -0.450720       -12.2647
  29   2.0000      -0.434708       -11.8290
  30   2.0000      -0.427586       -11.6352
  31   2.0000      -0.414279       -11.2731
  32   2.0000      -0.396623       -10.7927
  33   2.0000      -0.370320       -10.0769
  34   2.0000      -0.359506        -9.7827
  35   2.0000      -0.348708        -9.4888
  36   2.0000      -0.337008        -9.1705
  37   2.0000      -0.331622        -9.0239
  38   2.0000      -0.303918        -8.2700
  39   2.0000      -0.291494        -7.9320
  40   2.0000      -0.285257        -7.7622
  41   2.0000      -0.275544        -7.4979
  42   2.0000      -0.250108        -6.8058
  43   2.0000      -0.154822        -4.2129
  44   0.0000      -0.007688        -0.2092
  45   0.0000       0.011725         0.3191
  46   0.0000       0.024154         0.6573
  47   0.0000       0.030998         0.8435
  48   0.0000       0.036260         0.9867

MULLIKEN ATOMIC CHARGES
-----------------------
   0 C :   -0.286814
   1 C :   -0.132505
   2 C :   -0.291563
   3 H :    0.178188
   4 H :    0.138290
   5 S :    0.766313
   6 C :    0.216379
   7 N :   -0.479341
   8 C :   -0.446563
   9 H :    0.197826
  10 H :    0.072227
  11 H :    0.221524
  12 H :    0.230871
  13 O :   -0.373696
  14 F :   -0.074106
  15 O :   -0.384891
  16 H :    0.106297
  17 H :    0.100184
  18 H :    0.087403
  19 H :    0.153977
Sum of atomic charges:   -0.0000000

LOEWDIN ATOMIC CHARGES
----------------------
   0 C :   -0.218651
   1 C :   -0.273874
   2 C :   -0.358642
   3 H :    0.151481
   4 H :    0.137308
   5 S :    0.498445
   6 C :   -0.381212
   7 N :   -0.008739
   8 C :   -0.250118
   9 H :    0.090141
  10 H :    0.094206
  11 H :    0.163537
  12 H :    0.167112
  13 O :   -0.233276
  14 F :    0.108984
  15 O :   -0.245847
  16 H :    0.135257
  17 H :    0.142183
  18 H :    0.135511
  19 H :    0.146195

  Mayer bond orders larger than 0.100000
B(  0-C ,  1-C ) :   0.9764 B(  0-C ,  6-C ) :   0.9594 B(  0-C , 18-H ) :   0.9396
B(  0-C , 19-H ) :   0.9830 B(  1-C ,  2-C ) :   1.0211 B(  1-C , 16-H ) :   0.9508
B(  1-C , 17-H ) :   0.9214 B(  2-C ,  3-H ) :   0.9225 B(  2-C ,  4-H ) :   0.9321
B(  2-C ,  5-S ) :   0.9269 B(  5-S , 13-O ) :   1.9803 B(  5-S , 14-F ) :   1.1356
B(  5-S , 15-O ) :   1.8086 B(  6-C ,  7-N ) :   1.1364 B(  6-C ,  8-C ) :   1.7698
B(  7-N , 11-H ) :   0.9173 B(  7-N , 12-H ) :   0.9123 B(  8-C ,  9-H ) :   0.9404
B(  8-C , 10-H ) :   0.9740

Dispersion correction           -0.028730705
FINAL SINGLE POINT ENERGY      -900.027391311308

DIPOLE MOMENT
-------------
                                X             Y             Z
Electronic contribution:      5.54153     -11.74068       7.26221
Nuclear contribution   :     -6.09390      13.51614      -6.45360
                        -----------------------------------------
Total Dipole Moment    :     -0.55237       1.77545       0.80861
                        -----------------------------------------
Magnitude (a.u.)       :      2.02761
Magnitude (Debye)      :      5.15377

Rotational constants in cm-1:     0.081469     0.024519     0.022336
Rotational constants in MHz :  2442.393231   735.066768   669.628729

                             ****ORCA TERMINATED NORMALLY****
TOTAL RUN TIME: 0 days 0 hours 0 minutes 11 seconds 901 msec
