                         Program Version 5.0.0 -  RELEASE  -
|  1> !TPSS D3BJ RIJCOSX def2-TZVP def2/J TightSCF xyzfile
|  2>
|  3> *xyzfile 0 1 D6.xyz
|  4>
|  5> %MaxCore 64000
|  6>
|  7> %pal nprocs 18
|  8> end
|  9>
| 10> %scf
| 11>   MaxIter 150
| 12> end
| 13>
| 14>
| 15>                          ****END OF INPUT****

CARTESIAN COORDINATES (ANGSTROEM)
---------------------------------
  C     -0.461293    2.234686   -4.989619
  C      0.848883    2.667967   -4.302351
  C      2.093434    1.861037   -4.656845
  H      2.444814    2.041567   -5.674990
  H      2.901748    2.137864   -3.980338
  S      1.879644    0.078594   -4.462965
  C     -0.423841    2.398772   -6.474317
  N     -0.959467    3.492647   -7.007401
  C      0.145585    1.486891   -7.203987
  H      0.565371    0.696807   -6.723858
  H      0.220682    1.581768   -8.207520
  H     -1.406243    4.181507   -6.403261
  H     -0.934215    3.681601   -7.999468
  O      3.207574   -0.466111   -4.420259
  O      1.075064   -0.056160   -3.268758
  F      1.131661   -0.319960   -5.679031
  H      0.668432    2.559427   -3.232850
  H      1.034074    3.729426   -4.497081
  H     -1.288884    2.826737   -4.594997
  H     -0.651696    1.186343   -4.756552

 Total Charge           Charge          ....    0
 Multiplicity           Mult            ....    1
 Number of Electrons    NEL             ....   88
 Basis Dimension        Dim             ....  376

ORBITAL ENERGIES
----------------

  NO   OCC          E(Eh)            E(eV)
   0   2.0000     -88.577958     -2410.3288
   1   2.0000     -24.504590      -666.8038
   2   2.0000     -18.893781      -514.1259
   3   2.0000     -18.891424      -514.0618
   4   2.0000     -14.110090      -383.9551
   5   2.0000     -10.032809      -273.0066
   6   2.0000     -10.009842      -272.3817
   7   2.0000     -10.005721      -272.2695
   8   2.0000      -9.999061      -272.0883
   9   2.0000      -9.915613      -269.8175
  10   2.0000      -7.927804      -215.7265
  11   2.0000      -5.911182      -160.8514
  12   2.0000      -5.904243      -160.6626
  13   2.0000      -5.903872      -160.6525
  14   2.0000      -1.271842       -34.6086
  15   2.0000      -1.039688       -28.2914
  16   2.0000      -0.953814       -25.9546
  17   2.0000      -0.870890       -23.6981
  18   2.0000      -0.770942       -20.9784
  19   2.0000      -0.712779       -19.3957
  20   2.0000      -0.666836       -18.1455
  21   2.0000      -0.651756       -17.7352
  22   2.0000      -0.585044       -15.9198
  23   2.0000      -0.547513       -14.8986
  24   2.0000      -0.507199       -13.8016
  25   2.0000      -0.504643       -13.7320
  26   2.0000      -0.497013       -13.5244
  27   2.0000      -0.485606       -13.2140
  28   2.0000      -0.453687       -12.3454
  29   2.0000      -0.441321       -12.0090
  30   2.0000      -0.424338       -11.5468
  31   2.0000      -0.408605       -11.1187
  32   2.0000      -0.400736       -10.9046
  33   2.0000      -0.369023       -10.0416
  34   2.0000      -0.359285        -9.7766
  35   2.0000      -0.353383        -9.6161
  36   2.0000      -0.341652        -9.2968
  37   2.0000      -0.330589        -8.9958
  38   2.0000      -0.306740        -8.3468
  39   2.0000      -0.300745        -8.1837
  40   2.0000      -0.293459        -7.9854
  41   2.0000      -0.285003        -7.7553
  42   2.0000      -0.275862        -7.5066
  43   2.0000      -0.170070        -4.6278
  44   0.0000      -0.003668        -0.0998
  45   0.0000       0.008408         0.2288
  46   0.0000       0.015662         0.4262
  47   0.0000       0.031262         0.8507
  48   0.0000       0.038210         1.0397

MULLIKEN ATOMIC CHARGES
-----------------------
   0 C :   -0.305466
   1 C :   -0.087429
   2 C :   -0.321858
   3 H :    0.165182
   4 H :    0.150826
   5 S :    0.774165
   6 C :    0.232584
   7 N :   -0.469672
   8 C :   -0.443854
   9 H :    0.137066
  10 H :    0.082486
  11 H :    0.228843
  12 H :    0.232615
  13 O :   -0.383947
  14 O :   -0.383899
  15 F :   -0.079151
  16 H :    0.120854
  17 H :    0.094774
  18 H :    0.092294
  19 H :    0.163588
Sum of atomic charges:    0.0000000

LOEWDIN ATOMIC CHARGES
----------------------
   0 C :   -0.214851
   1 C :   -0.267180
   2 C :   -0.362706
   3 H :    0.139399
   4 H :    0.146395
   5 S :    0.503769
   6 C :   -0.374027
   7 N :    0.000887
   8 C :   -0.270112
   9 H :    0.087677
  10 H :    0.096713
  11 H :    0.167647
  12 H :    0.168489
  13 O :   -0.236934
  14 O :   -0.243666
  15 F :    0.087183
  16 H :    0.144445
  17 H :    0.140198
  18 H :    0.138210
  19 H :    0.148463

  Mayer bond orders larger than 0.100000
B(  0-C ,  1-C ) :   0.9889 B(  0-C ,  6-C ) :   0.9554 B(  0-C , 18-H ) :   0.9404
B(  0-C , 19-H ) :   0.9806 B(  1-C ,  2-C ) :   1.0144 B(  1-C , 16-H ) :   0.9389
B(  1-C , 17-H ) :   0.9192 B(  2-C ,  3-H ) :   0.9280 B(  2-C ,  4-H ) :   0.9299
B(  2-C ,  5-S ) :   0.9161 B(  5-S , 13-O ) :   1.9742 B(  5-S , 14-O ) :   1.9046
B(  5-S , 15-F ) :   1.0837 B(  6-C ,  7-N ) :   1.1593 B(  6-C ,  8-C ) :   1.7485
B(  7-N , 11-H ) :   0.9149 B(  7-N , 12-H ) :   0.9115 B(  8-C ,  9-H ) :   0.9784
B(  8-C , 10-H ) :   0.9708

Dispersion correction           -0.028586634
FINAL SINGLE POINT ENERGY      -900.042657844757

DIPOLE MOMENT
-------------
                                X             Y             Z
Electronic contribution:      5.53989     -12.02013       3.18503
Nuclear contribution   :     -6.15577      13.80449      -3.81895
                        -----------------------------------------
Total Dipole Moment    :     -0.61588       1.78437      -0.63393
                        -----------------------------------------
Magnitude (a.u.)       :      1.99126
Magnitude (Debye)      :      5.06139

Rotational constants in cm-1:     0.081431     0.024887     0.022470
Rotational constants in MHz :  2441.231544   746.086417   673.646914

                             ****ORCA TERMINATED NORMALLY****
TOTAL RUN TIME: 0 days 0 hours 0 minutes 14 seconds 469 msec
