                         Program Version 5.0.0 -  RELEASE  -
|  1> !wB97X-D3 RIJCOSX def2-SVPD def2/J TightSCF CPCM(Water)
|  2> *xyz -1 1
|  3> C          3.38093        2.08304       -3.35013
|  4> C          2.49556        1.81615       -2.13636
|  5> C          1.87218        0.42790       -2.07750
|  6> H          2.61427       -0.36583       -2.19889
|  7> H          1.38995        0.27309       -1.11236
|  8> S          0.57902        0.14047       -3.29794
|  9> O          0.22886       -1.24687       -3.12787
| 10> O         -0.43927        1.11897       -3.01455
| 11> O          1.24788        0.40347       -4.59565
| 12> H          1.69700        2.56197       -2.14111
| 13> H          3.08079        1.98744       -1.22584
| 14> H          2.81820        1.91840       -4.24519
| 15> H          4.22171        1.42153       -3.33067
| 16> H          3.72372        3.09635       -3.32565
| 17> *
| 18>
| 19> %MaxCore 64000
| 20>
| 21> %pal nprocs 8
| 22> end
| 23>
| 24> %scf
| 25>   MaxIter 150
| 26> end
| 27>
| 28>
| 29>                          ****END OF INPUT****

CARTESIAN COORDINATES (ANGSTROEM)
---------------------------------
  C      3.380930    2.083040   -3.350130
  C      2.495560    1.816150   -2.136360
  C      1.872180    0.427900   -2.077500
  H      2.614270   -0.365830   -2.198890
  H      1.389950    0.273090   -1.112360
  S      0.579020    0.140470   -3.297940
  O      0.228860   -1.246870   -3.127870
  O     -0.439270    1.118970   -3.014550
  O      1.247880    0.403470   -4.595650
  H      1.697000    2.561970   -2.141110
  H      3.080790    1.987440   -1.225840
  H      2.818200    1.918400   -4.245190
  H      4.221710    1.421530   -3.330670
  H      3.723720    3.096350   -3.325650

 Total Charge           Charge          ....   -1
 Multiplicity           Mult            ....    1
 Number of Electrons    NEL             ....   66
 Basis Dimension        Dim             ....  212

ORBITAL ENERGIES
----------------

  NO   OCC          E(Eh)            E(eV)
   0   2.0000     -89.151580     -2425.9378
   1   2.0000     -19.209036      -522.7044
   2   2.0000     -19.208536      -522.6908
   3   2.0000     -19.194793      -522.3169
   4   2.0000     -10.293830      -280.1093
   5   2.0000     -10.283158      -279.8189
   6   2.0000     -10.257647      -279.1248
   7   2.0000      -8.225843      -223.8366
   8   2.0000      -6.185685      -168.3210
   9   2.0000      -6.185663      -168.3205
  10   2.0000      -6.183980      -168.2747
  11   2.0000      -1.231606       -33.5137
  12   2.0000      -1.092588       -29.7308
  13   2.0000      -1.066939       -29.0329
  14   2.0000      -0.899849       -24.4861
  15   2.0000      -0.810588       -22.0572
  16   2.0000      -0.708494       -19.2791
  17   2.0000      -0.649645       -17.6777
  18   2.0000      -0.594067       -16.1654
  19   2.0000      -0.566884       -15.4257
  20   2.0000      -0.557101       -15.1595
  21   2.0000      -0.536134       -14.5889
  22   2.0000      -0.527295       -14.3484
  23   2.0000      -0.499538       -13.5931
  24   2.0000      -0.450528       -12.2595
  25   2.0000      -0.439578       -11.9615
  26   2.0000      -0.437770       -11.9123
  27   2.0000      -0.432798       -11.7770
  28   2.0000      -0.423154       -11.5146
  29   2.0000      -0.395002       -10.7485
  30   2.0000      -0.381492       -10.3809
  31   2.0000      -0.360901        -9.8206
  32   2.0000      -0.346428        -9.4268
  33   0.0000       0.082052         2.2327
  34   0.0000       0.100370         2.7312
  35   0.0000       0.101248         2.7551
  36   0.0000       0.105008         2.8574
  37   0.0000       0.138008         3.7554

MULLIKEN ATOMIC CHARGES
-----------------------
   0 C :    0.780815
   1 C :   -0.282528
   2 C :   -0.002928
   3 H :    0.022191
   4 H :    0.035224
   5 S :    1.346366
   6 O :   -0.830192
   7 O :   -0.819114
   8 O :   -0.880903
   9 H :   -0.017933
  10 H :   -0.087694
  11 H :   -0.273226
  12 H :    0.006192
  13 H :    0.003730
Sum of atomic charges:   -1.0000000

LOEWDIN ATOMIC CHARGES
----------------------
   0 C :    0.116797
   1 C :   -0.080590
   2 C :   -0.082436
   3 H :    0.022826
   4 H :    0.017076
   5 S :    0.859279
   6 O :   -0.600307
   7 O :   -0.596218
   8 O :   -0.613271
   9 H :    0.018249
  10 H :    0.027639
  11 H :   -0.062588
  12 H :   -0.011371
  13 H :   -0.015085

  Mayer bond orders larger than 0.100000
B(  0-C ,  1-C ) :   1.2503 B(  0-C , 11-H ) :   0.8335 B(  0-C , 12-H ) :   0.7395
B(  0-C , 13-H ) :   0.7472 B(  1-C ,  2-C ) :   1.1963 B(  1-C ,  3-H ) :   0.1176
B(  1-C ,  4-H ) :   0.1207 B(  1-C ,  9-H ) :   0.9087 B(  1-C , 10-H ) :   0.9245
B(  1-C , 11-H ) :   0.2552 B(  1-C , 12-H ) :   0.1958 B(  1-C , 13-H ) :   0.1870
B(  2-C ,  3-H ) :   0.9575 B(  2-C ,  4-H ) :   0.9177 B(  2-C ,  5-S ) :   0.9430
B(  2-C ,  9-H ) :   0.1198 B(  5-S ,  6-O ) :   1.3606 B(  5-S ,  7-O ) :   1.2873
B(  5-S ,  8-O ) :   1.2365 B(  8-O , 11-H ) :   0.1134 B( 11-H , 12-H ) :   0.1174

Dispersion correction           -0.004485001
FINAL SINGLE POINT ENERGY      -742.071628125025

DIPOLE MOMENT
-------------
                                X             Y             Z
Electronic contribution:     -8.13858      -5.26665      -2.30571
Nuclear contribution   :     10.42821       6.37804       4.08250
                        -----------------------------------------
Total Dipole Moment    :      2.28963       1.11139       1.77680
                        -----------------------------------------
Magnitude (a.u.)       :      3.10397
Magnitude (Debye)      :      7.88966

Rotational constants in cm-1:     0.136992     0.054831     0.052480
Rotational constants in MHz :  4106.928256  1643.799656  1573.299166

                             ****ORCA TERMINATED NORMALLY****
TOTAL RUN TIME: 0 days 0 hours 0 minutes 22 seconds 738 msec
