                         Program Version 5.0.0 -  RELEASE  -
|  1> !wB97X-D3 RIJCOSX def2-SVPD def2/J TightSCF CPCM(Water)
|  2> *xyz 1 1
|  3> C          3.38093        2.08304       -3.35013
|  4> N          4.53592        1.18245       -3.42852
|  5> C          2.49556        1.81615       -2.13636
|  6> C          1.87218        0.42790       -2.07750
|  7> C          4.67196        0.12227       -4.22060
|  8> N          5.86602       -0.50785       -4.22428
|  9> N          3.69888       -0.31284       -4.98699
| 10> H          2.73141       -0.05009       -4.84900
| 11> H          3.89005       -1.05517       -5.64373
| 12> H          5.25193        1.30346       -2.72101
| 13> H          6.69516       -0.06232       -3.85160
| 14> H          5.97538       -1.39688       -4.69141
| 15> H          1.69700        2.56197       -2.14111
| 16> H          3.08079        1.98744       -1.22584
| 17> H          2.80646        1.98651       -4.26848
| 18> H          3.77871        3.09828       -3.30738
| 19> H          1.29954        0.25615       -2.96490
| 20> H          1.23321        0.35984       -1.22194
| 21> H          2.64581       -0.30765       -2.00430
| 22> *
| 23>
| 24> %MaxCore 64000
| 25>
| 26> %pal nprocs 8
| 27> end
| 28>
| 29> %scf
| 30>   MaxIter 150
| 31> end
| 32>
| 33>
| 34>                          ****END OF INPUT****

CARTESIAN COORDINATES (ANGSTROEM)
---------------------------------
  C      3.380930    2.083040   -3.350130
  N      4.535920    1.182450   -3.428520
  C      2.495560    1.816150   -2.136360
  C      1.872180    0.427900   -2.077500
  C      4.671960    0.122270   -4.220600
  N      5.866020   -0.507850   -4.224280
  N      3.698880   -0.312840   -4.986990
  H      2.731410   -0.050090   -4.849000
  H      3.890050   -1.055170   -5.643730
  H      5.251930    1.303460   -2.721010
  H      6.695160   -0.062320   -3.851600
  H      5.975380   -1.396880   -4.691410
  H      1.697000    2.561970   -2.141110
  H      3.080790    1.987440   -1.225840
  H      2.806460    1.986510   -4.268480
  H      3.778710    3.098280   -3.307380
  H      1.299540    0.256150   -2.964900
  H      1.233210    0.359840   -1.221940
  H      2.645810   -0.307650   -2.004300

 Total Charge           Charge          ....    1
 Multiplicity           Mult            ....    1
 Number of Electrons    NEL             ....   56
 Basis Dimension        Dim             ....  236

ORBITAL ENERGIES
----------------

  NO   OCC          E(Eh)            E(eV)
   0   2.0000     -14.489298      -394.2738
   1   2.0000     -14.487751      -394.2317
   2   2.0000     -14.480054      -394.0223
   3   2.0000     -10.457135      -284.5531
   4   2.0000     -10.338014      -281.3117
   5   2.0000     -10.291272      -280.0397
   6   2.0000     -10.273869      -279.5662
   7   2.0000      -1.151935       -31.3457
   8   2.0000      -1.041433       -28.3388
   9   2.0000      -1.021977       -27.8094
  10   2.0000      -0.902924       -24.5698
  11   2.0000      -0.822449       -22.3800
  12   2.0000      -0.762281       -20.7427
  13   2.0000      -0.722189       -19.6518
  14   2.0000      -0.711255       -19.3542
  15   2.0000      -0.671414       -18.2701
  16   2.0000      -0.621618       -16.9151
  17   2.0000      -0.617361       -16.7992
  18   2.0000      -0.584409       -15.9026
  19   2.0000      -0.573470       -15.6049
  20   2.0000      -0.549642       -14.9565
  21   2.0000      -0.529120       -14.3981
  22   2.0000      -0.504893       -13.7388
  23   2.0000      -0.463925       -12.6240
  24   2.0000      -0.445363       -12.1189
  25   2.0000      -0.435174       -11.8417
  26   2.0000      -0.399111       -10.8604
  27   2.0000      -0.372344       -10.1320
  28   0.0000       0.080634         2.1942
  29   0.0000       0.089396         2.4326
  30   0.0000       0.114093         3.1046
  31   0.0000       0.118468         3.2237
  32   0.0000       0.125324         3.4102

MULLIKEN ATOMIC CHARGES
-----------------------
   0 C :    0.728288
   1 N :   -0.611550
   2 C :   -0.416981
   3 C :    0.651069
   4 C :    1.440831
   5 N :   -0.190847
   6 N :   -0.086815
   7 H :   -0.056237
   8 H :   -0.028527
   9 H :   -0.146878
  10 H :   -0.000157
  11 H :    0.051139
  12 H :    0.000144
  13 H :   -0.019747
  14 H :   -0.003846
  15 H :   -0.179283
  16 H :   -0.015210
  17 H :   -0.118233
  18 H :    0.002842
Sum of atomic charges:    1.0000000

LOEWDIN ATOMIC CHARGES
----------------------
   0 C :    0.081569
   1 N :    0.045334
   2 C :   -0.062023
   3 C :    0.119820
   4 C :   -0.032807
   5 N :    0.257742
   6 N :    0.282573
   7 H :    0.025335
   8 H :    0.052034
   9 H :    0.072128
  10 H :    0.042298
  11 H :    0.040178
  12 H :    0.029353
  13 H :    0.028352
  14 H :    0.028847
  15 H :    0.037036
  16 H :   -0.015789
  17 H :   -0.012929
  18 H :   -0.019050

  Mayer bond orders larger than 0.100000
B(  0-C ,  1-N ) :   0.8647 B(  0-C ,  2-C ) :   1.1032 B(  0-C ,  9-H ) :  -0.1906
B(  0-C , 12-H ) :   0.1107 B(  0-C , 13-H ) :   0.1147 B(  0-C , 14-H ) :   0.7833
B(  0-C , 15-H ) :   0.9586 B(  1-N ,  4-C ) :   0.9029 B(  1-N ,  5-N ) :   0.2643
B(  1-N ,  6-N ) :   0.2651 B(  1-N ,  9-H ) :   1.3615 B(  1-N , 14-H ) :   0.1501
B(  1-N , 15-H ) :   0.1356 B(  2-C ,  3-C ) :   1.2948 B(  2-C , 12-H ) :   0.9299
B(  2-C , 13-H ) :   0.9436 B(  2-C , 14-H ) :   0.1178 B(  2-C , 16-H ) :   0.2082
B(  2-C , 17-H ) :   0.2044 B(  2-C , 18-H ) :   0.2116 B(  3-C , 16-H ) :   0.7998
B(  3-C , 17-H ) :   0.8379 B(  3-C , 18-H ) :   0.7871 B(  4-C ,  5-N ) :   0.8369
B(  4-C ,  6-N ) :   0.9193 B(  4-C ,  7-H ) :  -0.1616 B(  4-C ,  8-H ) :  -0.1719
B(  4-C ,  9-H ) :  -0.2236 B(  4-C , 10-H ) :  -0.1388 B(  5-N ,  6-N ) :   0.1697
B(  5-N , 10-H ) :   1.1807 B(  5-N , 11-H ) :   1.1472 B(  6-N ,  7-H ) :   1.1446
B(  6-N ,  8-H ) :   1.2945 B(  7-H ,  8-H ) :  -0.2235 B( 10-H , 11-H ) :  -0.1638
B( 14-H , 15-H ) :  -0.1042

Dispersion correction           -0.005588697
FINAL SINGLE POINT ENERGY      -323.515612253957

DIPOLE MOMENT
-------------
                                X             Y             Z
Electronic contribution:      5.60221      -1.65459      -4.04569
Nuclear contribution   :     -4.20917       0.72396       2.93051
                        -----------------------------------------
Total Dipole Moment    :      1.39304      -0.93063      -1.11518
                        -----------------------------------------
Magnitude (a.u.)       :      2.01252
Magnitude (Debye)      :      5.11543

Rotational constants in cm-1:     0.153116     0.051500     0.046494
Rotational constants in MHz :  4590.307026  1543.937577  1393.864628

                             ****ORCA TERMINATED NORMALLY****
TOTAL RUN TIME: 0 days 0 hours 0 minutes 27 seconds 644 msec
