                         Program Version 5.0.0 -  RELEASE  -
|  1> !wB97X-D3 RIJCOSX def2-SVPD def2/J TightSCF CPCM(Water)
|  2> *xyz 0 1
|  3> C          3.38093        2.08304       -3.35013
|  4> C          2.49556        1.81615       -2.13636
|  5> C          1.87218        0.42790       -2.07750
|  6> H          2.61427       -0.36583       -2.19889
|  7> H          1.38995        0.27309       -1.11236
|  8> S          0.57902        0.14047       -3.29794
|  9> F          0.22886       -1.24687       -3.12787
| 10> O         -0.43927        1.11897       -3.01455
| 11> O          1.24788        0.40347       -4.59565
| 12> H          1.69700        2.56197       -2.14111
| 13> H          3.08079        1.98744       -1.22584
| 14> H          2.81820        1.91840       -4.24519
| 15> H          4.22171        1.42153       -3.33067
| 16> H          3.72372        3.09635       -3.32565
| 17> *
| 18>
| 19> %MaxCore 64000
| 20>
| 21> %pal nprocs 8
| 22> end
| 23>
| 24> %scf
| 25>   MaxIter 150
| 26> end
| 27>
| 28>
| 29>                          ****END OF INPUT****

CARTESIAN COORDINATES (ANGSTROEM)
---------------------------------
  C      3.380930    2.083040   -3.350130
  C      2.495560    1.816150   -2.136360
  C      1.872180    0.427900   -2.077500
  H      2.614270   -0.365830   -2.198890
  H      1.389950    0.273090   -1.112360
  S      0.579020    0.140470   -3.297940
  F      0.228860   -1.246870   -3.127870
  O     -0.439270    1.118970   -3.014550
  O      1.247880    0.403470   -4.595650
  H      1.697000    2.561970   -2.141110
  H      3.080790    1.987440   -1.225840
  H      2.818200    1.918400   -4.245190
  H      4.221710    1.421530   -3.330670
  H      3.723720    3.096350   -3.325650

 Total Charge           Charge          ....    0
 Multiplicity           Mult            ....    1
 Number of Electrons    NEL             ....   66
 Basis Dimension        Dim             ....  212

ORBITAL ENERGIES
----------------

  NO   OCC          E(Eh)            E(eV)
   0   2.0000     -89.239962     -2428.3428
   1   2.0000     -24.918984      -678.0800
   2   2.0000     -19.269759      -524.3568
   3   2.0000     -19.256199      -523.9878
   4   2.0000     -10.335418      -281.2410
   5   2.0000     -10.302686      -280.3503
   6   2.0000     -10.267807      -279.4012
   7   2.0000      -8.314289      -226.2433
   8   2.0000      -6.277916      -170.8308
   9   2.0000      -6.272022      -170.6704
  10   2.0000      -6.269802      -170.6100
  11   2.0000      -1.492182       -40.6043
  12   2.0000      -1.235221       -33.6121
  13   2.0000      -1.129040       -30.7227
  14   2.0000      -0.931362       -25.3437
  15   2.0000      -0.861617       -23.4458
  16   2.0000      -0.809723       -22.0337
  17   2.0000      -0.733167       -19.9505
  18   2.0000      -0.694917       -18.9097
  19   2.0000      -0.677406       -18.4331
  20   2.0000      -0.665365       -18.1055
  21   2.0000      -0.595892       -16.2150
  22   2.0000      -0.579631       -15.7726
  23   2.0000      -0.555244       -15.1090
  24   2.0000      -0.542471       -14.7614
  25   2.0000      -0.521925       -14.2023
  26   2.0000      -0.496398       -13.5077
  27   2.0000      -0.464019       -12.6266
  28   2.0000      -0.456006       -12.4086
  29   2.0000      -0.442285       -12.0352
  30   2.0000      -0.438772       -11.9396
  31   2.0000      -0.415024       -11.2934
  32   2.0000      -0.409258       -11.1365
  33   0.0000       0.069841         1.9005
  34   0.0000       0.096373         2.6224
  35   0.0000       0.099284         2.7016
  36   0.0000       0.100632         2.7383
  37   0.0000       0.121362         3.3024

MULLIKEN ATOMIC CHARGES
-----------------------
   0 C :    0.754042
   1 C :   -0.327608
   2 C :   -0.093795
   3 H :    0.105490
   4 H :    0.122836
   5 S :    1.609430
   6 F :   -0.426660
   7 O :   -0.702567
   8 O :   -0.783563
   9 H :    0.010101
  10 H :   -0.053346
  11 H :   -0.254220
  12 H :    0.019971
  13 H :    0.019889
Sum of atomic charges:   -0.0000000

LOEWDIN ATOMIC CHARGES
----------------------
   0 C :    0.128449
   1 C :   -0.059427
   2 C :   -0.042478
   3 H :    0.039788
   4 H :    0.033650
   5 S :    1.144404
   6 F :   -0.238179
   7 O :   -0.492954
   8 O :   -0.515576
   9 H :    0.028594
  10 H :    0.042191
  11 H :   -0.054081
  12 H :   -0.006014
  13 H :   -0.008367

  Mayer bond orders larger than 0.100000
B(  0-C ,  1-C ) :   1.2608 B(  0-C , 11-H ) :   0.8433 B(  0-C , 12-H ) :   0.7468
B(  0-C , 13-H ) :   0.7509 B(  1-C ,  2-C ) :   1.2290 B(  1-C ,  3-H ) :   0.1175
B(  1-C ,  4-H ) :   0.1241 B(  1-C ,  9-H ) :   0.9102 B(  1-C , 10-H ) :   0.9426
B(  1-C , 11-H ) :   0.2433 B(  1-C , 12-H ) :   0.1924 B(  1-C , 13-H ) :   0.1834
B(  2-C ,  3-H ) :   0.9423 B(  2-C ,  4-H ) :   0.8925 B(  2-C ,  5-S ) :   0.9777
B(  2-C ,  9-H ) :   0.1163 B(  5-S ,  6-F ) :   0.6889 B(  5-S ,  7-O ) :   1.4726
B(  5-S ,  8-O ) :   1.4099 B(  8-O , 11-H ) :   0.1030 B( 11-H , 12-H ) :   0.1186

Dispersion correction           -0.004465404
FINAL SINGLE POINT ENERGY      -766.465333589365

DIPOLE MOMENT
-------------
                                X             Y             Z
Electronic contribution:    -10.46017      -9.16447      -2.36435
Nuclear contribution   :     11.47400       8.34657       4.07449
                        -----------------------------------------
Total Dipole Moment    :      1.01382      -0.81790       1.71014
                        -----------------------------------------
Magnitude (a.u.)       :      2.14974
Magnitude (Debye)      :      5.46419

Rotational constants in cm-1:     0.134491     0.052696     0.050832
Rotational constants in MHz :  4031.952949  1579.780527  1523.918863

                             ****ORCA TERMINATED NORMALLY****
TOTAL RUN TIME: 0 days 0 hours 0 minutes 23 seconds 758 msec
