                         Program Version 5.0.0 -  RELEASE  -
|  1> !wB97X-D3 RIJCOSX def2-SVPD def2/J TightSCF CPCM(Water)
|  2> *xyz 0 1
|  3> C          3.38093        2.08304       -3.35013
|  4> C          4.53592        1.18245       -3.42852
|  5> C          2.49556        1.81615       -2.13636
|  6> C          1.87218        0.42790       -2.07750
|  7> C          4.67196        0.12227       -4.22060
|  8> N          5.86602       -0.50785       -4.22428
|  9> N          3.69888       -0.31284       -4.98699
| 10> H          2.73141       -0.05009       -4.84900
| 11> H          3.89005       -1.05517       -5.64373
| 12> H          5.25193        1.30346       -2.72101
| 13> H          6.69516       -0.06232       -3.85160
| 14> H          5.97538       -1.39688       -4.69141
| 15> H          1.69700        2.56197       -2.14111
| 16> H          3.08079        1.98744       -1.22584
| 17> H          2.80646        1.98651       -4.26848
| 18> H          3.77871        3.09828       -3.30738
| 19> H          1.29954        0.25615       -2.96490
| 20> H          1.23321        0.35984       -1.22194
| 21> H          2.64581       -0.30765       -2.00430
| 22> *
| 23>
| 24> %MaxCore 64000
| 25>
| 26> %pal nprocs 8
| 27> end
| 28>
| 29> %scf
| 30>   MaxIter 150
| 31> end
| 32>
| 33>
| 34>                          ****END OF INPUT****

CARTESIAN COORDINATES (ANGSTROEM)
---------------------------------
  C      3.380930    2.083040   -3.350130
  C      4.535920    1.182450   -3.428520
  C      2.495560    1.816150   -2.136360
  C      1.872180    0.427900   -2.077500
  C      4.671960    0.122270   -4.220600
  N      5.866020   -0.507850   -4.224280
  N      3.698880   -0.312840   -4.986990
  H      2.731410   -0.050090   -4.849000
  H      3.890050   -1.055170   -5.643730
  H      5.251930    1.303460   -2.721010
  H      6.695160   -0.062320   -3.851600
  H      5.975380   -1.396880   -4.691410
  H      1.697000    2.561970   -2.141110
  H      3.080790    1.987440   -1.225840
  H      2.806460    1.986510   -4.268480
  H      3.778710    3.098280   -3.307380
  H      1.299540    0.256150   -2.964900
  H      1.233210    0.359840   -1.221940
  H      2.645810   -0.307650   -2.004300

 Total Charge           Charge          ....    0
 Multiplicity           Mult            ....    1
 Number of Electrons    NEL             ....   56
 Basis Dimension        Dim             ....  236

ORBITAL ENERGIES
----------------

  NO   OCC          E(Eh)            E(eV)
   0   2.0000     -14.432833      -392.7373
   1   2.0000     -14.426880      -392.5754
   2   2.0000     -10.337054      -281.2856
   3   2.0000     -10.269807      -279.4556
   4   2.0000     -10.265513      -279.3388
   5   2.0000     -10.261595      -279.2322
   6   2.0000     -10.212765      -277.9035
   7   2.0000      -1.067180       -29.0395
   8   2.0000      -0.969790       -26.3893
   9   2.0000      -0.898969       -24.4622
  10   2.0000      -0.831682       -22.6312
  11   2.0000      -0.768039       -20.8994
  12   2.0000      -0.701102       -19.0780
  13   2.0000      -0.668297       -18.1853
  14   2.0000      -0.640466       -17.4280
  15   2.0000      -0.607278       -16.5249
  16   2.0000      -0.572891       -15.5892
  17   2.0000      -0.545463       -14.8428
  18   2.0000      -0.537237       -14.6189
  19   2.0000      -0.516435       -14.0529
  20   2.0000      -0.485410       -13.2087
  21   2.0000      -0.475399       -12.9363
  22   2.0000      -0.449272       -12.2253
  23   2.0000      -0.430238       -11.7074
  24   2.0000      -0.412582       -11.2269
  25   2.0000      -0.406439       -11.0598
  26   2.0000      -0.356129        -9.6908
  27   2.0000      -0.248333        -6.7575
  28   0.0000       0.096375         2.6225
  29   0.0000       0.115673         3.1476
  30   0.0000       0.122766         3.3406
  31   0.0000       0.130350         3.5470
  32   0.0000       0.143406         3.9023

MULLIKEN ATOMIC CHARGES
-----------------------
   0 C :    0.229171
   1 C :   -0.271469
   2 C :   -0.372970
   3 C :    0.695800
   4 C :    0.868553
   5 N :   -0.122827
   6 N :    0.031783
   7 H :   -0.085732
   8 H :   -0.174211
   9 H :   -0.282144
  10 H :   -0.027017
  11 H :   -0.054671
  12 H :   -0.059156
  13 H :   -0.055848
  14 H :   -0.075792
  15 H :   -0.068424
  16 H :   -0.044590
  17 H :   -0.099689
  18 H :   -0.030766
Sum of atomic charges:    0.0000000

LOEWDIN ATOMIC CHARGES
----------------------
   0 C :   -0.068633
   1 C :   -0.055423
   2 C :   -0.086970
   3 C :    0.111904
   4 C :   -0.237315
   5 N :    0.176227
   6 N :    0.203772
   7 H :   -0.000188
   8 H :    0.013186
   9 H :   -0.052369
  10 H :    0.010926
  11 H :    0.001072
  12 H :    0.013048
  13 H :    0.020154
  14 H :    0.006834
  15 H :    0.010342
  16 H :   -0.020551
  17 H :   -0.020361
  18 H :   -0.025655

  Mayer bond orders larger than 0.100000
B(  0-C ,  1-C ) :   1.1668 B(  0-C ,  2-C ) :   1.1240 B(  0-C ,  9-H ) :   0.2257
B(  0-C , 12-H ) :   0.1345 B(  0-C , 13-H ) :   0.1376 B(  0-C , 14-H ) :   0.8148
B(  0-C , 15-H ) :   0.8678 B(  1-C ,  4-C ) :   1.6807 B(  1-C ,  5-N ) :   0.3996
B(  1-C ,  6-N ) :   0.2502 B(  1-C ,  9-H ) :   0.8632 B(  1-C , 14-H ) :   0.2230
B(  1-C , 15-H ) :   0.1394 B(  2-C ,  3-C ) :   1.3021 B(  2-C , 12-H ) :   0.9133
B(  2-C , 13-H ) :   0.9251 B(  2-C , 14-H ) :   0.1243 B(  2-C , 16-H ) :   0.2166
B(  2-C , 17-H ) :   0.2118 B(  2-C , 18-H ) :   0.2339 B(  3-C , 12-H ) :   0.1047
B(  3-C , 16-H ) :   0.7955 B(  3-C , 17-H ) :   0.7983 B(  3-C , 18-H ) :   0.7781
B(  4-C ,  5-N ) :   0.7838 B(  4-C ,  6-N ) :   1.0074 B(  4-C ,  8-H ) :  -0.2058
B(  4-C ,  9-H ) :   0.1453 B(  4-C , 10-H ) :  -0.1292 B(  4-C , 14-H ) :  -0.1009
B(  5-N , 10-H ) :   1.2003 B(  5-N , 11-H ) :   1.1471 B(  6-N ,  7-H ) :   1.1057
B(  6-N ,  8-H ) :   1.3761 B(  7-H ,  8-H ) :  -0.2206 B( 10-H , 11-H ) :  -0.1574
B( 16-H , 18-H ) :   0.1136

Dispersion correction           -0.005564286
FINAL SINGLE POINT ENERGY      -306.961552997153

DIPOLE MOMENT
-------------
                                X             Y             Z
Electronic contribution:      4.15185      -1.95257      -3.67395
Nuclear contribution   :     -4.04774       0.83876       2.94666
                        -----------------------------------------
Total Dipole Moment    :      0.10411      -1.11380      -0.72729
                        -----------------------------------------
Magnitude (a.u.)       :      1.33430
Magnitude (Debye)      :      3.39151

Rotational constants in cm-1:     0.155283     0.051523     0.046710
Rotational constants in MHz :  4655.262593  1544.606434  1400.328421

                             ****ORCA TERMINATED NORMALLY****
TOTAL RUN TIME: 0 days 0 hours 0 minutes 30 seconds 328 msec
