                         Program Version 5.0.0 -  RELEASE  -
|  1> !wB97X-D3 RIJCOSX def2-SVPD def2/J TightSCF CPCM(Water)
|  2> *xyz 0 1
|  3> C          3.38093        2.08304       -3.35013
|  4> C          2.49556        1.81615       -2.13636
|  5> C          1.87218        0.42790       -2.07750
|  6> H          2.61427       -0.36583       -2.19889
|  7> H          1.38995        0.27309       -1.11236
|  8> S          0.57902        0.14047       -3.29794
|  9> O          0.22886       -1.24687       -3.12787
| 10> F         -0.43927        1.11897       -3.01455
| 11> O          1.24788        0.40347       -4.59565
| 12> H          1.69700        2.56197       -2.14111
| 13> H          3.08079        1.98744       -1.22584
| 14> H          2.81820        1.91840       -4.24519
| 15> H          4.22171        1.42153       -3.33067
| 16> H          3.72372        3.09635       -3.32565
| 17> *
| 18>
| 19> %MaxCore 64000
| 20>
| 21> %pal nprocs 8
| 22> end
| 23>
| 24> %scf
| 25>   MaxIter 150
| 26> end
| 27>
| 28>
| 29>                          ****END OF INPUT****

CARTESIAN COORDINATES (ANGSTROEM)
---------------------------------
  C      3.380930    2.083040   -3.350130
  C      2.495560    1.816150   -2.136360
  C      1.872180    0.427900   -2.077500
  H      2.614270   -0.365830   -2.198890
  H      1.389950    0.273090   -1.112360
  S      0.579020    0.140470   -3.297940
  O      0.228860   -1.246870   -3.127870
  F     -0.439270    1.118970   -3.014550
  O      1.247880    0.403470   -4.595650
  H      1.697000    2.561970   -2.141110
  H      3.080790    1.987440   -1.225840
  H      2.818200    1.918400   -4.245190
  H      4.221710    1.421530   -3.330670
  H      3.723720    3.096350   -3.325650

 Total Charge           Charge          ....    0
 Multiplicity           Mult            ....    1
 Number of Electrons    NEL             ....   66
 Basis Dimension        Dim             ....  212

ORBITAL ENERGIES
----------------

  NO   OCC          E(Eh)            E(eV)
   0   2.0000     -89.240362     -2428.3537
   1   2.0000     -24.919333      -678.0895
   2   2.0000     -19.270251      -524.3702
   3   2.0000     -19.256454      -523.9947
   4   2.0000     -10.335660      -281.2476
   5   2.0000     -10.300645      -280.2948
   6   2.0000     -10.267252      -279.3861
   7   2.0000      -8.314614      -226.2522
   8   2.0000      -6.278326      -170.8419
   9   2.0000      -6.272321      -170.6785
  10   2.0000      -6.270089      -170.6178
  11   2.0000      -1.492857       -40.6227
  12   2.0000      -1.234706       -33.5981
  13   2.0000      -1.130173       -30.7536
  14   2.0000      -0.932683       -25.3796
  15   2.0000      -0.857105       -23.3230
  16   2.0000      -0.812099       -22.0983
  17   2.0000      -0.730688       -19.8830
  18   2.0000      -0.697905       -18.9910
  19   2.0000      -0.689719       -18.7682
  20   2.0000      -0.656372       -17.8608
  21   2.0000      -0.588516       -16.0143
  22   2.0000      -0.577979       -15.7276
  23   2.0000      -0.555449       -15.1145
  24   2.0000      -0.549856       -14.9623
  25   2.0000      -0.520893       -14.1742
  26   2.0000      -0.496497       -13.5104
  27   2.0000      -0.467701       -12.7268
  28   2.0000      -0.458420       -12.4742
  29   2.0000      -0.438443       -11.9306
  30   2.0000      -0.438279       -11.9262
  31   2.0000      -0.418992       -11.4014
  32   2.0000      -0.404967       -11.0197
  33   0.0000       0.068813         1.8725
  34   0.0000       0.096987         2.6391
  35   0.0000       0.098587         2.6827
  36   0.0000       0.100021         2.7217
  37   0.0000       0.124109         3.3772

MULLIKEN ATOMIC CHARGES
-----------------------
   0 C :    0.755992
   1 C :   -0.298794
   2 C :   -0.092164
   3 H :    0.097172
   4 H :    0.109625
   5 S :    1.571848
   6 O :   -0.708870
   7 F :   -0.395326
   8 O :   -0.770328
   9 H :    0.007805
  10 H :   -0.057105
  11 H :   -0.258121
  12 H :    0.019796
  13 H :    0.018470
Sum of atomic charges:    0.0000000

LOEWDIN ATOMIC CHARGES
----------------------
   0 C :    0.126239
   1 C :   -0.068873
   2 C :   -0.035876
   3 H :    0.047640
   4 H :    0.033974
   5 S :    1.140834
   6 O :   -0.494474
   7 F :   -0.235460
   8 O :   -0.511643
   9 H :    0.030220
  10 H :    0.038845
  11 H :   -0.056431
  12 H :   -0.005992
  13 H :   -0.009003

  Mayer bond orders larger than 0.100000
B(  0-C ,  1-C ) :   1.2666 B(  0-C , 11-H ) :   0.8400 B(  0-C , 12-H ) :   0.7502
B(  0-C , 13-H ) :   0.7553 B(  1-C ,  2-C ) :   1.2009 B(  1-C ,  3-H ) :   0.1078
B(  1-C ,  4-H ) :   0.1126 B(  1-C ,  9-H ) :   0.9036 B(  1-C , 10-H ) :   0.9364
B(  1-C , 11-H ) :   0.2486 B(  1-C , 12-H ) :   0.1912 B(  1-C , 13-H ) :   0.1813
B(  2-C ,  3-H ) :   0.9582 B(  2-C ,  4-H ) :   0.9117 B(  2-C ,  5-S ) :   1.0031
B(  2-C ,  9-H ) :   0.1167 B(  5-S ,  6-O ) :   1.5407 B(  5-S ,  7-F ) :   0.6662
B(  5-S ,  8-O ) :   1.4404 B(  8-O , 11-H ) :   0.1014 B( 11-H , 12-H ) :   0.1172

Dispersion correction           -0.004429326
FINAL SINGLE POINT ENERGY      -766.465272785387

DIPOLE MOMENT
-------------
                                X             Y             Z
Electronic contribution:    -11.76543      -4.57017      -2.14301
Nuclear contribution   :     12.19253       5.80225       3.95262
                        -----------------------------------------
Total Dipole Moment    :      0.42710       1.23208       1.80961
                        -----------------------------------------
Magnitude (a.u.)       :      2.23050
Magnitude (Debye)      :      5.66947

Rotational constants in cm-1:     0.130581     0.053444     0.051914
Rotational constants in MHz :  3914.711139  1602.211061  1556.338643

                             ****ORCA TERMINATED NORMALLY****
TOTAL RUN TIME: 0 days 0 hours 0 minutes 23 seconds 882 msec
