                         Program Version 5.0.0 -  RELEASE  -
|  1> !wB97X-D3 RIJCOSX def2-SVPD def2/J TightSCF CPCM(Water)
|  2> *xyz 0 1
|  3> C          3.38093        2.08304       -3.35013
|  4> N          4.53592        1.18245       -3.42852
|  5> C          2.49556        1.81615       -2.13636
|  6> C          1.87218        0.42790       -2.07750
|  7> C          4.67196        0.12227       -4.22060
|  8> C          5.86602       -0.50785       -4.22428
|  9> N          3.69888       -0.31284       -4.98699
| 10> H          2.73141       -0.05009       -4.84900
| 11> H          3.89005       -1.05517       -5.64373
| 12> H          5.25193        1.30346       -2.72101
| 13> H          6.69516       -0.06232       -3.85160
| 14> H          5.97538       -1.39688       -4.69141
| 15> H          1.69700        2.56197       -2.14111
| 16> H          3.08079        1.98744       -1.22584
| 17> H          2.80646        1.98651       -4.26848
| 18> H          3.77871        3.09828       -3.30738
| 19> H          1.29954        0.25615       -2.96490
| 20> H          1.23321        0.35984       -1.22194
| 21> H          2.64581       -0.30765       -2.00430
| 22> *
| 23>
| 24> %MaxCore 64000
| 25>
| 26> %pal nprocs 8
| 27> end
| 28>
| 29> %scf
| 30>   MaxIter 150
| 31> end
| 32>
| 33>
| 34>                          ****END OF INPUT****

CARTESIAN COORDINATES (ANGSTROEM)
---------------------------------
  C      3.380930    2.083040   -3.350130
  N      4.535920    1.182450   -3.428520
  C      2.495560    1.816150   -2.136360
  C      1.872180    0.427900   -2.077500
  C      4.671960    0.122270   -4.220600
  C      5.866020   -0.507850   -4.224280
  N      3.698880   -0.312840   -4.986990
  H      2.731410   -0.050090   -4.849000
  H      3.890050   -1.055170   -5.643730
  H      5.251930    1.303460   -2.721010
  H      6.695160   -0.062320   -3.851600
  H      5.975380   -1.396880   -4.691410
  H      1.697000    2.561970   -2.141110
  H      3.080790    1.987440   -1.225840
  H      2.806460    1.986510   -4.268480
  H      3.778710    3.098280   -3.307380
  H      1.299540    0.256150   -2.964900
  H      1.233210    0.359840   -1.221940
  H      2.645810   -0.307650   -2.004300

 Total Charge           Charge          ....    0
 Multiplicity           Mult            ....    1
 Number of Electrons    NEL             ....   56
 Basis Dimension        Dim             ....  236

ORBITAL ENERGIES
----------------

  NO   OCC          E(Eh)            E(eV)
   0   2.0000     -14.437084      -392.8530
   1   2.0000     -14.436109      -392.8265
   2   2.0000     -10.348699      -281.6024
   3   2.0000     -10.317017      -280.7403
   4   2.0000     -10.280471      -279.7458
   5   2.0000     -10.267725      -279.3990
   6   2.0000     -10.206366      -277.7293
   7   2.0000      -1.079648       -29.3787
   8   2.0000      -0.993219       -27.0269
   9   2.0000      -0.893018       -24.3002
  10   2.0000      -0.829069       -22.5601
  11   2.0000      -0.775900       -21.1133
  12   2.0000      -0.706358       -19.2210
  13   2.0000      -0.692974       -18.8568
  14   2.0000      -0.646237       -17.5850
  15   2.0000      -0.598144       -16.2763
  16   2.0000      -0.569913       -15.5081
  17   2.0000      -0.557287       -15.1646
  18   2.0000      -0.542875       -14.7724
  19   2.0000      -0.501122       -13.6362
  20   2.0000      -0.494012       -13.4427
  21   2.0000      -0.486875       -13.2485
  22   2.0000      -0.469906       -12.7868
  23   2.0000      -0.443829       -12.0772
  24   2.0000      -0.432965       -11.7816
  25   2.0000      -0.425051       -11.5662
  26   2.0000      -0.345769        -9.4088
  27   2.0000      -0.256392        -6.9768
  28   0.0000       0.092586         2.5194
  29   0.0000       0.115192         3.1345
  30   0.0000       0.122364         3.3297
  31   0.0000       0.126158         3.4329
  32   0.0000       0.143431         3.9030

MULLIKEN ATOMIC CHARGES
-----------------------
   0 C :    0.732941
   1 N :   -0.485567
   2 C :   -0.394871
   3 C :    0.657879
   4 C :    0.549592
   5 C :    0.444930
   6 N :    0.100379
   7 H :   -0.169277
   8 H :   -0.054478
   9 H :   -0.191622
  10 H :   -0.384315
  11 H :   -0.319552
  12 H :   -0.007584
  13 H :   -0.037235
  14 H :   -0.047946
  15 H :   -0.234016
  16 H :   -0.023580
  17 H :   -0.140400
  18 H :    0.004721
Sum of atomic charges:   -0.0000000

LOEWDIN ATOMIC CHARGES
----------------------
   0 C :    0.058627
   1 N :   -0.010244
   2 C :   -0.072565
   3 C :    0.115328
   4 C :   -0.256540
   5 C :    0.103034
   6 N :    0.206548
   7 H :   -0.004943
   8 H :    0.024449
   9 H :    0.047504
  10 H :   -0.118940
  11 H :   -0.121547
  12 H :    0.022329
  13 H :    0.023474
  14 H :    0.018342
  15 H :    0.022639
  16 H :   -0.018982
  17 H :   -0.016834
  18 H :   -0.021678

  Mayer bond orders larger than 0.100000
B(  0-C ,  1-N ) :   0.9197 B(  0-C ,  2-C ) :   1.1041 B(  0-C ,  9-H ) :  -0.1937
B(  0-C , 12-H ) :   0.1192 B(  0-C , 13-H ) :   0.1240 B(  0-C , 14-H ) :   0.7778
B(  0-C , 15-H ) :   0.9467 B(  1-N ,  4-C ) :   1.0187 B(  1-N ,  5-C ) :   0.2108
B(  1-N ,  6-N ) :   0.1916 B(  1-N ,  9-H ) :   1.2822 B(  1-N , 14-H ) :   0.1818
B(  1-N , 15-H ) :   0.1344 B(  2-C ,  3-C ) :   1.2908 B(  2-C , 12-H ) :   0.9156
B(  2-C , 13-H ) :   0.9322 B(  2-C , 14-H ) :   0.1209 B(  2-C , 16-H ) :   0.2130
B(  2-C , 17-H ) :   0.2046 B(  2-C , 18-H ) :   0.2137 B(  3-C , 16-H ) :   0.7974
B(  3-C , 17-H ) :   0.8328 B(  3-C , 18-H ) :   0.7883 B(  4-C ,  5-C ) :   1.5660
B(  4-C ,  6-N ) :   1.0814 B(  4-C ,  9-H ) :  -0.1938 B(  4-C , 11-H ) :   0.2078
B(  5-C ,  6-N ) :   0.1681 B(  5-C , 10-H ) :   0.8584 B(  5-C , 11-H ) :   0.7510
B(  6-N ,  7-H ) :   1.1491 B(  6-N ,  8-H ) :   1.2353 B(  6-N , 14-H ) :   0.1045
B(  7-H ,  8-H ) :  -0.2103 B( 14-H , 15-H ) :  -0.1106

Dispersion correction           -0.005635410
FINAL SINGLE POINT ENERGY      -306.951299910488

DIPOLE MOMENT
-------------
                                X             Y             Z
Electronic contribution:      2.22789       0.24532      -2.60214
Nuclear contribution   :     -3.75638       0.46849       2.77235
                        -----------------------------------------
Total Dipole Moment    :     -1.52848       0.71381       0.17021
                        -----------------------------------------
Magnitude (a.u.)       :      1.69551
Magnitude (Debye)      :      4.30965

Rotational constants in cm-1:     0.154609     0.053528     0.048030
Rotational constants in MHz :  4635.053294  1604.739826  1439.897073

                             ****ORCA TERMINATED NORMALLY****
TOTAL RUN TIME: 0 days 0 hours 0 minutes 31 seconds 619 msec
