                         Program Version 5.0.0 -  RELEASE  -
|  1> !wB97X-D3 RIJCOSX def2-SVPD def2/J TightSCF CPCM(Water)
|  2> *xyz 0 1
|  3> C          3.38093        2.08304       -3.35013
|  4> C          2.49556        1.81615       -2.13636
|  5> C          1.87218        0.42790       -2.07750
|  6> H          2.61427       -0.36583       -2.19889
|  7> H          1.38995        0.27309       -1.11236
|  8> S          0.57902        0.14047       -3.29794
|  9> O          0.22886       -1.24687       -3.12787
| 10> O         -0.43927        1.11897       -3.01455
| 11> F          1.24788        0.40347       -4.59565
| 12> H          1.69700        2.56197       -2.14111
| 13> H          3.08079        1.98744       -1.22584
| 14> H          2.81820        1.91840       -4.24519
| 15> H          4.22171        1.42153       -3.33067
| 16> H          3.72372        3.09635       -3.32565
| 17> *
| 18>
| 19> %MaxCore 64000
| 20>
| 21> %pal nprocs 8
| 22> end
| 23>
| 24> %scf
| 25>   MaxIter 150
| 26> end
| 27>
| 28>
| 29>                          ****END OF INPUT****

CARTESIAN COORDINATES (ANGSTROEM)
---------------------------------
  C      3.380930    2.083040   -3.350130
  C      2.495560    1.816150   -2.136360
  C      1.872180    0.427900   -2.077500
  H      2.614270   -0.365830   -2.198890
  H      1.389950    0.273090   -1.112360
  S      0.579020    0.140470   -3.297940
  O      0.228860   -1.246870   -3.127870
  O     -0.439270    1.118970   -3.014550
  F      1.247880    0.403470   -4.595650
  H      1.697000    2.561970   -2.141110
  H      3.080790    1.987440   -1.225840
  H      2.818200    1.918400   -4.245190
  H      4.221710    1.421530   -3.330670
  H      3.723720    3.096350   -3.325650

 Total Charge           Charge          ....    0
 Multiplicity           Mult            ....    1
 Number of Electrons    NEL             ....   66
 Basis Dimension        Dim             ....  212

ORBITAL ENERGIES
----------------

  NO   OCC          E(Eh)            E(eV)
   0   2.0000     -89.237912     -2428.2870
   1   2.0000     -24.899956      -677.5622
   2   2.0000     -19.270238      -524.3698
   3   2.0000     -19.270124      -524.3667
   4   2.0000     -10.335062      -281.2313
   5   2.0000     -10.301001      -280.3045
   6   2.0000     -10.273430      -279.5542
   7   2.0000      -8.312238      -226.1875
   8   2.0000      -6.275805      -170.7733
   9   2.0000      -6.270046      -170.6166
  10   2.0000      -6.267903      -170.5583
  11   2.0000      -1.459662       -39.7194
  12   2.0000      -1.244689       -33.8697
  13   2.0000      -1.150462       -31.3057
  14   2.0000      -0.933561       -25.4035
  15   2.0000      -0.852335       -23.1932
  16   2.0000      -0.802567       -21.8390
  17   2.0000      -0.733134       -19.9496
  18   2.0000      -0.678169       -18.4539
  19   2.0000      -0.670657       -18.2495
  20   2.0000      -0.657304       -17.8862
  21   2.0000      -0.592690       -16.1279
  22   2.0000      -0.570406       -15.5215
  23   2.0000      -0.565834       -15.3971
  24   2.0000      -0.551860       -15.0169
  25   2.0000      -0.523105       -14.2344
  26   2.0000      -0.506575       -13.7846
  27   2.0000      -0.471128       -12.8200
  28   2.0000      -0.452028       -12.3003
  29   2.0000      -0.448860       -12.2141
  30   2.0000      -0.438726       -11.9383
  31   2.0000      -0.431771       -11.7491
  32   2.0000      -0.420104       -11.4316
  33   0.0000       0.069547         1.8925
  34   0.0000       0.095918         2.6101
  35   0.0000       0.097578         2.6552
  36   0.0000       0.103349         2.8123
  37   0.0000       0.125195         3.4067

MULLIKEN ATOMIC CHARGES
-----------------------
   0 C :    0.723731
   1 C :   -0.296585
   2 C :   -0.090986
   3 H :    0.100989
   4 H :    0.114657
   5 S :    1.545462
   6 O :   -0.716759
   7 O :   -0.713727
   8 F :   -0.431721
   9 H :    0.008735
  10 H :   -0.051256
  11 H :   -0.243221
  12 H :    0.029138
  13 H :    0.021542
Sum of atomic charges:   -0.0000000

LOEWDIN ATOMIC CHARGES
----------------------
   0 C :    0.131012
   1 C :   -0.071830
   2 C :   -0.036971
   3 H :    0.039923
   4 H :    0.042457
   5 S :    1.126707
   6 O :   -0.493498
   7 O :   -0.490458
   8 F :   -0.263405
   9 H :    0.026445
  10 H :    0.039910
  11 H :   -0.039760
  12 H :   -0.004499
  13 H :   -0.006034

  Mayer bond orders larger than 0.100000
B(  0-C ,  1-C ) :   1.2646 B(  0-C , 11-H ) :   0.8387 B(  0-C , 12-H ) :   0.7623
B(  0-C , 13-H ) :   0.7606 B(  1-C ,  2-C ) :   1.2077 B(  1-C ,  3-H ) :   0.1144
B(  1-C ,  4-H ) :   0.1134 B(  1-C ,  9-H ) :   0.9172 B(  1-C , 10-H ) :   0.9312
B(  1-C , 11-H ) :   0.2277 B(  1-C , 12-H ) :   0.1880 B(  1-C , 13-H ) :   0.1829
B(  2-C ,  3-H ) :   0.9587 B(  2-C ,  4-H ) :   0.9021 B(  2-C ,  5-S ) :   1.0188
B(  2-C ,  9-H ) :   0.1211 B(  5-S ,  6-O ) :   1.5285 B(  5-S ,  7-O ) :   1.4912
B(  5-S ,  8-F ) :   0.6416 B( 11-H , 12-H ) :   0.1102

Dispersion correction           -0.004450802
FINAL SINGLE POINT ENERGY      -766.482683785110

DIPOLE MOMENT
-------------
                                X             Y             Z
Electronic contribution:     -8.43945      -5.93928      -5.22537
Nuclear contribution   :     10.37810       6.57173       5.65300
                        -----------------------------------------
Total Dipole Moment    :      1.93865       0.63245       0.42764
                        -----------------------------------------
Magnitude (a.u.)       :      2.08356
Magnitude (Debye)      :      5.29599

Rotational constants in cm-1:     0.130522     0.054787     0.051463
Rotational constants in MHz :  3912.959799  1642.486768  1542.828917

                             ****ORCA TERMINATED NORMALLY****
TOTAL RUN TIME: 0 days 0 hours 0 minutes 23 seconds 888 msec
