                         Program Version 5.0.0 -  RELEASE  -
|  1> !wB97X-D3 RIJCOSX def2-SVPD def2/J TightSCF CPCM(Water)
|  2> *xyz 0 1
|  3> C          3.38093        2.08304       -3.35013
|  4> N          4.53592        1.18245       -3.42852
|  5> C          2.49556        1.81615       -2.13636
|  6> C          1.87218        0.42790       -2.07750
|  7> C          4.67196        0.12227       -4.22060
|  8> N          5.86602       -0.50785       -4.22428
|  9> C          3.69888       -0.31284       -4.98699
| 10> H          2.73141       -0.05009       -4.84900
| 11> H          3.89005       -1.05517       -5.64373
| 12> H          5.25193        1.30346       -2.72101
| 13> H          6.69516       -0.06232       -3.85160
| 14> H          5.97538       -1.39688       -4.69141
| 15> H          1.69700        2.56197       -2.14111
| 16> H          3.08079        1.98744       -1.22584
| 17> H          2.80646        1.98651       -4.26848
| 18> H          3.77871        3.09828       -3.30738
| 19> H          1.29954        0.25615       -2.96490
| 20> H          1.23321        0.35984       -1.22194
| 21> H          2.64581       -0.30765       -2.00430
| 22> *
| 23>
| 24> %MaxCore 64000
| 25>
| 26> %pal nprocs 8
| 27> end
| 28>
| 29> %scf
| 30>   MaxIter 150
| 31> end
| 32>
| 33>
| 34>                          ****END OF INPUT****

CARTESIAN COORDINATES (ANGSTROEM)
---------------------------------
  C      3.380930    2.083040   -3.350130
  N      4.535920    1.182450   -3.428520
  C      2.495560    1.816150   -2.136360
  C      1.872180    0.427900   -2.077500
  C      4.671960    0.122270   -4.220600
  N      5.866020   -0.507850   -4.224280
  C      3.698880   -0.312840   -4.986990
  H      2.731410   -0.050090   -4.849000
  H      3.890050   -1.055170   -5.643730
  H      5.251930    1.303460   -2.721010
  H      6.695160   -0.062320   -3.851600
  H      5.975380   -1.396880   -4.691410
  H      1.697000    2.561970   -2.141110
  H      3.080790    1.987440   -1.225840
  H      2.806460    1.986510   -4.268480
  H      3.778710    3.098280   -3.307380
  H      1.299540    0.256150   -2.964900
  H      1.233210    0.359840   -1.221940
  H      2.645810   -0.307650   -2.004300

 Total Charge           Charge          ....    0
 Multiplicity           Mult            ....    1
 Number of Electrons    NEL             ....   56
 Basis Dimension        Dim             ....  236

ORBITAL ENERGIES
----------------

  NO   OCC          E(Eh)            E(eV)
   0   2.0000     -14.434976      -392.7957
   1   2.0000     -14.430172      -392.6649
   2   2.0000     -10.343541      -281.4621
   3   2.0000     -10.314814      -280.6804
   4   2.0000     -10.279543      -279.7206
   5   2.0000     -10.265065      -279.3266
   6   2.0000     -10.208117      -277.7770
   7   2.0000      -1.072190       -29.1758
   8   2.0000      -0.984417       -26.7873
   9   2.0000      -0.884309       -24.0633
  10   2.0000      -0.830145       -22.5894
  11   2.0000      -0.792223       -21.5575
  12   2.0000      -0.705002       -19.1841
  13   2.0000      -0.664957       -18.0944
  14   2.0000      -0.642372       -17.4798
  15   2.0000      -0.612665       -16.6715
  16   2.0000      -0.562176       -15.2976
  17   2.0000      -0.557301       -15.1649
  18   2.0000      -0.526757       -14.3338
  19   2.0000      -0.512316       -13.9408
  20   2.0000      -0.491021       -13.3614
  21   2.0000      -0.481434       -13.1005
  22   2.0000      -0.471826       -12.8390
  23   2.0000      -0.439791       -11.9673
  24   2.0000      -0.433272       -11.7899
  25   2.0000      -0.420508       -11.4426
  26   2.0000      -0.338490        -9.2108
  27   2.0000      -0.265966        -7.2373
  28   0.0000       0.096467         2.6250
  29   0.0000       0.115458         3.1418
  30   0.0000       0.119798         3.2599
  31   0.0000       0.125507         3.4152
  32   0.0000       0.145391         3.9563

MULLIKEN ATOMIC CHARGES
-----------------------
   0 C :    0.768807
   1 N :   -0.577860
   2 C :   -0.438913
   3 C :    0.690602
   4 C :    0.809007
   5 N :   -0.028715
   6 C :    0.274856
   7 H :   -0.327468
   8 H :   -0.443872
   9 H :   -0.240915
  10 H :   -0.096933
  11 H :    0.034566
  12 H :   -0.024453
  13 H :   -0.038945
  14 H :    0.023652
  15 H :   -0.206013
  16 H :   -0.006056
  17 H :   -0.141650
  18 H :   -0.029697
Sum of atomic charges:   -0.0000000

LOEWDIN ATOMIC CHARGES
----------------------
   0 C :    0.061917
   1 N :   -0.015827
   2 C :   -0.070094
   3 C :    0.114790
   4 C :   -0.250682
   5 N :    0.182984
   6 C :    0.121917
   7 H :   -0.118597
   8 H :   -0.104995
   9 H :    0.041603
  10 H :    0.006223
  11 H :    0.011586
  12 H :    0.021709
  13 H :    0.022087
  14 H :    0.015794
  15 H :    0.023020
  16 H :   -0.020755
  17 H :   -0.018666
  18 H :   -0.024015

  Mayer bond orders larger than 0.100000
B(  0-C ,  1-N ) :   0.8538 B(  0-C ,  2-C ) :   1.0906 B(  0-C ,  9-H ) :  -0.1828
B(  0-C , 12-H ) :   0.1176 B(  0-C , 13-H ) :   0.1054 B(  0-C , 14-H ) :   0.7600
B(  0-C , 15-H ) :   0.9363 B(  1-N ,  4-C ) :   0.8700 B(  1-N ,  5-N ) :   0.1741
B(  1-N ,  6-C ) :   0.3816 B(  1-N ,  9-H ) :   1.4164 B(  1-N , 14-H ) :   0.1372
B(  1-N , 15-H ) :   0.1369 B(  2-C ,  3-C ) :   1.2782 B(  2-C , 12-H ) :   0.9329
B(  2-C , 13-H ) :   0.9492 B(  2-C , 14-H ) :   0.1286 B(  2-C , 16-H ) :   0.2142
B(  2-C , 17-H ) :   0.2039 B(  2-C , 18-H ) :   0.2144 B(  3-C , 16-H ) :   0.7887
B(  3-C , 17-H ) :   0.8298 B(  3-C , 18-H ) :   0.7978 B(  4-C ,  5-N ) :   0.9913
B(  4-C ,  6-C ) :   1.5751 B(  4-C ,  8-H ) :   0.2620 B(  4-C ,  9-H ) :  -0.2652
B(  5-N ,  6-C ) :   0.2831 B(  5-N , 10-H ) :   1.1748 B(  5-N , 11-H ) :   1.1028
B(  6-C ,  7-H ) :   0.6875 B(  6-C ,  8-H ) :   0.8416 B(  7-H ,  8-H ) :  -0.1169
B( 10-H , 11-H ) :  -0.1668 B( 14-H , 15-H ) :  -0.1116 B( 16-H , 18-H ) :   0.1000

Dispersion correction           -0.005583955
FINAL SINGLE POINT ENERGY      -306.954143535826

DIPOLE MOMENT
-------------
                                X             Y             Z
Electronic contribution:      5.15170      -0.04746      -1.64741
Nuclear contribution   :     -4.23110       0.51121       2.60527
                        -----------------------------------------
Total Dipole Moment    :      0.92060       0.46375       0.95786
                        -----------------------------------------
Magnitude (a.u.)       :      1.40715
Magnitude (Debye)      :      3.57668

Rotational constants in cm-1:     0.158478     0.052124     0.047173
Rotational constants in MHz :  4751.056263  1562.646208  1414.197352

                             ****ORCA TERMINATED NORMALLY****
TOTAL RUN TIME: 0 days 0 hours 0 minutes 29 seconds 879 msec
