                         Program Version 5.0.0 -  RELEASE  -
|  1> !wB97X-D3 RIJCOSX def2-SVPD def2/J TightSCF CPCM(Water) xyzfile
|  2>
|  3> *xyzfile 0 1 D1.xyz
|  4>
|  5> %MaxCore 64000
|  6>
|  7> %pal nprocs 18
|  8> end
|  9>
| 10> %scf
| 11>   MaxIter 150
| 12> end
| 13>
| 14>
| 15>                          ****END OF INPUT****

CARTESIAN COORDINATES (ANGSTROEM)
---------------------------------
  C      3.380928    2.083045   -3.350127
  C      4.535924    1.182447   -3.428518
  C      2.495557    1.816150   -2.136364
  C      1.872181    0.427903   -2.077497
  H      2.614270   -0.365825   -2.198894
  H      1.389953    0.273087   -1.112360
  S      0.579024    0.140472   -3.297943
  C      4.671956    0.122273   -4.220598
  N      5.866023   -0.507849   -4.224284
  N      3.698881   -0.312844   -4.986988
  H      2.731405   -0.050091   -4.849000
  H      3.890046   -1.055172   -5.643730
  H      5.251933    1.303459   -2.721014
  H      6.695165   -0.062322   -3.851596
  H      5.975383   -1.396884   -4.691414
  F      0.228860   -1.246868   -3.127871
  O     -0.439269    1.118966   -3.014550
  O      1.247881    0.403474   -4.595647
  H      1.697003    2.561969   -2.141109
  H      3.080787    1.987436   -1.225838
  H      2.806463    1.986511   -4.268484
  H      3.778714    3.098282   -3.307383

 Total Charge           Charge          ....    0
 Multiplicity           Mult            ....    1
 Number of Electrons    NEL             ....   96
 Basis Dimension        Dim             ....  324

ORBITAL ENERGIES
----------------

  NO   OCC          E(Eh)            E(eV)
   0   2.0000     -89.248054     -2428.5630
   1   2.0000     -24.923665      -678.2074
   2   2.0000     -19.275014      -524.4998
   3   2.0000     -19.267643      -524.2992
   4   2.0000     -14.425299      -392.5323
   5   2.0000     -14.412990      -392.1974
   6   2.0000     -10.335725      -281.2494
   7   2.0000     -10.334819      -281.2247
   8   2.0000     -10.296433      -280.1802
   9   2.0000     -10.269638      -279.4510
  10   2.0000     -10.211960      -277.8816
  11   2.0000      -8.321832      -226.4486
  12   2.0000      -6.285412      -171.0348
  13   2.0000      -6.279779      -170.8815
  14   2.0000      -6.277286      -170.8136
  15   2.0000      -1.496593       -40.7244
  16   2.0000      -1.243522       -33.8380
  17   2.0000      -1.142806       -31.0973
  18   2.0000      -1.061341       -28.8806
  19   2.0000      -0.964338       -26.2410
  20   2.0000      -0.934654       -25.4332
  21   2.0000      -0.875984       -23.8367
  22   2.0000      -0.833906       -22.6917
  23   2.0000      -0.788261       -21.4497
  24   2.0000      -0.734347       -19.9826
  25   2.0000      -0.704482       -19.1699
  26   2.0000      -0.694517       -18.8988
  27   2.0000      -0.682522       -18.5724
  28   2.0000      -0.657328       -17.8868
  29   2.0000      -0.638333       -17.3699
  30   2.0000      -0.617663       -16.8075
  31   2.0000      -0.589597       -16.0437
  32   2.0000      -0.585000       -15.9187
  33   2.0000      -0.573855       -15.6154
  34   2.0000      -0.553849       -15.0710
  35   2.0000      -0.538949       -14.6655
  36   2.0000      -0.509322       -13.8593
  37   2.0000      -0.504269       -13.7219
  38   2.0000      -0.492315       -13.3966
  39   2.0000      -0.481966       -13.1150
  40   2.0000      -0.457951       -12.4615
  41   2.0000      -0.452504       -12.3133
  42   2.0000      -0.436073       -11.8662
  43   2.0000      -0.432239       -11.7618
  44   2.0000      -0.418807       -11.3963
  45   2.0000      -0.407471       -11.0879
  46   2.0000      -0.349810        -9.5188
  47   2.0000      -0.248510        -6.7623
  48   0.0000       0.068633         1.8676
  49   0.0000       0.095354         2.5947
  50   0.0000       0.095725         2.6048
  51   0.0000       0.100039         2.7222
  52   0.0000       0.115006         3.1295

MULLIKEN ATOMIC CHARGES
-----------------------
   0 C :    0.320676
   1 C :   -0.149529
   2 C :    0.118431
   3 C :   -0.050300
   4 H :    0.152806
   5 H :    0.016927
   6 S :    1.660179
   7 C :    0.815804
   8 N :   -0.105173
   9 N :    0.418422
  10 H :   -0.372917
  11 H :   -0.180592
  12 H :   -0.348185
  13 H :   -0.046850
  14 H :   -0.057073
  15 F :   -0.426016
  16 O :   -0.740806
  17 O :   -0.856116
  18 H :    0.019211
  19 H :    0.022479
  20 H :   -0.092690
  21 H :   -0.118688
Sum of atomic charges:   -0.0000000

LOEWDIN ATOMIC CHARGES
----------------------
   0 C :   -0.048820
   1 C :   -0.048136
   2 C :   -0.016886
   3 C :   -0.026576
   4 H :    0.027301
   5 H :    0.033825
   6 S :    1.187234
   7 C :   -0.227628
   8 N :    0.176241
   9 N :    0.223341
  10 H :   -0.147956
  11 H :    0.014960
  12 H :   -0.053753
  13 H :    0.009591
  14 H :    0.000511
  15 F :   -0.227010
  16 O :   -0.477153
  17 O :   -0.478235
  18 H :    0.025995
  19 H :    0.044559
  20 H :   -0.009643
  21 H :    0.018240

  Mayer bond orders larger than 0.100000
B(  0-C ,  1-C ) :   1.1263 B(  0-C ,  2-C ) :   1.1538 B(  0-C , 12-H ) :   0.2110
B(  0-C , 18-H ) :   0.1689 B(  0-C , 19-H ) :   0.1591 B(  0-C , 20-H ) :   0.8217
B(  0-C , 21-H ) :   0.7954 B(  1-C ,  7-C ) :   1.6498 B(  1-C ,  8-N ) :   0.3782
B(  1-C ,  9-N ) :   0.2022 B(  1-C , 10-H ) :  -0.1159 B(  1-C , 12-H ) :   0.8077
B(  1-C , 20-H ) :   0.2574 B(  1-C , 21-H ) :   0.1231 B(  2-C ,  3-C ) :   1.3026
B(  2-C ,  4-H ) :   0.1359 B(  2-C ,  5-H ) :   0.1629 B(  2-C , 18-H ) :   0.8109
B(  2-C , 19-H ) :   0.7961 B(  2-C , 20-H ) :   0.1475 B(  3-C ,  4-H ) :   0.9294
B(  3-C ,  5-H ) :   0.8225 B(  3-C ,  6-S ) :   0.9613 B(  3-C , 17-O ) :   0.1355
B(  3-C , 18-H ) :   0.1431 B(  3-C , 19-H ) :   0.1175 B(  6-S , 15-F ) :   0.6507
B(  6-S , 16-O ) :   1.4974 B(  6-S , 17-O ) :   1.3411 B(  7-C ,  8-N ) :   0.7946
B(  7-C ,  9-N ) :   1.0554 B(  7-C , 11-H ) :  -0.1975 B(  7-C , 12-H ) :   0.1485
B(  7-C , 13-H ) :  -0.1491 B(  7-C , 20-H ) :  -0.1192 B(  8-N , 12-H ) :   0.1064
B(  8-N , 13-H ) :   1.2198 B(  8-N , 14-H ) :   1.1393 B(  9-N , 10-H ) :   1.1010
B(  9-N , 11-H ) :   1.2590 B( 10-H , 11-H ) :  -0.2073 B( 10-H , 17-O ) :   0.1482
B( 13-H , 14-H ) :  -0.1566

Dispersion correction           -0.009842530
FINAL SINGLE POINT ENERGY      -954.398855416065

DIPOLE MOMENT
-------------
                                X             Y             Z
Electronic contribution:    -15.12664      -7.26679      -0.79329
Nuclear contribution   :     15.92508       5.34175       1.81950
                        -----------------------------------------
Total Dipole Moment    :      0.79844      -1.92503       1.02621
                        -----------------------------------------
Magnitude (a.u.)       :      2.32301
Magnitude (Debye)      :      5.90461

Rotational constants in cm-1:     0.058561     0.020662     0.017762
Rotational constants in MHz :  1755.621534   619.433801   532.501507

                             ****ORCA TERMINATED NORMALLY****
TOTAL RUN TIME: 0 days 0 hours 0 minutes 36 seconds 149 msec
