                         Program Version 5.0.0 -  RELEASE  -
|  1> !wB97X-D3 RIJCOSX def2-SVPD def2/J TightSCF CPCM(Water) xyzfile
|  2>
|  3> *xyzfile 0 1 D2.xyz
|  4>
|  5> %MaxCore 64000
|  6>
|  7> %pal nprocs 18
|  8> end
|  9>
| 10> %scf
| 11>   MaxIter 150
| 12> end
| 13>
| 14>
| 15>                          ****END OF INPUT****

CARTESIAN COORDINATES (ANGSTROEM)
---------------------------------
  C      3.380928    2.083045   -3.350127
  N      4.535924    1.182447   -3.428518
  C      2.495557    1.816150   -2.136364
  C      1.872181    0.427903   -2.077497
  H      2.614270   -0.365825   -2.198894
  H      1.389953    0.273087   -1.112360
  S      0.579024    0.140472   -3.297943
  C      4.671956    0.122273   -4.220598
  C      5.866023   -0.507849   -4.224284
  N      3.698881   -0.312844   -4.986988
  H      2.731405   -0.050091   -4.849000
  H      3.890046   -1.055172   -5.643730
  H      5.251933    1.303459   -2.721014
  H      6.695165   -0.062322   -3.851596
  H      5.975383   -1.396884   -4.691414
  F      0.228860   -1.246868   -3.127871
  O     -0.439269    1.118966   -3.014550
  O      1.247881    0.403474   -4.595647
  H      1.697003    2.561969   -2.141109
  H      3.080787    1.987436   -1.225838
  H      2.806463    1.986511   -4.268484
  H      3.778714    3.098282   -3.307383

 Total Charge           Charge          ....    0
 Multiplicity           Mult            ....    1
 Number of Electrons    NEL             ....   96
 Basis Dimension        Dim             ....  324

ORBITAL ENERGIES
----------------

  NO   OCC          E(Eh)            E(eV)
   0   2.0000     -89.251711     -2428.6625
   1   2.0000     -24.926102      -678.2737
   2   2.0000     -19.277553      -524.5689
   3   2.0000     -19.270798      -524.3851
   4   2.0000     -14.437499      -392.8643
   5   2.0000     -14.416547      -392.2942
   6   2.0000     -10.344573      -281.4901
   7   2.0000     -10.342528      -281.4345
   8   2.0000     -10.322223      -280.8820
   9   2.0000     -10.308275      -280.5024
  10   2.0000     -10.203236      -277.6442
  11   2.0000      -8.325399      -226.5456
  12   2.0000      -6.288959      -171.1313
  13   2.0000      -6.283322      -170.9779
  14   2.0000      -6.280946      -170.9132
  15   2.0000      -1.498972       -40.7891
  16   2.0000      -1.246479       -33.9184
  17   2.0000      -1.145893       -31.1813
  18   2.0000      -1.075958       -29.2783
  19   2.0000      -0.989996       -26.9392
  20   2.0000      -0.934194       -25.4207
  21   2.0000      -0.872951       -23.7542
  22   2.0000      -0.829043       -22.5594
  23   2.0000      -0.795394       -21.6438
  24   2.0000      -0.737941       -20.0804
  25   2.0000      -0.706719       -19.2308
  26   2.0000      -0.702241       -19.1089
  27   2.0000      -0.691538       -18.8177
  28   2.0000      -0.679557       -18.4917
  29   2.0000      -0.646662       -17.5966
  30   2.0000      -0.601159       -16.3584
  31   2.0000      -0.591261       -16.0890
  32   2.0000      -0.588830       -16.0229
  33   2.0000      -0.574626       -15.6364
  34   2.0000      -0.563209       -15.3257
  35   2.0000      -0.540618       -14.7110
  36   2.0000      -0.510285       -13.8856
  37   2.0000      -0.503728       -13.7071
  38   2.0000      -0.500491       -13.6191
  39   2.0000      -0.487376       -13.2622
  40   2.0000      -0.472598       -12.8600
  41   2.0000      -0.463489       -12.6122
  42   2.0000      -0.451169       -12.2769
  43   2.0000      -0.446920       -12.1613
  44   2.0000      -0.423986       -11.5372
  45   2.0000      -0.421438       -11.4679
  46   2.0000      -0.343322        -9.3423
  47   2.0000      -0.254063        -6.9134
  48   0.0000       0.067636         1.8405
  49   0.0000       0.092748         2.5238
  50   0.0000       0.095179         2.5899
  51   0.0000       0.098349         2.6762
  52   0.0000       0.112610         3.0643

MULLIKEN ATOMIC CHARGES
-----------------------
   0 C :    0.877495
   1 N :   -0.453019
   2 C :    0.050456
   3 C :   -0.038350
   4 H :    0.214411
   5 H :   -0.025466
   6 S :    1.654816
   7 C :    0.382457
   8 C :    0.410715
   9 N :    0.561053
  10 H :   -0.468610
  11 H :   -0.111613
  12 H :   -0.172756
  13 H :   -0.364580
  14 H :   -0.270156
  15 F :   -0.422848
  16 O :   -0.734361
  17 O :   -0.869346
  18 H :    0.049972
  19 H :    0.032407
  20 H :   -0.038378
  21 H :   -0.264300
Sum of atomic charges:   -0.0000000

LOEWDIN ATOMIC CHARGES
----------------------
   0 C :    0.080643
   1 N :   -0.004602
   2 C :   -0.001348
   3 C :   -0.024893
   4 H :    0.031411
   5 H :    0.036648
   6 S :    1.189451
   7 C :   -0.250992
   8 C :    0.098911
   9 N :    0.227131
  10 H :   -0.151379
  11 H :    0.026265
  12 H :    0.048355
  13 H :   -0.122182
  14 H :   -0.123381
  15 F :   -0.223891
  16 O :   -0.473235
  17 O :   -0.478861
  18 H :    0.034710
  19 H :    0.047990
  20 H :    0.001197
  21 H :    0.032051

  Mayer bond orders larger than 0.100000
B(  0-C ,  1-N ) :   0.8874 B(  0-C ,  2-C ) :   1.1215 B(  0-C , 12-H ) :  -0.1810
B(  0-C , 18-H ) :   0.1449 B(  0-C , 19-H ) :   0.1333 B(  0-C , 20-H ) :   0.7554
B(  0-C , 21-H ) :   0.8981 B(  1-N ,  7-C ) :   1.0281 B(  1-N ,  8-C ) :   0.2091
B(  1-N ,  9-N ) :   0.1190 B(  1-N , 12-H ) :   1.2629 B(  1-N , 20-H ) :   0.2343
B(  1-N , 21-H ) :   0.1335 B(  2-C ,  3-C ) :   1.2800 B(  2-C ,  4-H ) :   0.1375
B(  2-C ,  5-H ) :   0.1603 B(  2-C , 18-H ) :   0.8453 B(  2-C , 19-H ) :   0.8322
B(  2-C , 20-H ) :   0.1405 B(  3-C ,  4-H ) :   0.8816 B(  3-C ,  5-H ) :   0.8518
B(  3-C ,  6-S ) :   0.9667 B(  3-C , 17-O ) :   0.1360 B(  3-C , 18-H ) :   0.1185
B(  3-C , 19-H ) :   0.1032 B(  6-S , 15-F ) :   0.6553 B(  6-S , 16-O ) :   1.5044
B(  6-S , 17-O ) :   1.3411 B(  7-C ,  8-C ) :   1.6159 B(  7-C ,  9-N ) :   1.1436
B(  7-C , 12-H ) :  -0.1803 B(  7-C , 13-H ) :   0.1389 B(  7-C , 14-H ) :   0.2021
B(  8-C ,  9-N ) :   0.1295 B(  8-C , 13-H ) :   0.7443 B(  8-C , 14-H ) :   0.7791
B(  9-N , 10-H ) :   0.9542 B(  9-N , 11-H ) :   1.1637 B(  9-N , 20-H ) :   0.1079
B( 10-H , 11-H ) :  -0.2183 B( 10-H , 17-O ) :   0.1619 B( 13-H , 14-H ) :   0.1947
B( 20-H , 21-H ) :  -0.1244

Dispersion correction           -0.009881783
FINAL SINGLE POINT ENERGY      -954.386035530888

DIPOLE MOMENT
-------------
                                X             Y             Z
Electronic contribution:    -16.95539      -5.24939       0.20213
Nuclear contribution   :     16.05479       5.17692       1.74190
                        -----------------------------------------
Total Dipole Moment    :     -0.90060      -0.07247       1.94403
                        -----------------------------------------
Magnitude (a.u.)       :      2.14373
Magnitude (Debye)      :      5.44893

Rotational constants in cm-1:     0.058652     0.021107     0.018077
Rotational constants in MHz :  1758.344290   632.763813   541.920558

                             ****ORCA TERMINATED NORMALLY****
TOTAL RUN TIME: 0 days 0 hours 0 minutes 37 seconds 357 msec
