                         Program Version 5.0.0 -  RELEASE  -
|  1> !wB97X-D3 RIJCOSX def2-SVPD def2/J TightSCF CPCM(Water) xyzfile
|  2>
|  3> *xyzfile 0 1 D3.xyz
|  4>
|  5> %MaxCore 64000
|  6>
|  7> %pal nprocs 18
|  8> end
|  9>
| 10> %scf
| 11>   MaxIter 150
| 12> end
| 13>
| 14>
| 15>                          ****END OF INPUT****

CARTESIAN COORDINATES (ANGSTROEM)
---------------------------------
  C      3.380928    2.083045   -3.350127
  N      4.535924    1.182447   -3.428518
  C      2.495557    1.816150   -2.136364
  C      1.872181    0.427903   -2.077497
  H      2.614270   -0.365825   -2.198894
  H      1.389953    0.273087   -1.112360
  S      0.579024    0.140472   -3.297943
  C      4.671956    0.122273   -4.220598
  N      5.866023   -0.507849   -4.224284
  C      3.698881   -0.312844   -4.986988
  H      2.731405   -0.050091   -4.849000
  H      3.890046   -1.055172   -5.643730
  H      5.251933    1.303459   -2.721014
  H      6.695165   -0.062322   -3.851596
  H      5.975383   -1.396884   -4.691414
  F      0.228860   -1.246868   -3.127871
  O     -0.439269    1.118966   -3.014550
  O      1.247881    0.403474   -4.595647
  H      1.697003    2.561969   -2.141109
  H      3.080787    1.987436   -1.225838
  H      2.806463    1.986511   -4.268484
  H      3.778714    3.098282   -3.307383

 Total Charge           Charge          ....    0
 Multiplicity           Mult            ....    1
 Number of Electrons    NEL             ....   96
 Basis Dimension        Dim             ....  324

ORBITAL ENERGIES
----------------

  NO   OCC          E(Eh)            E(eV)
   0   2.0000     -89.242619     -2428.4151
   1   2.0000     -24.920649      -678.1253
   2   2.0000     -19.270464      -524.3760
   3   2.0000     -19.255355      -523.9648
   4   2.0000     -14.434683      -392.7877
   5   2.0000     -14.426598      -392.5677
   6   2.0000     -10.337729      -281.3039
   7   2.0000     -10.336719      -281.2764
   8   2.0000     -10.319613      -280.8110
   9   2.0000     -10.306178      -280.4454
  10   2.0000     -10.186967      -277.2015
  11   2.0000      -8.316315      -226.2984
  12   2.0000      -6.279947      -170.8861
  13   2.0000      -6.274184      -170.7292
  14   2.0000      -6.271833      -170.6652
  15   2.0000      -1.493370       -40.6367
  16   2.0000      -1.237445       -33.6726
  17   2.0000      -1.134243       -30.8643
  18   2.0000      -1.070140       -29.1200
  19   2.0000      -0.984652       -26.7938
  20   2.0000      -0.927893       -25.2493
  21   2.0000      -0.860636       -23.4191
  22   2.0000      -0.827279       -22.5114
  23   2.0000      -0.803901       -21.8753
  24   2.0000      -0.746091       -20.3022
  25   2.0000      -0.697579       -18.9821
  26   2.0000      -0.687751       -18.7147
  27   2.0000      -0.681981       -18.5576
  28   2.0000      -0.658821       -17.9274
  29   2.0000      -0.639389       -17.3987
  30   2.0000      -0.618127       -16.8201
  31   2.0000      -0.591980       -16.1086
  32   2.0000      -0.589060       -16.0291
  33   2.0000      -0.566028       -15.4024
  34   2.0000      -0.546849       -14.8805
  35   2.0000      -0.544734       -14.8230
  36   2.0000      -0.505975       -13.7683
  37   2.0000      -0.499984       -13.6053
  38   2.0000      -0.492543       -13.4028
  39   2.0000      -0.484251       -13.1771
  40   2.0000      -0.469689       -12.7809
  41   2.0000      -0.461991       -12.5714
  42   2.0000      -0.447599       -12.1798
  43   2.0000      -0.439498       -11.9593
  44   2.0000      -0.416547       -11.3348
  45   2.0000      -0.386828       -10.5261
  46   2.0000      -0.339009        -9.2249
  47   2.0000      -0.259047        -7.0490
  48   0.0000       0.070338         1.9140
  49   0.0000       0.094819         2.5802
  50   0.0000       0.096304         2.6206
  51   0.0000       0.100133         2.7248
  52   0.0000       0.114748         3.1224

MULLIKEN ATOMIC CHARGES
-----------------------
   0 C :    0.888980
   1 N :   -0.616335
   2 C :    0.032140
   3 C :    0.024081
   4 H :    0.162571
   5 H :   -0.027737
   6 S :    1.626531
   7 C :    0.819122
   8 N :   -0.043803
   9 C :    0.765698
  10 H :   -0.805590
  11 H :   -0.361563
  12 H :   -0.215972
  13 H :   -0.084656
  14 H :    0.031232
  15 F :   -0.423443
  16 O :   -0.745370
  17 O :   -0.874524
  18 H :    0.025504
  19 H :    0.032109
  20 H :    0.039445
  21 H :   -0.248422
Sum of atomic charges:    0.0000000

LOEWDIN ATOMIC CHARGES
----------------------
   0 C :    0.084640
   1 N :   -0.012275
   2 C :   -0.000488
   3 C :   -0.024871
   4 H :    0.027001
   5 H :    0.034016
   6 S :    1.177598
   7 C :   -0.241975
   8 N :    0.178076
   9 C :    0.148611
  10 H :   -0.226533
  11 H :   -0.097506
  12 H :    0.041490
  13 H :    0.003121
  14 H :    0.009358
  15 F :   -0.229901
  16 O :   -0.484966
  17 O :   -0.498492
  18 H :    0.033286
  19 H :    0.045810
  20 H :    0.002072
  21 H :    0.031927

  Mayer bond orders larger than 0.100000
B(  0-C ,  1-N ) :   0.8282 B(  0-C ,  2-C ) :   1.1011 B(  0-C , 12-H ) :  -0.1679
B(  0-C , 18-H ) :   0.1402 B(  0-C , 19-H ) :   0.1161 B(  0-C , 20-H ) :   0.7199
B(  0-C , 21-H ) :   0.9226 B(  1-N ,  7-C ) :   0.8409 B(  1-N ,  8-N ) :   0.1867
B(  1-N ,  9-C ) :   0.2991 B(  1-N , 12-H ) :   1.4322 B(  1-N , 20-H ) :   0.1790
B(  1-N , 21-H ) :   0.1316 B(  2-C ,  3-C ) :   1.2734 B(  2-C ,  4-H ) :   0.1378
B(  2-C ,  5-H ) :   0.1690 B(  2-C , 18-H ) :   0.8620 B(  2-C , 19-H ) :   0.8415
B(  2-C , 20-H ) :   0.1356 B(  3-C ,  4-H ) :   0.9233 B(  3-C ,  5-H ) :   0.8234
B(  3-C ,  6-S ) :   0.9785 B(  3-C , 17-O ) :   0.1313 B(  3-C , 18-H ) :   0.1221
B(  3-C , 19-H ) :   0.1054 B(  6-S , 15-F ) :   0.6398 B(  6-S , 16-O ) :   1.4872
B(  6-S , 17-O ) :   1.3776 B(  7-C ,  8-N ) :   0.9351 B(  7-C ,  9-C ) :   1.8409
B(  7-C , 11-H ) :   0.3537 B(  7-C , 12-H ) :  -0.2815 B(  8-N ,  9-C ) :   0.3254
B(  8-N , 11-H ) :   0.1049 B(  8-N , 13-H ) :   1.1599 B(  8-N , 14-H ) :   1.1163
B(  9-C , 11-H ) :   0.7339 B( 10-H , 17-O ) :   0.1878 B( 13-H , 14-H ) :  -0.1654
B( 20-H , 21-H ) :  -0.1523

Dispersion correction           -0.009823238
FINAL SINGLE POINT ENERGY      -954.370269780665

DIPOLE MOMENT
-------------
                                X             Y             Z
Electronic contribution:    -14.18757      -5.55353       0.94975
Nuclear contribution   :     15.84345       5.19593       1.66752
                        -----------------------------------------
Total Dipole Moment    :      1.65588      -0.35760       2.61727
                        -----------------------------------------
Magnitude (a.u.)       :      3.11768
Magnitude (Debye)      :      7.92451

Rotational constants in cm-1:     0.059060     0.020573     0.017713
Rotational constants in MHz :  1770.576058   616.749938   531.036486

                             ****ORCA TERMINATED NORMALLY****
TOTAL RUN TIME: 0 days 0 hours 0 minutes 39 seconds 762 msec
