                         Program Version 5.0.0 -  RELEASE  -
|  1> !wB97X-D3 RIJCOSX def2-SVPD def2/J TightSCF CPCM(Water) xyzfile
|  2>
|  3> *xyzfile 0 1 D7.xyz
|  4>
|  5> %MaxCore 64000
|  6>
|  7> %pal nprocs 18
|  8> end
|  9>
| 10> %scf
| 11>   MaxIter 150
| 12> end
| 13>
| 14>
| 15>                          ****END OF INPUT****

CARTESIAN COORDINATES (ANGSTROEM)
---------------------------------
  C      3.380928    2.083045   -3.350127
  C      4.535924    1.182447   -3.428518
  C      2.495557    1.816150   -2.136364
  C      1.872181    0.427903   -2.077497
  H      2.614270   -0.365825   -2.198894
  H      1.389953    0.273087   -1.112360
  S      0.579024    0.140472   -3.297943
  C      4.671956    0.122273   -4.220598
  N      5.866023   -0.507849   -4.224284
  N      3.698881   -0.312844   -4.986988
  H      2.731405   -0.050091   -4.849000
  H      3.890046   -1.055172   -5.643730
  H      5.251933    1.303459   -2.721014
  H      6.695165   -0.062322   -3.851596
  H      5.975383   -1.396884   -4.691414
  O      0.228860   -1.246868   -3.127871
  O     -0.439269    1.118966   -3.014550
  F      1.247881    0.403474   -4.595647
  H      1.697003    2.561969   -2.141109
  H      3.080787    1.987436   -1.225838
  H      2.806463    1.986511   -4.268484
  H      3.778714    3.098282   -3.307383

 Total Charge           Charge          ....    0
 Multiplicity           Mult            ....    1
 Number of Electrons    NEL             ....   96
 Basis Dimension        Dim             ....  324

ORBITAL ENERGIES
----------------

  NO   OCC          E(Eh)            E(eV)
   0   2.0000     -89.243623     -2428.4425
   1   2.0000     -24.917406      -678.0371
   2   2.0000     -19.274555      -524.4873
   3   2.0000     -19.274338      -524.4814
   4   2.0000     -14.429667      -392.6512
   5   2.0000     -14.428581      -392.6217
   6   2.0000     -10.340867      -281.3893
   7   2.0000     -10.335655      -281.2475
   8   2.0000     -10.295293      -280.1492
   9   2.0000     -10.276587      -279.6402
  10   2.0000     -10.217105      -278.0215
  11   2.0000      -8.317712      -226.3364
  12   2.0000      -6.281619      -170.9316
  13   2.0000      -6.275351      -170.7610
  14   2.0000      -6.273140      -170.7008
  15   2.0000      -1.479471       -40.2585
  16   2.0000      -1.250465       -34.0269
  17   2.0000      -1.154248       -31.4087
  18   2.0000      -1.069744       -29.1092
  19   2.0000      -0.972979       -26.4761
  20   2.0000      -0.937762       -25.5178
  21   2.0000      -0.874803       -23.8046
  22   2.0000      -0.838428       -22.8148
  23   2.0000      -0.791763       -21.5450
  24   2.0000      -0.746523       -20.3139
  25   2.0000      -0.702161       -19.1068
  26   2.0000      -0.690308       -18.7842
  27   2.0000      -0.673506       -18.3270
  28   2.0000      -0.662253       -18.0208
  29   2.0000      -0.642499       -17.4833
  30   2.0000      -0.606955       -16.5161
  31   2.0000      -0.598262       -16.2795
  32   2.0000      -0.579702       -15.7745
  33   2.0000      -0.571739       -15.5578
  34   2.0000      -0.558694       -15.2028
  35   2.0000      -0.554141       -15.0790
  36   2.0000      -0.515493       -14.0273
  37   2.0000      -0.506569       -13.7844
  38   2.0000      -0.502124       -13.6635
  39   2.0000      -0.484191       -13.1755
  40   2.0000      -0.459048       -12.4913
  41   2.0000      -0.451679       -12.2908
  42   2.0000      -0.441903       -12.0248
  43   2.0000      -0.435638       -11.8543
  44   2.0000      -0.429108       -11.6766
  45   2.0000      -0.416798       -11.3416
  46   2.0000      -0.357481        -9.7276
  47   2.0000      -0.253572        -6.9000
  48   0.0000       0.068194         1.8557
  49   0.0000       0.093843         2.5536
  50   0.0000       0.095479         2.5981
  51   0.0000       0.101897         2.7728
  52   0.0000       0.115591         3.1454

MULLIKEN ATOMIC CHARGES
-----------------------
   0 C :    0.312786
   1 C :   -0.136885
   2 C :    0.137488
   3 C :    0.015029
   4 H :    0.123478
   5 H :    0.008109
   6 S :    1.513544
   7 C :    0.848836
   8 N :   -0.110992
   9 N :    0.392421
  10 H :   -0.304207
  11 H :   -0.167399
  12 H :   -0.332223
  13 H :   -0.046169
  14 H :   -0.051623
  15 O :   -0.717001
  16 O :   -0.749120
  17 F :   -0.537705
  18 H :    0.031774
  19 H :    0.022934
  20 H :   -0.138218
  21 H :   -0.114857
Sum of atomic charges:   -0.0000000

LOEWDIN ATOMIC CHARGES
----------------------
   0 C :   -0.048314
   1 C :   -0.044964
   2 C :   -0.028651
   3 C :   -0.024518
   4 H :    0.026235
   5 H :    0.042662
   6 S :    1.138442
   7 C :   -0.223173
   8 N :    0.180265
   9 N :    0.228161
  10 H :   -0.094730
  11 H :    0.022372
  12 H :   -0.049523
  13 H :    0.012324
  14 H :    0.002982
  15 O :   -0.481630
  16 O :   -0.477777
  17 F :   -0.265716
  18 H :    0.024362
  19 H :    0.042579
  20 H :   -0.002844
  21 H :    0.021455

  Mayer bond orders larger than 0.100000
B(  0-C ,  1-C ) :   1.1320 B(  0-C ,  2-C ) :   1.1591 B(  0-C , 12-H ) :   0.2118
B(  0-C , 18-H ) :   0.1647 B(  0-C , 19-H ) :   0.1644 B(  0-C , 20-H ) :   0.8154
B(  0-C , 21-H ) :   0.8119 B(  1-C ,  7-C ) :   1.6552 B(  1-C ,  8-N ) :   0.3789
B(  1-C ,  9-N ) :   0.2053 B(  1-C , 10-H ) :  -0.1191 B(  1-C , 12-H ) :   0.8141
B(  1-C , 20-H ) :   0.2490 B(  1-C , 21-H ) :   0.1229 B(  2-C ,  3-C ) :   1.2766
B(  2-C ,  4-H ) :   0.1378 B(  2-C ,  5-H ) :   0.1550 B(  2-C , 18-H ) :   0.8115
B(  2-C , 19-H ) :   0.7874 B(  2-C , 20-H ) :   0.1429 B(  3-C ,  4-H ) :   0.9513
B(  3-C ,  5-H ) :   0.8107 B(  3-C ,  6-S ) :   1.0243 B(  3-C , 18-H ) :   0.1511
B(  3-C , 19-H ) :   0.1242 B(  6-S , 15-O ) :   1.5050 B(  6-S , 16-O ) :   1.4948
B(  6-S , 17-F ) :   0.6495 B(  7-C ,  8-N ) :   0.7877 B(  7-C ,  9-N ) :   1.0277
B(  7-C , 11-H ) :  -0.2118 B(  7-C , 12-H ) :   0.1479 B(  7-C , 13-H ) :  -0.1520
B(  7-C , 20-H ) :  -0.1258 B(  8-N , 12-H ) :   0.1009 B(  8-N , 13-H ) :   1.2203
B(  8-N , 14-H ) :   1.1394 B(  9-N , 10-H ) :   1.1066 B(  9-N , 11-H ) :   1.2756
B( 10-H , 11-H ) :  -0.1901 B( 13-H , 14-H ) :  -0.1568

Dispersion correction           -0.009842883
FINAL SINGLE POINT ENERGY      -954.406028234682

DIPOLE MOMENT
-------------
                                X             Y             Z
Electronic contribution:    -12.87662      -4.02334      -3.68614
Nuclear contribution   :     14.80811       3.53278       3.42836
                        -----------------------------------------
Total Dipole Moment    :      1.93149      -0.49056      -0.25779
                        -----------------------------------------
Magnitude (a.u.)       :      2.00942
Magnitude (Debye)      :      5.10754

Rotational constants in cm-1:     0.059173     0.020923     0.018056
Rotational constants in MHz :  1773.956621   627.264018   541.303397

                             ****ORCA TERMINATED NORMALLY****
TOTAL RUN TIME: 0 days 0 hours 0 minutes 35 seconds 724 msec
