                         Program Version 5.0.0 -  RELEASE  -
|  1> !wB97X-D3 RIJCOSX def2-SVPD def2/J TightSCF CPCM(Water) xyzfile
|  2>
|  3> *xyzfile 0 1 D8.xyz
|  4>
|  5> %MaxCore 64000
|  6>
|  7> %pal nprocs 18
|  8> end
|  9>
| 10> %scf
| 11>   MaxIter 150
| 12> end
| 13>
| 14>
| 15>                          ****END OF INPUT****

CARTESIAN COORDINATES (ANGSTROEM)
---------------------------------
  C      3.380928    2.083045   -3.350127
  N      4.535924    1.182447   -3.428518
  C      2.495557    1.816150   -2.136364
  C      1.872181    0.427903   -2.077497
  H      2.614270   -0.365825   -2.198894
  H      1.389953    0.273087   -1.112360
  S      0.579024    0.140472   -3.297943
  C      4.671956    0.122273   -4.220598
  C      5.866023   -0.507849   -4.224284
  N      3.698881   -0.312844   -4.986988
  H      2.731405   -0.050091   -4.849000
  H      3.890046   -1.055172   -5.643730
  H      5.251933    1.303459   -2.721014
  H      6.695165   -0.062322   -3.851596
  H      5.975383   -1.396884   -4.691414
  O      0.228860   -1.246868   -3.127871
  O     -0.439269    1.118966   -3.014550
  F      1.247881    0.403474   -4.595647
  H      1.697003    2.561969   -2.141109
  H      3.080787    1.987436   -1.225838
  H      2.806463    1.986511   -4.268484
  H      3.778714    3.098282   -3.307383

 Total Charge           Charge          ....    0
 Multiplicity           Mult            ....    1
 Number of Electrons    NEL             ....   96
 Basis Dimension        Dim             ....  324

ORBITAL ENERGIES
----------------

  NO   OCC          E(Eh)            E(eV)
   0   2.0000     -89.246899     -2428.5316
   1   2.0000     -24.920545      -678.1225
   2   2.0000     -19.276870      -524.5503
   3   2.0000     -19.276763      -524.5474
   4   2.0000     -14.441681      -392.9781
   5   2.0000     -14.433386      -392.7524
   6   2.0000     -10.350393      -281.6485
   7   2.0000     -10.342484      -281.4333
   8   2.0000     -10.328931      -281.0645
   9   2.0000     -10.306910      -280.4653
  10   2.0000     -10.207686      -277.7652
  11   2.0000      -8.320928      -226.4240
  12   2.0000      -6.284830      -171.0189
  13   2.0000      -6.278530      -170.8475
  14   2.0000      -6.276437      -170.7905
  15   2.0000      -1.482713       -40.3467
  16   2.0000      -1.252945       -34.0944
  17   2.0000      -1.156546       -31.4712
  18   2.0000      -1.084113       -29.5002
  19   2.0000      -0.998964       -27.1832
  20   2.0000      -0.937128       -25.5005
  21   2.0000      -0.874260       -23.7898
  22   2.0000      -0.827614       -22.5205
  23   2.0000      -0.806522       -21.9466
  24   2.0000      -0.741991       -20.1906
  25   2.0000      -0.713330       -19.4107
  26   2.0000      -0.704781       -19.1781
  27   2.0000      -0.691670       -18.8213
  28   2.0000      -0.667308       -18.1584
  29   2.0000      -0.636596       -17.3227
  30   2.0000      -0.612035       -16.6543
  31   2.0000      -0.591119       -16.0852
  32   2.0000      -0.581973       -15.8363
  33   2.0000      -0.577782       -15.7222
  34   2.0000      -0.572089       -15.5673
  35   2.0000      -0.548352       -14.9214
  36   2.0000      -0.523856       -14.2548
  37   2.0000      -0.508096       -13.8260
  38   2.0000      -0.499957       -13.6045
  39   2.0000      -0.481794       -13.1103
  40   2.0000      -0.474160       -12.9026
  41   2.0000      -0.467080       -12.7099
  42   2.0000      -0.456115       -12.4115
  43   2.0000      -0.451343       -12.2817
  44   2.0000      -0.437620       -11.9082
  45   2.0000      -0.427692       -11.6381
  46   2.0000      -0.350914        -9.5489
  47   2.0000      -0.258722        -7.0402
  48   0.0000       0.067256         1.8301
  49   0.0000       0.091979         2.5029
  50   0.0000       0.094973         2.5844
  51   0.0000       0.099525         2.7082
  52   0.0000       0.112219         3.0536

MULLIKEN ATOMIC CHARGES
-----------------------
   0 C :    0.865565
   1 N :   -0.443996
   2 C :    0.066596
   3 C :    0.029936
   4 H :    0.183590
   5 H :   -0.039643
   6 S :    1.505370
   7 C :    0.426267
   8 C :    0.393391
   9 N :    0.528890
  10 H :   -0.402092
  11 H :   -0.093552
  12 H :   -0.170034
  13 H :   -0.353948
  14 H :   -0.254334
  15 O :   -0.712783
  16 O :   -0.745016
  17 F :   -0.545708
  18 H :    0.064400
  19 H :    0.032814
  20 H :   -0.073795
  21 H :   -0.261918
Sum of atomic charges:   -0.0000000

LOEWDIN ATOMIC CHARGES
----------------------
   0 C :    0.080432
   1 N :   -0.004007
   2 C :   -0.013684
   3 C :   -0.022979
   4 H :    0.030069
   5 H :    0.045348
   6 S :    1.139897
   7 C :   -0.246497
   8 C :    0.107074
   9 N :    0.231362
  10 H :   -0.098565
  11 H :    0.032940
  12 H :    0.051063
  13 H :   -0.116688
  14 H :   -0.118631
  15 O :   -0.477738
  16 O :   -0.474118
  17 F :   -0.266732
  18 H :    0.032873
  19 H :    0.045912
  20 H :    0.008148
  21 H :    0.034522

  Mayer bond orders larger than 0.100000
B(  0-C ,  1-N ) :   0.8908 B(  0-C ,  2-C ) :   1.1241 B(  0-C , 12-H ) :  -0.1820
B(  0-C , 18-H ) :   0.1419 B(  0-C , 19-H ) :   0.1379 B(  0-C , 20-H ) :   0.7612
B(  0-C , 21-H ) :   0.9059 B(  1-N ,  7-C ) :   1.0198 B(  1-N ,  8-C ) :   0.2119
B(  1-N ,  9-N ) :   0.1202 B(  1-N , 12-H ) :   1.2552 B(  1-N , 20-H ) :   0.2266
B(  1-N , 21-H ) :   0.1365 B(  2-C ,  3-C ) :   1.2521 B(  2-C ,  4-H ) :   0.1397
B(  2-C ,  5-H ) :   0.1510 B(  2-C , 18-H ) :   0.8440 B(  2-C , 19-H ) :   0.8251
B(  2-C , 20-H ) :   0.1351 B(  3-C ,  4-H ) :   0.9097 B(  3-C ,  5-H ) :   0.8331
B(  3-C ,  6-S ) :   1.0294 B(  3-C , 18-H ) :   0.1273 B(  3-C , 19-H ) :   0.1112
B(  5-H ,  6-S ) :   0.1018 B(  6-S , 15-O ) :   1.5071 B(  6-S , 16-O ) :   1.4978
B(  6-S , 17-F ) :   0.6521 B(  7-C ,  8-C ) :   1.6120 B(  7-C ,  9-N ) :   1.1106
B(  7-C , 11-H ) :  -0.1051 B(  7-C , 12-H ) :  -0.1820 B(  7-C , 13-H ) :   0.1321
B(  7-C , 14-H ) :   0.1996 B(  8-C ,  9-N ) :   0.1388 B(  8-C , 13-H ) :   0.7565
B(  8-C , 14-H ) :   0.7798 B(  9-N , 10-H ) :   0.9785 B(  9-N , 11-H ) :   1.1746
B(  9-N , 20-H ) :   0.1015 B( 10-H , 11-H ) :  -0.1958 B( 10-H , 17-F ) :   0.1076
B( 13-H , 14-H ) :   0.1914 B( 20-H , 21-H ) :  -0.1295

Dispersion correction           -0.009882910
FINAL SINGLE POINT ENERGY      -954.392391337949

DIPOLE MOMENT
-------------
                                X             Y             Z
Electronic contribution:    -14.66734      -2.04377      -2.69652
Nuclear contribution   :     14.93782       3.36795       3.35075
                        -----------------------------------------
Total Dipole Moment    :      0.27048       1.32417       0.65423
                        -----------------------------------------
Magnitude (a.u.)       :      1.50154
Magnitude (Debye)      :      3.81661

Rotational constants in cm-1:     0.059219     0.021387     0.018380
Rotational constants in MHz :  1775.354399   641.172207   551.019443

                             ****ORCA TERMINATED NORMALLY****
TOTAL RUN TIME: 0 days 0 hours 0 minutes 36 seconds 883 msec
