                         Program Version 5.0.0 -  RELEASE  -
|  1> !wB97X-D3 RIJCOSX def2-SVPD def2/J TightSCF CPCM(Water) xyzfile
|  2>
|  3> *xyzfile 0 1 D9.xyz
|  4>
|  5> %MaxCore 64000
|  6>
|  7> %pal nprocs 18
|  8> end
|  9>
| 10> %scf
| 11>   MaxIter 150
| 12> end
| 13>
| 14>
| 15>                          ****END OF INPUT****

CARTESIAN COORDINATES (ANGSTROEM)
---------------------------------
  C      3.380928    2.083045   -3.350127
  N      4.535924    1.182447   -3.428518
  C      2.495557    1.816150   -2.136364
  C      1.872181    0.427903   -2.077497
  H      2.614270   -0.365825   -2.198894
  H      1.389953    0.273087   -1.112360
  S      0.579024    0.140472   -3.297943
  C      4.671956    0.122273   -4.220598
  N      5.866023   -0.507849   -4.224284
  C      3.698881   -0.312844   -4.986988
  H      2.731405   -0.050091   -4.849000
  H      3.890046   -1.055172   -5.643730
  H      5.251933    1.303459   -2.721014
  H      6.695165   -0.062322   -3.851596
  H      5.975383   -1.396884   -4.691414
  O      0.228860   -1.246868   -3.127871
  O     -0.439269    1.118966   -3.014550
  F      1.247881    0.403474   -4.595647
  H      1.697003    2.561969   -2.141109
  H      3.080787    1.987436   -1.225838
  H      2.806463    1.986511   -4.268484
  H      3.778714    3.098282   -3.307383

 Total Charge           Charge          ....    0
 Multiplicity           Mult            ....    1
 Number of Electrons    NEL             ....   96
 Basis Dimension        Dim             ....  324

ORBITAL ENERGIES
----------------

  NO   OCC          E(Eh)            E(eV)
   0   2.0000     -89.241247     -2428.3778
   1   2.0000     -24.904650      -677.6900
   2   2.0000     -19.272356      -524.4275
   3   2.0000     -19.271931      -524.4159
   4   2.0000     -14.439903      -392.9297
   5   2.0000     -14.430869      -392.6839
   6   2.0000     -10.344938      -281.5001
   7   2.0000     -10.338023      -281.3119
   8   2.0000     -10.326320      -280.9935
   9   2.0000     -10.305182      -280.4183
  10   2.0000     -10.202090      -277.6130
  11   2.0000      -8.315034      -226.2636
  12   2.0000      -6.278762      -170.8538
  13   2.0000      -6.272778      -170.6910
  14   2.0000      -6.270700      -170.6344
  15   2.0000      -1.468671       -39.9646
  16   2.0000      -1.247430       -33.9443
  17   2.0000      -1.152109       -31.3505
  18   2.0000      -1.075850       -29.2754
  19   2.0000      -0.989532       -26.9265
  20   2.0000      -0.930243       -25.3132
  21   2.0000      -0.854862       -23.2620
  22   2.0000      -0.839974       -22.8569
  23   2.0000      -0.801992       -21.8233
  24   2.0000      -0.753060       -20.4918
  25   2.0000      -0.692710       -18.8496
  26   2.0000      -0.689519       -18.7628
  27   2.0000      -0.666366       -18.1327
  28   2.0000      -0.661966       -18.0130
  29   2.0000      -0.645422       -17.5628
  30   2.0000      -0.609445       -16.5838
  31   2.0000      -0.599207       -16.3053
  32   2.0000      -0.576967       -15.7001
  33   2.0000      -0.574255       -15.6263
  34   2.0000      -0.557054       -15.1582
  35   2.0000      -0.546652       -14.8751
  36   2.0000      -0.519055       -14.1242
  37   2.0000      -0.505254       -13.7486
  38   2.0000      -0.500505       -13.6194
  39   2.0000      -0.472518       -12.8579
  40   2.0000      -0.468267       -12.7422
  41   2.0000      -0.465703       -12.6724
  42   2.0000      -0.451685       -12.2910
  43   2.0000      -0.445821       -12.1314
  44   2.0000      -0.433488       -11.7958
  45   2.0000      -0.422758       -11.5038
  46   2.0000      -0.343050        -9.3349
  47   2.0000      -0.267486        -7.2787
  48   0.0000       0.070411         1.9160
  49   0.0000       0.093213         2.5365
  50   0.0000       0.096445         2.6244
  51   0.0000       0.101903         2.7729
  52   0.0000       0.116731         3.1764

MULLIKEN ATOMIC CHARGES
-----------------------
   0 C :    0.875012
   1 N :   -0.602436
   2 C :    0.046385
   3 C :    0.098292
   4 H :    0.134076
   5 H :   -0.045831
   6 S :    1.510914
   7 C :    0.858226
   8 N :   -0.042334
   9 C :    0.770175
  10 H :   -0.744579
  11 H :   -0.379095
  12 H :   -0.215720
  13 H :   -0.080806
  14 H :    0.036281
  15 O :   -0.721590
  16 O :   -0.759043
  17 F :   -0.585629
  18 H :    0.040118
  19 H :    0.034053
  20 H :    0.018577
  21 H :   -0.245047
Sum of atomic charges:   -0.0000000

LOEWDIN ATOMIC CHARGES
----------------------
   0 C :    0.084419
   1 N :   -0.009650
   2 C :   -0.011959
   3 C :   -0.022717
   4 H :    0.026161
   5 H :    0.042915
   6 S :    1.133186
   7 C :   -0.234897
   8 N :    0.184733
   9 C :    0.153555
  10 H :   -0.182993
  11 H :   -0.091944
  12 H :    0.044957
  13 H :    0.006940
  14 H :    0.012562
  15 O :   -0.484828
  16 O :   -0.481763
  17 F :   -0.287361
  18 H :    0.031722
  19 H :    0.043950
  20 H :    0.008416
  21 H :    0.034593

  Mayer bond orders larger than 0.100000
B(  0-C ,  1-N ) :   0.8332 B(  0-C ,  2-C ) :   1.1020 B(  0-C , 12-H ) :  -0.1747
B(  0-C , 18-H ) :   0.1365 B(  0-C , 19-H ) :   0.1223 B(  0-C , 20-H ) :   0.7298
B(  0-C , 21-H ) :   0.9304 B(  1-N ,  7-C ) :   0.8528 B(  1-N ,  8-N ) :   0.1865
B(  1-N ,  9-C ) :   0.3042 B(  1-N , 12-H ) :   1.4327 B(  1-N , 20-H ) :   0.1712
B(  1-N , 21-H ) :   0.1329 B(  2-C ,  3-C ) :   1.2416 B(  2-C ,  4-H ) :   0.1395
B(  2-C ,  5-H ) :   0.1587 B(  2-C , 18-H ) :   0.8619 B(  2-C , 19-H ) :   0.8359
B(  2-C , 20-H ) :   0.1341 B(  3-C ,  4-H ) :   0.9466 B(  3-C ,  5-H ) :   0.8042
B(  3-C ,  6-S ) :   1.0246 B(  3-C , 18-H ) :   0.1308 B(  3-C , 19-H ) :   0.1102
B(  6-S , 15-O ) :   1.4933 B(  6-S , 16-O ) :   1.4824 B(  6-S , 17-F ) :   0.6686
B(  7-C ,  8-N ) :   0.9471 B(  7-C ,  9-C ) :   1.8080 B(  7-C , 11-H ) :   0.3509
B(  7-C , 12-H ) :  -0.2856 B(  8-N ,  9-C ) :   0.3141 B(  8-N , 11-H ) :   0.1015
B(  8-N , 13-H ) :   1.1577 B(  8-N , 14-H ) :   1.1111 B(  9-C , 11-H ) :   0.7831
B( 10-H , 11-H ) :  -0.1066 B( 10-H , 17-F ) :   0.2039 B( 13-H , 14-H ) :  -0.1650
B( 20-H , 21-H ) :  -0.1574

Dispersion correction           -0.009826618
FINAL SINGLE POINT ENERGY      -954.389022401656

DIPOLE MOMENT
-------------
                                X             Y             Z
Electronic contribution:    -11.96748      -2.30178      -1.91586
Nuclear contribution   :     14.72648       3.38697       3.27638
                        -----------------------------------------
Total Dipole Moment    :      2.75900       1.08519       1.36052
                        -----------------------------------------
Magnitude (a.u.)       :      3.26201
Magnitude (Debye)      :      8.29138

Rotational constants in cm-1:     0.059651     0.020833     0.018010
Rotational constants in MHz :  1788.283887   624.555661   539.921162

                             ****ORCA TERMINATED NORMALLY****
TOTAL RUN TIME: 0 days 0 hours 0 minutes 36 seconds 711 msec
