                         Program Version 5.0.0 -  RELEASE  -
|  1> !LC-PBE RIJCOSX def2-SVPD def2/J TightSCF
|  2> *xyz -1 1
|  3> C         -0.87096        0.24804       -2.66280
|  4> C         -0.47749        0.60819       -4.10105
|  5> H          0.20677        1.45830       -4.11875
|  6> H         -1.36844        0.92942       -4.64785
|  7> C          0.18467       -0.50664       -4.91676
|  8> O         -0.15869       -1.70109       -4.65798
|  9> O          1.05594       -0.17441       -5.74037
| 10> H         -1.54056       -0.58646       -2.67455
| 11> H         -1.35339        1.08600       -2.20455
| 12> H          0.00660       -0.00662       -2.10609
| 13> *
| 14>
| 15> %MaxCore 64000
| 16>
| 17> %pal nprocs 4
| 18> end
| 19>
| 20> %scf
| 21>   MaxIter 150
| 22> end
| 23>
| 24>
| 25>                          ****END OF INPUT****

CARTESIAN COORDINATES (ANGSTROEM)
---------------------------------
  C     -0.870960    0.248040   -2.662800
  C     -0.477490    0.608190   -4.101050
  H      0.206770    1.458300   -4.118750
  H     -1.368440    0.929420   -4.647850
  C      0.184670   -0.506640   -4.916760
  O     -0.158690   -1.701090   -4.657980
  O      1.055940   -0.174410   -5.740370
  H     -1.540560   -0.586460   -2.674550
  H     -1.353390    1.086000   -2.204550
  H      0.006600   -0.006620   -2.106090

 Total Charge           Charge          ....   -1
 Multiplicity           Mult            ....    1
 Number of Electrons    NEL             ....   40
 Basis Dimension        Dim             ....  146

ORBITAL ENERGIES
----------------

  NO   OCC          E(Eh)            E(eV)
   0   2.0000     -18.729654      -509.6598
   1   2.0000     -18.725306      -509.5415
   2   2.0000     -10.019573      -272.6464
   3   2.0000      -9.964205      -271.1398
   4   2.0000      -9.956686      -270.9352
   5   2.0000      -0.981522       -26.7086
   6   2.0000      -0.876759       -23.8578
   7   2.0000      -0.776436       -21.1279
   8   2.0000      -0.636310       -17.3149
   9   2.0000      -0.467207       -12.7133
  10   2.0000      -0.441399       -12.0111
  11   2.0000      -0.403108       -10.9691
  12   2.0000      -0.374849       -10.2002
  13   2.0000      -0.357378        -9.7247
  14   2.0000      -0.348757        -9.4902
  15   2.0000      -0.316748        -8.6192
  16   2.0000      -0.298023        -8.1096
  17   2.0000      -0.179236        -4.8772
  18   2.0000      -0.175687        -4.7807
  19   2.0000      -0.164484        -4.4758
  20   0.0000       0.219854         5.9825
  21   0.0000       0.255922         6.9640
  22   0.0000       0.263831         7.1792
  23   0.0000       0.286862         7.8059
  24   0.0000       0.312361         8.4998

MULLIKEN ATOMIC CHARGES
-----------------------
   0 C :    0.409319
   1 C :   -0.476391
   2 H :    0.030604
   3 H :    0.040741
   4 C :    0.311226
   5 O :   -0.685412
   6 O :   -0.620464
   7 H :    0.015498
   8 H :   -0.019534
   9 H :   -0.005588
Sum of atomic charges:   -1.0000000

LOEWDIN ATOMIC CHARGES
----------------------
   0 C :    0.065703
   1 C :   -0.064548
   2 H :    0.013414
   3 H :    0.023886
   4 C :   -0.325645
   5 O :   -0.329834
   6 O :   -0.320270
   7 H :   -0.018527
   8 H :   -0.031753
   9 H :   -0.012427

  Mayer bond orders larger than 0.100000
B(  0-C ,  1-C ) :   1.2690 B(  0-C ,  7-H ) :   0.8577 B(  0-C ,  8-H ) :   0.8374
B(  0-C ,  9-H ) :   0.8758 B(  1-C ,  2-H ) :   0.9678 B(  1-C ,  3-H ) :   0.9237
B(  1-C ,  4-C ) :   1.0143 B(  1-C ,  7-H ) :   0.1739 B(  1-C ,  8-H ) :   0.1683
B(  1-C ,  9-H ) :   0.1425 B(  2-H ,  4-C ) :   0.1523 B(  4-C ,  5-O ) :   1.5691
B(  4-C ,  6-O ) :   1.5822

FINAL SINGLE POINT ENERGY      -266.875117010770

DIPOLE MOMENT
-------------
                                X             Y             Z
Electronic contribution:      2.57103      -2.81980      -4.48386
Nuclear contribution   :     -3.54611       4.15440       5.90446
                        -----------------------------------------
Total Dipole Moment    :     -0.97508       1.33460       1.42060
                        -----------------------------------------
Magnitude (a.u.)       :      2.17946
Magnitude (Debye)      :      5.53975

Rotational constants in cm-1:     0.332789     0.132085     0.101080
Rotational constants in MHz :  9976.755824  3959.803182  3030.288811

                             ****ORCA TERMINATED NORMALLY****
TOTAL RUN TIME: 0 days 0 hours 0 minutes 16 seconds 369 msec
