                         Program Version 5.0.0 -  RELEASE  -
|  1> !LC-PBE RIJCOSX def2-SVPD def2/J TightSCF
|  2> *xyz 1 1
|  3> C          2.48645       -2.67712       -2.56345
|  4> C          3.03764       -2.36672       -3.92351
|  5> N          2.28036       -2.45441       -4.96769
|  6> N          4.32174       -2.01793       -4.01664
|  7> H          4.87994       -1.91167       -3.17382
|  8> H          4.71015       -1.67088       -4.88356
|  9> H          1.27042       -2.41265       -4.86614
| 10> H          2.58183       -2.05528       -5.84688
| 11> C          2.49799       -1.46946       -1.61030
| 12> H          1.47259       -3.05153       -2.69437
| 13> H          3.08320       -3.49064       -2.14147
| 14> H          1.91240       -0.67831       -2.02991
| 15> H          3.50450       -1.13364       -1.47227
| 16> H          2.08509       -1.75655       -0.66585
| 17> *
| 18>
| 19> %MaxCore 64000
| 20>
| 21> %pal nprocs 4
| 22> end
| 23>
| 24> %scf
| 25>   MaxIter 150
| 26> end
| 27>
| 28>
| 29>                          ****END OF INPUT****

CARTESIAN COORDINATES (ANGSTROEM)
---------------------------------
  C      2.486450   -2.677120   -2.563450
  C      3.037640   -2.366720   -3.923510
  N      2.280360   -2.454410   -4.967690
  N      4.321740   -2.017930   -4.016640
  H      4.879940   -1.911670   -3.173820
  H      4.710150   -1.670880   -4.883560
  H      1.270420   -2.412650   -4.866140
  H      2.581830   -2.055280   -5.846880
  C      2.497990   -1.469460   -1.610300
  H      1.472590   -3.051530   -2.694370
  H      3.083200   -3.490640   -2.141470
  H      1.912400   -0.678310   -2.029910
  H      3.504500   -1.133640   -1.472270
  H      2.085090   -1.756550   -0.665850

 Total Charge           Charge          ....    1
 Multiplicity           Mult            ....    1
 Number of Electrons    NEL             ....   40
 Basis Dimension        Dim             ....  172

ORBITAL ENERGIES
----------------

  NO   OCC          E(Eh)            E(eV)
   0   2.0000     -14.480878      -394.0447
   1   2.0000     -14.474883      -393.8816
   2   2.0000     -10.463373      -284.7229
   3   2.0000     -10.328688      -281.0579
   4   2.0000     -10.285290      -279.8770
   5   2.0000      -1.380448       -37.5639
   6   2.0000      -1.273552       -34.6551
   7   2.0000      -1.142331       -31.0844
   8   2.0000      -1.025018       -27.8922
   9   2.0000      -0.973489       -26.4900
  10   2.0000      -0.927346       -25.2344
  11   2.0000      -0.900477       -24.5032
  12   2.0000      -0.844031       -22.9673
  13   2.0000      -0.804069       -21.8798
  14   2.0000      -0.766343       -20.8532
  15   2.0000      -0.753804       -20.5121
  16   2.0000      -0.684517       -18.6267
  17   2.0000      -0.671460       -18.2713
  18   2.0000      -0.659582       -17.9481
  19   2.0000      -0.628386       -17.0993
  20   0.0000      -0.123996        -3.3741
  21   0.0000      -0.078811        -2.1445
  22   0.0000      -0.036604        -0.9960
  23   0.0000      -0.036465        -0.9923
  24   0.0000      -0.008833        -0.2403

MULLIKEN ATOMIC CHARGES
-----------------------
   0 C :   -0.458386
   1 C :    0.565680
   2 N :    0.030280
   3 N :    0.018979
   4 H :    0.067551
   5 H :   -0.080652
   6 H :    0.071793
   7 H :   -0.028549
   8 C :    0.459147
   9 H :    0.120264
  10 H :    0.137705
  11 H :   -0.002024
  12 H :   -0.006871
  13 H :    0.105083
Sum of atomic charges:    1.0000000

LOEWDIN ATOMIC CHARGES
----------------------
   0 C :   -0.010422
   1 C :   -0.045214
   2 N :    0.266813
   3 N :    0.271112
   4 H :    0.056882
   5 H :    0.054052
   6 H :    0.068979
   7 H :    0.060547
   8 C :    0.139783
   9 H :    0.046675
  10 H :    0.065614
  11 H :    0.010492
  12 H :   -0.004604
  13 H :    0.019290

  Mayer bond orders larger than 0.100000
B(  0-C ,  1-C ) :   1.1858 B(  0-C ,  8-C ) :   1.2540 B(  0-C ,  9-H ) :   0.8984
B(  0-C , 10-H ) :   0.8850 B(  0-C , 11-H ) :   0.1279 B(  0-C , 12-H ) :   0.1486
B(  0-C , 13-H ) :   0.1182 B(  1-C ,  2-N ) :   1.1312 B(  1-C ,  3-N ) :   1.1229
B(  1-C ,  5-H ) :  -0.1370 B(  1-C ,  7-H ) :  -0.1065 B(  1-C ,  9-H ) :   0.1302
B(  2-N ,  3-N ) :   0.1274 B(  2-N ,  6-H ) :   1.0449 B(  2-N ,  7-H ) :   1.1741
B(  3-N ,  4-H ) :   1.0809 B(  3-N ,  5-H ) :   1.2659 B(  4-H ,  5-H ) :  -0.1643
B(  6-H ,  7-H ) :  -0.1209 B(  8-C , 11-H ) :   0.8771 B(  8-C , 12-H ) :   0.8322
B(  8-C , 13-H ) :   0.8673

FINAL SINGLE POINT ENERGY      -228.132849431489

DIPOLE MOMENT
-------------
                                X             Y             Z
Electronic contribution:      1.05217      -1.07073      -3.92759
Nuclear contribution   :     -0.84604       1.34287       2.92710
                        -----------------------------------------
Total Dipole Moment    :      0.20613       0.27214      -1.00049
                        -----------------------------------------
Magnitude (a.u.)       :      1.05713
Magnitude (Debye)      :      2.68702

Rotational constants in cm-1:     0.265816     0.126189     0.097583
Rotational constants in MHz :  7968.948902  3783.040103  2925.457702

                             ****ORCA TERMINATED NORMALLY****
TOTAL RUN TIME: 0 days 0 hours 0 minutes 21 seconds 852 msec
