                         Program Version 5.0.0 -  RELEASE  -
|  1> !LC-PBE RIJCOSX def2-SVPD def2/J TightSCF
|  2> *xyz 0 1
|  3> C         -0.87096        0.24804       -2.66280
|  4> C         -0.47749        0.60819       -4.10105
|  5> H          0.20677        1.45830       -4.11875
|  6> H         -1.36844        0.92942       -4.64785
|  7> C          0.18467       -0.50664       -4.91676
|  8> F         -0.15869       -1.70109       -4.65798
|  9> O          1.05594       -0.17441       -5.74037
| 10> H         -1.54056       -0.58646       -2.67455
| 11> H         -1.35339        1.08600       -2.20455
| 12> H          0.00660       -0.00662       -2.10609
| 13> *
| 14>
| 15> %MaxCore 64000
| 16>
| 17> %pal nprocs 4
| 18> end
| 19>
| 20> %scf
| 21>   MaxIter 150
| 22> end
| 23>
| 24>
| 25>                          ****END OF INPUT****

CARTESIAN COORDINATES (ANGSTROEM)
---------------------------------
  C     -0.870960    0.248040   -2.662800
  C     -0.477490    0.608190   -4.101050
  H      0.206770    1.458300   -4.118750
  H     -1.368440    0.929420   -4.647850
  C      0.184670   -0.506640   -4.916760
  F     -0.158690   -1.701090   -4.657980
  O      1.055940   -0.174410   -5.740370
  H     -1.540560   -0.586460   -2.674550
  H     -1.353390    1.086000   -2.204550
  H      0.006600   -0.006620   -2.106090

 Total Charge           Charge          ....    0
 Multiplicity           Mult            ....    1
 Number of Electrons    NEL             ....   40
 Basis Dimension        Dim             ....  146

ORBITAL ENERGIES
----------------

  NO   OCC          E(Eh)            E(eV)
   0   2.0000     -24.578146      -668.8054
   1   2.0000     -19.006203      -517.1851
   2   2.0000     -10.319774      -280.8153
   3   2.0000     -10.164612      -276.5931
   4   2.0000     -10.137435      -275.8536
   5   2.0000      -1.458964       -39.7004
   6   2.0000      -1.200630       -32.6708
   7   2.0000      -0.978248       -26.6195
   8   2.0000      -0.846709       -23.0401
   9   2.0000      -0.801564       -21.8117
  10   2.0000      -0.707940       -19.2640
  11   2.0000      -0.699054       -19.0222
  12   2.0000      -0.646501       -17.5922
  13   2.0000      -0.614663       -16.7258
  14   2.0000      -0.577950       -15.7268
  15   2.0000      -0.547330       -14.8936
  16   2.0000      -0.528686       -14.3863
  17   2.0000      -0.514689       -14.0054
  18   2.0000      -0.487245       -13.2586
  19   2.0000      -0.434035       -11.8107
  20   0.0000       0.065573         1.7843
  21   0.0000       0.080214         2.1827
  22   0.0000       0.113368         3.0849
  23   0.0000       0.120511         3.2793
  24   0.0000       0.145505         3.9594

MULLIKEN ATOMIC CHARGES
-----------------------
   0 C :    0.398645
   1 C :   -0.563241
   2 H :    0.083761
   3 H :    0.122990
   4 C :    0.633525
   5 F :   -0.353568
   6 O :   -0.404567
   7 H :    0.032039
   8 H :    0.023693
   9 H :    0.026724
Sum of atomic charges:    0.0000000

LOEWDIN ATOMIC CHARGES
----------------------
   0 C :    0.100205
   1 C :   -0.014903
   2 H :    0.046219
   3 H :    0.052372
   4 C :   -0.023544
   5 F :   -0.029370
   6 O :   -0.126594
   7 H :   -0.004144
   8 H :   -0.001728
   9 H :    0.001488

  Mayer bond orders larger than 0.100000
B(  0-C ,  1-C ) :   1.2936 B(  0-C ,  7-H ) :   0.8569 B(  0-C ,  8-H ) :   0.8495
B(  0-C ,  9-H ) :   0.8797 B(  1-C ,  2-H ) :   0.9816 B(  1-C ,  3-H ) :   0.8966
B(  1-C ,  4-C ) :   1.0550 B(  1-C ,  7-H ) :   0.1438 B(  1-C ,  8-H ) :   0.1623
B(  1-C ,  9-H ) :   0.1294 B(  2-H ,  4-C ) :   0.1058 B(  4-C ,  5-F ) :   0.8115
B(  4-C ,  6-O ) :   1.9218

FINAL SINGLE POINT ENERGY      -291.383732402505

DIPOLE MOMENT
-------------
                                X             Y             Z
Electronic contribution:      2.57083      -5.32846      -5.25614
Nuclear contribution   :     -3.42837       5.66737       6.17046
                        -----------------------------------------
Total Dipole Moment    :     -0.85754       0.33891       0.91432
                        -----------------------------------------
Magnitude (a.u.)       :      1.29854
Magnitude (Debye)      :      3.30063

Rotational constants in cm-1:     0.304660     0.130969     0.097716
Rotational constants in MHz :  9133.464515  3926.366384  2929.457090

                             ****ORCA TERMINATED NORMALLY****
TOTAL RUN TIME: 0 days 0 hours 0 minutes 18 seconds 398 msec
