                         Program Version 5.0.0 -  RELEASE  -
|  1> !LC-PBE RIJCOSX def2-SVPD def2/J TightSCF
|  2> *xyz 0 1
|  3> C          2.48645       -2.67712       -2.56345
|  4> C          3.03764       -2.36672       -3.92351
|  5> C          2.28036       -2.45441       -4.96769
|  6> N          4.32174       -2.01793       -4.01664
|  7> H          4.87994       -1.91167       -3.17382
|  8> H          4.71015       -1.67088       -4.88356
|  9> H          1.27042       -2.41265       -4.86614
| 10> H          2.58183       -2.05528       -5.84688
| 11> C          2.49799       -1.46946       -1.61030
| 12> H          1.47259       -3.05153       -2.69437
| 13> H          3.08320       -3.49064       -2.14147
| 14> H          1.91240       -0.67831       -2.02991
| 15> H          3.50450       -1.13364       -1.47227
| 16> H          2.08509       -1.75655       -0.66585
| 17> *
| 18>
| 19> %MaxCore 64000
| 20>
| 21> %pal nprocs 4
| 22> end
| 23>
| 24> %scf
| 25>   MaxIter 150
| 26> end
| 27>
| 28>
| 29>                          ****END OF INPUT****

CARTESIAN COORDINATES (ANGSTROEM)
---------------------------------
  C      2.486450   -2.677120   -2.563450
  C      3.037640   -2.366720   -3.923510
  C      2.280360   -2.454410   -4.967690
  N      4.321740   -2.017930   -4.016640
  H      4.879940   -1.911670   -3.173820
  H      4.710150   -1.670880   -4.883560
  H      1.270420   -2.412650   -4.866140
  H      2.581830   -2.055280   -5.846880
  C      2.497990   -1.469460   -1.610300
  H      1.472590   -3.051530   -2.694370
  H      3.083200   -3.490640   -2.141470
  H      1.912400   -0.678310   -2.029910
  H      3.504500   -1.133640   -1.472270
  H      2.085090   -1.756550   -0.665850

 Total Charge           Charge          ....    0
 Multiplicity           Mult            ....    1
 Number of Electrons    NEL             ....   40
 Basis Dimension        Dim             ....  172

ORBITAL ENERGIES
----------------

  NO   OCC          E(Eh)            E(eV)
   0   2.0000     -14.228751      -387.1840
   1   2.0000     -10.153423      -276.2887
   2   2.0000     -10.127822      -275.5920
   3   2.0000     -10.116471      -275.2832
   4   2.0000     -10.057326      -273.6738
   5   2.0000      -1.093122       -29.7454
   6   2.0000      -0.949723       -25.8433
   7   2.0000      -0.890925       -24.2433
   8   2.0000      -0.795405       -21.6441
   9   2.0000      -0.718087       -19.5402
  10   2.0000      -0.671945       -18.2846
  11   2.0000      -0.625614       -17.0238
  12   2.0000      -0.579279       -15.7630
  13   2.0000      -0.574477       -15.6323
  14   2.0000      -0.526090       -14.3156
  15   2.0000      -0.521066       -14.1789
  16   2.0000      -0.485305       -13.2058
  17   2.0000      -0.467846       -12.7307
  18   2.0000      -0.457591       -12.4517
  19   2.0000      -0.317941        -8.6516
  20   0.0000       0.088006         2.3948
  21   0.0000       0.117651         3.2014
  22   0.0000       0.122842         3.3427
  23   0.0000       0.131200         3.5701
  24   0.0000       0.143577         3.9069

MULLIKEN ATOMIC CHARGES
-----------------------
   0 C :   -0.360645
   1 C :   -0.133203
   2 C :    0.204787
   3 N :    0.138862
   4 H :   -0.093838
   5 H :   -0.141853
   6 H :    0.011428
   7 H :   -0.313692
   8 C :    0.467621
   9 H :    0.181452
  10 H :    0.036963
  11 H :   -0.000781
  12 H :   -0.023853
  13 H :    0.026752
Sum of atomic charges:   -0.0000000

LOEWDIN ATOMIC CHARGES
----------------------
   0 C :   -0.052239
   1 C :   -0.270510
   2 C :    0.133564
   3 N :    0.158533
   4 H :    0.005500
   5 H :    0.014089
   6 H :   -0.062546
   7 H :   -0.069561
   8 C :    0.102510
   9 H :    0.031969
  10 H :    0.037585
  11 H :   -0.000942
  12 H :   -0.020373
  13 H :   -0.007579

  Mayer bond orders larger than 0.100000
B(  0-C ,  1-C ) :   1.2638 B(  0-C ,  8-C ) :   1.2331 B(  0-C ,  9-H ) :   0.8766
B(  0-C , 10-H ) :   0.9139 B(  0-C , 11-H ) :   0.1199 B(  0-C , 12-H ) :   0.1714
B(  0-C , 13-H ) :   0.1475 B(  1-C ,  2-C ) :   2.0911 B(  1-C ,  3-N ) :   1.1587
B(  1-C ,  7-H ) :   0.2314 B(  1-C ,  9-H ) :   0.1043 B(  1-C , 10-H ) :   0.1440
B(  2-C ,  3-N ) :   0.2315 B(  2-C ,  6-H ) :   0.8897 B(  2-C ,  7-H ) :   0.7209
B(  3-N ,  4-H ) :   1.1396 B(  3-N ,  5-H ) :   1.2098 B(  4-H ,  5-H ) :  -0.1426
B(  6-H ,  7-H ) :   0.1430 B(  8-C , 11-H ) :   0.8796 B(  8-C , 12-H ) :   0.8212
B(  8-C , 13-H ) :   0.8580

FINAL SINGLE POINT ENERGY      -211.692516152558

DIPOLE MOMENT
-------------
                                X             Y             Z
Electronic contribution:      1.51402      -0.87717      -2.12340
Nuclear contribution   :     -0.99743       1.27863       2.57190
                        -----------------------------------------
Total Dipole Moment    :      0.51658       0.40146       0.44850
                        -----------------------------------------
Magnitude (a.u.)       :      0.79321
Magnitude (Debye)      :      2.01618

Rotational constants in cm-1:     0.274050     0.130114     0.100964
Rotational constants in MHz :  8215.815505  3900.722919  3026.834930

                             ****ORCA TERMINATED NORMALLY****
TOTAL RUN TIME: 0 days 0 hours 0 minutes 24 seconds 410 msec
