                         Program Version 5.0.0 -  RELEASE  -
|  1> !LC-PBE RIJCOSX def2-SVPD def2/J TightSCF
|  2> *xyz 0 1
|  3> C         -0.87096        0.24804       -2.66280
|  4> C         -0.47749        0.60819       -4.10105
|  5> H          0.20677        1.45830       -4.11875
|  6> H         -1.36844        0.92942       -4.64785
|  7> C          0.18467       -0.50664       -4.91676
|  8> O         -0.15869       -1.70109       -4.65798
|  9> F          1.05594       -0.17441       -5.74037
| 10> H         -1.54056       -0.58646       -2.67455
| 11> H         -1.35339        1.08600       -2.20455
| 12> H          0.00660       -0.00662       -2.10609
| 13> *
| 14>
| 15> %MaxCore 64000
| 16>
| 17> %pal nprocs 4
| 18> end
| 19>
| 20> %scf
| 21>   MaxIter 150
| 22> end
| 23>
| 24>
| 25>                          ****END OF INPUT****

CARTESIAN COORDINATES (ANGSTROEM)
---------------------------------
  C     -0.870960    0.248040   -2.662800
  C     -0.477490    0.608190   -4.101050
  H      0.206770    1.458300   -4.118750
  H     -1.368440    0.929420   -4.647850
  C      0.184670   -0.506640   -4.916760
  O     -0.158690   -1.701090   -4.657980
  F      1.055940   -0.174410   -5.740370
  H     -1.540560   -0.586460   -2.674550
  H     -1.353390    1.086000   -2.204550
  H      0.006600   -0.006620   -2.106090

 Total Charge           Charge          ....    0
 Multiplicity           Mult            ....    1
 Number of Electrons    NEL             ....   40
 Basis Dimension        Dim             ....  146

ORBITAL ENERGIES
----------------

  NO   OCC          E(Eh)            E(eV)
   0   2.0000     -24.587891      -669.0705
   1   2.0000     -19.002473      -517.0836
   2   2.0000     -10.322194      -280.8812
   3   2.0000     -10.165954      -276.6297
   4   2.0000     -10.130990      -275.6783
   5   2.0000      -1.478074       -40.2204
   6   2.0000      -1.185719       -32.2650
   7   2.0000      -0.973914       -26.5016
   8   2.0000      -0.857113       -23.3232
   9   2.0000      -0.800587       -21.7851
  10   2.0000      -0.717141       -19.5144
  11   2.0000      -0.697909       -18.9911
  12   2.0000      -0.659290       -17.9402
  13   2.0000      -0.613855       -16.7039
  14   2.0000      -0.577587       -15.7169
  15   2.0000      -0.535651       -14.5758
  16   2.0000      -0.513077       -13.9615
  17   2.0000      -0.510567       -13.8932
  18   2.0000      -0.483549       -13.1580
  19   2.0000      -0.432328       -11.7642
  20   0.0000       0.062970         1.7135
  21   0.0000       0.082340         2.2406
  22   0.0000       0.109880         2.9900
  23   0.0000       0.123106         3.3499
  24   0.0000       0.145076         3.9477

MULLIKEN ATOMIC CHARGES
-----------------------
   0 C :    0.391078
   1 C :   -0.568530
   2 H :    0.091240
   3 H :    0.129280
   4 C :    0.623198
   5 O :   -0.454364
   6 F :   -0.302838
   7 H :    0.040893
   8 H :    0.024435
   9 H :    0.025608
Sum of atomic charges:    0.0000000

LOEWDIN ATOMIC CHARGES
----------------------
   0 C :    0.109506
   1 C :   -0.023393
   2 H :    0.036405
   3 H :    0.052292
   4 C :   -0.023951
   5 O :   -0.137924
   6 F :   -0.014562
   7 H :    0.000133
   8 H :   -0.002125
   9 H :    0.003619

  Mayer bond orders larger than 0.100000
B(  0-C ,  1-C ) :   1.3313 B(  0-C ,  7-H ) :   0.8565 B(  0-C ,  8-H ) :   0.8443
B(  0-C ,  9-H ) :   0.8757 B(  1-C ,  2-H ) :   0.9424 B(  1-C ,  3-H ) :   0.8961
B(  1-C ,  4-C ) :   1.0904 B(  1-C ,  7-H ) :   0.1581 B(  1-C ,  8-H ) :   0.1572
B(  1-C ,  9-H ) :   0.1389 B(  4-C ,  5-O ) :   1.9098 B(  4-C ,  6-F ) :   0.8449

FINAL SINGLE POINT ENERGY      -291.376597011894

DIPOLE MOMENT
-------------
                                X             Y             Z
Electronic contribution:      4.63350      -2.77060      -7.10537
Nuclear contribution   :     -4.75269       4.00281       7.35060
                        -----------------------------------------
Total Dipole Moment    :     -0.11919       1.23221       0.24523
                        -----------------------------------------
Magnitude (a.u.)       :      1.26202
Magnitude (Debye)      :      3.20779

Rotational constants in cm-1:     0.323805     0.124913     0.096140
Rotational constants in MHz :  9707.430323  3744.789513  2882.191141

                             ****ORCA TERMINATED NORMALLY****
TOTAL RUN TIME: 0 days 0 hours 0 minutes 17 seconds 338 msec
