                         Program Version 5.0.0 -  RELEASE  -
|  1> !LC-PBE RIJCOSX def2-SVPD def2/J TightSCF
|  2> *xyz 0 1
|  3> C          2.48645       -2.67712       -2.56345
|  4> C          3.03764       -2.36672       -3.92351
|  5> N          2.28036       -2.45441       -4.96769
|  6> C          4.32174       -2.01793       -4.01664
|  7> H          4.87994       -1.91167       -3.17382
|  8> H          4.71015       -1.67088       -4.88356
|  9> H          1.27042       -2.41265       -4.86614
| 10> H          2.58183       -2.05528       -5.84688
| 11> C          2.49799       -1.46946       -1.61030
| 12> H          1.47259       -3.05153       -2.69437
| 13> H          3.08320       -3.49064       -2.14147
| 14> H          1.91240       -0.67831       -2.02991
| 15> H          3.50450       -1.13364       -1.47227
| 16> H          2.08509       -1.75655       -0.66585
| 17> *
| 18>
| 19> %MaxCore 64000
| 20>
| 21> %pal nprocs 4
| 22> end
| 23>
| 24> %scf
| 25>   MaxIter 150
| 26> end
| 27>
| 28>
| 29>                          ****END OF INPUT****

CARTESIAN COORDINATES (ANGSTROEM)
---------------------------------
  C      2.486450   -2.677120   -2.563450
  C      3.037640   -2.366720   -3.923510
  N      2.280360   -2.454410   -4.967690
  C      4.321740   -2.017930   -4.016640
  H      4.879940   -1.911670   -3.173820
  H      4.710150   -1.670880   -4.883560
  H      1.270420   -2.412650   -4.866140
  H      2.581830   -2.055280   -5.846880
  C      2.497990   -1.469460   -1.610300
  H      1.472590   -3.051530   -2.694370
  H      3.083200   -3.490640   -2.141470
  H      1.912400   -0.678310   -2.029910
  H      3.504500   -1.133640   -1.472270
  H      2.085090   -1.756550   -0.665850

 Total Charge           Charge          ....    0
 Multiplicity           Mult            ....    1
 Number of Electrons    NEL             ....   40
 Basis Dimension        Dim             ....  172

ORBITAL ENERGIES
----------------

  NO   OCC          E(Eh)            E(eV)
   0   2.0000     -14.232801      -387.2942
   1   2.0000     -10.154082      -276.3066
   2   2.0000     -10.128370      -275.6070
   3   2.0000     -10.112412      -275.1727
   4   2.0000     -10.057752      -273.6853
   5   2.0000      -1.107957       -30.1491
   6   2.0000      -0.952407       -25.9163
   7   2.0000      -0.873768       -23.7764
   8   2.0000      -0.801555       -21.8114
   9   2.0000      -0.721237       -19.6258
  10   2.0000      -0.669067       -18.2062
  11   2.0000      -0.630077       -17.1453
  12   2.0000      -0.590477       -16.0677
  13   2.0000      -0.548036       -14.9128
  14   2.0000      -0.535870       -14.5818
  15   2.0000      -0.514532       -14.0011
  16   2.0000      -0.484827       -13.1928
  17   2.0000      -0.469738       -12.7822
  18   2.0000      -0.466229       -12.6867
  19   2.0000      -0.307335        -8.3630
  20   0.0000       0.089865         2.4454
  21   0.0000       0.114009         3.1023
  22   0.0000       0.123364         3.3569
  23   0.0000       0.127501         3.4695
  24   0.0000       0.143999         3.9184

MULLIKEN ATOMIC CHARGES
-----------------------
   0 C :   -0.225873
   1 C :   -0.042735
   2 N :    0.070883
   3 C :    0.268350
   4 H :   -0.146261
   5 H :   -0.393855
   6 H :   -0.022311
   7 H :   -0.063849
   8 C :    0.448671
   9 H :    0.004243
  10 H :    0.103336
  11 H :   -0.034091
  12 H :   -0.038739
  13 H :    0.072231
Sum of atomic charges:    0.0000000

LOEWDIN ATOMIC CHARGES
----------------------
   0 C :   -0.052782
   1 C :   -0.271224
   2 N :    0.147598
   3 C :    0.149689
   4 H :   -0.071481
   5 H :   -0.077458
   6 H :    0.015120
   7 H :    0.020610
   8 C :    0.104547
   9 H :    0.020572
  10 H :    0.041668
  11 H :   -0.003909
  12 H :   -0.014485
  13 H :   -0.008466

  Mayer bond orders larger than 0.100000
B(  0-C ,  1-C ) :   1.1428 B(  0-C ,  3-C ) :   0.1293 B(  0-C ,  8-C ) :   1.2698
B(  0-C ,  9-H ) :   0.8547 B(  0-C , 10-H ) :   0.8623 B(  0-C , 11-H ) :   0.1428
B(  0-C , 12-H ) :   0.1509 B(  0-C , 13-H ) :   0.1256 B(  1-C ,  2-N ) :   1.0739
B(  1-C ,  3-C ) :   1.8341 B(  1-C ,  5-H ) :   0.1180 B(  1-C ,  9-H ) :   0.1636
B(  1-C , 10-H ) :   0.1070 B(  2-N ,  3-C ) :   0.2271 B(  2-N ,  6-H ) :   1.0130
B(  2-N ,  7-H ) :   1.1273 B(  3-C ,  4-H ) :   0.8473 B(  3-C ,  5-H ) :   0.8935
B(  6-H ,  7-H ) :  -0.1086 B(  8-C , 11-H ) :   0.8800 B(  8-C , 12-H ) :   0.8750
B(  8-C , 13-H ) :   0.8340

FINAL SINGLE POINT ENERGY      -211.692533150891

DIPOLE MOMENT
-------------
                                X             Y             Z
Electronic contribution:     -0.25876      -1.18559      -2.95906
Nuclear contribution   :     -0.52463       1.37972       2.79217
                        -----------------------------------------
Total Dipole Moment    :     -0.78339       0.19413      -0.16688
                        -----------------------------------------
Magnitude (a.u.)       :      0.82416
Magnitude (Debye)      :      2.09484

Rotational constants in cm-1:     0.281086     0.127387     0.100311
Rotational constants in MHz :  8426.743103  3818.969834  3007.238026

                             ****ORCA TERMINATED NORMALLY****
TOTAL RUN TIME: 0 days 0 hours 0 minutes 24 seconds 505 msec
