                         Program Version 5.0.0 -  RELEASE  -
|  1> !LC-PBE RIJCOSX def2-SVPD def2/J TightSCF xyzfile
|  2>
|  3> *xyzfile 0 1 D1.xyz
|  4>
|  5> %MaxCore 64000
|  6>
|  7> %pal nprocs 4
|  8> end
|  9>
| 10> %scf
| 11>   MaxIter 150
| 12> end
| 13>
| 14>
| 15>                          ****END OF INPUT****

CARTESIAN COORDINATES (ANGSTROEM)
---------------------------------
  C      2.486452   -2.677121   -2.563447
  C     -0.870963    0.248043   -2.662804
  C     -0.477492    0.608191   -4.101052
  H      0.206773    1.458299   -4.118748
  H     -1.368442    0.929419   -4.647855
  C      0.184673   -0.506640   -4.916760
  C      3.037640   -2.366715   -3.923509
  C      2.280360   -2.454408   -4.967692
  N      4.321736   -2.017932   -4.016641
  H      4.879940   -1.911668   -3.173823
  H      4.710148   -1.670882   -4.883561
  H      1.270423   -2.412650   -4.866143
  H      2.581829   -2.055282   -5.846878
  F     -0.158685   -1.701088   -4.657981
  O      1.055938   -0.174410   -5.740373
  C      2.497991   -1.469464   -1.610303
  C      1.582841   -0.321986   -2.042619
  H      2.193083   -1.833912   -0.625420
  H      3.523356   -1.103982   -1.490392
  C      0.100160   -0.673551   -1.915815
  H      1.822311   -0.040361   -3.072834
  H      1.813180    0.557019   -1.433266
  H     -0.063284   -1.679120   -2.301112
  H     -0.168820   -0.691680   -0.853831
  H     -1.001048    1.181040   -2.104071
  H     -1.844645   -0.246592   -2.663281
  H      1.472592   -3.051527   -2.694366
  H      3.083201   -3.490638   -2.141472

 Total Charge           Charge          ....    0
 Multiplicity           Mult            ....    1
 Number of Electrons    NEL             ....   94
 Basis Dimension        Dim             ....  374

ORBITAL ENERGIES
----------------

  NO   OCC          E(Eh)            E(eV)
   0   2.0000     -24.579551      -668.8436
   1   2.0000     -19.002866      -517.0943
   2   2.0000     -14.216891      -386.8613
   3   2.0000     -10.318184      -280.7721
   4   2.0000     -10.159599      -276.4567
   5   2.0000     -10.143953      -276.0310
   6   2.0000     -10.138125      -275.8724
   7   2.0000     -10.131236      -275.6850
   8   2.0000     -10.128532      -275.6114
   9   2.0000     -10.126690      -275.5612
  10   2.0000     -10.121639      -275.4238
  11   2.0000     -10.036720      -273.1130
  12   2.0000      -1.465219       -39.8706
  13   2.0000      -1.198845       -32.6222
  14   2.0000      -1.081471       -29.4283
  15   2.0000      -1.005422       -27.3589
  16   2.0000      -0.965946       -26.2847
  17   2.0000      -0.910805       -24.7843
  18   2.0000      -0.888067       -24.1655
  19   2.0000      -0.838849       -22.8262
  20   2.0000      -0.816012       -22.2048
  21   2.0000      -0.777446       -21.1554
  22   2.0000      -0.736256       -20.0345
  23   2.0000      -0.730971       -19.8907
  24   2.0000      -0.707040       -19.2395
  25   2.0000      -0.688321       -18.7302
  26   2.0000      -0.657205       -17.8834
  27   2.0000      -0.642553       -17.4848
  28   2.0000      -0.630403       -17.1541
  29   2.0000      -0.619457       -16.8563
  30   2.0000      -0.603380       -16.4188
  31   2.0000      -0.585158       -15.9229
  32   2.0000      -0.574720       -15.6389
  33   2.0000      -0.554822       -15.0975
  34   2.0000      -0.543971       -14.8022
  35   2.0000      -0.527374       -14.3506
  36   2.0000      -0.513639       -13.9768
  37   2.0000      -0.510513       -13.8918
  38   2.0000      -0.490823       -13.3560
  39   2.0000      -0.484429       -13.1820
  40   2.0000      -0.473321       -12.8797
  41   2.0000      -0.465802       -12.6751
  42   2.0000      -0.448675       -12.2091
  43   2.0000      -0.442354       -12.0371
  44   2.0000      -0.437213       -11.8972
  45   2.0000      -0.424688       -11.5564
  46   2.0000      -0.302235        -8.2242
  47   0.0000       0.065119         1.7720
  48   0.0000       0.083149         2.2626
  49   0.0000       0.095178         2.5899
  50   0.0000       0.104293         2.8380
  51   0.0000       0.108412         2.9500

MULLIKEN ATOMIC CHARGES
-----------------------
   0 C :    0.091827
   1 C :    0.322429
   2 C :    0.021149
   3 H :    0.280116
   4 H :   -0.138101
   5 C :    0.344369
   6 C :   -0.213500
   7 C :    0.937887
   8 N :    0.120249
   9 H :   -0.046070
  10 H :   -0.129541
  11 H :   -0.475064
  12 H :   -0.295236
  13 F :   -0.517362
  14 O :   -0.392882
  15 C :    0.156000
  16 C :    0.072453
  17 H :   -0.004995
  18 H :   -0.002455
  19 C :   -0.109106
  20 H :   -0.068819
  21 H :   -0.088553
  22 H :   -0.000993
  23 H :   -0.071532
  24 H :   -0.020287
  25 H :    0.111201
  26 H :    0.185509
  27 H :   -0.068693
Sum of atomic charges:   -0.0000000

LOEWDIN ATOMIC CHARGES
----------------------
   0 C :    0.000698
   1 C :   -0.040365
   2 C :    0.035486
   3 H :    0.049570
   4 H :    0.051470
   5 C :   -0.013961
   6 C :   -0.249010
   7 C :    0.154474
   8 N :    0.161568
   9 H :    0.001633
  10 H :    0.014558
  11 H :   -0.129356
  12 H :   -0.056679
  13 F :   -0.041456
  14 O :   -0.108684
  15 C :   -0.041842
  16 C :   -0.033878
  17 H :    0.033636
  18 H :    0.023010
  19 C :   -0.049435
  20 H :    0.020366
  21 H :    0.038269
  22 H :    0.005019
  23 H :    0.040212
  24 H :    0.037333
  25 H :    0.035416
  26 H :    0.022669
  27 H :    0.039279

  Mayer bond orders larger than 0.100000
B(  0-C ,  6-C ) :   1.2283 B(  0-C ,  7-C ) :   0.1285 B(  0-C ,  8-N ) :   0.1126
B(  0-C , 15-C ) :   1.1463 B(  0-C , 17-H ) :   0.1536 B(  0-C , 18-H ) :   0.1898
B(  0-C , 26-H ) :   0.7654 B(  0-C , 27-H ) :   0.8981 B(  1-C ,  2-C ) :   1.1801
B(  1-C , 19-C ) :   1.3147 B(  1-C , 24-H ) :   0.8356 B(  1-C , 25-H ) :   0.7330
B(  2-C ,  3-H ) :   0.7952 B(  2-C ,  4-H ) :   0.8312 B(  2-C ,  5-C ) :   1.2265
B(  2-C , 24-H ) :   0.1061 B(  3-H ,  5-C ) :   0.1803 B(  4-H ,  5-C ) :   0.2367
B(  5-C , 13-F ) :   0.6971 B(  5-C , 14-O ) :   1.9140 B(  6-C ,  7-C ) :   2.0881
B(  6-C ,  8-N ) :   1.0712 B(  6-C , 11-H ) :   0.2258 B(  6-C , 12-H ) :   0.4219
B(  6-C , 15-C ) :   0.1109 B(  6-C , 26-H ) :   0.1236 B(  6-C , 27-H ) :   0.1925
B(  7-C ,  8-N ) :   0.3750 B(  7-C , 11-H ) :   0.4031 B(  7-C , 12-H ) :   0.2644
B(  7-C , 26-H ) :  -0.1387 B(  8-N ,  9-H ) :   1.1285 B(  8-N , 10-H ) :   1.1911
B(  9-H , 10-H ) :  -0.1573 B( 11-H , 12-H ) :   0.2397 B( 11-H , 13-F ) :   0.2285
B( 13-F , 14-O ) :   0.1198 B( 15-C , 16-C ) :   1.2297 B( 15-C , 17-H ) :   0.8928
B( 15-C , 18-H ) :   0.7447 B( 15-C , 20-H ) :   0.1475 B( 15-C , 26-H ) :   0.1517
B( 16-C , 18-H ) :   0.1895 B( 16-C , 19-C ) :   1.1830 B( 16-C , 20-H ) :   0.8919
B( 16-C , 21-H ) :   0.9046 B( 16-C , 23-H ) :   0.1966 B( 19-C , 20-H ) :   0.1073
B( 19-C , 21-H ) :   0.1106 B( 19-C , 22-H ) :   0.8977 B( 19-C , 23-H ) :   0.8638
B( 19-C , 24-H ) :   0.1642 B( 19-C , 25-H ) :   0.1866 B( 22-H , 26-H ) :   0.1183

FINAL SINGLE POINT ENERGY      -580.166621937833

DIPOLE MOMENT
-------------
                                X             Y             Z
Electronic contribution:     -3.73891      -1.61098     -10.18446
Nuclear contribution   :      3.32973       2.37270      11.37738
                        -----------------------------------------
Total Dipole Moment    :     -0.40918       0.76172       1.19292
                        -----------------------------------------
Magnitude (a.u.)       :      1.47334
Magnitude (Debye)      :      3.74492

Rotational constants in cm-1:     0.040902     0.025807     0.019036
Rotational constants in MHz :  1226.202138   773.670450   570.681201

                             ****ORCA TERMINATED NORMALLY****
TOTAL RUN TIME: 0 days 0 hours 2 minutes 28 seconds 292 msec
