                         Program Version 5.0.0 -  RELEASE  -
|  1> !LC-PBE RIJCOSX def2-SVPD def2/J TightSCF xyzfile
|  2>
|  3> *xyzfile 0 1 D2.xyz
|  4>
|  5> %MaxCore 64000
|  6>
|  7> %pal nprocs 4
|  8> end
|  9>
| 10> %scf
| 11>   MaxIter 150
| 12> end
| 13>
| 14>
| 15>                          ****END OF INPUT****

CARTESIAN COORDINATES (ANGSTROEM)
---------------------------------
  C      2.486452   -2.677121   -2.563447
  C     -0.870963    0.248043   -2.662804
  C     -0.477492    0.608191   -4.101052
  H      0.206773    1.458299   -4.118748
  H     -1.368442    0.929419   -4.647855
  C      0.184673   -0.506640   -4.916760
  C      3.037640   -2.366715   -3.923509
  N      2.280360   -2.454408   -4.967692
  C      4.321736   -2.017932   -4.016641
  H      4.879940   -1.911668   -3.173823
  H      4.710148   -1.670882   -4.883561
  H      1.270423   -2.412650   -4.866143
  H      2.581829   -2.055282   -5.846878
  F     -0.158685   -1.701088   -4.657981
  O      1.055938   -0.174410   -5.740373
  C      2.497991   -1.469464   -1.610303
  C      1.582841   -0.321986   -2.042619
  H      2.193083   -1.833912   -0.625420
  H      3.523356   -1.103982   -1.490392
  C      0.100160   -0.673551   -1.915815
  H      1.822311   -0.040361   -3.072834
  H      1.813180    0.557019   -1.433266
  H     -0.063284   -1.679120   -2.301112
  H     -0.168820   -0.691680   -0.853831
  H     -1.001048    1.181040   -2.104071
  H     -1.844645   -0.246592   -2.663281
  H      1.472592   -3.051527   -2.694366
  H      3.083201   -3.490638   -2.141472

 Total Charge           Charge          ....    0
 Multiplicity           Mult            ....    1
 Number of Electrons    NEL             ....   94
 Basis Dimension        Dim             ....  374

ORBITAL ENERGIES
----------------

  NO   OCC          E(Eh)            E(eV)
   0   2.0000     -24.608148      -669.6218
   1   2.0000     -19.023067      -517.6440
   2   2.0000     -14.205790      -386.5592
   3   2.0000     -10.337343      -281.2934
   4   2.0000     -10.171056      -276.7685
   5   2.0000     -10.151466      -276.2354
   6   2.0000     -10.142772      -275.9989
   7   2.0000     -10.136580      -275.8304
   8   2.0000     -10.129114      -275.6272
   9   2.0000     -10.125854      -275.5385
  10   2.0000     -10.122627      -275.4507
  11   2.0000     -10.044596      -273.3274
  12   2.0000      -1.492296       -40.6074
  13   2.0000      -1.218949       -33.1693
  14   2.0000      -1.091377       -29.6979
  15   2.0000      -1.013500       -27.5787
  16   2.0000      -0.968624       -26.3576
  17   2.0000      -0.923051       -25.1175
  18   2.0000      -0.872085       -23.7306
  19   2.0000      -0.852469       -23.1969
  20   2.0000      -0.828833       -22.5537
  21   2.0000      -0.787486       -21.4286
  22   2.0000      -0.753619       -20.5070
  23   2.0000      -0.742563       -20.2062
  24   2.0000      -0.725077       -19.7304
  25   2.0000      -0.689669       -18.7669
  26   2.0000      -0.660862       -17.9830
  27   2.0000      -0.646992       -17.6056
  28   2.0000      -0.632633       -17.2148
  29   2.0000      -0.625555       -17.0222
  30   2.0000      -0.616572       -16.7778
  31   2.0000      -0.590312       -16.0632
  32   2.0000      -0.572937       -15.5904
  33   2.0000      -0.562697       -15.3118
  34   2.0000      -0.550026       -14.9670
  35   2.0000      -0.534712       -14.5503
  36   2.0000      -0.524527       -14.2731
  37   2.0000      -0.513821       -13.9818
  38   2.0000      -0.500670       -13.6239
  39   2.0000      -0.488880       -13.3031
  40   2.0000      -0.478016       -13.0075
  41   2.0000      -0.471289       -12.8244
  42   2.0000      -0.459605       -12.5065
  43   2.0000      -0.450844       -12.2681
  44   2.0000      -0.441509       -12.0141
  45   2.0000      -0.436722       -11.8838
  46   2.0000      -0.291487        -7.9318
  47   0.0000       0.048024         1.3068
  48   0.0000       0.075576         2.0565
  49   0.0000       0.098451         2.6790
  50   0.0000       0.102068         2.7774
  51   0.0000       0.104677         2.8484

MULLIKEN ATOMIC CHARGES
-----------------------
   0 C :    0.377195
   1 C :    0.319280
   2 C :   -0.003334
   3 H :    0.319165
   4 H :   -0.130671
   5 C :    0.394790
   6 C :   -0.130633
   7 N :    0.283417
   8 C :    0.213635
   9 H :   -0.085934
  10 H :   -0.305707
  11 H :   -0.325898
  12 H :    0.044858
  13 F :   -0.478683
  14 O :   -0.362102
  15 C :    0.082252
  16 C :    0.041422
  17 H :    0.008248
  18 H :    0.018476
  19 C :   -0.086664
  20 H :   -0.088909
  21 H :   -0.116012
  22 H :    0.019981
  23 H :   -0.088618
  24 H :   -0.019186
  25 H :    0.108143
  26 H :   -0.043145
  27 H :    0.034634
Sum of atomic charges:    0.0000000

LOEWDIN ATOMIC CHARGES
----------------------
   0 C :    0.001270
   1 C :   -0.039558
   2 C :    0.037316
   3 H :    0.052390
   4 H :    0.053274
   5 C :   -0.015397
   6 C :   -0.249539
   7 N :    0.180838
   8 C :    0.149119
   9 H :   -0.075768
  10 H :   -0.076466
  11 H :   -0.077269
  12 H :    0.021549
  13 F :   -0.028785
  14 O :   -0.108668
  15 C :   -0.036193
  16 C :   -0.033685
  17 H :    0.034217
  18 H :    0.029597
  19 C :   -0.051499
  20 H :    0.019019
  21 H :    0.039801
  22 H :    0.001896
  23 H :    0.041359
  24 H :    0.039152
  25 H :    0.035637
  26 H :    0.012220
  27 H :    0.044177

  Mayer bond orders larger than 0.100000
B(  0-C ,  6-C ) :   1.0221 B(  0-C ,  7-N ) :   0.1196 B(  0-C , 15-C ) :   1.1857
B(  0-C , 17-H ) :   0.1271 B(  0-C , 18-H ) :   0.1499 B(  0-C , 26-H ) :   0.6765
B(  0-C , 27-H ) :   0.8069 B(  1-C ,  2-C ) :   1.1902 B(  1-C ,  4-H ) :   0.1080
B(  1-C , 19-C ) :   1.3038 B(  1-C , 24-H ) :   0.8341 B(  1-C , 25-H ) :   0.7339
B(  2-C ,  3-H ) :   0.7678 B(  2-C ,  4-H ) :   0.8404 B(  2-C ,  5-C ) :   1.2378
B(  2-C , 24-H ) :   0.1096 B(  3-H ,  5-C ) :   0.1765 B(  4-H ,  5-C ) :   0.2361
B(  5-C , 13-F ) :   0.6676 B(  5-C , 14-O ) :   1.9139 B(  6-C ,  7-N ) :   1.0626
B(  6-C ,  8-C ) :   1.9002 B(  6-C ,  9-H ) :   0.1287 B(  6-C , 10-H ) :   0.1847
B(  6-C , 26-H ) :   0.2015 B(  6-C , 27-H ) :   0.1237 B(  7-N ,  8-C ) :   0.2617
B(  7-N , 11-H ) :   0.9334 B(  7-N , 12-H ) :   0.9629 B(  8-C ,  9-H ) :   0.8507
B(  8-C , 10-H ) :   0.7478 B( 11-H , 12-H ) :  -0.1261 B( 11-H , 13-F ) :   0.1510
B( 13-F , 14-O ) :   0.1054 B( 15-C , 16-C ) :   1.2506 B( 15-C , 17-H ) :   0.8903
B( 15-C , 18-H ) :   0.7776 B( 15-C , 20-H ) :   0.1555 B( 15-C , 26-H ) :   0.1813
B( 15-C , 27-H ) :   0.1078 B( 16-C , 17-H ) :   0.1239 B( 16-C , 18-H ) :   0.1876
B( 16-C , 19-C ) :   1.1768 B( 16-C , 20-H ) :   0.8766 B( 16-C , 21-H ) :   0.9491
B( 16-C , 23-H ) :   0.1975 B( 19-C , 20-H ) :   0.1070 B( 19-C , 21-H ) :   0.1091
B( 19-C , 22-H ) :   0.9038 B( 19-C , 23-H ) :   0.8767 B( 19-C , 24-H ) :   0.1622
B( 19-C , 25-H ) :   0.1882 B( 22-H , 26-H ) :   0.1090

FINAL SINGLE POINT ENERGY      -580.177870987659

DIPOLE MOMENT
-------------
                                X             Y             Z
Electronic contribution:     -5.37135      -1.76347     -10.81672
Nuclear contribution   :      3.65024       2.44123      11.52670
                        -----------------------------------------
Total Dipole Moment    :     -1.72111       0.67776       0.70998
                        -----------------------------------------
Magnitude (a.u.)       :      1.98133
Magnitude (Debye)      :      5.03614

Rotational constants in cm-1:     0.040600     0.026409     0.019262
Rotational constants in MHz :  1217.142957   791.712481   577.449390

                             ****ORCA TERMINATED NORMALLY****
TOTAL RUN TIME: 0 days 0 hours 2 minutes 31 seconds 441 msec
