                         Program Version 5.0.0 -  RELEASE  -
|  1> !BLYP D3BJ RIJCOSX def2-TZVPD def2/J TightSCF
|  2> *xyz -1 1
|  3> C          4.08422        1.74208       -2.11472
|  4> C          4.26524        2.50052       -0.79589
|  5> H          4.86853        3.39267       -0.98113
|  6> H          3.30764        2.82457       -0.38781
|  7> C          4.98224        1.65026        0.24742
|  8> O          4.36806        1.38927        1.31371
|  9> O          6.12892        1.23351       -0.04562
| 10> H          3.57911        2.36849       -2.81997
| 11> H          3.50424        0.85965       -1.94198
| 12> H          5.04288        1.46841       -2.50327
| 13> *
| 14> %MaxCore 64000
| 15> %pal nprocs 8
| 16> end
| 17> %scf
| 18>   MaxIter 150
| 19> end
| 20>
| 21>
| 22>                          ****END OF INPUT****

CARTESIAN COORDINATES (ANGSTROEM)
---------------------------------
  C      4.084220    1.742080   -2.114720
  C      4.265240    2.500520   -0.795890
  H      4.868530    3.392670   -0.981130
  H      3.307640    2.824570   -0.387810
  C      4.982240    1.650260    0.247420
  O      4.368060    1.389270    1.313710
  O      6.128920    1.233510   -0.045620
  H      3.579110    2.368490   -2.819970
  H      3.504240    0.859650   -1.941980
  H      5.042880    1.468410   -2.503270

 Total Charge           Charge          ....   -1
 Multiplicity           Mult            ....    1
 Number of Electrons    NEL             ....   40
 Basis Dimension        Dim             ....  236

ORBITAL ENERGIES
----------------

  NO   OCC          E(Eh)            E(eV)
   0   2.0000     -18.511292      -503.7179
   1   2.0000     -18.511061      -503.7116
   2   2.0000      -9.781203      -266.1601
   3   2.0000      -9.740223      -265.0449
   4   2.0000      -9.729100      -264.7423
   5   2.0000      -0.726068       -19.7573
   6   2.0000      -0.638842       -17.3838
   7   2.0000      -0.526921       -14.3382
   8   2.0000      -0.404943       -11.0190
   9   2.0000      -0.263288        -7.1644
  10   2.0000      -0.239572        -6.5191
  11   2.0000      -0.205373        -5.5885
  12   2.0000      -0.179529        -4.8852
  13   2.0000      -0.163913        -4.4603
  14   2.0000      -0.156216        -4.2509
  15   2.0000      -0.128284        -3.4908
  16   2.0000      -0.115409        -3.1404
  17   2.0000      -0.008640        -0.2351
  18   2.0000       0.003906         0.1063
  19   2.0000       0.021060         0.5731
  20   0.0000       0.120122         3.2687
  21   0.0000       0.146527         3.9872
  22   0.0000       0.162807         4.4302
  23   0.0000       0.170214         4.6318
  24   0.0000       0.195851         5.3294

MULLIKEN ATOMIC CHARGES
-----------------------
   0 C :   -1.160803
   1 C :   -0.068531
   2 H :    0.190771
   3 H :    0.185510
   4 C :    0.414533
   5 O :   -0.724258
   6 O :   -0.726292
   7 H :    0.297351
   8 H :    0.324121
   9 H :    0.267597
Sum of atomic charges:   -1.0000000

LOEWDIN ATOMIC CHARGES
----------------------
   0 C :   -0.125946
   1 C :   -0.211505
   2 H :    0.087740
   3 H :    0.080563
   4 C :   -0.790563
   5 O :   -0.096868
   6 O :   -0.087720
   7 H :    0.036751
   8 H :    0.057165
   9 H :    0.050383

  Mayer bond orders larger than 0.100000
B(  0-C ,  1-C ) :   0.5065 B(  0-C ,  7-H ) :   0.9262 B(  0-C ,  8-H ) :   0.9356
B(  0-C ,  9-H ) :   1.0327 B(  1-C ,  2-H ) :   0.9600 B(  1-C ,  3-H ) :   1.0301
B(  1-C ,  4-C ) :   0.9072 B(  4-C ,  5-O ) :   1.3846 B(  4-C ,  6-O ) :   1.3880

Dispersion correction           -0.013577229
FINAL SINGLE POINT ENERGY      -267.885423276237

DIPOLE MOMENT
-------------
                                X             Y             Z
Electronic contribution:      2.47692      -1.50857       5.17394
Nuclear contribution   :     -3.31311       2.28398      -6.76358
                        -----------------------------------------
Total Dipole Moment    :     -0.83619       0.77541      -1.58964
                        -----------------------------------------
Magnitude (a.u.)       :      1.95639
Magnitude (Debye)      :      4.97274

Rotational constants in cm-1:     0.309287     0.135287     0.107346
Rotational constants in MHz :  9272.201029  4055.789113  3218.155789

                             ****ORCA TERMINATED NORMALLY****
TOTAL RUN TIME: 0 days 0 hours 0 minutes 11 seconds 732 msec
