                         Program Version 5.0.0 -  RELEASE  -
|  1> !BLYP D3BJ RIJCOSX def2-TZVPD def2/J TightSCF
|  2> *xyz 1 1
|  3> C          3.91385       -1.65829        3.01513
|  4> N          5.03927       -0.90115        2.49282
|  5> C          6.21038       -1.41726        2.17824
|  6> N          6.53591       -2.67712        2.55608
|  7> N          7.07675       -0.70082        1.47891
|  8> H          7.95464       -1.12155        1.20755
|  9> H          6.75616        0.10664        0.96028
| 10> H          4.84217        0.01761        2.11519
| 11> H          5.99388       -3.12692        3.28278
| 12> C          3.13916       -2.37657        1.91061
| 13> H          3.26723       -0.93940        3.52069
| 14> H          4.24720       -2.35509        3.79006
| 15> H          7.49844       -2.97548        2.46878
| 16> H          2.82969       -1.66654        1.17238
| 17> H          2.27790       -2.85264        2.33072
| 18> H          3.76754       -3.11338        1.45548
| 19> *
| 20> %MaxCore 64000
| 21> %pal nprocs 8
| 22> end
| 23> %scf
| 24>   MaxIter 150
| 25> end
| 26>
| 27>
| 28>                          ****END OF INPUT****

CARTESIAN COORDINATES (ANGSTROEM)
---------------------------------
  C      3.913850   -1.658290    3.015130
  N      5.039270   -0.901150    2.492820
  C      6.210380   -1.417260    2.178240
  N      6.535910   -2.677120    2.556080
  N      7.076750   -0.700820    1.478910
  H      7.954640   -1.121550    1.207550
  H      6.756160    0.106640    0.960280
  H      4.842170    0.017610    2.115190
  H      5.993880   -3.126920    3.282780
  C      3.139160   -2.376570    1.910610
  H      3.267230   -0.939400    3.520690
  H      4.247200   -2.355090    3.790060
  H      7.498440   -2.975480    2.468780
  H      2.829690   -1.666540    1.172380
  H      2.277900   -2.852640    2.330720
  H      3.767540   -3.113380    1.455480

 Total Charge           Charge          ....    1
 Multiplicity           Mult            ....    1
 Number of Electrons    NEL             ....   48
 Basis Dimension        Dim             ....  312

ORBITAL ENERGIES
----------------

  NO   OCC          E(Eh)            E(eV)
   0   2.0000     -14.229335      -387.1999
   1   2.0000     -14.227501      -387.1500
   2   2.0000     -14.225525      -387.0962
   3   2.0000     -10.229301      -278.3534
   4   2.0000     -10.112502      -275.1752
   5   2.0000     -10.040095      -273.2049
   6   2.0000      -1.122976       -30.5577
   7   2.0000      -1.022026       -27.8107
   8   2.0000      -1.006953       -27.4006
   9   2.0000      -0.855763       -23.2865
  10   2.0000      -0.775900       -21.1133
  11   2.0000      -0.738485       -20.0952
  12   2.0000      -0.726610       -19.7721
  13   2.0000      -0.686057       -18.6686
  14   2.0000      -0.639376       -17.3983
  15   2.0000      -0.634323       -17.2608
  16   2.0000      -0.601818       -16.3763
  17   2.0000      -0.576411       -15.6849
  18   2.0000      -0.552061       -15.0223
  19   2.0000      -0.513943       -13.9851
  20   2.0000      -0.486775       -13.2458
  21   2.0000      -0.469061       -12.7638
  22   2.0000      -0.432940       -11.7809
  23   2.0000      -0.409335       -11.1386
  24   0.0000      -0.200817        -5.4645
  25   0.0000      -0.185526        -5.0484
  26   0.0000      -0.154304        -4.1988
  27   0.0000      -0.145082        -3.9479
  28   0.0000      -0.124903        -3.3988

MULLIKEN ATOMIC CHARGES
-----------------------
   0 C :   -0.393555
   1 N :   -0.121227
   2 C :    0.625619
   3 N :   -0.274934
   4 N :   -0.269232
   5 H :    0.179452
   6 H :    0.190212
   7 H :    0.170266
   8 H :    0.180444
   9 C :   -1.127171
  10 H :    0.306631
  11 H :    0.305756
  12 H :    0.180592
  13 H :    0.328944
  14 H :    0.367167
  15 H :    0.351037
Sum of atomic charges:    1.0000000

LOEWDIN ATOMIC CHARGES
----------------------
   0 C :   -0.199499
   1 N :    0.095001
   2 C :   -0.446117
   3 N :    0.224543
   4 N :    0.219087
   5 H :    0.134237
   6 H :    0.136761
   7 H :    0.166996
   8 H :    0.116933
   9 C :   -0.047036
  10 H :    0.129120
  11 H :    0.114700
  12 H :    0.131324
  13 H :    0.075287
  14 H :    0.080543
  15 H :    0.068120

  Mayer bond orders larger than 0.100000
B(  0-C ,  1-N ) :   0.8445 B(  0-C ,  9-C ) :   0.6229 B(  0-C , 10-H ) :   0.9181
B(  0-C , 11-H ) :   0.8753 B(  1-N ,  2-C ) :   1.2589 B(  1-N ,  4-N ) :   0.1035
B(  1-N ,  7-H ) :   0.9982 B(  2-C ,  3-N ) :   1.1536 B(  2-C ,  4-N ) :   1.1158
B(  3-N ,  8-H ) :   0.9465 B(  3-N , 12-H ) :   1.0028 B(  4-N ,  5-H ) :   0.9934
B(  4-N ,  6-H ) :   0.9773 B(  9-C , 13-H ) :   0.9656 B(  9-C , 14-H ) :   0.9324
B(  9-C , 15-H ) :   0.9350

Dispersion correction           -0.025087524
FINAL SINGLE POINT ENERGY      -284.409296031370

DIPOLE MOMENT
-------------
                                X             Y             Z
Electronic contribution:      4.66761       1.89601       0.08154
Nuclear contribution   :     -3.67981      -1.62355      -0.28562
                        -----------------------------------------
Total Dipole Moment    :      0.98780       0.27246      -0.20408
                        -----------------------------------------
Magnitude (a.u.)       :      1.04482
Magnitude (Debye)      :      2.65571

Rotational constants in cm-1:     0.222027     0.074735     0.065694
Rotational constants in MHz :  6656.200457  2240.503315  1969.451902

                             ****ORCA TERMINATED NORMALLY****
TOTAL RUN TIME: 0 days 0 hours 0 minutes 10 seconds 848 msec
