                         Program Version 5.0.0 -  RELEASE  -
|  1> !BLYP D3BJ RIJCOSX def2-TZVPD def2/J TightSCF xyzfile
|  2>
|  3> *xyzfile 0 1 B.xyz
|  4>
|  5> %MaxCore 64000
|  6>
|  7> %pal nprocs 4
|  8> end
|  9>
| 10> %scf
| 11>   MaxIter 150
| 12> end
| 13>
| 14>
| 15>                          ****END OF INPUT****

CARTESIAN COORDINATES (ANGSTROEM)
---------------------------------
  C      3.913853   -1.658291    3.015134
  N      5.039266   -0.901154    2.492821
  C      4.084215    1.742081   -2.114724
  C      4.265245    2.500518   -0.795890
  H      4.868534    3.392674   -0.981134
  H      3.307640    2.824571   -0.387809
  C      4.982240    1.650257    0.247422
  C      6.210384   -1.417261    2.178244
  N      6.535913   -2.677122    2.556078
  N      7.076754   -0.700820    1.478906
  H      7.954643   -1.121554    1.207554
  H      6.756161    0.106637    0.960278
  H      4.842168    0.017609    2.115191
  H      5.993876   -3.126918    3.282784
  H      7.498441   -2.975482    2.468776
  O      4.368065    1.389270    1.313706
  O      6.128919    1.233512   -0.045620
  C      3.139159   -2.376572    1.910609
  H      3.267235   -0.939401    3.520693
  H      4.247195   -2.355095    3.790065
  C      1.997274    0.430918   -1.399218
  C      3.412746    0.376886   -1.965497
  H      4.047407   -0.246590   -1.326706
  H      3.390774   -0.118719   -2.942839
  H      5.068475    1.598504   -2.565728
  H      3.503356    2.363939   -2.804565
  C      2.399946   -1.389579    1.009490
  H      2.440750   -3.087118    2.362976
  H      3.844475   -2.970462    1.318677
  C      2.070177   -1.936705   -0.372401
  H      1.481611   -1.061542    1.509912
  H      3.008628   -0.490001    0.897451
  C      1.322238   -0.935775   -1.256413
  H      1.472747   -2.850902   -0.283997
  H      3.003539   -2.234041   -0.862535
  H      1.376444    1.058920   -2.047420
  H      2.015341    0.929780   -0.426535
  H      0.316648   -0.787213   -0.848278
  H      1.185611   -1.379252   -2.248613

 Total Charge           Charge          ....    0
 Multiplicity           Mult            ....    1
 Number of Electrons    NEL             ....  126
 Basis Dimension        Dim             ....  805

ORBITAL ENERGIES
----------------

  NO   OCC          E(Eh)            E(eV)
   0   2.0000     -18.693911      -508.6872
   1   2.0000     -18.693078      -508.6645
   2   2.0000     -14.068950      -382.8356
   3   2.0000     -14.035470      -381.9245
   4   2.0000     -14.029856      -381.7718
   5   2.0000     -10.052880      -273.5528
   6   2.0000      -9.960603      -271.0418
   7   2.0000      -9.957906      -270.9684
   8   2.0000      -9.911624      -269.7090
   9   2.0000      -9.889734      -269.1133
  10   2.0000      -9.889428      -269.1050
  11   2.0000      -9.885355      -268.9942
  12   2.0000      -9.876475      -268.7526
  13   2.0000      -9.874962      -268.7114
  14   2.0000      -9.873859      -268.6814
  15   2.0000      -9.865386      -268.4508
  16   2.0000      -0.947685       -25.7878
  17   2.0000      -0.913341       -24.8533
  18   2.0000      -0.848564       -23.0906
  19   2.0000      -0.834931       -22.7196
  20   2.0000      -0.822989       -22.3947
  21   2.0000      -0.729726       -19.8569
  22   2.0000      -0.706564       -19.2266
  23   2.0000      -0.679614       -18.4932
  24   2.0000      -0.643763       -17.5177
  25   2.0000      -0.608693       -16.5634
  26   2.0000      -0.595094       -16.1933
  27   2.0000      -0.565107       -15.3773
  28   2.0000      -0.553774       -15.0690
  29   2.0000      -0.539111       -14.6700
  30   2.0000      -0.514261       -13.9937
  31   2.0000      -0.507428       -13.8078
  32   2.0000      -0.477061       -12.9815
  33   2.0000      -0.470266       -12.7966
  34   2.0000      -0.461902       -12.5690
  35   2.0000      -0.443333       -12.0637
  36   2.0000      -0.416375       -11.3301
  37   2.0000      -0.409141       -11.1333
  38   2.0000      -0.405118       -11.0238
  39   2.0000      -0.400538       -10.8992
  40   2.0000      -0.387732       -10.5507
  41   2.0000      -0.371300       -10.1036
  42   2.0000      -0.367393        -9.9973
  43   2.0000      -0.365165        -9.9367
  44   2.0000      -0.358045        -9.7429
  45   2.0000      -0.344393        -9.3714
  46   2.0000      -0.332070        -9.0361
  47   2.0000      -0.322266        -8.7693
  48   2.0000      -0.318434        -8.6650
  49   2.0000      -0.308430        -8.3928
  50   2.0000      -0.301824        -8.2130
  51   2.0000      -0.294940        -8.0257
  52   2.0000      -0.283061        -7.7025
  53   2.0000      -0.276172        -7.5150
  54   2.0000      -0.269540        -7.3346
  55   2.0000      -0.264843        -7.2067
  56   2.0000      -0.257396        -7.0041
  57   2.0000      -0.253030        -6.8853
  58   2.0000      -0.246396        -6.7048
  59   2.0000      -0.234660        -6.3854
  60   2.0000      -0.191815        -5.2196
  61   2.0000      -0.177828        -4.8389
  62   2.0000      -0.167893        -4.5686
  63   0.0000      -0.047929        -1.3042
  64   0.0000      -0.031268        -0.8508
  65   0.0000      -0.017963        -0.4888
  66   0.0000       0.001378         0.0375
  67   0.0000       0.007459         0.2030

MULLIKEN ATOMIC CHARGES
-----------------------
   0 C :   -0.991728
   1 N :   -0.200238
   2 C :   -0.668943
   3 C :   -0.414445
   4 H :    0.291794
   5 H :    0.236976
   6 C :    0.701226
   7 C :    0.452780
   8 N :   -0.291806
   9 N :   -0.251534
  10 H :    0.144783
  11 H :    0.287845
  12 H :    0.451018
  13 H :    0.159626
  14 H :    0.154656
  15 O :   -0.881461
  16 O :   -0.896708
  17 C :   -0.396503
  18 H :    0.355889
  19 H :    0.325611
  20 C :   -0.394252
  21 C :   -0.345211
  22 H :    0.178551
  23 H :    0.279190
  24 H :    0.192784
  25 H :    0.280607
  26 C :    0.050419
  27 H :    0.297545
  28 H :    0.252883
  29 C :   -0.500201
  30 H :    0.251370
  31 H :    0.011863
  32 C :   -0.711954
  33 H :    0.239968
  34 H :    0.308858
  35 H :    0.262063
  36 H :    0.246022
  37 H :    0.263824
  38 H :    0.266833
Sum of atomic charges:   -0.0000000

LOEWDIN ATOMIC CHARGES
----------------------
   0 C :   -0.165417
   1 N :    0.110262
   2 C :   -0.198023
   3 C :   -0.122982
   4 H :    0.111338
   5 H :    0.100911
   6 C :   -0.663331
   7 C :   -0.453941
   8 N :    0.185986
   9 N :    0.215950
  10 H :    0.117895
  11 H :    0.034647
  12 H :    0.068527
  13 H :    0.097020
  14 H :    0.110214
  15 O :   -0.030545
  16 O :   -0.017235
  17 C :   -0.177657
  18 H :    0.129066
  19 H :    0.102023
  20 C :   -0.208677
  21 C :   -0.204919
  22 H :    0.101244
  23 H :    0.112716
  24 H :    0.104014
  25 H :    0.104660
  26 C :   -0.206347
  27 H :    0.111495
  28 H :    0.107722
  29 C :   -0.213276
  30 H :    0.124982
  31 H :    0.082884
  32 C :   -0.205769
  33 H :    0.108100
  34 H :    0.105061
  35 H :    0.112393
  36 H :    0.100100
  37 H :    0.104701
  38 H :    0.104206

  Mayer bond orders larger than 0.100000
B(  0-C ,  1-N ) :   0.9570 B(  0-C ,  7-C ) :  -0.1339 B(  0-C , 17-C ) :   0.6907
B(  0-C , 18-H ) :   0.7834 B(  0-C , 19-H ) :   0.8908 B(  0-C , 26-C ) :   0.1492
B(  0-C , 27-H ) :  -0.1430 B(  1-N ,  7-C ) :   1.3116 B(  1-N , 12-H ) :   0.6489
B(  2-C ,  3-C ) :   0.7850 B(  2-C ,  6-C ) :   0.1025 B(  2-C , 20-C ) :   0.1693
B(  2-C , 21-C ) :   0.9100 B(  2-C , 24-H ) :   0.9713 B(  2-C , 25-H ) :   0.9152
B(  3-C ,  4-H ) :   0.8791 B(  3-C ,  5-H ) :   1.0120 B(  3-C ,  6-C ) :   0.9268
B(  3-C , 20-C ) :   0.1298 B(  3-C , 21-C ) :  -0.1236 B(  6-C , 15-O ) :   1.2955
B(  6-C , 16-O ) :   1.0433 B(  7-C ,  8-N ) :   1.0486 B(  7-C ,  9-N ) :   1.1658
B(  8-N , 13-H ) :   0.9692 B(  8-N , 14-H ) :   1.0087 B(  9-N , 10-H ) :   1.0087
B(  9-N , 11-H ) :   0.7814 B( 11-H , 16-O ) :   0.1009 B( 15-O , 16-O ) :   0.1494
B( 17-C , 26-C ) :   0.4502 B( 17-C , 27-H ) :   0.9867 B( 17-C , 28-H ) :   0.8724
B( 17-C , 29-C ) :   0.4277 B( 17-C , 30-H ) :  -0.1372 B( 17-C , 31-H ) :  -0.1347
B( 20-C , 21-C ) :   0.1947 B( 20-C , 22-H ) :  -0.1440 B( 20-C , 29-C ) :  -0.1213
B( 20-C , 32-C ) :   0.8338 B( 20-C , 35-H ) :   0.9260 B( 20-C , 36-H ) :   1.0048
B( 21-C , 22-H ) :   1.0494 B( 21-C , 23-H ) :   0.9009 B( 21-C , 29-C ) :   0.1446
B( 21-C , 32-C ) :   0.1057 B( 21-C , 36-H ) :  -0.1370 B( 26-C , 29-C ) :   0.3276
B( 26-C , 30-H ) :   0.8208 B( 26-C , 31-H ) :   1.6466 B( 26-C , 34-H ) :  -0.1051
B( 29-C , 31-H ) :  -0.2689 B( 29-C , 32-C ) :   0.8752 B( 29-C , 33-H ) :   0.9542
B( 29-C , 34-H ) :   0.9347 B( 30-H , 31-H ) :   0.1428 B( 32-C , 37-H ) :   0.9475
B( 32-C , 38-H ) :   0.9589

Dispersion correction           -0.088675652
FINAL SINGLE POINT ENERGY      -747.828686874003

DIPOLE MOMENT
-------------
                                X             Y             Z
Electronic contribution:     12.26789       3.38549       7.66274
Nuclear contribution   :    -11.44764      -6.21818      -6.18483
                        -----------------------------------------
Total Dipole Moment    :      0.82025      -2.83269       1.47791
                        -----------------------------------------
Magnitude (a.u.)       :      3.29866
Magnitude (Debye)      :      8.38452

Rotational constants in cm-1:     0.020281     0.013510     0.009451
Rotational constants in MHz :   608.005987   405.034308   283.324538

                             ****ORCA TERMINATED NORMALLY****
TOTAL RUN TIME: 0 days 0 hours 2 minutes 24 seconds 319 msec
