                         Program Version 5.0.0 -  RELEASE  -
|  1> !BLYP D3BJ RIJCOSX def2-TZVPD def2/J TightSCF
|  2> *xyz 0 1
|  3> C          4.08422        1.74208       -2.11472
|  4> C          4.26524        2.50052       -0.79589
|  5> H          4.86853        3.39267       -0.98113
|  6> H          3.30764        2.82457       -0.38781
|  7> C          4.98224        1.65026        0.24742
|  8> F          4.36806        1.38927        1.31371
|  9> O          6.12892        1.23351       -0.04562
| 10> H          3.57911        2.36849       -2.81997
| 11> H          3.50424        0.85965       -1.94198
| 12> H          5.04288        1.46841       -2.50327
| 13> *
| 14> %MaxCore 64000
| 15> %pal nprocs 8
| 16> end
| 17> %scf
| 18>   MaxIter 150
| 19> end
| 20>
| 21>
| 22>                          ****END OF INPUT****

CARTESIAN COORDINATES (ANGSTROEM)
---------------------------------
  C      4.084220    1.742080   -2.114720
  C      4.265240    2.500520   -0.795890
  H      4.868530    3.392670   -0.981130
  H      3.307640    2.824570   -0.387810
  C      4.982240    1.650260    0.247420
  F      4.368060    1.389270    1.313710
  O      6.128920    1.233510   -0.045620
  H      3.579110    2.368490   -2.819970
  H      3.504240    0.859650   -1.941980
  H      5.042880    1.468410   -2.503270

 Total Charge           Charge          ....    0
 Multiplicity           Mult            ....    1
 Number of Electrons    NEL             ....   40
 Basis Dimension        Dim             ....  236

ORBITAL ENERGIES
----------------

  NO   OCC          E(Eh)            E(eV)
   0   2.0000     -24.352888      -662.6758
   1   2.0000     -18.777074      -510.9502
   2   2.0000     -10.074361      -274.1373
   3   2.0000      -9.935534      -270.3596
   4   2.0000      -9.909267      -269.6449
   5   2.0000      -1.207142       -32.8480
   6   2.0000      -0.939562       -25.5668
   7   2.0000      -0.721950       -19.6453
   8   2.0000      -0.618056       -16.8181
   9   2.0000      -0.571289       -15.5456
  10   2.0000      -0.484587       -13.1863
  11   2.0000      -0.469882       -12.7861
  12   2.0000      -0.446906       -12.1609
  13   2.0000      -0.412798       -11.2328
  14   2.0000      -0.381717       -10.3870
  15   2.0000      -0.352038        -9.5794
  16   2.0000      -0.332012        -9.0345
  17   2.0000      -0.327507        -8.9119
  18   2.0000      -0.303409        -8.2562
  19   2.0000      -0.242421        -6.5966
  20   0.0000      -0.065858        -1.7921
  21   0.0000      -0.013878        -0.3777
  22   0.0000       0.012703         0.3457
  23   0.0000       0.024058         0.6547
  24   0.0000       0.032588         0.8868

MULLIKEN ATOMIC CHARGES
-----------------------
   0 C :   -1.149646
   1 C :   -0.110384
   2 H :    0.225773
   3 H :    0.232718
   4 C :    0.534357
   5 F :   -0.207071
   6 O :   -0.487150
   7 H :    0.306810
   8 H :    0.352292
   9 H :    0.302303
Sum of atomic charges:    0.0000000

LOEWDIN ATOMIC CHARGES
----------------------
   0 C :   -0.078924
   1 C :   -0.155038
   2 H :    0.117893
   3 H :    0.103760
   4 C :   -0.510779
   5 F :    0.220017
   6 O :    0.096002
   7 H :    0.065985
   8 H :    0.071412
   9 H :    0.069671

  Mayer bond orders larger than 0.100000
B(  0-C ,  1-C ) :   0.5872 B(  0-C ,  7-H ) :   0.9373 B(  0-C ,  8-H ) :   0.9009
B(  0-C ,  9-H ) :   1.0086 B(  1-C ,  2-H ) :   0.9500 B(  1-C ,  3-H ) :   0.9735
B(  1-C ,  4-C ) :   0.9057 B(  4-C ,  5-F ) :   1.0087 B(  4-C ,  6-O ) :   1.7105

Dispersion correction           -0.012878436
FINAL SINGLE POINT ENERGY      -292.455436621604

DIPOLE MOMENT
-------------
                                X             Y             Z
Electronic contribution:      1.94757      -2.06088       8.14488
Nuclear contribution   :     -2.87511       2.61564      -8.50037
                        -----------------------------------------
Total Dipole Moment    :     -0.92754       0.55475      -0.35549
                        -----------------------------------------
Magnitude (a.u.)       :      1.13774
Magnitude (Debye)      :      2.89190

Rotational constants in cm-1:     0.297822     0.128965     0.102219
Rotational constants in MHz :  8928.481997  3866.271686  3064.463504

                             ****ORCA TERMINATED NORMALLY****
TOTAL RUN TIME: 0 days 0 hours 0 minutes 7 seconds 726 msec
