                         Program Version 5.0.0 -  RELEASE  -
|  1> !BLYP D3BJ RIJCOSX def2-TZVPD def2/J TightSCF
|  2> *xyz 0 1
|  3> C          3.91385       -1.65829        3.01513
|  4> C          5.03927       -0.90115        2.49282
|  5> C          6.21038       -1.41726        2.17824
|  6> N          6.53591       -2.67712        2.55608
|  7> N          7.07675       -0.70082        1.47891
|  8> H          7.95464       -1.12155        1.20755
|  9> H          6.75616        0.10664        0.96028
| 10> H          4.84217        0.01761        2.11519
| 11> H          5.99388       -3.12692        3.28278
| 12> C          3.13916       -2.37657        1.91061
| 13> H          3.26723       -0.93940        3.52069
| 14> H          4.24720       -2.35509        3.79006
| 15> H          7.49844       -2.97548        2.46878
| 16> H          2.82969       -1.66654        1.17238
| 17> H          2.27790       -2.85264        2.33072
| 18> H          3.76754       -3.11338        1.45548
| 19> *
| 20> %MaxCore 64000
| 21> %pal nprocs 8
| 22> end
| 23> %scf
| 24>   MaxIter 150
| 25> end
| 26>
| 27>
| 28>                          ****END OF INPUT****

CARTESIAN COORDINATES (ANGSTROEM)
---------------------------------
  C      3.913850   -1.658290    3.015130
  C      5.039270   -0.901150    2.492820
  C      6.210380   -1.417260    2.178240
  N      6.535910   -2.677120    2.556080
  N      7.076750   -0.700820    1.478910
  H      7.954640   -1.121550    1.207550
  H      6.756160    0.106640    0.960280
  H      4.842170    0.017610    2.115190
  H      5.993880   -3.126920    3.282780
  C      3.139160   -2.376570    1.910610
  H      3.267230   -0.939400    3.520690
  H      4.247200   -2.355090    3.790060
  H      7.498440   -2.975480    2.468780
  H      2.829690   -1.666540    1.172380
  H      2.277900   -2.852640    2.330720
  H      3.767540   -3.113380    1.455480

 Total Charge           Charge          ....    0
 Multiplicity           Mult            ....    1
 Number of Electrons    NEL             ....   48
 Basis Dimension        Dim             ....  312

ORBITAL ENERGIES
----------------

  NO   OCC          E(Eh)            E(eV)
   0   2.0000     -14.007199      -381.1553
   1   2.0000     -14.005638      -381.1128
   2   2.0000      -9.941702      -270.5275
   3   2.0000      -9.879420      -268.8327
   4   2.0000      -9.867377      -268.5050
   5   2.0000      -9.827932      -267.4316
   6   2.0000      -0.870865       -23.6975
   7   2.0000      -0.788157       -21.4468
   8   2.0000      -0.694217       -18.8906
   9   2.0000      -0.620579       -16.8868
  10   2.0000      -0.551244       -15.0001
  11   2.0000      -0.516387       -14.0516
  12   2.0000      -0.483955       -13.1691
  13   2.0000      -0.454685       -12.3726
  14   2.0000      -0.422811       -11.5053
  15   2.0000      -0.387054       -10.5323
  16   2.0000      -0.367070        -9.9885
  17   2.0000      -0.337960        -9.1964
  18   2.0000      -0.332908        -9.0589
  19   2.0000      -0.307618        -8.3707
  20   2.0000      -0.284014        -7.7284
  21   2.0000      -0.276509        -7.5242
  22   2.0000      -0.220845        -6.0095
  23   2.0000      -0.127825        -3.4783
  24   0.0000      -0.021589        -0.5875
  25   0.0000       0.005883         0.1601
  26   0.0000       0.011915         0.3242
  27   0.0000       0.025225         0.6864
  28   0.0000       0.038168         1.0386

MULLIKEN ATOMIC CHARGES
-----------------------
   0 C :   -0.418100
   1 C :   -0.337536
   2 C :    0.283178
   3 N :   -0.333459
   4 N :   -0.321734
   5 H :    0.117797
   6 H :    0.149890
   7 H :    0.304095
   8 H :    0.144784
   9 C :   -1.190678
  10 H :    0.210049
  11 H :    0.299730
  12 H :    0.114285
  13 H :    0.335149
  14 H :    0.315325
  15 H :    0.327227
Sum of atomic charges:   -0.0000000

LOEWDIN ATOMIC CHARGES
----------------------
   0 C :   -0.278310
   1 C :   -0.144054
   2 C :   -0.546939
   3 N :    0.139037
   4 N :    0.121911
   5 H :    0.090993
   6 H :    0.106168
   7 H :    0.066621
   8 H :    0.089281
   9 C :   -0.096032
  10 H :    0.098959
  11 H :    0.089633
  12 H :    0.088877
  13 H :    0.062442
  14 H :    0.053157
  15 H :    0.058257

  Mayer bond orders larger than 0.100000
B(  0-C ,  1-C ) :   0.6805 B(  0-C ,  2-C ) :   0.1429 B(  0-C ,  9-C ) :   0.5101
B(  0-C , 10-H ) :   1.1175 B(  0-C , 11-H ) :   0.9280 B(  1-C ,  2-C ) :   1.3562
B(  1-C ,  7-H ) :   0.9936 B(  2-C ,  3-N ) :   0.9841 B(  2-C ,  4-N ) :   1.0341
B(  2-C ,  7-H ) :  -0.1485 B(  3-N ,  8-H ) :   0.9715 B(  3-N , 12-H ) :   1.0615
B(  4-N ,  5-H ) :   1.0462 B(  4-N ,  6-H ) :   0.9985 B(  9-C , 13-H ) :   0.9704
B(  9-C , 14-H ) :   0.9488 B(  9-C , 15-H ) :   0.9527

Dispersion correction           -0.026214337
FINAL SINGLE POINT ENERGY      -267.915521436610

DIPOLE MOMENT
-------------
                                X             Y             Z
Electronic contribution:      4.60439       1.25106      -0.03157
Nuclear contribution   :     -3.74303      -1.46908      -0.23637
                        -----------------------------------------
Total Dipole Moment    :      0.86136      -0.21802      -0.26795
                        -----------------------------------------
Magnitude (a.u.)       :      0.92805
Magnitude (Debye)      :      2.35891

Rotational constants in cm-1:     0.225937     0.074877     0.065953
Rotational constants in MHz :  6773.424301  2244.750632  1977.214101

                             ****ORCA TERMINATED NORMALLY****
TOTAL RUN TIME: 0 days 0 hours 0 minutes 11 seconds 454 msec
