                         Program Version 5.0.0 -  RELEASE  -
|  1> !BLYP D3BJ RIJCOSX def2-TZVPD def2/J TightSCF
|  2> *xyz 0 1
|  3> C          4.08422        1.74208       -2.11472
|  4> C          4.26524        2.50052       -0.79589
|  5> H          4.86853        3.39267       -0.98113
|  6> H          3.30764        2.82457       -0.38781
|  7> C          4.98224        1.65026        0.24742
|  8> O          4.36806        1.38927        1.31371
|  9> F          6.12892        1.23351       -0.04562
| 10> H          3.57911        2.36849       -2.81997
| 11> H          3.50424        0.85965       -1.94198
| 12> H          5.04288        1.46841       -2.50327
| 13> *
| 14> %MaxCore 64000
| 15> %pal nprocs 8
| 16> end
| 17> %scf
| 18>   MaxIter 150
| 19> end
| 20>
| 21>
| 22>                          ****END OF INPUT****

CARTESIAN COORDINATES (ANGSTROEM)
---------------------------------
  C      4.084220    1.742080   -2.114720
  C      4.265240    2.500520   -0.795890
  H      4.868530    3.392670   -0.981130
  H      3.307640    2.824570   -0.387810
  C      4.982240    1.650260    0.247420
  O      4.368060    1.389270    1.313710
  F      6.128920    1.233510   -0.045620
  H      3.579110    2.368490   -2.819970
  H      3.504240    0.859650   -1.941980
  H      5.042880    1.468410   -2.503270

 Total Charge           Charge          ....    0
 Multiplicity           Mult            ....    1
 Number of Electrons    NEL             ....   40
 Basis Dimension        Dim             ....  236

ORBITAL ENERGIES
----------------

  NO   OCC          E(Eh)            E(eV)
   0   2.0000     -24.353979      -662.7055
   1   2.0000     -18.776399      -510.9318
   2   2.0000     -10.074060      -274.1291
   3   2.0000      -9.935248      -270.3518
   4   2.0000      -9.913675      -269.7648
   5   2.0000      -1.209751       -32.9190
   6   2.0000      -0.936502       -25.4835
   7   2.0000      -0.725726       -19.7480
   8   2.0000      -0.616050       -16.7636
   9   2.0000      -0.576256       -15.6807
  10   2.0000      -0.487315       -13.2605
  11   2.0000      -0.474701       -12.9173
  12   2.0000      -0.442117       -12.0306
  13   2.0000      -0.412681       -11.2296
  14   2.0000      -0.383327       -10.4309
  15   2.0000      -0.354662        -9.6508
  16   2.0000      -0.334827        -9.1111
  17   2.0000      -0.331104        -9.0098
  18   2.0000      -0.306712        -8.3461
  19   2.0000      -0.237626        -6.4661
  20   0.0000      -0.063292        -1.7223
  21   0.0000      -0.015848        -0.4313
  22   0.0000       0.012732         0.3465
  23   0.0000       0.023285         0.6336
  24   0.0000       0.032841         0.8937

MULLIKEN ATOMIC CHARGES
-----------------------
   0 C :   -1.177068
   1 C :   -0.077660
   2 H :    0.249678
   3 H :    0.199437
   4 C :    0.537579
   5 O :   -0.486990
   6 F :   -0.221172
   7 H :    0.300506
   8 H :    0.362744
   9 H :    0.312946
Sum of atomic charges:    0.0000000

LOEWDIN ATOMIC CHARGES
----------------------
   0 C :   -0.081622
   1 C :   -0.151066
   2 H :    0.114082
   3 H :    0.113447
   4 C :   -0.516773
   5 O :    0.092083
   6 F :    0.224639
   7 H :    0.066334
   8 H :    0.073010
   9 H :    0.065866

  Mayer bond orders larger than 0.100000
B(  0-C ,  1-C ) :   0.5340 B(  0-C ,  7-H ) :   0.9545 B(  0-C ,  8-H ) :   0.9204
B(  0-C ,  9-H ) :   0.9720 B(  1-C ,  2-H ) :   0.9306 B(  1-C ,  3-H ) :   1.0127
B(  1-C ,  4-C ) :   0.8992 B(  4-C ,  5-O ) :   1.7050 B(  4-C ,  6-F ) :   0.9951

Dispersion correction           -0.012793854
FINAL SINGLE POINT ENERGY      -292.454656858163

DIPOLE MOMENT
-------------
                                X             Y             Z
Electronic contribution:      4.84294      -2.30536       5.87688
Nuclear contribution   :     -4.79499       2.78546      -7.01827
                        -----------------------------------------
Total Dipole Moment    :      0.04794       0.48010      -1.14139
                        -----------------------------------------
Magnitude (a.u.)       :      1.23918
Magnitude (Debye)      :      3.14975

Rotational constants in cm-1:     0.286098     0.133492     0.103343
Rotational constants in MHz :  8577.003657  4001.981591  3098.148068

                             ****ORCA TERMINATED NORMALLY****
TOTAL RUN TIME: 0 days 0 hours 0 minutes 6 seconds 97 msec
