                         Program Version 5.0.0 -  RELEASE  -
|  1> !BLYP D3BJ RIJCOSX def2-TZVPD def2/J TightSCF
|  2> *xyz 0 1
|  3> C          3.91385       -1.65829        3.01513
|  4> N          5.03927       -0.90115        2.49282
|  5> C          6.21038       -1.41726        2.17824
|  6> C          6.53591       -2.67712        2.55608
|  7> N          7.07675       -0.70082        1.47891
|  8> H          7.95464       -1.12155        1.20755
|  9> H          6.75616        0.10664        0.96028
| 10> H          4.84217        0.01761        2.11519
| 11> H          5.99388       -3.12692        3.28278
| 12> C          3.13916       -2.37657        1.91061
| 13> H          3.26723       -0.93940        3.52069
| 14> H          4.24720       -2.35509        3.79006
| 15> H          7.49844       -2.97548        2.46878
| 16> H          2.82969       -1.66654        1.17238
| 17> H          2.27790       -2.85264        2.33072
| 18> H          3.76754       -3.11338        1.45548
| 19> *
| 20> %MaxCore 64000
| 21> %pal nprocs 8
| 22> end
| 23> %scf
| 24>   MaxIter 150
| 25> end
| 26>
| 27>
| 28>                          ****END OF INPUT****

CARTESIAN COORDINATES (ANGSTROEM)
---------------------------------
  C      3.913850   -1.658290    3.015130
  N      5.039270   -0.901150    2.492820
  C      6.210380   -1.417260    2.178240
  C      6.535910   -2.677120    2.556080
  N      7.076750   -0.700820    1.478910
  H      7.954640   -1.121550    1.207550
  H      6.756160    0.106640    0.960280
  H      4.842170    0.017610    2.115190
  H      5.993880   -3.126920    3.282780
  C      3.139160   -2.376570    1.910610
  H      3.267230   -0.939400    3.520690
  H      4.247200   -2.355090    3.790060
  H      7.498440   -2.975480    2.468780
  H      2.829690   -1.666540    1.172380
  H      2.277900   -2.852640    2.330720
  H      3.767540   -3.113380    1.455480

 Total Charge           Charge          ....    0
 Multiplicity           Mult            ....    1
 Number of Electrons    NEL             ....   48
 Basis Dimension        Dim             ....  312

ORBITAL ENERGIES
----------------

  NO   OCC          E(Eh)            E(eV)
   0   2.0000     -14.010693      -381.2503
   1   2.0000     -14.008014      -381.1774
   2   2.0000      -9.946681      -270.6630
   3   2.0000      -9.936996      -270.3994
   4   2.0000      -9.885260      -268.9916
   5   2.0000      -9.818026      -267.1621
   6   2.0000      -0.883191       -24.0328
   7   2.0000      -0.805846       -21.9282
   8   2.0000      -0.677911       -18.4469
   9   2.0000      -0.631529       -17.1848
  10   2.0000      -0.574889       -15.6435
  11   2.0000      -0.504771       -13.7355
  12   2.0000      -0.494213       -13.4482
  13   2.0000      -0.465672       -12.6716
  14   2.0000      -0.415062       -11.2944
  15   2.0000      -0.388996       -10.5851
  16   2.0000      -0.366756        -9.9799
  17   2.0000      -0.349418        -9.5081
  18   2.0000      -0.332798        -9.0559
  19   2.0000      -0.320397        -8.7184
  20   2.0000      -0.314473        -8.5572
  21   2.0000      -0.301569        -8.2061
  22   2.0000      -0.208328        -5.6689
  23   2.0000      -0.130634        -3.5547
  24   0.0000      -0.020643        -0.5617
  25   0.0000       0.003377         0.0919
  26   0.0000       0.013800         0.3755
  27   0.0000       0.018356         0.4995
  28   0.0000       0.041922         1.1407

MULLIKEN ATOMIC CHARGES
-----------------------
   0 C :   -0.293416
   1 N :   -0.201873
   2 C :    0.724925
   3 C :   -1.268070
   4 N :   -0.316733
   5 H :    0.139741
   6 H :    0.135366
   7 H :    0.136658
   8 H :    0.246620
   9 C :   -1.184433
  10 H :    0.285016
  11 H :    0.256028
  12 H :    0.335621
  13 H :    0.299756
  14 H :    0.357628
  15 H :    0.347165
Sum of atomic charges:    0.0000000

LOEWDIN ATOMIC CHARGES
----------------------
   0 C :   -0.234220
   1 N :    0.022445
   2 C :   -0.570251
   3 C :    0.012161
   4 N :    0.126843
   5 H :    0.105438
   6 H :    0.093976
   7 H :    0.134207
   8 H :   -0.008093
   9 C :   -0.075437
  10 H :    0.108035
  11 H :    0.103986
  12 H :    0.000599
  13 H :    0.060411
  14 H :    0.060362
  15 H :    0.059537

  Mayer bond orders larger than 0.100000
B(  0-C ,  1-N ) :   0.7979 B(  0-C ,  9-C ) :   0.5791 B(  0-C , 10-H ) :   0.8900
B(  0-C , 11-H ) :   0.9033 B(  1-N ,  2-C ) :   1.0354 B(  1-N ,  7-H ) :   1.0206
B(  2-C ,  3-C ) :   1.1256 B(  2-C ,  4-N ) :   0.9389 B(  3-C ,  8-H ) :   1.0455
B(  3-C , 12-H ) :   0.9896 B(  4-N ,  5-H ) :   1.0060 B(  4-N ,  6-H ) :   1.0277
B(  9-C , 13-H ) :   0.9718 B(  9-C , 14-H ) :   0.9158 B(  9-C , 15-H ) :   0.9762

Dispersion correction           -0.026098825
FINAL SINGLE POINT ENERGY      -267.907514589274

DIPOLE MOMENT
-------------
                                X             Y             Z
Electronic contribution:      3.06449       2.78510      -0.18974
Nuclear contribution   :     -3.42552      -1.84584      -0.22295
                        -----------------------------------------
Total Dipole Moment    :     -0.36104       0.93926      -0.41269
                        -----------------------------------------
Magnitude (a.u.)       :      1.08760
Magnitude (Debye)      :      2.76446

Rotational constants in cm-1:     0.233526     0.075277     0.067092
Rotational constants in MHz :  7000.931279  2256.752901  2011.361214

                             ****ORCA TERMINATED NORMALLY****
TOTAL RUN TIME: 0 days 0 hours 0 minutes 10 seconds 727 msec
