                         Program Version 5.0.0 -  RELEASE  -
|  1> !BLYP D3BJ RIJCOSX def2-TZVPD def2/J TightSCF
|  2> *xyz 0 1
|  3> C          3.91385       -1.65829        3.01513
|  4> N          5.03927       -0.90115        2.49282
|  5> C          6.21038       -1.41726        2.17824
|  6> N          6.53591       -2.67712        2.55608
|  7> C          7.07675       -0.70082        1.47891
|  8> H          7.95464       -1.12155        1.20755
|  9> H          6.75616        0.10664        0.96028
| 10> H          4.84217        0.01761        2.11519
| 11> H          5.99388       -3.12692        3.28278
| 12> C          3.13916       -2.37657        1.91061
| 13> H          3.26723       -0.93940        3.52069
| 14> H          4.24720       -2.35509        3.79006
| 15> H          7.49844       -2.97548        2.46878
| 16> H          2.82969       -1.66654        1.17238
| 17> H          2.27790       -2.85264        2.33072
| 18> H          3.76754       -3.11338        1.45548
| 19> *
| 20> %MaxCore 64000
| 21> %pal nprocs 8
| 22> end
| 23> %scf
| 24>   MaxIter 150
| 25> end
| 26>
| 27>
| 28>                          ****END OF INPUT****

CARTESIAN COORDINATES (ANGSTROEM)
---------------------------------
  C      3.913850   -1.658290    3.015130
  N      5.039270   -0.901150    2.492820
  C      6.210380   -1.417260    2.178240
  N      6.535910   -2.677120    2.556080
  C      7.076750   -0.700820    1.478910
  H      7.954640   -1.121550    1.207550
  H      6.756160    0.106640    0.960280
  H      4.842170    0.017610    2.115190
  H      5.993880   -3.126920    3.282780
  C      3.139160   -2.376570    1.910610
  H      3.267230   -0.939400    3.520690
  H      4.247200   -2.355090    3.790060
  H      7.498440   -2.975480    2.468780
  H      2.829690   -1.666540    1.172380
  H      2.277900   -2.852640    2.330720
  H      3.767540   -3.113380    1.455480

 Total Charge           Charge          ....    0
 Multiplicity           Mult            ....    1
 Number of Electrons    NEL             ....   48
 Basis Dimension        Dim             ....  312

ORBITAL ENERGIES
----------------

  NO   OCC          E(Eh)            E(eV)
   0   2.0000     -14.007126      -381.1533
   1   2.0000     -14.006005      -381.1228
   2   2.0000      -9.944808      -270.6120
   3   2.0000      -9.944083      -270.5923
   4   2.0000      -9.892551      -269.1900
   5   2.0000      -9.816062      -267.1086
   6   2.0000      -0.878594       -23.9077
   7   2.0000      -0.799280       -21.7495
   8   2.0000      -0.693843       -18.8804
   9   2.0000      -0.627948       -17.0873
  10   2.0000      -0.563261       -15.3271
  11   2.0000      -0.539095       -14.6695
  12   2.0000      -0.479191       -13.0395
  13   2.0000      -0.443225       -12.0608
  14   2.0000      -0.427017       -11.6197
  15   2.0000      -0.390255       -10.6194
  16   2.0000      -0.379123       -10.3165
  17   2.0000      -0.355468        -9.6728
  18   2.0000      -0.333584        -9.0773
  19   2.0000      -0.325163        -8.8481
  20   2.0000      -0.314306        -8.5527
  21   2.0000      -0.309966        -8.4346
  22   2.0000      -0.211335        -5.7507
  23   2.0000      -0.129009        -3.5105
  24   0.0000      -0.019679        -0.5355
  25   0.0000       0.004286         0.1166
  26   0.0000       0.010186         0.2772
  27   0.0000       0.015710         0.4275
  28   0.0000       0.042338         1.1521

MULLIKEN ATOMIC CHARGES
-----------------------
   0 C :   -0.359436
   1 N :   -0.159730
   2 C :    0.688511
   3 N :   -0.345173
   4 C :   -1.172303
   5 H :    0.282419
   6 H :    0.277292
   7 H :    0.127789
   8 H :    0.129341
   9 C :   -1.146288
  10 H :    0.280767
  11 H :    0.276974
  12 H :    0.132154
  13 H :    0.287127
  14 H :    0.362080
  15 H :    0.338474
Sum of atomic charges:    0.0000000

LOEWDIN ATOMIC CHARGES
----------------------
   0 C :   -0.238807
   1 N :    0.027105
   2 C :   -0.567446
   3 N :    0.134328
   4 C :    0.001209
   5 H :    0.001461
   6 H :    0.004160
   7 H :    0.143433
   8 H :    0.078526
   9 C :   -0.076538
  10 H :    0.108368
  11 H :    0.098823
  12 H :    0.102328
  13 H :    0.063671
  14 H :    0.058783
  15 H :    0.060596

  Mayer bond orders larger than 0.100000
B(  0-C ,  1-N ) :   0.8292 B(  0-C ,  9-C ) :   0.5973 B(  0-C , 10-H ) :   0.9401
B(  0-C , 11-H ) :   0.8995 B(  1-N ,  2-C ) :   1.0795 B(  1-N ,  4-C ) :   0.1203
B(  1-N ,  7-H ) :   0.9893 B(  2-C ,  3-N ) :   0.9424 B(  2-C ,  4-C ) :   1.1033
B(  2-C ,  5-H ) :  -0.1235 B(  3-N ,  8-H ) :   1.0071 B(  3-N , 12-H ) :   1.0150
B(  4-C ,  5-H ) :   1.1055 B(  4-C ,  6-H ) :   0.9697 B(  9-C , 13-H ) :   0.9928
B(  9-C , 14-H ) :   0.9362 B(  9-C , 15-H ) :   0.9570

Dispersion correction           -0.025919437
FINAL SINGLE POINT ENERGY      -267.907208060606

DIPOLE MOMENT
-------------
                                X             Y             Z
Electronic contribution:      2.53041       0.93144       0.95450
Nuclear contribution   :     -3.31079      -1.42658      -0.45147
                        -----------------------------------------
Total Dipole Moment    :     -0.78038      -0.49514       0.50303
                        -----------------------------------------
Magnitude (a.u.)       :      1.05223
Magnitude (Debye)      :      2.67457

Rotational constants in cm-1:     0.225507     0.077571     0.068070
Rotational constants in MHz :  6760.542142  2325.533779  2040.680522

                             ****ORCA TERMINATED NORMALLY****
TOTAL RUN TIME: 0 days 0 hours 0 minutes 11 seconds 29 msec
