                         Program Version 5.0.0 -  RELEASE  -
|  1> !BLYP D3BJ RIJCOSX def2-TZVPD def2/J TightSCF xyzfile
|  2>
|  3> *xyzfile 0 1 D1.xyz
|  4>
|  5> %MaxCore 64000
|  6>
|  7> %pal nprocs 4
|  8> end
|  9>
| 10> %scf
| 11>   MaxIter 150
| 12> end
| 13>
| 14>
| 15>                          ****END OF INPUT****

CARTESIAN COORDINATES (ANGSTROEM)
---------------------------------
  C      3.913853   -1.658291    3.015134
  C      5.039266   -0.901154    2.492821
  C      4.084215    1.742081   -2.114724
  C      4.265245    2.500518   -0.795890
  H      4.868534    3.392674   -0.981134
  H      3.307640    2.824571   -0.387809
  C      4.982240    1.650257    0.247422
  C      6.210384   -1.417261    2.178244
  N      6.535913   -2.677122    2.556078
  N      7.076754   -0.700820    1.478906
  H      7.954643   -1.121554    1.207554
  H      6.756161    0.106637    0.960278
  H      4.842168    0.017609    2.115191
  H      5.993876   -3.126918    3.282784
  H      7.498441   -2.975482    2.468776
  F      4.368065    1.389270    1.313706
  O      6.128919    1.233512   -0.045620
  C      3.139159   -2.376572    1.910609
  H      3.267235   -0.939401    3.520693
  H      4.247195   -2.355095    3.790065
  C      1.997274    0.430918   -1.399218
  C      3.412746    0.376886   -1.965497
  H      4.047407   -0.246590   -1.326706
  H      3.390774   -0.118719   -2.942839
  H      5.068475    1.598504   -2.565728
  H      3.503356    2.363939   -2.804565
  C      2.399946   -1.389579    1.009490
  H      2.440750   -3.087118    2.362976
  H      3.844475   -2.970462    1.318677
  C      2.070177   -1.936705   -0.372401
  H      1.481611   -1.061542    1.509912
  H      3.008628   -0.490001    0.897451
  C      1.322238   -0.935775   -1.256413
  H      1.472747   -2.850902   -0.283997
  H      3.003539   -2.234041   -0.862535
  H      1.376444    1.058920   -2.047420
  H      2.015341    0.929780   -0.426535
  H      0.316648   -0.787213   -0.848278
  H      1.185611   -1.379252   -2.248613

 Total Charge           Charge          ....    0
 Multiplicity           Mult            ....    1
 Number of Electrons    NEL             ....  126
 Basis Dimension        Dim             ....  805

ORBITAL ENERGIES
----------------

  NO   OCC          E(Eh)            E(eV)
   0   2.0000     -24.365570      -663.0209
   1   2.0000     -18.798230      -511.5258
   2   2.0000     -13.991242      -380.7211
   3   2.0000     -13.967258      -380.0684
   4   2.0000     -10.093882      -274.6685
   5   2.0000      -9.940728      -270.5010
   6   2.0000      -9.923059      -270.0202
   7   2.0000      -9.921827      -269.9866
   8   2.0000      -9.906383      -269.5664
   9   2.0000      -9.901208      -269.4256
  10   2.0000      -9.895226      -269.2628
  11   2.0000      -9.887789      -269.0604
  12   2.0000      -9.881376      -268.8859
  13   2.0000      -9.873381      -268.6684
  14   2.0000      -9.868795      -268.5436
  15   2.0000      -9.804603      -266.7968
  16   2.0000      -1.225371       -33.3440
  17   2.0000      -0.966336       -26.2953
  18   2.0000      -0.848635       -23.0925
  19   2.0000      -0.765284       -20.8244
  20   2.0000      -0.749648       -20.3990
  21   2.0000      -0.721879       -19.6433
  22   2.0000      -0.695269       -18.9192
  23   2.0000      -0.669051       -18.2058
  24   2.0000      -0.634361       -17.2618
  25   2.0000      -0.615937       -16.7605
  26   2.0000      -0.591467       -16.0946
  27   2.0000      -0.567427       -15.4405
  28   2.0000      -0.538507       -14.6535
  29   2.0000      -0.523388       -14.2421
  30   2.0000      -0.503783       -13.7086
  31   2.0000      -0.497969       -13.5504
  32   2.0000      -0.490066       -13.3354
  33   2.0000      -0.489549       -13.3213
  34   2.0000      -0.466771       -12.7015
  35   2.0000      -0.459064       -12.4918
  36   2.0000      -0.433377       -11.7928
  37   2.0000      -0.425551       -11.5798
  38   2.0000      -0.423139       -11.5142
  39   2.0000      -0.406425       -11.0594
  40   2.0000      -0.395171       -10.7532
  41   2.0000      -0.385088       -10.4788
  42   2.0000      -0.376255       -10.2384
  43   2.0000      -0.367918       -10.0116
  44   2.0000      -0.362794        -9.8721
  45   2.0000      -0.358630        -9.7588
  46   2.0000      -0.343825        -9.3560
  47   2.0000      -0.339301        -9.2328
  48   2.0000      -0.323711        -8.8086
  49   2.0000      -0.319729        -8.7003
  50   2.0000      -0.314805        -8.5663
  51   2.0000      -0.312236        -8.4964
  52   2.0000      -0.303971        -8.2715
  53   2.0000      -0.293978        -7.9995
  54   2.0000      -0.292112        -7.9488
  55   2.0000      -0.277535        -7.5521
  56   2.0000      -0.269859        -7.3432
  57   2.0000      -0.263231        -7.1629
  58   2.0000      -0.260027        -7.0757
  59   2.0000      -0.257447        -7.0055
  60   2.0000      -0.250166        -6.8074
  61   2.0000      -0.198789        -5.4093
  62   2.0000      -0.111116        -3.0236
  63   0.0000      -0.083708        -2.2778
  64   0.0000      -0.015323        -0.4170
  65   0.0000      -0.006572        -0.1788
  66   0.0000      -0.000147        -0.0040
  67   0.0000       0.002371         0.0645

MULLIKEN ATOMIC CHARGES
-----------------------
   0 C :   -0.671811
   1 C :   -0.862412
   2 C :   -0.613563
   3 C :   -0.489989
   4 H :    0.286212
   5 H :    0.299112
   6 C :    0.769941
   7 C :   -0.144736
   8 N :   -0.323356
   9 N :   -0.317654
  10 H :    0.097909
  11 H :    0.251861
  12 H :    0.932791
  13 H :    0.153309
  14 H :    0.095207
  15 F :   -0.268920
  16 O :   -0.679014
  17 C :   -0.525371
  18 H :    0.225165
  19 H :    0.405353
  20 C :   -0.369812
  21 C :   -0.446759
  22 H :    0.240825
  23 H :    0.285732
  24 H :    0.230008
  25 H :    0.287400
  26 C :    0.289245
  27 H :    0.259833
  28 H :    0.261422
  29 C :   -0.483334
  30 H :    0.228981
  31 H :   -0.259375
  32 C :   -0.727523
  33 H :    0.236055
  34 H :    0.291492
  35 H :    0.254725
  36 H :    0.268394
  37 H :    0.261466
  38 H :    0.271189
Sum of atomic charges:    0.0000000

LOEWDIN ATOMIC CHARGES
----------------------
   0 C :   -0.221768
   1 C :   -0.131201
   2 C :   -0.184797
   3 C :   -0.092517
   4 H :    0.125326
   5 H :    0.109919
   6 C :   -0.451198
   7 C :   -0.525306
   8 N :    0.139176
   9 N :    0.136348
  10 H :    0.092568
  11 H :    0.024884
  12 H :    0.030681
  13 H :    0.085737
  14 H :    0.086677
  15 F :    0.204745
  16 O :    0.106839
  17 C :   -0.196126
  18 H :    0.106324
  19 H :    0.091500
  20 C :   -0.211309
  21 C :   -0.200106
  22 H :    0.105860
  23 H :    0.119697
  24 H :    0.111486
  25 H :    0.114141
  26 C :   -0.212087
  27 H :    0.103263
  28 H :    0.108785
  29 C :   -0.211209
  30 H :    0.121325
  31 H :    0.079254
  32 C :   -0.204782
  33 H :    0.111001
  34 H :    0.106122
  35 H :    0.113173
  36 H :    0.096057
  37 H :    0.106335
  38 H :    0.105184

  Mayer bond orders larger than 0.100000
B(  0-C ,  1-C ) :   0.4591 B(  0-C , 12-H ) :  -0.1966 B(  0-C , 17-C ) :   0.6573
B(  0-C , 18-H ) :   1.0994 B(  0-C , 19-H ) :   0.9378 B(  0-C , 26-C ) :   0.1855
B(  1-C ,  7-C ) :   1.4677 B(  1-C ,  8-N ) :  -0.1385 B(  1-C , 12-H ) :  -0.2003
B(  1-C , 13-H ) :  -0.1082 B(  1-C , 17-C ) :  -0.1209 B(  1-C , 18-H ) :  -0.1059
B(  1-C , 19-H ) :  -0.2289 B(  1-C , 26-C ) :   0.2017 B(  2-C ,  3-C ) :   0.7848
B(  2-C , 20-C ) :   0.1330 B(  2-C , 21-C ) :   0.9036 B(  2-C , 24-H ) :   0.9588
B(  2-C , 25-H ) :   0.9212 B(  3-C ,  4-H ) :   0.8821 B(  3-C ,  5-H ) :   0.9869
B(  3-C ,  6-C ) :   0.9105 B(  3-C , 20-C ) :   0.1520 B(  3-C , 21-C ) :  -0.1120
B(  6-C , 15-F ) :   0.9535 B(  6-C , 16-O ) :   1.4002 B(  7-C ,  8-N ) :   1.0547
B(  7-C ,  9-N ) :   1.1271 B(  7-C , 13-H ) :   0.1180 B(  8-N , 13-H ) :   0.9691
B(  8-N , 14-H ) :   1.0682 B(  8-N , 17-C ) :   0.1009 B(  9-N , 10-H ) :   1.0395
B(  9-N , 11-H ) :   0.8193 B( 12-H , 15-F ) :  -0.3300 B( 17-C , 26-C ) :   0.4523
B( 17-C , 27-H ) :   0.9982 B( 17-C , 28-H ) :   0.9082 B( 17-C , 29-C ) :   0.4356
B( 17-C , 30-H ) :  -0.1372 B( 17-C , 31-H ) :  -0.1188 B( 20-C , 21-C ) :   0.1319
B( 20-C , 22-H ) :  -0.1486 B( 20-C , 26-C ) :   0.1086 B( 20-C , 29-C ) :  -0.1228
B( 20-C , 32-C ) :   0.8828 B( 20-C , 35-H ) :   0.9310 B( 20-C , 36-H ) :   1.0169
B( 21-C , 22-H ) :   1.0418 B( 21-C , 23-H ) :   0.8894 B( 21-C , 29-C ) :   0.1168
B( 21-C , 32-C ) :   0.1235 B( 21-C , 35-H ) :  -0.1006 B( 21-C , 36-H ) :  -0.1504
B( 26-C , 29-C ) :   0.3654 B( 26-C , 30-H ) :   0.8201 B( 26-C , 31-H ) :   1.5916
B( 28-H , 29-C ) :   0.1091 B( 29-C , 31-H ) :  -0.2703 B( 29-C , 32-C ) :   0.8479
B( 29-C , 33-H ) :   0.9626 B( 29-C , 34-H ) :   0.9327 B( 30-H , 31-H ) :   0.1253
B( 32-C , 37-H ) :   0.9531 B( 32-C , 38-H ) :   0.9561

Dispersion correction           -0.088544155
FINAL SINGLE POINT ENERGY      -755.696864193044

DIPOLE MOMENT
-------------
                                X             Y             Z
Electronic contribution:     11.33339       8.97621       5.92082
Nuclear contribution   :    -11.48003      -8.36271      -6.78621
                        -----------------------------------------
Total Dipole Moment    :     -0.14664       0.61349      -0.86540
                        -----------------------------------------
Magnitude (a.u.)       :      1.07088
Magnitude (Debye)      :      2.72196

Rotational constants in cm-1:     0.020055     0.013548     0.009477
Rotational constants in MHz :   601.234832   406.162779   284.104317

                             ****ORCA TERMINATED NORMALLY****
TOTAL RUN TIME: 0 days 0 hours 4 minutes 7 seconds 599 msec
