                         Program Version 5.0.0 -  RELEASE  -
|  1> !BLYP D3BJ RIJCOSX def2-TZVPD def2/J TightSCF xyzfile
|  2>
|  3> *xyzfile 0 1 D2.xyz
|  4>
|  5> %MaxCore 64000
|  6>
|  7> %pal nprocs 4
|  8> end
|  9>
| 10> %scf
| 11>   MaxIter 150
| 12> end
| 13>
| 14>
| 15>                          ****END OF INPUT****

CARTESIAN COORDINATES (ANGSTROEM)
---------------------------------
  C      3.913853   -1.658291    3.015134
  N      5.039266   -0.901154    2.492821
  C      4.084215    1.742081   -2.114724
  C      4.265245    2.500518   -0.795890
  H      4.868534    3.392674   -0.981134
  H      3.307640    2.824571   -0.387809
  C      4.982240    1.650257    0.247422
  C      6.210384   -1.417261    2.178244
  C      6.535913   -2.677122    2.556078
  N      7.076754   -0.700820    1.478906
  H      7.954643   -1.121554    1.207554
  H      6.756161    0.106637    0.960278
  H      4.842168    0.017609    2.115191
  H      5.993876   -3.126918    3.282784
  H      7.498441   -2.975482    2.468776
  F      4.368065    1.389270    1.313706
  O      6.128919    1.233512   -0.045620
  C      3.139159   -2.376572    1.910609
  H      3.267235   -0.939401    3.520693
  H      4.247195   -2.355095    3.790065
  C      1.997274    0.430918   -1.399218
  C      3.412746    0.376886   -1.965497
  H      4.047407   -0.246590   -1.326706
  H      3.390774   -0.118719   -2.942839
  H      5.068475    1.598504   -2.565728
  H      3.503356    2.363939   -2.804565
  C      2.399946   -1.389579    1.009490
  H      2.440750   -3.087118    2.362976
  H      3.844475   -2.970462    1.318677
  C      2.070177   -1.936705   -0.372401
  H      1.481611   -1.061542    1.509912
  H      3.008628   -0.490001    0.897451
  C      1.322238   -0.935775   -1.256413
  H      1.472747   -2.850902   -0.283997
  H      3.003539   -2.234041   -0.862535
  H      1.376444    1.058920   -2.047420
  H      2.015341    0.929780   -0.426535
  H      0.316648   -0.787213   -0.848278
  H      1.185611   -1.379252   -2.248613

 Total Charge           Charge          ....    0
 Multiplicity           Mult            ....    1
 Number of Electrons    NEL             ....  126
 Basis Dimension        Dim             ....  805

ORBITAL ENERGIES
----------------

  NO   OCC          E(Eh)            E(eV)
   0   2.0000     -24.387417      -663.6154
   1   2.0000     -18.806490      -511.7506
   2   2.0000     -13.989838      -380.6828
   3   2.0000     -13.970448      -380.1552
   4   2.0000     -10.099186      -274.8128
   5   2.0000      -9.947908      -270.6963
   6   2.0000      -9.928596      -270.1708
   7   2.0000      -9.927791      -270.1489
   8   2.0000      -9.925695      -270.0919
   9   2.0000      -9.913575      -269.7621
  10   2.0000      -9.909172      -269.6423
  11   2.0000      -9.903637      -269.4917
  12   2.0000      -9.898340      -269.3475
  13   2.0000      -9.897033      -269.3120
  14   2.0000      -9.890020      -269.1211
  15   2.0000      -9.804754      -266.8009
  16   2.0000      -1.245295       -33.8862
  17   2.0000      -0.974544       -26.5187
  18   2.0000      -0.863653       -23.5012
  19   2.0000      -0.783910       -21.3313
  20   2.0000      -0.757159       -20.6033
  21   2.0000      -0.729545       -19.8519
  22   2.0000      -0.698129       -18.9971
  23   2.0000      -0.667002       -18.1501
  24   2.0000      -0.640848       -17.4384
  25   2.0000      -0.621340       -16.9075
  26   2.0000      -0.608142       -16.5484
  27   2.0000      -0.585711       -15.9380
  28   2.0000      -0.552343       -15.0300
  29   2.0000      -0.534313       -14.5394
  30   2.0000      -0.519962       -14.1489
  31   2.0000      -0.508976       -13.8499
  32   2.0000      -0.504028       -13.7153
  33   2.0000      -0.488742       -13.2993
  34   2.0000      -0.476426       -12.9642
  35   2.0000      -0.456547       -12.4233
  36   2.0000      -0.442227       -12.0336
  37   2.0000      -0.432067       -11.7572
  38   2.0000      -0.431852       -11.7513
  39   2.0000      -0.413964       -11.2645
  40   2.0000      -0.399818       -10.8796
  41   2.0000      -0.396191       -10.7809
  42   2.0000      -0.380686       -10.3590
  43   2.0000      -0.377096       -10.2613
  44   2.0000      -0.369449       -10.0532
  45   2.0000      -0.359407        -9.7800
  46   2.0000      -0.353348        -9.6151
  47   2.0000      -0.345212        -9.3937
  48   2.0000      -0.331486        -9.0202
  49   2.0000      -0.329375        -8.9627
  50   2.0000      -0.323993        -8.8163
  51   2.0000      -0.317544        -8.6408
  52   2.0000      -0.314276        -8.5519
  53   2.0000      -0.307490        -8.3672
  54   2.0000      -0.298795        -8.1306
  55   2.0000      -0.293594        -7.9891
  56   2.0000      -0.287365        -7.8196
  57   2.0000      -0.277566        -7.5530
  58   2.0000      -0.276106        -7.5132
  59   2.0000      -0.271224        -7.3804
  60   2.0000      -0.263185        -7.1616
  61   2.0000      -0.187475        -5.1015
  62   2.0000      -0.116140        -3.1603
  63   0.0000      -0.092298        -2.5116
  64   0.0000      -0.022318        -0.6073
  65   0.0000      -0.006642        -0.1807
  66   0.0000      -0.004488        -0.1221
  67   0.0000       0.000495         0.0135

MULLIKEN ATOMIC CHARGES
-----------------------
   0 C :   -0.948104
   1 N :   -0.402684
   2 C :   -0.622078
   3 C :   -0.495607
   4 H :    0.289568
   5 H :    0.299435
   6 C :    0.746600
   7 C :    0.696790
   8 C :   -1.358793
   9 N :   -0.364939
  10 H :    0.109311
  11 H :    0.311184
  12 H :    0.562849
  13 H :    0.275541
  14 H :    0.366842
  15 F :   -0.388591
  16 O :   -0.686962
  17 C :   -0.481895
  18 H :    0.320921
  19 H :    0.308566
  20 C :   -0.359041
  21 C :   -0.423671
  22 H :    0.220960
  23 H :    0.287852
  24 H :    0.234521
  25 H :    0.284987
  26 C :    0.195882
  27 H :    0.306617
  28 H :    0.316333
  29 C :   -0.476581
  30 H :    0.267882
  31 H :   -0.252661
  32 C :   -0.722077
  33 H :    0.251864
  34 H :    0.274136
  35 H :    0.258311
  36 H :    0.258285
  37 H :    0.273262
  38 H :    0.265185
Sum of atomic charges:    0.0000000

LOEWDIN ATOMIC CHARGES
----------------------
   0 C :   -0.182032
   1 N :    0.045758
   2 C :   -0.183756
   3 C :   -0.094197
   4 H :    0.125502
   5 H :    0.109551
   6 C :   -0.463105
   7 C :   -0.550187
   8 C :    0.014824
   9 N :    0.146140
  10 H :    0.107674
  11 H :    0.018732
  12 H :    0.084162
  13 H :   -0.011118
  14 H :   -0.000436
  15 F :    0.203773
  16 O :    0.104525
  17 C :   -0.176118
  18 H :    0.115785
  19 H :    0.105875
  20 C :   -0.211281
  21 C :   -0.199585
  22 H :    0.105368
  23 H :    0.120782
  24 H :    0.112460
  25 H :    0.114858
  26 C :   -0.214157
  27 H :    0.111029
  28 H :    0.109430
  29 C :   -0.208910
  30 H :    0.121064
  31 H :    0.076280
  32 C :   -0.203198
  33 H :    0.113051
  34 H :    0.108446
  35 H :    0.114193
  36 H :    0.095070
  37 H :    0.106987
  38 H :    0.106760

  Mayer bond orders larger than 0.100000
B(  0-C ,  1-N ) :   1.0224 B(  0-C , 17-C ) :   0.6939 B(  0-C , 18-H ) :   0.7993
B(  0-C , 19-H ) :   0.8617 B(  0-C , 26-C ) :   0.1762 B(  1-N ,  7-C ) :   1.0347
B(  1-N ,  8-C ) :   0.1357 B(  1-N , 12-H ) :   0.5498 B(  2-C ,  3-C ) :   0.7876
B(  2-C , 20-C ) :   0.1369 B(  2-C , 21-C ) :   0.9149 B(  2-C , 24-H ) :   0.9520
B(  2-C , 25-H ) :   0.9197 B(  3-C ,  4-H ) :   0.8924 B(  3-C ,  5-H ) :   0.9814
B(  3-C ,  6-C ) :   0.9068 B(  3-C , 20-C ) :   0.1485 B(  3-C , 21-C ) :  -0.1068
B(  6-C , 15-F ) :   0.8684 B(  6-C , 16-O ) :   1.3937 B(  7-C ,  8-C ) :   0.9242
B(  7-C ,  9-N ) :   0.9370 B(  8-C ,  9-N ) :   0.1039 B(  8-C , 13-H ) :   1.0918
B(  8-C , 14-H ) :   0.9835 B(  9-N , 10-H ) :   1.0245 B(  9-N , 11-H ) :   0.7858
B( 12-H , 15-F ) :  -0.1107 B( 17-C , 26-C ) :   0.4401 B( 17-C , 27-H ) :   0.9748
B( 17-C , 28-H ) :   0.8709 B( 17-C , 29-C ) :   0.4315 B( 17-C , 30-H ) :  -0.1241
B( 17-C , 31-H ) :  -0.1486 B( 20-C , 21-C ) :   0.1244 B( 20-C , 22-H ) :  -0.1605
B( 20-C , 29-C ) :  -0.1179 B( 20-C , 32-C ) :   0.8973 B( 20-C , 35-H ) :   0.9322
B( 20-C , 36-H ) :   1.0178 B( 21-C , 22-H ) :   1.0669 B( 21-C , 23-H ) :   0.8869
B( 21-C , 29-C ) :   0.1133 B( 21-C , 32-C ) :   0.1290 B( 21-C , 36-H ) :  -0.1557
B( 26-C , 29-C ) :   0.3664 B( 26-C , 30-H ) :   0.8080 B( 26-C , 31-H ) :   1.6941
B( 26-C , 34-H ) :  -0.1111 B( 29-C , 31-H ) :  -0.2676 B( 29-C , 32-C ) :   0.8709
B( 29-C , 33-H ) :   0.9352 B( 29-C , 34-H ) :   0.9569 B( 30-H , 31-H ) :   0.1083
B( 32-C , 37-H ) :   0.9417 B( 32-C , 38-H ) :   0.9587

Dispersion correction           -0.088026010
FINAL SINGLE POINT ENERGY      -755.694905410794

DIPOLE MOMENT
-------------
                                X             Y             Z
Electronic contribution:      9.87132      10.31156       5.68784
Nuclear contribution   :    -11.22009      -8.67117      -6.77523
                        -----------------------------------------
Total Dipole Moment    :     -1.34877       1.64040      -1.08738
                        -----------------------------------------
Magnitude (a.u.)       :      2.38590
Magnitude (Debye)      :      6.06447

Rotational constants in cm-1:     0.020086     0.013778     0.009581
Rotational constants in MHz :   602.172053   413.051122   287.243919

                             ****ORCA TERMINATED NORMALLY****
TOTAL RUN TIME: 0 days 0 hours 2 minutes 34 seconds 457 msec
