                         Program Version 5.0.0 -  RELEASE  -
|  1> !BLYP D3BJ RIJCOSX def2-TZVPD def2/J TightSCF xyzfile
|  2>
|  3> *xyzfile 0 1 D3.xyz
|  4>
|  5> %MaxCore 64000
|  6>
|  7> %pal nprocs 4
|  8> end
|  9>
| 10> %scf
| 11>   MaxIter 150
| 12> end
| 13>
| 14>
| 15>                          ****END OF INPUT****

CARTESIAN COORDINATES (ANGSTROEM)
---------------------------------
  C      3.913853   -1.658291    3.015134
  N      5.039266   -0.901154    2.492821
  C      4.084215    1.742081   -2.114724
  C      4.265245    2.500518   -0.795890
  H      4.868534    3.392674   -0.981134
  H      3.307640    2.824571   -0.387809
  C      4.982240    1.650257    0.247422
  C      6.210384   -1.417261    2.178244
  N      6.535913   -2.677122    2.556078
  C      7.076754   -0.700820    1.478906
  H      7.954643   -1.121554    1.207554
  H      6.756161    0.106637    0.960278
  H      4.842168    0.017609    2.115191
  H      5.993876   -3.126918    3.282784
  H      7.498441   -2.975482    2.468776
  F      4.368065    1.389270    1.313706
  O      6.128919    1.233512   -0.045620
  C      3.139159   -2.376572    1.910609
  H      3.267235   -0.939401    3.520693
  H      4.247195   -2.355095    3.790065
  C      1.997274    0.430918   -1.399218
  C      3.412746    0.376886   -1.965497
  H      4.047407   -0.246590   -1.326706
  H      3.390774   -0.118719   -2.942839
  H      5.068475    1.598504   -2.565728
  H      3.503356    2.363939   -2.804565
  C      2.399946   -1.389579    1.009490
  H      2.440750   -3.087118    2.362976
  H      3.844475   -2.970462    1.318677
  C      2.070177   -1.936705   -0.372401
  H      1.481611   -1.061542    1.509912
  H      3.008628   -0.490001    0.897451
  C      1.322238   -0.935775   -1.256413
  H      1.472747   -2.850902   -0.283997
  H      3.003539   -2.234041   -0.862535
  H      1.376444    1.058920   -2.047420
  H      2.015341    0.929780   -0.426535
  H      0.316648   -0.787213   -0.848278
  H      1.185611   -1.379252   -2.248613

 Total Charge           Charge          ....    0
 Multiplicity           Mult            ....    1
 Number of Electrons    NEL             ....  126
 Basis Dimension        Dim             ....  805

ORBITAL ENERGIES
----------------

  NO   OCC          E(Eh)            E(eV)
   0   2.0000     -24.372214      -663.2017
   1   2.0000     -18.781524      -511.0713
   2   2.0000     -13.990276      -380.6948
   3   2.0000     -13.985838      -380.5740
   4   2.0000     -10.081077      -274.3200
   5   2.0000      -9.936162      -270.3767
   6   2.0000      -9.932423      -270.2750
   7   2.0000      -9.924219      -270.0517
   8   2.0000      -9.918734      -269.9025
   9   2.0000      -9.906702      -269.5751
  10   2.0000      -9.904756      -269.5221
  11   2.0000      -9.901717      -269.4394
  12   2.0000      -9.898690      -269.3570
  13   2.0000      -9.898362      -269.3481
  14   2.0000      -9.895671      -269.2749
  15   2.0000      -9.784200      -266.2416
  16   2.0000      -1.230607       -33.4865
  17   2.0000      -0.951070       -25.8799
  18   2.0000      -0.862433       -23.4680
  19   2.0000      -0.784928       -21.3590
  20   2.0000      -0.749522       -20.3955
  21   2.0000      -0.726397       -19.7663
  22   2.0000      -0.699542       -19.0355
  23   2.0000      -0.664978       -18.0950
  24   2.0000      -0.641166       -17.4470
  25   2.0000      -0.618529       -16.8310
  26   2.0000      -0.595863       -16.2143
  27   2.0000      -0.575419       -15.6580
  28   2.0000      -0.542876       -14.7724
  29   2.0000      -0.536302       -14.5935
  30   2.0000      -0.519284       -14.1304
  31   2.0000      -0.504461       -13.7271
  32   2.0000      -0.498531       -13.5657
  33   2.0000      -0.480956       -13.0875
  34   2.0000      -0.469968       -12.7885
  35   2.0000      -0.452578       -12.3153
  36   2.0000      -0.434912       -11.8346
  37   2.0000      -0.427064       -11.6210
  38   2.0000      -0.420145       -11.4327
  39   2.0000      -0.407948       -11.1008
  40   2.0000      -0.407140       -11.0788
  41   2.0000      -0.390844       -10.6354
  42   2.0000      -0.380055       -10.3418
  43   2.0000      -0.377807       -10.2807
  44   2.0000      -0.366028        -9.9601
  45   2.0000      -0.352794        -9.6000
  46   2.0000      -0.346843        -9.4381
  47   2.0000      -0.341265        -9.2863
  48   2.0000      -0.326989        -8.8978
  49   2.0000      -0.322333        -8.7711
  50   2.0000      -0.318009        -8.6535
  51   2.0000      -0.317876        -8.6498
  52   2.0000      -0.309323        -8.4171
  53   2.0000      -0.302964        -8.2441
  54   2.0000      -0.298015        -8.1094
  55   2.0000      -0.293542        -7.9877
  56   2.0000      -0.287277        -7.8172
  57   2.0000      -0.277059        -7.5392
  58   2.0000      -0.274605        -7.4724
  59   2.0000      -0.271408        -7.3854
  60   2.0000      -0.221563        -6.0290
  61   2.0000      -0.196715        -5.3529
  62   2.0000      -0.109829        -2.9886
  63   0.0000      -0.075001        -2.0409
  64   0.0000      -0.015964        -0.4344
  65   0.0000      -0.007643        -0.2080
  66   0.0000      -0.003605        -0.0981
  67   0.0000       0.000392         0.0107

MULLIKEN ATOMIC CHARGES
-----------------------
   0 C :   -1.018629
   1 N :   -0.279712
   2 C :   -0.612275
   3 C :   -0.522458
   4 H :    0.288454
   5 H :    0.294930
   6 C :    0.724692
   7 C :    0.821394
   8 N :   -0.355870
   9 C :   -1.751458
  10 H :    0.202451
  11 H :    0.742100
  12 H :    0.487234
  13 H :    0.119068
  14 H :    0.149782
  15 F :   -0.387119
  16 O :   -0.590530
  17 C :   -0.398763
  18 H :    0.312382
  19 H :    0.325407
  20 C :   -0.360962
  21 C :   -0.456417
  22 H :    0.259328
  23 H :    0.279532
  24 H :    0.228793
  25 H :    0.283516
  26 C :    0.236710
  27 H :    0.325488
  28 H :    0.286297
  29 C :   -0.507330
  30 H :    0.287479
  31 H :   -0.301799
  32 C :   -0.714500
  33 H :    0.244458
  34 H :    0.300066
  35 H :    0.258031
  36 H :    0.258285
  37 H :    0.271602
  38 H :    0.270345
Sum of atomic charges:    0.0000000

LOEWDIN ATOMIC CHARGES
----------------------
   0 C :   -0.187092
   1 N :    0.045845
   2 C :   -0.184470
   3 C :   -0.097092
   4 H :    0.124348
   5 H :    0.106884
   6 C :   -0.462847
   7 C :   -0.542676
   8 N :    0.132142
   9 C :    0.021754
  10 H :    0.010383
  11 H :   -0.049699
  12 H :    0.089653
  13 H :    0.074834
  14 H :    0.099800
  15 F :    0.201505
  16 O :    0.102897
  17 C :   -0.181315
  18 H :    0.115953
  19 H :    0.100900
  20 C :   -0.211458
  21 C :   -0.199517
  22 H :    0.106227
  23 H :    0.119895
  24 H :    0.112660
  25 H :    0.113457
  26 C :   -0.212362
  27 H :    0.108314
  28 H :    0.110750
  29 C :   -0.209545
  30 H :    0.121907
  31 H :    0.078587
  32 C :   -0.203439
  33 H :    0.112053
  34 H :    0.108481
  35 H :    0.113907
  36 H :    0.095179
  37 H :    0.106538
  38 H :    0.106659

  Mayer bond orders larger than 0.100000
B(  0-C ,  1-N ) :   1.0156 B(  0-C ,  7-C ) :  -0.1568 B(  0-C , 17-C ) :   0.6089
B(  0-C , 18-H ) :   0.8665 B(  0-C , 19-H ) :   0.8747 B(  0-C , 26-C ) :   0.1437
B(  0-C , 27-H ) :  -0.1247 B(  0-C , 31-H ) :   0.1130 B(  1-N ,  7-C ) :   1.1540
B(  1-N ,  9-C ) :   0.1106 B(  1-N , 12-H ) :   0.6242 B(  2-C ,  3-C ) :   0.7936
B(  2-C , 20-C ) :   0.1397 B(  2-C , 21-C ) :   0.9258 B(  2-C , 24-H ) :   0.9507
B(  2-C , 25-H ) :   0.9226 B(  3-C ,  4-H ) :   0.8895 B(  3-C ,  5-H ) :   0.9819
B(  3-C ,  6-C ) :   0.9072 B(  3-C , 20-C ) :   0.1478 B(  3-C , 21-C ) :  -0.1039
B(  6-C , 15-F ) :   0.8477 B(  6-C , 16-O ) :   1.4882 B(  7-C ,  8-N ) :   0.9098
B(  7-C ,  9-C ) :   0.8346 B(  7-C , 10-H ) :  -0.2534 B(  8-N , 13-H ) :   1.0395
B(  8-N , 14-H ) :   0.9977 B(  9-C , 10-H ) :   1.3987 B(  9-C , 11-H ) :   0.6053
B(  9-C , 16-O ) :   0.2326 B( 11-H , 16-O ) :  -0.3235 B( 12-H , 15-F ) :  -0.1351
B( 17-C , 26-C ) :   0.4378 B( 17-C , 27-H ) :   0.9902 B( 17-C , 28-H ) :   0.8673
B( 17-C , 29-C ) :   0.4386 B( 17-C , 30-H ) :  -0.1256 B( 17-C , 31-H ) :  -0.1480
B( 20-C , 21-C ) :   0.1083 B( 20-C , 22-H ) :  -0.1576 B( 20-C , 29-C ) :  -0.1167
B( 20-C , 32-C ) :   0.8836 B( 20-C , 35-H ) :   0.9339 B( 20-C , 36-H ) :   1.0183
B( 21-C , 22-H ) :   1.0303 B( 21-C , 23-H ) :   0.8972 B( 21-C , 29-C ) :   0.1203
B( 21-C , 32-C ) :   0.1154 B( 21-C , 36-H ) :  -0.1540 B( 26-C , 29-C ) :   0.3560
B( 26-C , 30-H ) :   0.8255 B( 26-C , 31-H ) :   1.6761 B( 26-C , 34-H ) :  -0.1040
B( 28-H , 29-C ) :   0.1016 B( 29-C , 31-H ) :  -0.2763 B( 29-C , 32-C ) :   0.8610
B( 29-C , 33-H ) :   0.9521 B( 29-C , 34-H ) :   0.9429 B( 32-C , 37-H ) :   0.9445
B( 32-C , 38-H ) :   0.9548

Dispersion correction           -0.088113626
FINAL SINGLE POINT ENERGY      -755.674556107796

DIPOLE MOMENT
-------------
                                X             Y             Z
Electronic contribution:      9.54909       8.58718       6.76772
Nuclear contribution   :    -11.12616      -8.32792      -6.96231
                        -----------------------------------------
Total Dipole Moment    :     -1.57706       0.25926      -0.19459
                        -----------------------------------------
Magnitude (a.u.)       :      1.61003
Magnitude (Debye)      :      4.09237

Rotational constants in cm-1:     0.020226     0.013574     0.009520
Rotational constants in MHz :   606.360011   406.923773   285.390769

                             ****ORCA TERMINATED NORMALLY****
TOTAL RUN TIME: 0 days 0 hours 2 minutes 24 seconds 600 msec
