                         Program Version 5.0.0 -  RELEASE  -
|  1> !BLYP D3BJ RIJCOSX def2-TZVPD def2/J TightSCF xyzfile
|  2>
|  3> *xyzfile 0 1 D4.xyz
|  4>
|  5> %MaxCore 64000
|  6>
|  7> %pal nprocs 4
|  8> end
|  9>
| 10> %scf
| 11>   MaxIter 150
| 12> end
| 13>
| 14>
| 15>                          ****END OF INPUT****

CARTESIAN COORDINATES (ANGSTROEM)
---------------------------------
  C      3.913853   -1.658291    3.015134
  C      5.039266   -0.901154    2.492821
  C      4.084215    1.742081   -2.114724
  C      4.265245    2.500518   -0.795890
  H      4.868534    3.392674   -0.981134
  H      3.307640    2.824571   -0.387809
  C      4.982240    1.650257    0.247422
  C      6.210384   -1.417261    2.178244
  N      6.535913   -2.677122    2.556078
  N      7.076754   -0.700820    1.478906
  H      7.954643   -1.121554    1.207554
  H      6.756161    0.106637    0.960278
  H      4.842168    0.017609    2.115191
  H      5.993876   -3.126918    3.282784
  H      7.498441   -2.975482    2.468776
  O      4.368065    1.389270    1.313706
  F      6.128919    1.233512   -0.045620
  C      3.139159   -2.376572    1.910609
  H      3.267235   -0.939401    3.520693
  H      4.247195   -2.355095    3.790065
  C      1.997274    0.430918   -1.399218
  C      3.412746    0.376886   -1.965497
  H      4.047407   -0.246590   -1.326706
  H      3.390774   -0.118719   -2.942839
  H      5.068475    1.598504   -2.565728
  H      3.503356    2.363939   -2.804565
  C      2.399946   -1.389579    1.009490
  H      2.440750   -3.087118    2.362976
  H      3.844475   -2.970462    1.318677
  C      2.070177   -1.936705   -0.372401
  H      1.481611   -1.061542    1.509912
  H      3.008628   -0.490001    0.897451
  C      1.322238   -0.935775   -1.256413
  H      1.472747   -2.850902   -0.283997
  H      3.003539   -2.234041   -0.862535
  H      1.376444    1.058920   -2.047420
  H      2.015341    0.929780   -0.426535
  H      0.316648   -0.787213   -0.848278
  H      1.185611   -1.379252   -2.248613

 Total Charge           Charge          ....    0
 Multiplicity           Mult            ....    1
 Number of Electrons    NEL             ....  126
 Basis Dimension        Dim             ....  805

ORBITAL ENERGIES
----------------

  NO   OCC          E(Eh)            E(eV)
   0   2.0000     -24.377771      -663.3529
   1   2.0000     -18.787066      -511.2220
   2   2.0000     -13.991921      -380.7395
   3   2.0000     -13.983002      -380.4968
   4   2.0000     -10.086378      -274.4643
   5   2.0000      -9.938239      -270.4332
   6   2.0000      -9.923264      -270.0257
   7   2.0000      -9.922431      -270.0031
   8   2.0000      -9.907319      -269.5919
   9   2.0000      -9.897296      -269.3191
  10   2.0000      -9.891669      -269.1660
  11   2.0000      -9.883429      -268.9418
  12   2.0000      -9.872795      -268.6524
  13   2.0000      -9.868845      -268.5449
  14   2.0000      -9.863133      -268.3895
  15   2.0000      -9.796269      -266.5700
  16   2.0000      -1.237109       -33.6634
  17   2.0000      -0.954358       -25.9694
  18   2.0000      -0.853707       -23.2305
  19   2.0000      -0.772461       -21.0197
  20   2.0000      -0.749948       -20.4071
  21   2.0000      -0.718115       -19.5409
  22   2.0000      -0.691514       -18.8170
  23   2.0000      -0.665129       -18.0991
  24   2.0000      -0.635758       -17.2999
  25   2.0000      -0.614287       -16.7156
  26   2.0000      -0.596811       -16.2401
  27   2.0000      -0.564529       -15.3616
  28   2.0000      -0.538451       -14.6520
  29   2.0000      -0.525155       -14.2902
  30   2.0000      -0.508258       -13.8304
  31   2.0000      -0.505124       -13.7451
  32   2.0000      -0.490315       -13.3421
  33   2.0000      -0.478964       -13.0333
  34   2.0000      -0.472459       -12.8563
  35   2.0000      -0.455224       -12.3873
  36   2.0000      -0.430924       -11.7260
  37   2.0000      -0.425258       -11.5718
  38   2.0000      -0.423550       -11.5254
  39   2.0000      -0.404554       -11.0085
  40   2.0000      -0.397140       -10.8067
  41   2.0000      -0.385197       -10.4818
  42   2.0000      -0.375191       -10.2095
  43   2.0000      -0.359991        -9.7959
  44   2.0000      -0.358635        -9.7589
  45   2.0000      -0.351890        -9.5754
  46   2.0000      -0.343665        -9.3516
  47   2.0000      -0.336146        -9.1470
  48   2.0000      -0.329620        -8.9694
  49   2.0000      -0.323454        -8.8016
  50   2.0000      -0.315005        -8.5717
  51   2.0000      -0.313295        -8.5252
  52   2.0000      -0.296598        -8.0708
  53   2.0000      -0.290152        -7.8954
  54   2.0000      -0.288222        -7.8429
  55   2.0000      -0.281039        -7.6475
  56   2.0000      -0.266603        -7.2546
  57   2.0000      -0.259994        -7.0748
  58   2.0000      -0.255368        -6.9489
  59   2.0000      -0.252025        -6.8580
  60   2.0000      -0.218467        -5.9448
  61   2.0000      -0.204977        -5.5777
  62   2.0000      -0.109662        -2.9840
  63   0.0000      -0.077003        -2.0953
  64   0.0000      -0.020313        -0.5527
  65   0.0000      -0.008429        -0.2294
  66   0.0000       0.001685         0.0458
  67   0.0000       0.002726         0.0742

MULLIKEN ATOMIC CHARGES
-----------------------
   0 C :   -0.722045
   1 C :   -0.959047
   2 C :   -0.680116
   3 C :   -0.426606
   4 H :    0.316746
   5 H :    0.265664
   6 C :    0.669846
   7 C :   -0.179401
   8 N :   -0.325016
   9 N :   -0.336985
  10 H :    0.099393
  11 H :    0.292626
  12 H :    1.150192
  13 H :    0.157436
  14 H :    0.089524
  15 O :   -0.550624
  16 F :   -0.408654
  17 C :   -0.561846
  18 H :    0.211374
  19 H :    0.414077
  20 C :   -0.421618
  21 C :   -0.308681
  22 H :    0.185025
  23 H :    0.274882
  24 H :    0.242168
  25 H :    0.292636
  26 C :    0.258208
  27 H :    0.254658
  28 H :    0.252456
  29 C :   -0.476134
  30 H :    0.217105
  31 H :   -0.149167
  32 C :   -0.722721
  33 H :    0.232189
  34 H :    0.285738
  35 H :    0.259284
  36 H :    0.279538
  37 H :    0.259402
  38 H :    0.268491
Sum of atomic charges:    0.0000000

LOEWDIN ATOMIC CHARGES
----------------------
   0 C :   -0.216133
   1 C :   -0.127274
   2 C :   -0.191006
   3 C :   -0.090927
   4 H :    0.120821
   5 H :    0.117522
   6 C :   -0.461795
   7 C :   -0.526267
   8 N :    0.138117
   9 N :    0.135001
  10 H :    0.092444
  11 H :    0.054120
  12 H :    0.009406
  13 H :    0.086476
  14 H :    0.084633
  15 O :    0.095956
  16 F :    0.216075
  17 C :   -0.195443
  18 H :    0.108920
  19 H :    0.090579
  20 C :   -0.207939
  21 C :   -0.201121
  22 H :    0.105023
  23 H :    0.118607
  24 H :    0.107438
  25 H :    0.113439
  26 C :   -0.209241
  27 H :    0.102627
  28 H :    0.107363
  29 C :   -0.212614
  30 H :    0.122245
  31 H :    0.079869
  32 C :   -0.204921
  33 H :    0.110016
  34 H :    0.104390
  35 H :    0.113107
  36 H :    0.099844
  37 H :    0.106540
  38 H :    0.104103

  Mayer bond orders larger than 0.100000
B(  0-C ,  1-C ) :   0.6044 B(  0-C , 12-H ) :  -0.1915 B(  0-C , 17-C ) :   0.6640
B(  0-C , 18-H ) :   1.0989 B(  0-C , 19-H ) :   0.9349 B(  0-C , 26-C ) :   0.1641
B(  1-C ,  7-C ) :   1.4888 B(  1-C ,  8-N ) :  -0.1443 B(  1-C , 12-H ) :  -0.3491
B(  1-C , 13-H ) :  -0.1070 B(  1-C , 15-O ) :   0.2436 B(  1-C , 19-H ) :  -0.2396
B(  1-C , 26-C ) :   0.2017 B(  1-C , 31-H ) :  -0.1180 B(  2-C ,  3-C ) :   0.7451
B(  2-C , 20-C ) :   0.1510 B(  2-C , 21-C ) :   0.8340 B(  2-C , 24-H ) :   0.9816
B(  2-C , 25-H ) :   0.9067 B(  3-C ,  4-H ) :   0.8789 B(  3-C ,  5-H ) :   1.0048
B(  3-C ,  6-C ) :   0.8888 B(  3-C , 20-C ) :   0.1481 B(  3-C , 21-C ) :  -0.1642
B(  6-C , 15-O ) :   1.7641 B(  6-C , 16-F ) :   0.6431 B(  7-C ,  8-N ) :   1.0430
B(  7-C ,  9-N ) :   1.1447 B(  7-C , 13-H ) :   0.1190 B(  8-N , 13-H ) :   0.9660
B(  8-N , 14-H ) :   1.0758 B(  8-N , 17-C ) :   0.1001 B(  9-N , 10-H ) :   1.0524
B(  9-N , 11-H ) :   0.7987 B( 12-H , 15-O ) :  -0.5815 B( 15-O , 16-F ) :   0.1385
B( 17-C , 26-C ) :   0.4701 B( 17-C , 27-H ) :   1.0024 B( 17-C , 28-H ) :   0.9128
B( 17-C , 29-C ) :   0.4332 B( 17-C , 30-H ) :  -0.1361 B( 17-C , 31-H ) :  -0.1029
B( 20-C , 21-C ) :   0.2166 B( 20-C , 22-H ) :  -0.1281 B( 20-C , 26-C ) :   0.1226
B( 20-C , 29-C ) :  -0.1237 B( 20-C , 32-C ) :   0.8715 B( 20-C , 35-H ) :   0.9284
B( 20-C , 36-H ) :   0.9908 B( 21-C , 22-H ) :   1.0190 B( 21-C , 23-H ) :   0.9185
B( 21-C , 29-C ) :   0.1275 B( 21-C , 32-C ) :   0.1154 B( 21-C , 35-H ) :  -0.1089
B( 21-C , 36-H ) :  -0.1356 B( 26-C , 29-C ) :   0.3566 B( 26-C , 30-H ) :   0.8180
B( 26-C , 31-H ) :   1.6516 B( 28-H , 29-C ) :   0.1101 B( 29-C , 31-H ) :  -0.2913
B( 29-C , 32-C ) :   0.8477 B( 29-C , 33-H ) :   0.9637 B( 29-C , 34-H ) :   0.9357
B( 30-H , 31-H ) :   0.1538 B( 32-C , 37-H ) :   0.9534 B( 32-C , 38-H ) :   0.9585

Dispersion correction           -0.088798962
FINAL SINGLE POINT ENERGY      -755.684784886073

DIPOLE MOMENT
-------------
                                X             Y             Z
Electronic contribution:     14.28990       8.73720       3.75261
Nuclear contribution   :    -13.61164      -8.17416      -5.14068
                        -----------------------------------------
Total Dipole Moment    :      0.67826       0.56304      -1.38806
                        -----------------------------------------
Magnitude (a.u.)       :      1.64431
Magnitude (Debye)      :      4.17951

Rotational constants in cm-1:     0.019858     0.013613     0.009401
Rotational constants in MHz :   595.331791   408.100423   281.843625

                             ****ORCA TERMINATED NORMALLY****
TOTAL RUN TIME: 0 days 0 hours 2 minutes 36 seconds 299 msec
