                         Program Version 5.0.0 -  RELEASE  -
|  1> !BLYP D3BJ RIJCOSX def2-TZVPD def2/J TightSCF xyzfile
|  2>
|  3> *xyzfile 0 1 D5.xyz
|  4>
|  5> %MaxCore 64000
|  6>
|  7> %pal nprocs 4
|  8> end
|  9>
| 10> %scf
| 11>   MaxIter 150
| 12> end
| 13>
| 14>
| 15>                          ****END OF INPUT****

CARTESIAN COORDINATES (ANGSTROEM)
---------------------------------
  C      3.913853   -1.658291    3.015134
  N      5.039266   -0.901154    2.492821
  C      4.084215    1.742081   -2.114724
  C      4.265245    2.500518   -0.795890
  H      4.868534    3.392674   -0.981134
  H      3.307640    2.824571   -0.387809
  C      4.982240    1.650257    0.247422
  C      6.210384   -1.417261    2.178244
  C      6.535913   -2.677122    2.556078
  N      7.076754   -0.700820    1.478906
  H      7.954643   -1.121554    1.207554
  H      6.756161    0.106637    0.960278
  H      4.842168    0.017609    2.115191
  H      5.993876   -3.126918    3.282784
  H      7.498441   -2.975482    2.468776
  O      4.368065    1.389270    1.313706
  F      6.128919    1.233512   -0.045620
  C      3.139159   -2.376572    1.910609
  H      3.267235   -0.939401    3.520693
  H      4.247195   -2.355095    3.790065
  C      1.997274    0.430918   -1.399218
  C      3.412746    0.376886   -1.965497
  H      4.047407   -0.246590   -1.326706
  H      3.390774   -0.118719   -2.942839
  H      5.068475    1.598504   -2.565728
  H      3.503356    2.363939   -2.804565
  C      2.399946   -1.389579    1.009490
  H      2.440750   -3.087118    2.362976
  H      3.844475   -2.970462    1.318677
  C      2.070177   -1.936705   -0.372401
  H      1.481611   -1.061542    1.509912
  H      3.008628   -0.490001    0.897451
  C      1.322238   -0.935775   -1.256413
  H      1.472747   -2.850902   -0.283997
  H      3.003539   -2.234041   -0.862535
  H      1.376444    1.058920   -2.047420
  H      2.015341    0.929780   -0.426535
  H      0.316648   -0.787213   -0.848278
  H      1.185611   -1.379252   -2.248613

 Total Charge           Charge          ....    0
 Multiplicity           Mult            ....    1
 Number of Electrons    NEL             ....  126
 Basis Dimension        Dim             ....  805

ORBITAL ENERGIES
----------------

  NO   OCC          E(Eh)            E(eV)
   0   2.0000     -24.389803      -663.6803
   1   2.0000     -18.807821      -511.7868
   2   2.0000     -13.985624      -380.5682
   3   2.0000     -13.976471      -380.3191
   4   2.0000     -10.100548      -274.8499
   5   2.0000      -9.948565      -270.7142
   6   2.0000      -9.931734      -270.2562
   7   2.0000      -9.928847      -270.1777
   8   2.0000      -9.917151      -269.8594
   9   2.0000      -9.915646      -269.8184
  10   2.0000      -9.905818      -269.5510
  11   2.0000      -9.900005      -269.3928
  12   2.0000      -9.893252      -269.2091
  13   2.0000      -9.886800      -269.0335
  14   2.0000      -9.883386      -268.9406
  15   2.0000      -9.804810      -266.8024
  16   2.0000      -1.248826       -33.9823
  17   2.0000      -0.973870       -26.5003
  18   2.0000      -0.861726       -23.4488
  19   2.0000      -0.786279       -21.3957
  20   2.0000      -0.759467       -20.6661
  21   2.0000      -0.726596       -19.7717
  22   2.0000      -0.693682       -18.8761
  23   2.0000      -0.666267       -18.1300
  24   2.0000      -0.634174       -17.2567
  25   2.0000      -0.622350       -16.9350
  26   2.0000      -0.609572       -16.5873
  27   2.0000      -0.581408       -15.8209
  28   2.0000      -0.551722       -15.0131
  29   2.0000      -0.529739       -14.4149
  30   2.0000      -0.521108       -14.1801
  31   2.0000      -0.519055       -14.1242
  32   2.0000      -0.494152       -13.4465
  33   2.0000      -0.489785       -13.3277
  34   2.0000      -0.477662       -12.9978
  35   2.0000      -0.449482       -12.2310
  36   2.0000      -0.446695       -12.1552
  37   2.0000      -0.434142       -11.8136
  38   2.0000      -0.430735       -11.7209
  39   2.0000      -0.413268       -11.2456
  40   2.0000      -0.396148       -10.7797
  41   2.0000      -0.392942       -10.6925
  42   2.0000      -0.378756       -10.3065
  43   2.0000      -0.371205       -10.1010
  44   2.0000      -0.365093        -9.9347
  45   2.0000      -0.362723        -9.8702
  46   2.0000      -0.351320        -9.5599
  47   2.0000      -0.343662        -9.3515
  48   2.0000      -0.338452        -9.2097
  49   2.0000      -0.329669        -8.9708
  50   2.0000      -0.321328        -8.7438
  51   2.0000      -0.315659        -8.5895
  52   2.0000      -0.310715        -8.4550
  53   2.0000      -0.305247        -8.3062
  54   2.0000      -0.297690        -8.1006
  55   2.0000      -0.293524        -7.9872
  56   2.0000      -0.282706        -7.6928
  57   2.0000      -0.273050        -7.4301
  58   2.0000      -0.270723        -7.3667
  59   2.0000      -0.266421        -7.2497
  60   2.0000      -0.257081        -6.9955
  61   2.0000      -0.187514        -5.1025
  62   2.0000      -0.116065        -3.1583
  63   0.0000      -0.091631        -2.4934
  64   0.0000      -0.025602        -0.6967
  65   0.0000      -0.005646        -0.1536
  66   0.0000      -0.004245        -0.1155
  67   0.0000       0.001475         0.0401

MULLIKEN ATOMIC CHARGES
-----------------------
   0 C :   -0.928332
   1 N :   -0.369289
   2 C :   -0.689064
   3 C :   -0.416054
   4 H :    0.321836
   5 H :    0.261108
   6 C :    0.663613
   7 C :    0.705284
   8 C :   -1.357979
   9 N :   -0.386563
  10 H :    0.111867
  11 H :    0.352379
  12 H :    0.504384
  13 H :    0.270145
  14 H :    0.365440
  15 O :   -0.679350
  16 F :   -0.421857
  17 C :   -0.513123
  18 H :    0.333025
  19 H :    0.299178
  20 C :   -0.407421
  21 C :   -0.294675
  22 H :    0.169413
  23 H :    0.280297
  24 H :    0.244590
  25 H :    0.293054
  26 C :    0.151956
  27 H :    0.300661
  28 H :    0.311784
  29 C :   -0.469718
  30 H :    0.252761
  31 H :   -0.118208
  32 C :   -0.715643
  33 H :    0.247758
  34 H :    0.265890
  35 H :    0.262074
  36 H :    0.266255
  37 H :    0.271062
  38 H :    0.261460
Sum of atomic charges:   -0.0000000

LOEWDIN ATOMIC CHARGES
----------------------
   0 C :   -0.179853
   1 N :    0.045805
   2 C :   -0.188664
   3 C :   -0.089570
   4 H :    0.122274
   5 H :    0.118195
   6 C :   -0.464441
   7 C :   -0.550770
   8 C :    0.014922
   9 N :    0.144507
  10 H :    0.107436
  11 H :    0.047730
  12 H :    0.057056
  13 H :   -0.009770
  14 H :   -0.002333
  15 O :    0.092261
  16 F :    0.215972
  17 C :   -0.176515
  18 H :    0.117587
  19 H :    0.104284
  20 C :   -0.207861
  21 C :   -0.200382
  22 H :    0.104726
  23 H :    0.119982
  24 H :    0.108766
  25 H :    0.114858
  26 C :   -0.212158
  27 H :    0.109797
  28 H :    0.107783
  29 C :   -0.210604
  30 H :    0.121655
  31 H :    0.076227
  32 C :   -0.203350
  33 H :    0.111947
  34 H :    0.106569
  35 H :    0.114080
  36 H :    0.098993
  37 H :    0.107251
  38 H :    0.105608

  Mayer bond orders larger than 0.100000
B(  0-C ,  1-N ) :   0.9899 B(  0-C , 17-C ) :   0.7091 B(  0-C , 18-H ) :   0.7859
B(  0-C , 19-H ) :   0.8708 B(  0-C , 26-C ) :   0.1693 B(  0-C , 27-H ) :  -0.1005
B(  1-N ,  7-C ) :   0.9890 B(  1-N ,  8-C ) :   0.1185 B(  1-N , 12-H ) :   0.6313
B(  2-C ,  3-C ) :   0.7445 B(  2-C ,  6-C ) :   0.1047 B(  2-C , 20-C ) :   0.1567
B(  2-C , 21-C ) :   0.8384 B(  2-C , 24-H ) :   0.9802 B(  2-C , 25-H ) :   0.9041
B(  3-C ,  4-H ) :   0.8828 B(  3-C ,  5-H ) :   0.9996 B(  3-C ,  6-C ) :   0.8959
B(  3-C , 20-C ) :   0.1445 B(  3-C , 21-C ) :  -0.1592 B(  6-C , 15-O ) :   1.6481
B(  6-C , 16-F ) :   0.6567 B(  7-C ,  8-C ) :   0.9334 B(  7-C ,  9-N ) :   0.9493
B(  8-C ,  9-N ) :   0.1025 B(  8-C , 13-H ) :   1.0985 B(  8-C , 14-H ) :   0.9921
B(  9-N , 10-H ) :   1.0295 B(  9-N , 11-H ) :   0.7567 B( 15-O , 16-F ) :   0.1389
B( 17-C , 26-C ) :   0.4463 B( 17-C , 27-H ) :   0.9774 B( 17-C , 28-H ) :   0.8714
B( 17-C , 29-C ) :   0.4271 B( 17-C , 30-H ) :  -0.1286 B( 17-C , 31-H ) :  -0.1348
B( 20-C , 21-C ) :   0.2066 B( 20-C , 22-H ) :  -0.1340 B( 20-C , 29-C ) :  -0.1155
B( 20-C , 32-C ) :   0.8879 B( 20-C , 35-H ) :   0.9300 B( 20-C , 36-H ) :   0.9960
B( 21-C , 22-H ) :   1.0385 B( 21-C , 23-H ) :   0.9155 B( 21-C , 29-C ) :   0.1216
B( 21-C , 32-C ) :   0.1223 B( 21-C , 35-H ) :  -0.1049 B( 21-C , 36-H ) :  -0.1407
B( 26-C , 29-C ) :   0.3579 B( 26-C , 30-H ) :   0.7988 B( 26-C , 31-H ) :   1.7496
B( 26-C , 34-H ) :  -0.1145 B( 28-H , 29-C ) :   0.1014 B( 29-C , 31-H ) :  -0.2850
B( 29-C , 32-C ) :   0.8657 B( 29-C , 33-H ) :   0.9392 B( 29-C , 34-H ) :   0.9606
B( 30-H , 31-H ) :   0.1417 B( 32-C , 37-H ) :   0.9415 B( 32-C , 38-H ) :   0.9604

Dispersion correction           -0.088271157
FINAL SINGLE POINT ENERGY      -755.694737943607

DIPOLE MOMENT
-------------
                                X             Y             Z
Electronic contribution:     12.85234      10.15702       3.41802
Nuclear contribution   :    -13.35170      -8.48261      -5.12969
                        -----------------------------------------
Total Dipole Moment    :     -0.49936       1.67441      -1.71167
                        -----------------------------------------
Magnitude (a.u.)       :      2.44598
Magnitude (Debye)      :      6.21719

Rotational constants in cm-1:     0.019886     0.013843     0.009504
Rotational constants in MHz :   596.157485   415.004628   284.931121

                             ****ORCA TERMINATED NORMALLY****
TOTAL RUN TIME: 0 days 0 hours 3 minutes 41 seconds 373 msec
