                         Program Version 5.0.0 -  RELEASE  -
|  1> !BLYP D3BJ RIJCOSX def2-TZVPD def2/J TightSCF xyzfile
|  2>
|  3> *xyzfile 0 1 D6.xyz
|  4>
|  5> %MaxCore 64000
|  6>
|  7> %pal nprocs 4
|  8> end
|  9>
| 10> %scf
| 11>   MaxIter 150
| 12> end
| 13>
| 14>
| 15>                          ****END OF INPUT****

CARTESIAN COORDINATES (ANGSTROEM)
---------------------------------
  C      3.913853   -1.658291    3.015134
  N      5.039266   -0.901154    2.492821
  C      4.084215    1.742081   -2.114724
  C      4.265245    2.500518   -0.795890
  H      4.868534    3.392674   -0.981134
  H      3.307640    2.824571   -0.387809
  C      4.982240    1.650257    0.247422
  C      6.210384   -1.417261    2.178244
  N      6.535913   -2.677122    2.556078
  C      7.076754   -0.700820    1.478906
  H      7.954643   -1.121554    1.207554
  H      6.756161    0.106637    0.960278
  H      4.842168    0.017609    2.115191
  H      5.993876   -3.126918    3.282784
  H      7.498441   -2.975482    2.468776
  O      4.368065    1.389270    1.313706
  F      6.128919    1.233512   -0.045620
  C      3.139159   -2.376572    1.910609
  H      3.267235   -0.939401    3.520693
  H      4.247195   -2.355095    3.790065
  C      1.997274    0.430918   -1.399218
  C      3.412746    0.376886   -1.965497
  H      4.047407   -0.246590   -1.326706
  H      3.390774   -0.118719   -2.942839
  H      5.068475    1.598504   -2.565728
  H      3.503356    2.363939   -2.804565
  C      2.399946   -1.389579    1.009490
  H      2.440750   -3.087118    2.362976
  H      3.844475   -2.970462    1.318677
  C      2.070177   -1.936705   -0.372401
  H      1.481611   -1.061542    1.509912
  H      3.008628   -0.490001    0.897451
  C      1.322238   -0.935775   -1.256413
  H      1.472747   -2.850902   -0.283997
  H      3.003539   -2.234041   -0.862535
  H      1.376444    1.058920   -2.047420
  H      2.015341    0.929780   -0.426535
  H      0.316648   -0.787213   -0.848278
  H      1.185611   -1.379252   -2.248613

 Total Charge           Charge          ....    0
 Multiplicity           Mult            ....    1
 Number of Electrons    NEL             ....  126
 Basis Dimension        Dim             ....  805

ORBITAL ENERGIES
----------------

  NO   OCC          E(Eh)            E(eV)
   0   2.0000     -24.364780      -662.9994
   1   2.0000     -18.797587      -511.5083
   2   2.0000     -13.988791      -380.6543
   3   2.0000     -13.970770      -380.1640
   4   2.0000     -10.093665      -274.6626
   5   2.0000      -9.940902      -270.5057
   6   2.0000      -9.925735      -270.0930
   7   2.0000      -9.924101      -270.0485
   8   2.0000      -9.923112      -270.0216
   9   2.0000      -9.910509      -269.6787
  10   2.0000      -9.902790      -269.4686
  11   2.0000      -9.898941      -269.3639
  12   2.0000      -9.893760      -269.2229
  13   2.0000      -9.888890      -269.0904
  14   2.0000      -9.888583      -269.0820
  15   2.0000      -9.791799      -266.4484
  16   2.0000      -1.225745       -33.3542
  17   2.0000      -0.963902       -26.2291
  18   2.0000      -0.855439       -23.2777
  19   2.0000      -0.779059       -21.1993
  20   2.0000      -0.753608       -20.5067
  21   2.0000      -0.724469       -19.7138
  22   2.0000      -0.696189       -18.9443
  23   2.0000      -0.662896       -18.0383
  24   2.0000      -0.639196       -17.3934
  25   2.0000      -0.607395       -16.5281
  26   2.0000      -0.601392       -16.3647
  27   2.0000      -0.570490       -15.5238
  28   2.0000      -0.544728       -14.8228
  29   2.0000      -0.530686       -14.4407
  30   2.0000      -0.511604       -13.9215
  31   2.0000      -0.503234       -13.6937
  32   2.0000      -0.498377       -13.5615
  33   2.0000      -0.488046       -13.2804
  34   2.0000      -0.464797       -12.6478
  35   2.0000      -0.452069       -12.3014
  36   2.0000      -0.431908       -11.7528
  37   2.0000      -0.429018       -11.6742
  38   2.0000      -0.420572       -11.4443
  39   2.0000      -0.409371       -11.1395
  40   2.0000      -0.403194       -10.9715
  41   2.0000      -0.384579       -10.4649
  42   2.0000      -0.379867       -10.3367
  43   2.0000      -0.372278       -10.1302
  44   2.0000      -0.365962        -9.9583
  45   2.0000      -0.360517        -9.8102
  46   2.0000      -0.346290        -9.4230
  47   2.0000      -0.338543        -9.2122
  48   2.0000      -0.333948        -9.0872
  49   2.0000      -0.327922        -8.9232
  50   2.0000      -0.319922        -8.7055
  51   2.0000      -0.309198        -8.4137
  52   2.0000      -0.307680        -8.3724
  53   2.0000      -0.298664        -8.1271
  54   2.0000      -0.295532        -8.0418
  55   2.0000      -0.288164        -7.8413
  56   2.0000      -0.282955        -7.6996
  57   2.0000      -0.272754        -7.4220
  58   2.0000      -0.271163        -7.3787
  59   2.0000      -0.266600        -7.2546
  60   2.0000      -0.251407        -6.8411
  61   2.0000      -0.190474        -5.1831
  62   2.0000      -0.110223        -2.9993
  63   0.0000      -0.081812        -2.2262
  64   0.0000      -0.016953        -0.4613
  65   0.0000      -0.004880        -0.1328
  66   0.0000      -0.001249        -0.0340
  67   0.0000      -0.000257        -0.0070

MULLIKEN ATOMIC CHARGES
-----------------------
   0 C :   -1.013815
   1 N :   -0.263112
   2 C :   -0.678965
   3 C :   -0.424275
   4 H :    0.318509
   5 H :    0.257368
   6 C :    0.639120
   7 C :    0.806908
   8 N :   -0.357217
   9 C :   -1.579930
  10 H :    0.215581
  11 H :    0.586636
  12 H :    0.446697
  13 H :    0.120995
  14 H :    0.144289
  15 O :   -0.673035
  16 F :   -0.322232
  17 C :   -0.421000
  18 H :    0.321837
  19 H :    0.317530
  20 C :   -0.405020
  21 C :   -0.341295
  22 H :    0.222935
  23 H :    0.271802
  24 H :    0.239424
  25 H :    0.294478
  26 C :    0.187456
  27 H :    0.321693
  28 H :    0.279196
  29 C :   -0.496606
  30 H :    0.273904
  31 H :   -0.171449
  32 C :   -0.711255
  33 H :    0.241080
  34 H :    0.289547
  35 H :    0.259869
  36 H :    0.266406
  37 H :    0.269118
  38 H :    0.266832
Sum of atomic charges:   -0.0000000

LOEWDIN ATOMIC CHARGES
----------------------
   0 C :   -0.185689
   1 N :    0.044961
   2 C :   -0.187608
   3 C :   -0.088539
   4 H :    0.122938
   5 H :    0.116809
   6 C :   -0.453441
   7 C :   -0.546423
   8 N :    0.133359
   9 C :    0.012019
  10 H :    0.004978
  11 H :   -0.029125
  12 H :    0.062328
  13 H :    0.076222
  14 H :    0.098531
  15 O :    0.093518
  16 F :    0.213622
  17 C :   -0.181895
  18 H :    0.117414
  19 H :    0.099017
  20 C :   -0.208171
  21 C :   -0.199847
  22 H :    0.106007
  23 H :    0.119561
  24 H :    0.109835
  25 H :    0.114214
  26 C :   -0.210218
  27 H :    0.106952
  28 H :    0.109081
  29 C :   -0.210975
  30 H :    0.122518
  31 H :    0.078251
  32 C :   -0.203412
  33 H :    0.111119
  34 H :    0.106779
  35 H :    0.113826
  36 H :    0.098941
  37 H :    0.106922
  38 H :    0.105622

  Mayer bond orders larger than 0.100000
B(  0-C ,  1-N ) :   1.0036 B(  0-C ,  7-C ) :  -0.1520 B(  0-C , 17-C ) :   0.6228
B(  0-C , 18-H ) :   0.8584 B(  0-C , 19-H ) :   0.8837 B(  0-C , 26-C ) :   0.1398
B(  0-C , 27-H ) :  -0.1256 B(  0-C , 31-H ) :   0.1142 B(  1-N ,  7-C ) :   1.1102
B(  1-N , 12-H ) :   0.6859 B(  2-C ,  3-C ) :   0.7517 B(  2-C ,  6-C ) :   0.1072
B(  2-C , 20-C ) :   0.1597 B(  2-C , 21-C ) :   0.8584 B(  2-C , 24-H ) :   0.9773
B(  2-C , 25-H ) :   0.9062 B(  3-C ,  4-H ) :   0.8835 B(  3-C ,  5-H ) :   0.9998
B(  3-C ,  6-C ) :   0.8990 B(  3-C , 20-C ) :   0.1420 B(  3-C , 21-C ) :  -0.1560
B(  6-C , 15-O ) :   1.6664 B(  6-C , 16-F ) :   0.7537 B(  7-C ,  8-N ) :   0.9020
B(  7-C ,  9-C ) :   0.9439 B(  7-C , 10-H ) :  -0.2167 B(  8-N , 13-H ) :   1.0366
B(  8-N , 14-H ) :   1.0023 B(  9-C , 10-H ) :   1.3279 B(  9-C , 11-H ) :   0.6707
B(  9-C , 16-F ) :   0.1645 B( 11-H , 16-F ) :  -0.1635 B( 12-H , 15-O ) :  -0.1066
B( 15-O , 16-F ) :   0.1391 B( 17-C , 26-C ) :   0.4376 B( 17-C , 27-H ) :   0.9951
B( 17-C , 28-H ) :   0.8663 B( 17-C , 29-C ) :   0.4376 B( 17-C , 30-H ) :  -0.1305
B( 17-C , 31-H ) :  -0.1307 B( 20-C , 21-C ) :   0.1828 B( 20-C , 22-H ) :  -0.1316
B( 20-C , 26-C ) :   0.1016 B( 20-C , 29-C ) :  -0.1138 B( 20-C , 32-C ) :   0.8773
B( 20-C , 35-H ) :   0.9336 B( 20-C , 36-H ) :   0.9955 B( 21-C , 22-H ) :   0.9926
B( 21-C , 23-H ) :   0.9261 B( 21-C , 29-C ) :   0.1271 B( 21-C , 32-C ) :   0.1101
B( 21-C , 35-H ) :  -0.1067 B( 21-C , 36-H ) :  -0.1380 B( 26-C , 29-C ) :   0.3464
B( 26-C , 30-H ) :   0.8168 B( 26-C , 31-H ) :   1.7514 B( 26-C , 34-H ) :  -0.1080
B( 28-H , 29-C ) :   0.1030 B( 29-C , 31-H ) :  -0.2937 B( 29-C , 32-C ) :   0.8554
B( 29-C , 33-H ) :   0.9549 B( 29-C , 34-H ) :   0.9488 B( 30-H , 31-H ) :   0.1187
B( 32-C , 37-H ) :   0.9449 B( 32-C , 38-H ) :   0.9565

Dispersion correction           -0.088350809
FINAL SINGLE POINT ENERGY      -755.687289731567

DIPOLE MOMENT
-------------
                                X             Y             Z
Electronic contribution:     12.40202       8.53617       4.41791
Nuclear contribution   :    -13.25777      -8.13937      -5.31678
                        -----------------------------------------
Total Dipole Moment    :     -0.85575       0.39680      -0.89887
                        -----------------------------------------
Magnitude (a.u.)       :      1.30297
Magnitude (Debye)      :      3.31188

Rotational constants in cm-1:     0.020021     0.013636     0.009443
Rotational constants in MHz :   600.208195   408.782966   283.102361

                             ****ORCA TERMINATED NORMALLY****
TOTAL RUN TIME: 0 days 0 hours 2 minutes 24 seconds 14 msec
