                         Program Version 5.0.0 -  RELEASE  -
|  1> !wB97X-D3 RIJCOSX def2-SVP def2/J TightSCF
|  2> *xyz -1 1
|  3> C          3.80351        1.37472       -3.26081
|  4> C          3.93993        0.32036       -4.36773
|  5> H          4.10504       -0.65508       -3.90773
|  6> H          3.02280        0.28052       -4.95712
|  7> C          5.10585        0.66802       -5.30546
|  8> O          4.80913        1.15019       -6.41436
|  9> O          6.26737        0.56500       -4.81948
| 10> H          3.64113        2.33595       -3.70189
| 11> H          4.69995        1.39701       -2.67703
| 12> H          2.97435        1.12625       -2.63180
| 13> *
| 14>
| 15> %MaxCore 64000
| 16>
| 17> %pal nprocs 4
| 18> end
| 19>
| 20> %scf
| 21>   MaxIter 150
| 22> end
| 23>
| 24>
| 25>                          ****END OF INPUT****

CARTESIAN COORDINATES (ANGSTROEM)
---------------------------------
  C      3.803510    1.374720   -3.260810
  C      3.939930    0.320360   -4.367730
  H      4.105040   -0.655080   -3.907730
  H      3.022800    0.280520   -4.957120
  C      5.105850    0.668020   -5.305460
  O      4.809130    1.150190   -6.414360
  O      6.267370    0.565000   -4.819480
  H      3.641130    2.335950   -3.701890
  H      4.699950    1.397010   -2.677030
  H      2.974350    1.126250   -2.631800

 Total Charge           Charge          ....   -1
 Multiplicity           Mult            ....    1
 Number of Electrons    NEL             ....   40
 Basis Dimension        Dim             ....   95

ORBITAL ENERGIES
----------------

  NO   OCC          E(Eh)            E(eV)
   0   2.0000     -18.940689      -515.4023
   1   2.0000     -18.936698      -515.2937
   2   2.0000     -10.142917      -276.0028
   3   2.0000     -10.119701      -275.3711
   4   2.0000     -10.096762      -274.7469
   5   2.0000      -0.893100       -24.3025
   6   2.0000      -0.796893       -21.6846
   7   2.0000      -0.702536       -19.1170
   8   2.0000      -0.564444       -15.3593
   9   2.0000      -0.405427       -11.0322
  10   2.0000      -0.381239       -10.3741
  11   2.0000      -0.338420        -9.2089
  12   2.0000      -0.310067        -8.4373
  13   2.0000      -0.292106        -7.9486
  14   2.0000      -0.284854        -7.7513
  15   2.0000      -0.249238        -6.7821
  16   2.0000      -0.237504        -6.4628
  17   2.0000      -0.106770        -2.9054
  18   2.0000      -0.102198        -2.7810
  19   2.0000      -0.090711        -2.4684
  20   0.0000       0.301926         8.2158
  21   0.0000       0.353096         9.6082
  22   0.0000       0.362211         9.8563
  23   0.0000       0.367747        10.0069
  24   0.0000       0.381544        10.3823

MULLIKEN ATOMIC CHARGES
-----------------------
   0 C :   -0.024630
   1 C :   -0.029156
   2 H :   -0.032332
   3 H :   -0.037839
   4 C :    0.054673
   5 O :   -0.439027
   6 O :   -0.471787
   7 H :    0.002947
   8 H :    0.008752
   9 H :   -0.031600
Sum of atomic charges:   -1.0000000

LOEWDIN ATOMIC CHARGES
----------------------
   0 C :   -0.061379
   1 C :   -0.094448
   2 H :   -0.000588
   3 H :   -0.003677
   4 C :   -0.044449
   5 O :   -0.393323
   6 O :   -0.422065
   7 H :    0.012396
   8 H :    0.013161
   9 H :   -0.005630

  Mayer bond orders larger than 0.100000
B(  0-C ,  1-C ) :   1.0902 B(  0-C ,  7-H ) :   0.9739 B(  0-C ,  8-H ) :   0.9695
B(  0-C ,  9-H ) :   0.9734 B(  1-C ,  2-H ) :   0.9420 B(  1-C ,  3-H ) :   0.9448
B(  1-C ,  4-C ) :   0.9190 B(  4-C ,  5-O ) :   1.8654 B(  4-C ,  6-O ) :   1.8160
B(  5-O ,  6-O ) :   0.1113

Dispersion correction           -0.001990616
FINAL SINGLE POINT ENERGY      -267.543173692487

DIPOLE MOMENT
-------------
                                X             Y             Z
Electronic contribution:      3.84290      -0.44650      -4.58454
Nuclear contribution   :     -5.15232       0.33441       5.87398
                        -----------------------------------------
Total Dipole Moment    :     -1.30942      -0.11209       1.28944
                        -----------------------------------------
Magnitude (a.u.)       :      1.84114
Magnitude (Debye)      :      4.67981

Rotational constants in cm-1:     0.295355     0.137164     0.110193
Rotational constants in MHz :  8854.523706  4112.077980  3303.490503

                             ****ORCA TERMINATED NORMALLY****
TOTAL RUN TIME: 0 days 0 hours 0 minutes 14 seconds 287 msec
