                         Program Version 5.0.0 -  RELEASE  -
|  1> !wB97X-D3 RIJCOSX def2-SVP def2/J TightSCF
|  2> *xyz 1 1
|  3> C          3.90595        2.81985       -3.75292
|  4> N          5.29562        3.13151       -4.10533
|  5> C          3.80351        1.37472       -3.26081
|  6> C          5.70862        3.46889       -5.32419
|  7> N          6.90470        3.03895       -5.71708
|  8> N          4.98188        4.29357       -6.09746
|  9> H          5.00055        4.10131       -7.08776
| 10> H          4.08469        4.59690       -5.73965
| 11> H          5.96336        2.52611       -3.64239
| 12> H          7.04716        2.06686       -5.47360
| 13> H          7.19815        3.30799       -6.64523
| 14> H          3.28202        2.94919       -4.64026
| 15> H          3.56525        3.51457       -2.98252
| 16> H          4.14157        0.71142       -4.02935
| 17> H          2.78528        1.15146       -3.01944
| 18> H          4.41205        1.25066       -2.38949
| 19> *
| 20>
| 21> %MaxCore 64000
| 22>
| 23> %pal nprocs 4
| 24> end
| 25>
| 26> %scf
| 27>   MaxIter 150
| 28> end
| 29>
| 30>
| 31>                          ****END OF INPUT****

CARTESIAN COORDINATES (ANGSTROEM)
---------------------------------
  C      3.905950    2.819850   -3.752920
  N      5.295620    3.131510   -4.105330
  C      3.803510    1.374720   -3.260810
  C      5.708620    3.468890   -5.324190
  N      6.904700    3.038950   -5.717080
  N      4.981880    4.293570   -6.097460
  H      5.000550    4.101310   -7.087760
  H      4.084690    4.596900   -5.739650
  H      5.963360    2.526110   -3.642390
  H      7.047160    2.066860   -5.473600
  H      7.198150    3.307990   -6.645230
  H      3.282020    2.949190   -4.640260
  H      3.565250    3.514570   -2.982520
  H      4.141570    0.711420   -4.029350
  H      2.785280    1.151460   -3.019440
  H      4.412050    1.250660   -2.389490

 Total Charge           Charge          ....    1
 Multiplicity           Mult            ....    1
 Number of Electrons    NEL             ....   48
 Basis Dimension        Dim             ....  134

ORBITAL ENERGIES
----------------

  NO   OCC          E(Eh)            E(eV)
   0   2.0000     -14.663936      -399.0260
   1   2.0000     -14.662596      -398.9895
   2   2.0000     -14.661716      -398.9656
   3   2.0000     -10.629162      -289.2342
   4   2.0000     -10.499583      -285.7082
   5   2.0000     -10.433127      -283.8998
   6   2.0000      -1.334007       -36.3002
   7   2.0000      -1.218158       -33.1478
   8   2.0000      -1.208888       -32.8955
   9   2.0000      -1.044379       -28.4190
  10   2.0000      -0.940215       -25.5846
  11   2.0000      -0.914959       -24.8973
  12   2.0000      -0.882524       -24.0147
  13   2.0000      -0.849422       -23.1140
  14   2.0000      -0.804453       -21.8903
  15   2.0000      -0.789243       -21.4764
  16   2.0000      -0.753403       -20.5011
  17   2.0000      -0.727799       -19.8044
  18   2.0000      -0.696850       -18.9622
  19   2.0000      -0.657537       -17.8925
  20   2.0000      -0.632409       -17.2087
  21   2.0000      -0.616912       -16.7870
  22   2.0000      -0.583917       -15.8892
  23   2.0000      -0.551213       -14.9993
  24   0.0000      -0.104563        -2.8453
  25   0.0000      -0.050425        -1.3721
  26   0.0000      -0.014825        -0.4034
  27   0.0000       0.000047         0.0013
  28   0.0000       0.017834         0.4853

MULLIKEN ATOMIC CHARGES
-----------------------
   0 C :    0.014634
   1 N :   -0.152306
   2 C :   -0.074172
   3 C :    0.065707
   4 N :   -0.054444
   5 N :   -0.067303
   6 H :    0.185289
   7 H :    0.184489
   8 H :    0.167161
   9 H :    0.185178
  10 H :    0.178762
  11 H :    0.057990
  12 H :    0.099635
  13 H :    0.047074
  14 H :    0.090866
  15 H :    0.071440
Sum of atomic charges:    1.0000000

LOEWDIN ATOMIC CHARGES
----------------------
   0 C :    0.041873
   1 N :    0.024678
   2 C :   -0.047372
   3 C :    0.150174
   4 N :    0.043973
   5 N :    0.043098
   6 H :    0.110790
   7 H :    0.110307
   8 H :    0.102919
   9 H :    0.110969
  10 H :    0.111108
  11 H :    0.029255
  12 H :    0.045943
  13 H :    0.029392
  14 H :    0.054621
  15 H :    0.038274

  Mayer bond orders larger than 0.100000
B(  0-C ,  1-N ) :   0.9062 B(  0-C ,  2-C ) :   1.0899 B(  0-C , 11-H ) :   0.9556
B(  0-C , 12-H ) :   0.9488 B(  1-N ,  3-C ) :   1.3961 B(  1-N ,  8-H ) :   0.9114
B(  2-C , 13-H ) :   0.9748 B(  2-C , 14-H ) :   0.9641 B(  2-C , 15-H ) :   0.9708
B(  3-C ,  4-N ) :   1.3773 B(  3-C ,  5-N ) :   1.3827 B(  4-N ,  9-H ) :   0.9268
B(  4-N , 10-H ) :   0.9272 B(  5-N ,  6-H ) :   0.9262 B(  5-N ,  7-H ) :   0.9212

Dispersion correction           -0.003685608
FINAL SINGLE POINT ENERGY      -284.107507140726

DIPOLE MOMENT
-------------
                                X             Y             Z
Electronic contribution:      3.54407       3.38610      -2.73909
Nuclear contribution   :     -3.31456      -3.64300       1.57303
                        -----------------------------------------
Total Dipole Moment    :      0.22950      -0.25690      -1.16606
                        -----------------------------------------
Magnitude (a.u.)       :      1.21588
Magnitude (Debye)      :      3.09052

Rotational constants in cm-1:     0.229487     0.071000     0.059428
Rotational constants in MHz :  6879.840828  2128.520047  1781.605314

                             ****ORCA TERMINATED NORMALLY****
TOTAL RUN TIME: 0 days 0 hours 0 minutes 24 seconds 63 msec
