                         Program Version 5.0.0 -  RELEASE  -
|  1> !wB97X-D3 RIJCOSX def2-SVP def2/J TightSCF
|  2> *xyz 0 1
|  3> C          3.80351        1.37472       -3.26081
|  4> C          3.93993        0.32036       -4.36773
|  5> H          4.10504       -0.65508       -3.90773
|  6> H          3.02280        0.28052       -4.95712
|  7> C          5.10585        0.66802       -5.30546
|  8> F          4.80913        1.15019       -6.41436
|  9> O          6.26737        0.56500       -4.81948
| 10> H          3.64113        2.33595       -3.70189
| 11> H          4.69995        1.39701       -2.67703
| 12> H          2.97435        1.12625       -2.63180
| 13> *
| 14>
| 15> %MaxCore 64000
| 16>
| 17> %pal nprocs 4
| 18> end
| 19>
| 20> %scf
| 21>   MaxIter 150
| 22> end
| 23>
| 24>
| 25>                          ****END OF INPUT****

CARTESIAN COORDINATES (ANGSTROEM)
---------------------------------
  C      3.803510    1.374720   -3.260810
  C      3.939930    0.320360   -4.367730
  H      4.105040   -0.655080   -3.907730
  H      3.022800    0.280520   -4.957120
  C      5.105850    0.668020   -5.305460
  F      4.809130    1.150190   -6.414360
  O      6.267370    0.565000   -4.819480
  H      3.641130    2.335950   -3.701890
  H      4.699950    1.397010   -2.677030
  H      2.974350    1.126250   -2.631800

 Total Charge           Charge          ....    0
 Multiplicity           Mult            ....    1
 Number of Electrons    NEL             ....   40
 Basis Dimension        Dim             ....   95

ORBITAL ENERGIES
----------------

  NO   OCC          E(Eh)            E(eV)
   0   2.0000     -24.863480      -676.5697
   1   2.0000     -19.239341      -523.5291
   2   2.0000     -10.463582      -284.7285
   3   2.0000     -10.316765      -280.7334
   4   2.0000     -10.295716      -280.1607
   5   2.0000      -1.422937       -38.7201
   6   2.0000      -1.127632       -30.6844
   7   2.0000      -0.909140       -24.7389
   8   2.0000      -0.792268       -21.5587
   9   2.0000      -0.744012       -20.2456
  10   2.0000      -0.655166       -17.8280
  11   2.0000      -0.639839       -17.4109
  12   2.0000      -0.604018       -16.4362
  13   2.0000      -0.563856       -15.3433
  14   2.0000      -0.530421       -14.4335
  15   2.0000      -0.494227       -13.4486
  16   2.0000      -0.472616       -12.8605
  17   2.0000      -0.467218       -12.7137
  18   2.0000      -0.435801       -11.8588
  19   2.0000      -0.380160       -10.3447
  20   0.0000       0.062850         1.7102
  21   0.0000       0.147701         4.0192
  22   0.0000       0.194054         5.2805
  23   0.0000       0.195848         5.3293
  24   0.0000       0.218635         5.9494

MULLIKEN ATOMIC CHARGES
-----------------------
   0 C :   -0.044607
   1 C :   -0.114868
   2 H :    0.074326
   3 H :    0.042271
   4 C :    0.257194
   5 F :   -0.070213
   6 O :   -0.284109
   7 H :    0.037018
   8 H :    0.057996
   9 H :    0.044992
Sum of atomic charges:   -0.0000000

LOEWDIN ATOMIC CHARGES
----------------------
   0 C :   -0.039897
   1 C :   -0.074216
   2 H :    0.048359
   3 H :    0.027901
   4 C :    0.110686
   5 F :    0.052855
   6 O :   -0.214338
   7 H :    0.026025
   8 H :    0.032882
   9 H :    0.029743

  Mayer bond orders larger than 0.100000
B(  0-C ,  1-C ) :   1.0751 B(  0-C ,  7-H ) :   0.9777 B(  0-C ,  8-H ) :   0.9741
B(  0-C ,  9-H ) :   0.9752 B(  1-C ,  2-H ) :   0.9444 B(  1-C ,  3-H ) :   0.9456
B(  1-C ,  4-C ) :   0.9893 B(  4-C ,  5-F ) :   1.2020 B(  4-C ,  6-O ) :   2.0541

Dispersion correction           -0.001944521
FINAL SINGLE POINT ENERGY      -292.092065105355

DIPOLE MOMENT
-------------
                                X             Y             Z
Electronic contribution:      4.04937      -0.00467      -7.46515
Nuclear contribution   :     -5.17129      -0.01923       7.59895
                        -----------------------------------------
Total Dipole Moment    :     -1.12192      -0.02390       0.13379
                        -----------------------------------------
Magnitude (a.u.)       :      1.13012
Magnitude (Debye)      :      2.87255

Rotational constants in cm-1:     0.282073     0.131822     0.105134
Rotational constants in MHz :  8456.328792  3951.925810  3151.840112

                             ****ORCA TERMINATED NORMALLY****
TOTAL RUN TIME: 0 days 0 hours 0 minutes 15 seconds 1 msec
