                         Program Version 5.0.0 -  RELEASE  -
|  1> !wB97X-D3 RIJCOSX def2-SVP def2/J TightSCF
|  2> *xyz 0 1
|  3> C          3.90595        2.81985       -3.75292
|  4> C          5.29562        3.13151       -4.10533
|  5> C          3.80351        1.37472       -3.26081
|  6> C          5.70862        3.46889       -5.32419
|  7> N          6.90470        3.03895       -5.71708
|  8> N          4.98188        4.29357       -6.09746
|  9> H          5.00055        4.10131       -7.08776
| 10> H          4.08469        4.59690       -5.73965
| 11> H          5.96336        2.52611       -3.64239
| 12> H          7.04716        2.06686       -5.47360
| 13> H          7.19815        3.30799       -6.64523
| 14> H          3.28202        2.94919       -4.64026
| 15> H          3.56525        3.51457       -2.98252
| 16> H          4.14157        0.71142       -4.02935
| 17> H          2.78528        1.15146       -3.01944
| 18> H          4.41205        1.25066       -2.38949
| 19> *
| 20>
| 21> %MaxCore 64000
| 22>
| 23> %pal nprocs 4
| 24> end
| 25>
| 26> %scf
| 27>   MaxIter 150
| 28> end
| 29>
| 30>
| 31>                          ****END OF INPUT****

CARTESIAN COORDINATES (ANGSTROEM)
---------------------------------
  C      3.905950    2.819850   -3.752920
  C      5.295620    3.131510   -4.105330
  C      3.803510    1.374720   -3.260810
  C      5.708620    3.468890   -5.324190
  N      6.904700    3.038950   -5.717080
  N      4.981880    4.293570   -6.097460
  H      5.000550    4.101310   -7.087760
  H      4.084690    4.596900   -5.739650
  H      5.963360    2.526110   -3.642390
  H      7.047160    2.066860   -5.473600
  H      7.198150    3.307990   -6.645230
  H      3.282020    2.949190   -4.640260
  H      3.565250    3.514570   -2.982520
  H      4.141570    0.711420   -4.029350
  H      2.785280    1.151460   -3.019440
  H      4.412050    1.250660   -2.389490

 Total Charge           Charge          ....    0
 Multiplicity           Mult            ....    1
 Number of Electrons    NEL             ....   48
 Basis Dimension        Dim             ....  134

ORBITAL ENERGIES
----------------

  NO   OCC          E(Eh)            E(eV)
   0   2.0000     -14.433623      -392.7589
   1   2.0000     -14.429377      -392.6433
   2   2.0000     -10.326594      -281.0009
   3   2.0000     -10.262538      -279.2579
   4   2.0000     -10.257495      -279.1206
   5   2.0000     -10.205105      -277.6950
   6   2.0000      -1.069084       -29.0913
   7   2.0000      -0.977465       -26.5982
   8   2.0000      -0.882378       -24.0107
   9   2.0000      -0.797842       -21.7104
  10   2.0000      -0.713763       -19.4225
  11   2.0000      -0.675222       -18.3737
  12   2.0000      -0.632887       -17.2217
  13   2.0000      -0.607175       -16.5221
  14   2.0000      -0.572038       -15.5659
  15   2.0000      -0.542802       -14.7704
  16   2.0000      -0.516377       -14.0513
  17   2.0000      -0.482568       -13.1313
  18   2.0000      -0.462664       -12.5897
  19   2.0000      -0.442496       -12.0409
  20   2.0000      -0.416791       -11.3415
  21   2.0000      -0.412484       -11.2243
  22   2.0000      -0.361928        -9.8486
  23   2.0000      -0.247823        -6.7436
  24   0.0000       0.127890         3.4801
  25   0.0000       0.154920         4.2156
  26   0.0000       0.170787         4.6474
  27   0.0000       0.176781         4.8105
  28   0.0000       0.196454         5.3458

MULLIKEN ATOMIC CHARGES
-----------------------
   0 C :   -0.022765
   1 C :   -0.109058
   2 C :   -0.025833
   3 C :   -0.094425
   4 N :   -0.103846
   5 N :   -0.104214
   6 H :    0.108974
   7 H :    0.130249
   8 H :   -0.076392
   9 H :    0.140889
  10 H :    0.104576
  11 H :   -0.016186
  12 H :    0.015568
  13 H :    0.009792
  14 H :    0.015850
  15 H :    0.026820
Sum of atomic charges:    0.0000000

LOEWDIN ATOMIC CHARGES
----------------------
   0 C :   -0.044345
   1 C :   -0.213415
   2 C :   -0.052186
   3 C :    0.015703
   4 N :   -0.024121
   5 N :   -0.030196
   6 H :    0.060996
   7 H :    0.079922
   8 H :   -0.009888
   9 H :    0.081805
  10 H :    0.063198
  11 H :    0.004359
  12 H :    0.014646
  13 H :    0.015268
  14 H :    0.017303
  15 H :    0.020952

  Mayer bond orders larger than 0.100000
B(  0-C ,  1-C ) :   1.0474 B(  0-C ,  2-C ) :   1.0842 B(  0-C , 11-H ) :   0.9523
B(  0-C , 12-H ) :   0.9367 B(  1-C ,  3-C ) :   1.7352 B(  1-C ,  8-H ) :   0.9354
B(  2-C , 13-H ) :   0.9757 B(  2-C , 14-H ) :   0.9715 B(  2-C , 15-H ) :   0.9775
B(  3-C ,  4-N ) :   1.1961 B(  3-C ,  5-N ) :   1.2276 B(  4-N ,  9-H ) :   0.9485
B(  4-N , 10-H ) :   0.9557 B(  5-N ,  6-H ) :   0.9453 B(  5-N ,  7-H ) :   0.9436

Dispersion correction           -0.003676899
FINAL SINGLE POINT ENERGY      -267.637477890390

DIPOLE MOMENT
-------------
                                X             Y             Z
Electronic contribution:      3.21328       3.27176      -2.97480
Nuclear contribution   :     -3.27358      -3.61654       1.70633
                        -----------------------------------------
Total Dipole Moment    :     -0.06029      -0.34478      -1.26847
                        -----------------------------------------
Magnitude (a.u.)       :      1.31587
Magnitude (Debye)      :      3.34468

Rotational constants in cm-1:     0.231961     0.071249     0.059473
Rotational constants in MHz :  6954.024434  2135.976855  1782.962814

                             ****ORCA TERMINATED NORMALLY****
TOTAL RUN TIME: 0 days 0 hours 0 minutes 24 seconds 490 msec
