                         Program Version 5.0.0 -  RELEASE  -
|  1> !wB97X-D3 RIJCOSX def2-SVP def2/J TightSCF
|  2> *xyz 0 1
|  3> C          3.80351        1.37472       -3.26081
|  4> C          3.93993        0.32036       -4.36773
|  5> H          4.10504       -0.65508       -3.90773
|  6> H          3.02280        0.28052       -4.95712
|  7> C          5.10585        0.66802       -5.30546
|  8> O          4.80913        1.15019       -6.41436
|  9> F          6.26737        0.56500       -4.81948
| 10> H          3.64113        2.33595       -3.70189
| 11> H          4.69995        1.39701       -2.67703
| 12> H          2.97435        1.12625       -2.63180
| 13> *
| 14>
| 15> %MaxCore 64000
| 16>
| 17> %pal nprocs 4
| 18> end
| 19>
| 20> %scf
| 21>   MaxIter 150
| 22> end
| 23>
| 24>
| 25>                          ****END OF INPUT****

CARTESIAN COORDINATES (ANGSTROEM)
---------------------------------
  C      3.803510    1.374720   -3.260810
  C      3.939930    0.320360   -4.367730
  H      4.105040   -0.655080   -3.907730
  H      3.022800    0.280520   -4.957120
  C      5.105850    0.668020   -5.305460
  O      4.809130    1.150190   -6.414360
  F      6.267370    0.565000   -4.819480
  H      3.641130    2.335950   -3.701890
  H      4.699950    1.397010   -2.677030
  H      2.974350    1.126250   -2.631800

 Total Charge           Charge          ....    0
 Multiplicity           Mult            ....    1
 Number of Electrons    NEL             ....   40
 Basis Dimension        Dim             ....   95

ORBITAL ENERGIES
----------------

  NO   OCC          E(Eh)            E(eV)
   0   2.0000     -24.856845      -676.3891
   1   2.0000     -19.242251      -523.6083
   2   2.0000     -10.461894      -284.6826
   3   2.0000     -10.316138      -280.7164
   4   2.0000     -10.298433      -280.2346
   5   2.0000      -1.409197       -38.3462
   6   2.0000      -1.138703       -30.9857
   7   2.0000      -0.911165       -24.7941
   8   2.0000      -0.787013       -21.4157
   9   2.0000      -0.741582       -20.1795
  10   2.0000      -0.649640       -17.6776
  11   2.0000      -0.635391       -17.2899
  12   2.0000      -0.600611       -16.3435
  13   2.0000      -0.563171       -15.3246
  14   2.0000      -0.532296       -14.4845
  15   2.0000      -0.497709       -13.5433
  16   2.0000      -0.478511       -13.0209
  17   2.0000      -0.467778       -12.7289
  18   2.0000      -0.444575       -12.0975
  19   2.0000      -0.381103       -10.3703
  20   0.0000       0.067500         1.8368
  21   0.0000       0.145363         3.9555
  22   0.0000       0.191695         5.2163
  23   0.0000       0.198015         5.3883
  24   0.0000       0.222597         6.0572

MULLIKEN ATOMIC CHARGES
-----------------------
   0 C :   -0.058746
   1 C :   -0.110129
   2 H :    0.053479
   3 H :    0.068898
   4 C :    0.258590
   5 O :   -0.258163
   6 F :   -0.096600
   7 H :    0.050439
   8 H :    0.043114
   9 H :    0.049117
Sum of atomic charges:   -0.0000000

LOEWDIN ATOMIC CHARGES
----------------------
   0 C :   -0.045336
   1 C :   -0.071683
   2 H :    0.035052
   3 H :    0.044743
   4 C :    0.112551
   5 O :   -0.191657
   6 F :    0.028526
   7 H :    0.030132
   8 H :    0.026130
   9 H :    0.031542

  Mayer bond orders larger than 0.100000
B(  0-C ,  1-C ) :   1.0666 B(  0-C ,  7-H ) :   0.9762 B(  0-C ,  8-H ) :   0.9767
B(  0-C ,  9-H ) :   0.9748 B(  1-C ,  2-H ) :   0.9404 B(  1-C ,  3-H ) :   0.9545
B(  1-C ,  4-C ) :   0.9959 B(  4-C ,  5-O ) :   2.0906 B(  4-C ,  6-F ) :   1.1687

Dispersion correction           -0.001942473
FINAL SINGLE POINT ENERGY      -292.097437165789

DIPOLE MOMENT
-------------
                                X             Y             Z
Electronic contribution:      6.45287      -0.97105      -4.81846
Nuclear contribution   :     -6.76123       0.61881       5.86003
                        -----------------------------------------
Total Dipole Moment    :     -0.30836      -0.35224       1.04157
                        -----------------------------------------
Magnitude (a.u.)       :      1.14194
Magnitude (Debye)      :      2.90258

Rotational constants in cm-1:     0.275298     0.134631     0.105723
Rotational constants in MHz :  8253.224169  4036.137572  3169.487264

                             ****ORCA TERMINATED NORMALLY****
TOTAL RUN TIME: 0 days 0 hours 0 minutes 15 seconds 418 msec
