                         Program Version 5.0.0 -  RELEASE  -
|  1> !wB97X-D3 RIJCOSX def2-SVP def2/J TightSCF
|  2> *xyz 0 1
|  3> C          3.90595        2.81985       -3.75292
|  4> N          5.29562        3.13151       -4.10533
|  5> C          3.80351        1.37472       -3.26081
|  6> C          5.70862        3.46889       -5.32419
|  7> C          6.90470        3.03895       -5.71708
|  8> N          4.98188        4.29357       -6.09746
|  9> H          5.00055        4.10131       -7.08776
| 10> H          4.08469        4.59690       -5.73965
| 11> H          5.96336        2.52611       -3.64239
| 12> H          7.04716        2.06686       -5.47360
| 13> H          7.19815        3.30799       -6.64523
| 14> H          3.28202        2.94919       -4.64026
| 15> H          3.56525        3.51457       -2.98252
| 16> H          4.14157        0.71142       -4.02935
| 17> H          2.78528        1.15146       -3.01944
| 18> H          4.41205        1.25066       -2.38949
| 19> *
| 20>
| 21> %MaxCore 64000
| 22>
| 23> %pal nprocs 4
| 24> end
| 25>
| 26> %scf
| 27>   MaxIter 150
| 28> end
| 29>
| 30>
| 31>                          ****END OF INPUT****

CARTESIAN COORDINATES (ANGSTROEM)
---------------------------------
  C      3.905950    2.819850   -3.752920
  N      5.295620    3.131510   -4.105330
  C      3.803510    1.374720   -3.260810
  C      5.708620    3.468890   -5.324190
  C      6.904700    3.038950   -5.717080
  N      4.981880    4.293570   -6.097460
  H      5.000550    4.101310   -7.087760
  H      4.084690    4.596900   -5.739650
  H      5.963360    2.526110   -3.642390
  H      7.047160    2.066860   -5.473600
  H      7.198150    3.307990   -6.645230
  H      3.282020    2.949190   -4.640260
  H      3.565250    3.514570   -2.982520
  H      4.141570    0.711420   -4.029350
  H      2.785280    1.151460   -3.019440
  H      4.412050    1.250660   -2.389490

 Total Charge           Charge          ....    0
 Multiplicity           Mult            ....    1
 Number of Electrons    NEL             ....   48
 Basis Dimension        Dim             ....  134

ORBITAL ENERGIES
----------------

  NO   OCC          E(Eh)            E(eV)
   0   2.0000     -14.433499      -392.7555
   1   2.0000     -14.430654      -392.6781
   2   2.0000     -10.331780      -281.1420
   3   2.0000     -10.328199      -281.0446
   4   2.0000     -10.288745      -279.9710
   5   2.0000     -10.193815      -277.3878
   6   2.0000      -1.075494       -29.2657
   7   2.0000      -0.990984       -26.9660
   8   2.0000      -0.881328       -23.9822
   9   2.0000      -0.809957       -22.0400
  10   2.0000      -0.733636       -19.9633
  11   2.0000      -0.696723       -18.9588
  12   2.0000      -0.632483       -17.2107
  13   2.0000      -0.591975       -16.1085
  14   2.0000      -0.584473       -15.9043
  15   2.0000      -0.549120       -14.9423
  16   2.0000      -0.519157       -14.1270
  17   2.0000      -0.496852       -13.5200
  18   2.0000      -0.474463       -12.9108
  19   2.0000      -0.466416       -12.6918
  20   2.0000      -0.465774       -12.6744
  21   2.0000      -0.429465       -11.6863
  22   2.0000      -0.348587        -9.4855
  23   2.0000      -0.253376        -6.8947
  24   0.0000       0.131190         3.5699
  25   0.0000       0.148058         4.0288
  26   0.0000       0.161968         4.4074
  27   0.0000       0.175141         4.7658
  28   0.0000       0.193153         5.2560

MULLIKEN ATOMIC CHARGES
-----------------------
   0 C :    0.055832
   1 N :   -0.182977
   2 C :   -0.064312
   3 C :   -0.041474
   4 C :   -0.113635
   5 N :   -0.123172
   6 H :    0.139808
   7 H :    0.112579
   8 H :    0.124110
   9 H :   -0.027304
  10 H :   -0.048400
  11 H :    0.016473
  12 H :    0.037375
  13 H :    0.040159
  14 H :    0.036099
  15 H :    0.038837
Sum of atomic charges:    0.0000000

LOEWDIN ATOMIC CHARGES
----------------------
   0 C :    0.028943
   1 N :   -0.037471
   2 C :   -0.061564
   3 C :    0.039067
   4 C :   -0.265683
   5 N :   -0.024034
   6 H :    0.081460
   7 H :    0.063781
   8 H :    0.081383
   9 H :   -0.006525
  10 H :   -0.010540
  11 H :    0.013826
  12 H :    0.017175
  13 H :    0.026576
  14 H :    0.028835
  15 H :    0.024770

  Mayer bond orders larger than 0.100000
B(  0-C ,  1-N ) :   0.9783 B(  0-C ,  2-C ) :   1.0950 B(  0-C , 11-H ) :   0.9526
B(  0-C , 12-H ) :   0.9564 B(  1-N ,  3-C ) :   1.2131 B(  1-N ,  8-H ) :   0.9335
B(  2-C , 13-H ) :   0.9762 B(  2-C , 14-H ) :   0.9694 B(  2-C , 15-H ) :   0.9740
B(  3-C ,  4-C ) :   1.7295 B(  3-C ,  5-N ) :   1.1988 B(  4-C ,  9-H ) :   0.9553
B(  4-C , 10-H ) :   0.9575 B(  5-N ,  6-H ) :   0.9503 B(  5-N ,  7-H ) :   0.9535

Dispersion correction           -0.003710801
FINAL SINGLE POINT ENERGY      -267.626750802262

DIPOLE MOMENT
-------------
                                X             Y             Z
Electronic contribution:      1.47901       3.24861      -1.29163
Nuclear contribution   :     -2.93222      -3.63618       1.36440
                        -----------------------------------------
Total Dipole Moment    :     -1.45321      -0.38756       0.07278
                        -----------------------------------------
Magnitude (a.u.)       :      1.50577
Magnitude (Debye)      :      3.82735

Rotational constants in cm-1:     0.237993     0.072843     0.061284
Rotational constants in MHz :  7134.860770  2183.763760  1837.240960

                             ****ORCA TERMINATED NORMALLY****
TOTAL RUN TIME: 0 days 0 hours 0 minutes 25 seconds 827 msec
