                         Program Version 5.0.0 -  RELEASE  -
|  1> !wB97X-D3 RIJCOSX def2-SVP def2/J TightSCF
|  2> *xyz 0 1
|  3> C          3.90595        2.81985       -3.75292
|  4> N          5.29562        3.13151       -4.10533
|  5> C          3.80351        1.37472       -3.26081
|  6> C          5.70862        3.46889       -5.32419
|  7> N          6.90470        3.03895       -5.71708
|  8> C          4.98188        4.29357       -6.09746
|  9> H          5.00055        4.10131       -7.08776
| 10> H          4.08469        4.59690       -5.73965
| 11> H          5.96336        2.52611       -3.64239
| 12> H          7.04716        2.06686       -5.47360
| 13> H          7.19815        3.30799       -6.64523
| 14> H          3.28202        2.94919       -4.64026
| 15> H          3.56525        3.51457       -2.98252
| 16> H          4.14157        0.71142       -4.02935
| 17> H          2.78528        1.15146       -3.01944
| 18> H          4.41205        1.25066       -2.38949
| 19> *
| 20>
| 21> %MaxCore 64000
| 22>
| 23> %pal nprocs 4
| 24> end
| 25>
| 26> %scf
| 27>   MaxIter 150
| 28> end
| 29>
| 30>
| 31>                          ****END OF INPUT****

CARTESIAN COORDINATES (ANGSTROEM)
---------------------------------
  C      3.905950    2.819850   -3.752920
  N      5.295620    3.131510   -4.105330
  C      3.803510    1.374720   -3.260810
  C      5.708620    3.468890   -5.324190
  N      6.904700    3.038950   -5.717080
  C      4.981880    4.293570   -6.097460
  H      5.000550    4.101310   -7.087760
  H      4.084690    4.596900   -5.739650
  H      5.963360    2.526110   -3.642390
  H      7.047160    2.066860   -5.473600
  H      7.198150    3.307990   -6.645230
  H      3.282020    2.949190   -4.640260
  H      3.565250    3.514570   -2.982520
  H      4.141570    0.711420   -4.029350
  H      2.785280    1.151460   -3.019440
  H      4.412050    1.250660   -2.389490

 Total Charge           Charge          ....    0
 Multiplicity           Mult            ....    1
 Number of Electrons    NEL             ....   48
 Basis Dimension        Dim             ....  134

ORBITAL ENERGIES
----------------

  NO   OCC          E(Eh)            E(eV)
   0   2.0000     -14.432723      -392.7344
   1   2.0000     -14.432517      -392.7287
   2   2.0000     -10.330858      -281.1169
   3   2.0000     -10.321078      -280.8508
   4   2.0000     -10.286247      -279.9030
   5   2.0000     -10.199297      -277.5370
   6   2.0000      -1.080298       -29.3964
   7   2.0000      -0.993183       -27.0259
   8   2.0000      -0.869809       -23.6687
   9   2.0000      -0.810467       -22.0539
  10   2.0000      -0.747525       -20.3412
  11   2.0000      -0.666392       -18.1335
  12   2.0000      -0.635415       -17.2905
  13   2.0000      -0.614243       -16.7144
  14   2.0000      -0.571663       -15.5557
  15   2.0000      -0.554318       -15.0838
  16   2.0000      -0.500515       -13.6197
  17   2.0000      -0.497486       -13.5373
  18   2.0000      -0.486028       -13.2255
  19   2.0000      -0.465978       -12.6799
  20   2.0000      -0.456350       -12.4179
  21   2.0000      -0.430778       -11.7221
  22   2.0000      -0.346086        -9.4175
  23   2.0000      -0.256472        -6.9789
  24   0.0000       0.129011         3.5106
  25   0.0000       0.152842         4.1590
  26   0.0000       0.164355         4.4723
  27   0.0000       0.178703         4.8628
  28   0.0000       0.192851         5.2477

MULLIKEN ATOMIC CHARGES
-----------------------
   0 C :    0.080739
   1 N :   -0.199567
   2 C :   -0.068710
   3 C :   -0.038015
   4 N :   -0.102670
   5 C :   -0.124015
   6 H :   -0.029836
   7 H :   -0.032611
   8 H :    0.099956
   9 H :    0.108597
  10 H :    0.128273
  11 H :    0.040130
  12 H :    0.037691
  13 H :    0.028890
  14 H :    0.038285
  15 H :    0.032862
Sum of atomic charges:   -0.0000000

LOEWDIN ATOMIC CHARGES
----------------------
   0 C :    0.043162
   1 N :   -0.035241
   2 C :   -0.064625
   3 C :    0.030351
   4 N :   -0.025836
   5 C :   -0.255497
   6 H :   -0.007401
   7 H :   -0.008476
   8 H :    0.060512
   9 H :    0.061205
  10 H :    0.082846
  11 H :    0.026061
  12 H :    0.019510
  13 H :    0.021655
  14 H :    0.030297
  15 H :    0.021478

  Mayer bond orders larger than 0.100000
B(  0-C ,  1-N ) :   0.9761 B(  0-C ,  2-C ) :   1.0949 B(  0-C , 11-H ) :   0.9473
B(  0-C , 12-H ) :   0.9593 B(  1-N ,  3-C ) :   1.1851 B(  1-N ,  8-H ) :   0.9403
B(  2-C , 13-H ) :   0.9760 B(  2-C , 14-H ) :   0.9689 B(  2-C , 15-H ) :   0.9735
B(  3-C ,  4-N ) :   1.2146 B(  3-C ,  5-C ) :   1.7286 B(  4-N ,  9-H ) :   0.9487
B(  4-N , 10-H ) :   0.9474 B(  5-C ,  6-H ) :   0.9529 B(  5-C ,  7-H ) :   0.9507

Dispersion correction           -0.003688026
FINAL SINGLE POINT ENERGY      -267.631015244057

DIPOLE MOMENT
-------------
                                X             Y             Z
Electronic contribution:      3.46953       2.00761      -0.99849
Nuclear contribution   :     -3.34013      -3.37002       1.28371
                        -----------------------------------------
Total Dipole Moment    :      0.12940      -1.36241       0.28522
                        -----------------------------------------
Magnitude (a.u.)       :      1.39795
Magnitude (Debye)      :      3.55330

Rotational constants in cm-1:     0.239537     0.072280     0.060961
Rotational constants in MHz :  7181.153552  2166.902802  1827.551447

                             ****ORCA TERMINATED NORMALLY****
TOTAL RUN TIME: 0 days 0 hours 0 minutes 24 seconds 533 msec
