                         Program Version 5.0.0 -  RELEASE  -
|  1> !wB97X-D3 RIJCOSX def2-SVP def2/J TightSCF xyzfile
|  2>
|  3> *xyzfile 0 1 D4.xyz
|  4>
|  5> %MaxCore 64000
|  6>
|  7> %pal nprocs 18
|  8> end
|  9>
| 10> %scf
| 11>   MaxIter 150
| 12> end
| 13>
| 14>
| 15>                          ****END OF INPUT****

CARTESIAN COORDINATES (ANGSTROEM)
---------------------------------
  C      3.905947    2.819855   -3.752920
  C      5.295615    3.131515   -4.105334
  C      3.803511    1.374716   -3.260807
  C      3.939934    0.320362   -4.367729
  H      4.105043   -0.655085   -3.907733
  H      3.022801    0.280517   -4.957117
  C      5.105846    0.668022   -5.305463
  C      5.708619    3.468885   -5.324190
  N      6.904696    3.038954   -5.717084
  N      4.981884    4.293570   -6.097457
  H      5.000546    4.101311   -7.087761
  H      4.084693    4.596899   -5.739652
  H      5.963358    2.526112   -3.642391
  H      7.047164    2.066861   -5.473604
  H      7.198145    3.307994   -6.645225
  H      3.282025    2.949187   -4.640259
  H      3.565254    3.514574   -2.982523
  H      4.574833    1.215157   -2.500443
  H      2.843514    1.260845   -2.751465
  O      4.809132    1.150187   -6.414361
  F      6.267366    0.564999   -4.819481

 Total Charge           Charge          ....    0
 Multiplicity           Mult            ....    1
 Number of Electrons    NEL             ....   78
 Basis Dimension        Dim             ....  195

ORBITAL ENERGIES
----------------

  NO   OCC          E(Eh)            E(eV)
   0   2.0000     -24.870102      -676.7499
   1   2.0000     -19.243838      -523.6515
   2   2.0000     -14.430739      -392.6804
   3   2.0000     -14.419482      -392.3741
   4   2.0000     -10.467402      -284.8325
   5   2.0000     -10.328138      -281.0429
   6   2.0000     -10.311081      -280.5788
   7   2.0000     -10.293646      -280.1043
   8   2.0000     -10.272151      -279.5194
   9   2.0000     -10.206141      -277.7232
  10   2.0000      -1.423911       -38.7466
  11   2.0000      -1.143425       -31.1142
  12   2.0000      -1.064865       -28.9765
  13   2.0000      -0.973017       -26.4771
  14   2.0000      -0.925831       -25.1931
  15   2.0000      -0.855521       -23.2799
  16   2.0000      -0.796711       -21.6796
  17   2.0000      -0.761083       -20.7101
  18   2.0000      -0.710613       -19.3368
  19   2.0000      -0.689942       -18.7743
  20   2.0000      -0.658542       -17.9198
  21   2.0000      -0.643864       -17.5204
  22   2.0000      -0.626019       -17.0348
  23   2.0000      -0.606544       -16.5049
  24   2.0000      -0.597845       -16.2682
  25   2.0000      -0.563857       -15.3433
  26   2.0000      -0.561764       -15.2864
  27   2.0000      -0.538640       -14.6571
  28   2.0000      -0.524109       -14.2617
  29   2.0000      -0.492828       -13.4105
  30   2.0000      -0.478873       -13.0308
  31   2.0000      -0.465398       -12.6641
  32   2.0000      -0.455208       -12.3868
  33   2.0000      -0.436492       -11.8775
  34   2.0000      -0.427306       -11.6276
  35   2.0000      -0.416386       -11.3304
  36   2.0000      -0.382334       -10.4038
  37   2.0000      -0.353168        -9.6102
  38   2.0000      -0.250596        -6.8191
  39   0.0000       0.061735         1.6799
  40   0.0000       0.139528         3.7967
  41   0.0000       0.153412         4.1745
  42   0.0000       0.161831         4.4037
  43   0.0000       0.178143         4.8475

MULLIKEN ATOMIC CHARGES
-----------------------
   0 C :    0.011310
   1 C :   -0.093187
   2 C :   -0.099799
   3 C :    0.018168
   4 H :    0.048644
   5 H :    0.058425
   6 C :    0.222795
   7 C :   -0.110658
   8 N :   -0.085163
   9 N :   -0.087620
  10 H :    0.117232
  11 H :    0.127194
  12 H :   -0.073108
  13 H :    0.124012
  14 H :    0.108143
  15 H :   -0.008495
  16 H :    0.019853
  17 H :    0.039595
  18 H :    0.031893
  19 O :   -0.266630
  20 F :   -0.102606
Sum of atomic charges:   -0.0000000

LOEWDIN ATOMIC CHARGES
----------------------
   0 C :   -0.042318
   1 C :   -0.233645
   2 C :   -0.030605
   3 C :   -0.058317
   4 H :    0.036607
   5 H :    0.044026
   6 C :    0.117151
   7 C :    0.031203
   8 N :   -0.017514
   9 N :   -0.020094
  10 H :    0.066444
  11 H :    0.078964
  12 H :   -0.017712
  13 H :    0.052961
  14 H :    0.065256
  15 H :    0.009133
  16 H :    0.019843
  17 H :    0.025806
  18 H :    0.026986
  19 O :   -0.199850
  20 F :    0.045675

  Mayer bond orders larger than 0.100000
B(  0-C ,  1-C ) :   1.0695 B(  0-C ,  2-C ) :   1.0705 B(  0-C , 15-H ) :   0.9416
B(  0-C , 16-H ) :   0.9246 B(  1-C ,  7-C ) :   1.6619 B(  1-C , 12-H ) :   0.9343
B(  2-C ,  3-C ) :   1.0534 B(  2-C , 17-H ) :   0.9555 B(  2-C , 18-H ) :   0.9490
B(  3-C ,  4-H ) :   0.9330 B(  3-C ,  5-H ) :   0.9425 B(  3-C ,  6-C ) :   1.0154
B(  6-C , 19-O ) :   2.0401 B(  6-C , 20-F ) :   1.0971 B(  7-C ,  8-N ) :   1.2574
B(  7-C ,  9-N ) :   1.2616 B(  8-N , 13-H ) :   0.9328 B(  8-N , 14-H ) :   0.9529
B(  9-N , 10-H ) :   0.9423 B(  9-N , 11-H ) :   0.9412

Dispersion correction           -0.008974818
FINAL SINGLE POINT ENERGY      -519.266297180396

DIPOLE MOMENT
-------------
                                X             Y             Z
Electronic contribution:      5.88911      -4.51094      -4.09284
Nuclear contribution   :     -6.25608       3.89116       3.75052
                        -----------------------------------------
Total Dipole Moment    :     -0.36697      -0.61978      -0.34232
                        -----------------------------------------
Magnitude (a.u.)       :      0.79748
Magnitude (Debye)      :      2.02703

Rotational constants in cm-1:     0.061229     0.042568     0.033282
Rotational constants in MHz :  1835.590871  1276.154029   997.769927

                             ****ORCA TERMINATED NORMALLY****
TOTAL RUN TIME: 0 days 0 hours 0 minutes 22 seconds 967 msec
