                         Program Version 5.0.0 -  RELEASE  -
|  1> !wB97X-D3 RIJCOSX def2-SVP def2/J TightSCF xyzfile
|  2>
|  3> *xyzfile 0 1 D6.xyz
|  4>
|  5> %MaxCore 64000
|  6>
|  7> %pal nprocs 18
|  8> end
|  9>
| 10> %scf
| 11>   MaxIter 150
| 12> end
| 13>
| 14>
| 15>                          ****END OF INPUT****

CARTESIAN COORDINATES (ANGSTROEM)
---------------------------------
  C      3.905947    2.819855   -3.752920
  N      5.295615    3.131515   -4.105334
  C      3.803511    1.374716   -3.260807
  C      3.939934    0.320362   -4.367729
  H      4.105043   -0.655085   -3.907733
  H      3.022801    0.280517   -4.957117
  C      5.105846    0.668022   -5.305463
  C      5.708619    3.468885   -5.324190
  N      6.904696    3.038954   -5.717084
  C      4.981884    4.293570   -6.097457
  H      5.000546    4.101311   -7.087761
  H      4.084693    4.596899   -5.739652
  H      5.963358    2.526112   -3.642391
  H      7.047164    2.066861   -5.473604
  H      7.198145    3.307994   -6.645225
  H      3.282025    2.949187   -4.640259
  H      3.565254    3.514574   -2.982523
  H      4.574833    1.215157   -2.500443
  H      2.843514    1.260845   -2.751465
  O      4.809132    1.150187   -6.414361
  F      6.267366    0.564999   -4.819481

 Total Charge           Charge          ....    0
 Multiplicity           Mult            ....    1
 Number of Electrons    NEL             ....   78
 Basis Dimension        Dim             ....  195

ORBITAL ENERGIES
----------------

  NO   OCC          E(Eh)            E(eV)
   0   2.0000     -24.885238      -677.1617
   1   2.0000     -19.257515      -524.0236
   2   2.0000     -14.438557      -392.8931
   3   2.0000     -14.417627      -392.3236
   4   2.0000     -10.477168      -285.0982
   5   2.0000     -10.330867      -281.1172
   6   2.0000     -10.328226      -281.0453
   7   2.0000     -10.325180      -280.9624
   8   2.0000     -10.320066      -280.8233
   9   2.0000     -10.193241      -277.3722
  10   2.0000      -1.439481       -39.1703
  11   2.0000      -1.155327       -31.4380
  12   2.0000      -1.080251       -29.3951
  13   2.0000      -0.994380       -27.0585
  14   2.0000      -0.926941       -25.2234
  15   2.0000      -0.844502       -22.9801
  16   2.0000      -0.805321       -21.9139
  17   2.0000      -0.784330       -21.3427
  18   2.0000      -0.739435       -20.1211
  19   2.0000      -0.682685       -18.5768
  20   2.0000      -0.676526       -18.4092
  21   2.0000      -0.664568       -18.0838
  22   2.0000      -0.622563       -16.9408
  23   2.0000      -0.609876       -16.5956
  24   2.0000      -0.599330       -16.3086
  25   2.0000      -0.583689       -15.8830
  26   2.0000      -0.578938       -15.7537
  27   2.0000      -0.527787       -14.3618
  28   2.0000      -0.523550       -14.2465
  29   2.0000      -0.500675       -13.6241
  30   2.0000      -0.488969       -13.3055
  31   2.0000      -0.482546       -13.1308
  32   2.0000      -0.475856       -12.9487
  33   2.0000      -0.459417       -12.5014
  34   2.0000      -0.452286       -12.3073
  35   2.0000      -0.423548       -11.5253
  36   2.0000      -0.392861       -10.6903
  37   2.0000      -0.344496        -9.3742
  38   2.0000      -0.251458        -6.8425
  39   0.0000       0.050096         1.3632
  40   0.0000       0.129309         3.5187
  41   0.0000       0.151417         4.1203
  42   0.0000       0.165486         4.5031
  43   0.0000       0.179723         4.8905

MULLIKEN ATOMIC CHARGES
-----------------------
   0 C :    0.130946
   1 N :   -0.205637
   2 C :   -0.138310
   3 C :    0.008373
   4 H :    0.057180
   5 H :    0.072041
   6 C :    0.202256
   7 C :   -0.060060
   8 N :   -0.082945
   9 C :   -0.097739
  10 H :   -0.023138
  11 H :   -0.041282
  12 H :    0.100408
  13 H :    0.098350
  14 H :    0.127153
  15 H :    0.051874
  16 H :    0.043095
  17 H :    0.043363
  18 H :    0.051487
  19 O :   -0.229852
  20 F :   -0.107563
Sum of atomic charges:    0.0000000

LOEWDIN ATOMIC CHARGES
----------------------
   0 C :    0.045468
   1 N :   -0.033315
   2 C :   -0.045814
   3 C :   -0.058356
   4 H :    0.039431
   5 H :    0.049035
   6 C :    0.096184
   7 C :    0.024292
   8 N :   -0.024706
   9 C :   -0.244398
  10 H :   -0.003876
  11 H :   -0.011212
  12 H :    0.051304
  13 H :    0.036866
  14 H :    0.082980
  15 H :    0.031786
  16 H :    0.024556
  17 H :    0.025289
  18 H :    0.037188
  19 O :   -0.162239
  20 F :    0.039537

  Mayer bond orders larger than 0.100000
B(  0-C ,  1-N ) :   0.9772 B(  0-C ,  2-C ) :   1.0653 B(  0-C , 15-H ) :   0.9421
B(  0-C , 16-H ) :   0.9538 B(  1-N ,  7-C ) :   1.1367 B(  1-N , 12-H ) :   0.9382
B(  2-C ,  3-C ) :   1.0497 B(  2-C , 17-H ) :   0.9535 B(  2-C , 18-H ) :   0.9484
B(  3-C ,  4-H ) :   0.9369 B(  3-C ,  5-H ) :   0.9452 B(  3-C ,  6-C ) :   0.9985
B(  6-C , 19-O ) :   2.0635 B(  6-C , 20-F ) :   1.0924 B(  7-C ,  8-N ) :   1.2557
B(  7-C ,  9-C ) :   1.7751 B(  8-N , 13-H ) :   0.9417 B(  8-N , 14-H ) :   0.9467
B(  9-C , 10-H ) :   0.9525 B(  9-C , 11-H ) :   0.9464

Dispersion correction           -0.009056826
FINAL SINGLE POINT ENERGY      -519.252589509434

DIPOLE MOMENT
-------------
                                X             Y             Z
Electronic contribution:      6.05252      -5.70936      -2.37909
Nuclear contribution   :     -6.29470       4.03423       3.50525
                        -----------------------------------------
Total Dipole Moment    :     -0.24218      -1.67513       1.12617
                        -----------------------------------------
Magnitude (a.u.)       :      2.03297
Magnitude (Debye)      :      5.16740

Rotational constants in cm-1:     0.061094     0.043661     0.033867
Rotational constants in MHz :  1831.559881  1308.929520  1015.295167

                             ****ORCA TERMINATED NORMALLY****
TOTAL RUN TIME: 0 days 0 hours 0 minutes 19 seconds 704 msec
