                         Program Version 5.0.0 -  RELEASE  -
|  1> !PBE D3BJ RIJCOSX def2-SVPD def2/J TightSCF
|  2> *xyz -1 1
|  3> C          3.93993        0.32036       -4.36773
|  4> C          5.10585        0.66802       -5.30546
|  5> O          4.80913        1.15019       -6.41436
|  6> O          6.26737        0.56500       -4.81948
|  7> H          3.01376        0.44480       -4.88890
|  8> H          3.96058        0.96928       -3.51722
|  9> H          4.03331       -0.69517       -4.04388
| 10> *
| 11>
| 12> %MaxCore 64000
| 13>
| 14> %pal nprocs 4
| 15> end
| 16>
| 17> %scf
| 18>   MaxIter 150
| 19> end
| 20>
| 21>
| 22>                          ****END OF INPUT****

CARTESIAN COORDINATES (ANGSTROEM)
---------------------------------
  C      3.939930    0.320360   -4.367730
  C      5.105850    0.668020   -5.305460
  O      4.809130    1.150190   -6.414360
  O      6.267370    0.565000   -4.819480
  H      3.013760    0.444800   -4.888900
  H      3.960580    0.969280   -3.517220
  H      4.033310   -0.695170   -4.043880

 Total Charge           Charge          ....   -1
 Multiplicity           Mult            ....    1
 Number of Electrons    NEL             ....   32
 Basis Dimension        Dim             ....  110

ORBITAL ENERGIES
----------------

  NO   OCC          E(Eh)            E(eV)
   0   2.0000     -18.504589      -503.5355
   1   2.0000     -18.500849      -503.4337
   2   2.0000      -9.771534      -265.8970
   3   2.0000      -9.705309      -264.0949
   4   2.0000      -0.723032       -19.6747
   5   2.0000      -0.635102       -17.2820
   6   2.0000      -0.465591       -12.6694
   7   2.0000      -0.244179        -6.6445
   8   2.0000      -0.210589        -5.7304
   9   2.0000      -0.194700        -5.2981
  10   2.0000      -0.171163        -4.6576
  11   2.0000      -0.135239        -3.6800
  12   2.0000      -0.122629        -3.3369
  13   2.0000      -0.012185        -0.3316
  14   2.0000       0.003548         0.0966
  15   2.0000       0.019312         0.5255
  16   0.0000       0.156731         4.2649
  17   0.0000       0.197753         5.3811
  18   0.0000       0.200667         5.4604
  19   0.0000       0.224889         6.1195
  20   0.0000       0.241562         6.5732

MULLIKEN ATOMIC CHARGES
-----------------------
   0 C :    0.455435
   1 C :   -0.044518
   2 O :   -0.580899
   3 O :   -0.637259
   4 H :   -0.076680
   5 H :   -0.059539
   6 H :   -0.056541
Sum of atomic charges:   -1.0000000

LOEWDIN ATOMIC CHARGES
----------------------
   0 C :    0.139546
   1 C :   -0.356099
   2 O :   -0.315278
   3 O :   -0.331910
   4 H :   -0.050444
   5 H :   -0.040603
   6 H :   -0.045213

  Mayer bond orders larger than 0.100000
B(  0-C ,  1-C ) :   1.2767 B(  0-C ,  4-H ) :   0.8826 B(  0-C ,  5-H ) :   0.8399
B(  0-C ,  6-H ) :   0.8227 B(  1-C ,  2-O ) :   1.4946 B(  1-C ,  3-O ) :   1.4848
B(  1-C ,  4-H ) :   0.2420 B(  1-C ,  5-H ) :   0.1595 B(  1-C ,  6-H ) :   0.1770

Dispersion correction           -0.003680288
FINAL SINGLE POINT ENERGY      -228.123314548657

DIPOLE MOMENT
-------------
                                X             Y             Z
Electronic contribution:      2.79008       0.89172      -2.28155
Nuclear contribution   :     -3.81330      -1.22874       3.01208
                        -----------------------------------------
Total Dipole Moment    :     -1.02323      -0.33702       0.73053
                        -----------------------------------------
Magnitude (a.u.)       :      1.30163
Magnitude (Debye)      :      3.30849

Rotational constants in cm-1:     0.390282     0.335702     0.186718
Rotational constants in MHz : 11700.346989 10064.094211  5597.661196

                             ****ORCA TERMINATED NORMALLY****
TOTAL RUN TIME: 0 days 0 hours 0 minutes 3 seconds 644 msec
