                         Program Version 5.0.0 -  RELEASE  -
|  1> !PBE D3BJ RIJCOSX def2-SVPD def2/J TightSCF
|  2> *xyz 1 1
|  3> C          3.90595        2.81985       -3.75292
|  4> N          5.29562        3.13151       -4.10533
|  5> C          5.70862        3.46889       -5.32419
|  6> N          6.90470        3.03895       -5.71708
|  7> N          4.98188        4.29357       -6.09746
|  8> H          5.00055        4.10131       -7.08776
|  9> H          4.08469        4.59690       -5.73965
| 10> H          5.96336        2.52611       -3.64239
| 11> H          7.04716        2.06686       -5.47360
| 12> H          7.19815        3.30799       -6.64523
| 13> H          3.24866        3.48801       -4.26909
| 14> H          3.77188        2.93227       -2.69732
| 15> H          3.68381        1.81198       -4.03533
| 16> *
| 17>
| 18> %MaxCore 64000
| 19>
| 20> %pal nprocs 4
| 21> end
| 22>
| 23> %scf
| 24>   MaxIter 150
| 25> end
| 26>
| 27>
| 28>                          ****END OF INPUT****

CARTESIAN COORDINATES (ANGSTROEM)
---------------------------------
  C      3.905950    2.819850   -3.752920
  N      5.295620    3.131510   -4.105330
  C      5.708620    3.468890   -5.324190
  N      6.904700    3.038950   -5.717080
  N      4.981880    4.293570   -6.097460
  H      5.000550    4.101310   -7.087760
  H      4.084690    4.596900   -5.739650
  H      5.963360    2.526110   -3.642390
  H      7.047160    2.066860   -5.473600
  H      7.198150    3.307990   -6.645230
  H      3.248660    3.488010   -4.269090
  H      3.771880    2.932270   -2.697320
  H      3.683810    1.811980   -4.035330

 Total Charge           Charge          ....    1
 Multiplicity           Mult            ....    1
 Number of Electrons    NEL             ....   40
 Basis Dimension        Dim             ....  164

ORBITAL ENERGIES
----------------

  NO   OCC          E(Eh)            E(eV)
   0   2.0000     -14.236156      -387.3855
   1   2.0000     -14.231353      -387.2548
   2   2.0000     -14.230980      -387.2447
   3   2.0000     -10.226592      -278.2797
   4   2.0000     -10.105996      -274.9981
   5   2.0000      -1.135585       -30.9008
   6   2.0000      -1.029153       -28.0047
   7   2.0000      -1.021433       -27.7946
   8   2.0000      -0.842429       -22.9237
   9   2.0000      -0.768415       -20.9096
  10   2.0000      -0.731933       -19.9169
  11   2.0000      -0.707258       -19.2455
  12   2.0000      -0.658678       -17.9235
  13   2.0000      -0.646490       -17.5919
  14   2.0000      -0.606899       -16.5146
  15   2.0000      -0.594326       -16.1724
  16   2.0000      -0.545883       -14.8542
  17   2.0000      -0.538785       -14.6611
  18   2.0000      -0.455533       -12.3957
  19   2.0000      -0.431399       -11.7390
  20   0.0000      -0.233814        -6.3624
  21   0.0000      -0.184447        -5.0190
  22   0.0000      -0.146735        -3.9929
  23   0.0000      -0.137964        -3.7542
  24   0.0000      -0.114636        -3.1194

MULLIKEN ATOMIC CHARGES
-----------------------
   0 C :    1.242777
   1 N :   -0.467353
   2 C :    0.793296
   3 N :    0.048761
   4 N :    0.123631
   5 H :   -0.032955
   6 H :   -0.039622
   7 H :   -0.187716
   8 H :   -0.000104
   9 H :   -0.000451
  10 H :   -0.195264
  11 H :   -0.191846
  12 H :   -0.093153
Sum of atomic charges:    1.0000000

LOEWDIN ATOMIC CHARGES
----------------------
   0 C :    0.265933
   1 N :    0.040043
   2 C :   -0.076475
   3 N :    0.284716
   4 N :    0.296606
   5 H :    0.036536
   6 H :    0.017294
   7 H :    0.049956
   8 H :    0.036860
   9 H :    0.036107
  10 H :   -0.012248
  11 H :    0.013629
  12 H :    0.011041

  Mayer bond orders larger than 0.100000
B(  0-C ,  1-N ) :   0.9262 B(  0-C , 10-H ) :   0.8167 B(  0-C , 11-H ) :   0.7676
B(  0-C , 12-H ) :   0.7814 B(  1-N ,  2-C ) :   1.1637 B(  1-N ,  3-N ) :   0.2132
B(  1-N ,  4-N ) :   0.1130 B(  1-N ,  7-H ) :   1.1764 B(  1-N , 10-H ) :   0.1483
B(  1-N , 11-H ) :   0.2125 B(  1-N , 12-H ) :   0.1372 B(  2-C ,  3-N ) :   1.0210
B(  2-C ,  4-N ) :   1.0342 B(  2-C ,  7-H ) :  -0.1662 B(  3-N ,  4-N ) :   0.1448
B(  3-N ,  8-H ) :   1.0525 B(  3-N ,  9-H ) :   0.9764 B(  4-N ,  5-H ) :   1.1207
B(  4-N ,  6-H ) :   0.9872 B(  5-H ,  6-H ) :  -0.1247

Dispersion correction           -0.009160315
FINAL SINGLE POINT ENERGY      -244.616262074951

DIPOLE MOMENT
-------------
                                X             Y             Z
Electronic contribution:      2.51174       1.10234      -1.17458
Nuclear contribution   :     -2.62204      -1.73043       0.52001
                        -----------------------------------------
Total Dipole Moment    :     -0.11029      -0.62809      -0.65457
                        -----------------------------------------
Magnitude (a.u.)       :      0.91385
Magnitude (Debye)      :      2.32283

Rotational constants in cm-1:     0.299316     0.133886     0.097604
Rotational constants in MHz :  8973.254382  4013.798371  2926.103660

                             ****ORCA TERMINATED NORMALLY****
TOTAL RUN TIME: 0 days 0 hours 0 minutes 6 seconds 699 msec
