                         Program Version 5.0.0 -  RELEASE  -
|  1> !PBE D3BJ RIJCOSX def2-SVPD def2/J TightSCF
|  2> *xyz 0 1
|  3> C          3.93993        0.32036       -4.36773
|  4> C          5.10585        0.66802       -5.30546
|  5> F          4.80913        1.15019       -6.41436
|  6> O          6.26737        0.56500       -4.81948
|  7> H          3.01376        0.44480       -4.88890
|  8> H          3.96058        0.96928       -3.51722
|  9> H          4.03331       -0.69517       -4.04388
| 10> *
| 11>
| 12> %MaxCore 64000
| 13>
| 14> %pal nprocs 4
| 15> end
| 16>
| 17> %scf
| 18>   MaxIter 150
| 19> end
| 20>
| 21>
| 22>                          ****END OF INPUT****

CARTESIAN COORDINATES (ANGSTROEM)
---------------------------------
  C      3.939930    0.320360   -4.367730
  C      5.105850    0.668020   -5.305460
  F      4.809130    1.150190   -6.414360
  O      6.267370    0.565000   -4.819480
  H      3.013760    0.444800   -4.888900
  H      3.960580    0.969280   -3.517220
  H      4.033310   -0.695170   -4.043880

 Total Charge           Charge          ....    0
 Multiplicity           Mult            ....    1
 Number of Electrons    NEL             ....   32
 Basis Dimension        Dim             ....  110

ORBITAL ENERGIES
----------------

  NO   OCC          E(Eh)            E(eV)
   0   2.0000     -24.352449      -662.6638
   1   2.0000     -18.774177      -510.8713
   2   2.0000     -10.073941      -274.1259
   3   2.0000      -9.921793      -269.9857
   4   2.0000      -1.216109       -33.0920
   5   2.0000      -0.937309       -25.5055
   6   2.0000      -0.695887       -18.9361
   7   2.0000      -0.601280       -16.3617
   8   2.0000      -0.498956       -13.5773
   9   2.0000      -0.490548       -13.3485
  10   2.0000      -0.447321       -12.1722
  11   2.0000      -0.399360       -10.8671
  12   2.0000      -0.386416       -10.5149
  13   2.0000      -0.352369        -9.5885
  14   2.0000      -0.315480        -8.5846
  15   2.0000      -0.247957        -6.7472
  16   0.0000      -0.075353        -2.0504
  17   0.0000      -0.004858        -0.1322
  18   0.0000       0.043224         1.1762
  19   0.0000       0.067434         1.8350
  20   0.0000       0.071016         1.9324

MULLIKEN ATOMIC CHARGES
-----------------------
   0 C :    0.418403
   1 C :    0.344721
   2 F :   -0.286269
   3 O :   -0.456599
   4 H :   -0.043759
   5 H :    0.015905
   6 H :    0.007597
Sum of atomic charges:   -0.0000000

LOEWDIN ATOMIC CHARGES
----------------------
   0 C :    0.212915
   1 C :   -0.061858
   2 F :   -0.011174
   3 O :   -0.126909
   4 H :   -0.017362
   5 H :    0.003431
   6 H :    0.000957

  Mayer bond orders larger than 0.100000
B(  0-C ,  1-C ) :   1.2773 B(  0-C ,  4-H ) :   0.8815 B(  0-C ,  5-H ) :   0.8174
B(  0-C ,  6-H ) :   0.8008 B(  1-C ,  2-F ) :   0.8513 B(  1-C ,  3-O ) :   1.7961
B(  1-C ,  4-H ) :   0.1600 B(  1-C ,  5-H ) :   0.1316 B(  1-C ,  6-H ) :   0.1544

Dispersion correction           -0.003401255
FINAL SINGLE POINT ENERGY      -252.637316251449

DIPOLE MOMENT
-------------
                                X             Y             Z
Electronic contribution:      2.45076       1.63760      -4.17748
Nuclear contribution   :     -3.58567      -1.71656       4.24175
                        -----------------------------------------
Total Dipole Moment    :     -1.13491      -0.07896       0.06427
                        -----------------------------------------
Magnitude (a.u.)       :      1.13947
Magnitude (Debye)      :      2.89630

Rotational constants in cm-1:     0.365806     0.323297     0.177262
Rotational constants in MHz : 10966.600844  9692.195205  5314.176777

                             ****ORCA TERMINATED NORMALLY****
TOTAL RUN TIME: 0 days 0 hours 0 minutes 3 seconds 423 msec
