                         Program Version 5.0.0 -  RELEASE  -
|  1> !PBE D3BJ RIJCOSX def2-SVPD def2/J TightSCF
|  2> *xyz 0 1
|  3> C          3.90595        2.81985       -3.75292
|  4> C          5.29562        3.13151       -4.10533
|  5> C          5.70862        3.46889       -5.32419
|  6> N          6.90470        3.03895       -5.71708
|  7> N          4.98188        4.29357       -6.09746
|  8> H          5.00055        4.10131       -7.08776
|  9> H          4.08469        4.59690       -5.73965
| 10> H          5.96336        2.52611       -3.64239
| 11> H          7.04716        2.06686       -5.47360
| 12> H          7.19815        3.30799       -6.64523
| 13> H          3.24866        3.48801       -4.26909
| 14> H          3.77188        2.93227       -2.69732
| 15> H          3.68381        1.81198       -4.03533
| 16> *
| 17>
| 18> %MaxCore 64000
| 19>
| 20> %pal nprocs 4
| 21> end
| 22>
| 23> %scf
| 24>   MaxIter 150
| 25> end
| 26>
| 27>
| 28>                          ****END OF INPUT****

CARTESIAN COORDINATES (ANGSTROEM)
---------------------------------
  C      3.905950    2.819850   -3.752920
  C      5.295620    3.131510   -4.105330
  C      5.708620    3.468890   -5.324190
  N      6.904700    3.038950   -5.717080
  N      4.981880    4.293570   -6.097460
  H      5.000550    4.101310   -7.087760
  H      4.084690    4.596900   -5.739650
  H      5.963360    2.526110   -3.642390
  H      7.047160    2.066860   -5.473600
  H      7.198150    3.307990   -6.645230
  H      3.248660    3.488010   -4.269090
  H      3.771880    2.932270   -2.697320
  H      3.683810    1.811980   -4.035330

 Total Charge           Charge          ....    0
 Multiplicity           Mult            ....    1
 Number of Electrons    NEL             ....   40
 Basis Dimension        Dim             ....  164

ORBITAL ENERGIES
----------------

  NO   OCC          E(Eh)            E(eV)
   0   2.0000     -14.003656      -381.0589
   1   2.0000     -14.002098      -381.0165
   2   2.0000      -9.931627      -270.2533
   3   2.0000      -9.865539      -268.4550
   4   2.0000      -9.826069      -267.3809
   5   2.0000      -0.876476       -23.8501
   6   2.0000      -0.793487       -21.5919
   7   2.0000      -0.677932       -18.4475
   8   2.0000      -0.589325       -16.0363
   9   2.0000      -0.525497       -14.2995
  10   2.0000      -0.486915       -13.2496
  11   2.0000      -0.455267       -12.3885
  12   2.0000      -0.430843       -11.7238
  13   2.0000      -0.382406       -10.4058
  14   2.0000      -0.357219        -9.7204
  15   2.0000      -0.336029        -9.1438
  16   2.0000      -0.310405        -8.4466
  17   2.0000      -0.291008        -7.9187
  18   2.0000      -0.232833        -6.3357
  19   2.0000      -0.139141        -3.7862
  20   0.0000      -0.009412        -0.2561
  21   0.0000       0.015527         0.4225
  22   0.0000       0.030237         0.8228
  23   0.0000       0.034655         0.9430
  24   0.0000       0.067023         1.8238

MULLIKEN ATOMIC CHARGES
-----------------------
   0 C :    0.869329
   1 C :   -0.470568
   2 C :    0.214013
   3 N :    0.084508
   4 N :    0.088434
   5 H :   -0.102068
   6 H :   -0.039600
   7 H :   -0.176800
   8 H :   -0.016417
   9 H :   -0.102715
  10 H :   -0.249082
  11 H :   -0.004999
  12 H :   -0.094036
Sum of atomic charges:    0.0000000

LOEWDIN ATOMIC CHARGES
----------------------
   0 C :    0.096661
   1 C :   -0.053078
   2 C :   -0.261774
   3 N :    0.199093
   4 N :    0.208860
   5 H :   -0.017494
   6 H :   -0.015714
   7 H :   -0.053872
   8 H :    0.000122
   9 H :   -0.016365
  10 H :   -0.043944
  11 H :   -0.022507
  12 H :   -0.019989

  Mayer bond orders larger than 0.100000
B(  0-C ,  1-C ) :   1.1641 B(  0-C ,  7-H ) :   0.2143 B(  0-C , 10-H ) :   0.7336
B(  0-C , 11-H ) :   0.6789 B(  0-C , 12-H ) :   0.8208 B(  1-C ,  2-C ) :   1.8705
B(  1-C ,  3-N ) :   0.3369 B(  1-C ,  4-N ) :   0.1630 B(  1-C ,  7-H ) :   0.6851
B(  1-C , 10-H ) :   0.3202 B(  1-C , 11-H ) :   0.2428 B(  2-C ,  3-N ) :   0.9877
B(  2-C ,  4-N ) :   1.0623 B(  2-C ,  7-H ) :   0.3329 B(  3-N ,  4-N ) :   0.1101
B(  3-N ,  8-H ) :   1.0296 B(  3-N ,  9-H ) :   0.9439 B(  4-N ,  5-H ) :   1.0884
B(  4-N ,  6-H ) :   0.9664 B( 10-H , 11-H ) :   0.1279

Dispersion correction           -0.009549560
FINAL SINGLE POINT ENERGY      -228.159255551242

DIPOLE MOMENT
-------------
                                X             Y             Z
Electronic contribution:      2.54138       1.36858      -1.78836
Nuclear contribution   :     -2.63304      -1.77161       0.70501
                        -----------------------------------------
Total Dipole Moment    :     -0.09166      -0.40303      -1.08335
                        -----------------------------------------
Magnitude (a.u.)       :      1.15952
Magnitude (Debye)      :      2.94726

Rotational constants in cm-1:     0.303572     0.135185     0.098519
Rotational constants in MHz :  9100.846149  4052.756012  2953.539431

                             ****ORCA TERMINATED NORMALLY****
TOTAL RUN TIME: 0 days 0 hours 0 minutes 6 seconds 137 msec
