                         Program Version 5.0.0 -  RELEASE  -
|  1> !PBE D3BJ RIJCOSX def2-SVPD def2/J TightSCF
|  2> *xyz 0 1
|  3> C          3.93993        0.32036       -4.36773
|  4> C          5.10585        0.66802       -5.30546
|  5> O          4.80913        1.15019       -6.41436
|  6> F          6.26737        0.56500       -4.81948
|  7> H          3.01376        0.44480       -4.88890
|  8> H          3.96058        0.96928       -3.51722
|  9> H          4.03331       -0.69517       -4.04388
| 10> *
| 11>
| 12> %MaxCore 64000
| 13>
| 14> %pal nprocs 4
| 15> end
| 16>
| 17> %scf
| 18>   MaxIter 150
| 19> end
| 20>
| 21>
| 22>                          ****END OF INPUT****

CARTESIAN COORDINATES (ANGSTROEM)
---------------------------------
  C      3.939930    0.320360   -4.367730
  C      5.105850    0.668020   -5.305460
  O      4.809130    1.150190   -6.414360
  F      6.267370    0.565000   -4.819480
  H      3.013760    0.444800   -4.888900
  H      3.960580    0.969280   -3.517220
  H      4.033310   -0.695170   -4.043880

 Total Charge           Charge          ....    0
 Multiplicity           Mult            ....    1
 Number of Electrons    NEL             ....   32
 Basis Dimension        Dim             ....  110

ORBITAL ENERGIES
----------------

  NO   OCC          E(Eh)            E(eV)
   0   2.0000     -24.345881      -662.4851
   1   2.0000     -18.776943      -510.9466
   2   2.0000     -10.072328      -274.0820
   3   2.0000      -9.921534      -269.9787
   4   2.0000      -1.202534       -32.7226
   5   2.0000      -0.948295       -25.8044
   6   2.0000      -0.695334       -18.9210
   7   2.0000      -0.594279       -16.1712
   8   2.0000      -0.491985       -13.3876
   9   2.0000      -0.484756       -13.1909
  10   2.0000      -0.446535       -12.1508
  11   2.0000      -0.397784       -10.8243
  12   2.0000      -0.387390       -10.5414
  13   2.0000      -0.354300        -9.6410
  14   2.0000      -0.324256        -8.8234
  15   2.0000      -0.250197        -6.8082
  16   0.0000      -0.071317        -1.9406
  17   0.0000      -0.004581        -0.1247
  18   0.0000       0.043439         1.1820
  19   0.0000       0.066665         1.8140
  20   0.0000       0.073876         2.0103

MULLIKEN ATOMIC CHARGES
-----------------------
   0 C :    0.430860
   1 C :    0.358166
   2 O :   -0.414967
   3 F :   -0.329845
   4 H :   -0.061254
   5 H :    0.011562
   6 H :    0.005479
Sum of atomic charges:   -0.0000000

LOEWDIN ATOMIC CHARGES
----------------------
   0 C :    0.213037
   1 C :   -0.062318
   2 O :   -0.114953
   3 F :   -0.023196
   4 H :   -0.003452
   5 H :   -0.001971
   6 H :   -0.007148

  Mayer bond orders larger than 0.100000
B(  0-C ,  1-C ) :   1.2587 B(  0-C ,  4-H ) :   0.8867 B(  0-C ,  5-H ) :   0.8146
B(  0-C ,  6-H ) :   0.8050 B(  1-C ,  2-O ) :   1.8357 B(  1-C ,  3-F ) :   0.7876
B(  1-C ,  4-H ) :   0.2081 B(  1-C ,  5-H ) :   0.1258 B(  1-C ,  6-H ) :   0.1372
B(  2-O ,  3-F ) :   0.1001

Dispersion correction           -0.003401250
FINAL SINGLE POINT ENERGY      -252.642727653655

DIPOLE MOMENT
-------------
                                X             Y             Z
Electronic contribution:      4.79329       0.69546      -1.60866
Nuclear contribution   :     -5.09247      -1.11188       2.59376
                        -----------------------------------------
Total Dipole Moment    :     -0.29917      -0.41642       0.98511
                        -----------------------------------------
Magnitude (a.u.)       :      1.11056
Magnitude (Debye)      :      2.82283

Rotational constants in cm-1:     0.367940     0.321271     0.177147
Rotational constants in MHz : 11030.570495  9631.458923  5310.737691

                             ****ORCA TERMINATED NORMALLY****
TOTAL RUN TIME: 0 days 0 hours 0 minutes 3 seconds 449 msec
