                         Program Version 5.0.0 -  RELEASE  -
|  1> !PBE D3BJ RIJCOSX def2-SVPD def2/J TightSCF
|  2> *xyz 0 1
|  3> C          3.90595        2.81985       -3.75292
|  4> N          5.29562        3.13151       -4.10533
|  5> C          5.70862        3.46889       -5.32419
|  6> C          6.90470        3.03895       -5.71708
|  7> N          4.98188        4.29357       -6.09746
|  8> H          5.00055        4.10131       -7.08776
|  9> H          4.08469        4.59690       -5.73965
| 10> H          5.96336        2.52611       -3.64239
| 11> H          7.04716        2.06686       -5.47360
| 12> H          7.19815        3.30799       -6.64523
| 13> H          3.24866        3.48801       -4.26909
| 14> H          3.77188        2.93227       -2.69732
| 15> H          3.68381        1.81198       -4.03533
| 16> *
| 17>
| 18> %MaxCore 64000
| 19>
| 20> %pal nprocs 4
| 21> end
| 22>
| 23> %scf
| 24>   MaxIter 150
| 25> end
| 26>
| 27>
| 28>                          ****END OF INPUT****

CARTESIAN COORDINATES (ANGSTROEM)
---------------------------------
  C      3.905950    2.819850   -3.752920
  N      5.295620    3.131510   -4.105330
  C      5.708620    3.468890   -5.324190
  C      6.904700    3.038950   -5.717080
  N      4.981880    4.293570   -6.097460
  H      5.000550    4.101310   -7.087760
  H      4.084690    4.596900   -5.739650
  H      5.963360    2.526110   -3.642390
  H      7.047160    2.066860   -5.473600
  H      7.198150    3.307990   -6.645230
  H      3.248660    3.488010   -4.269090
  H      3.771880    2.932270   -2.697320
  H      3.683810    1.811980   -4.035330

 Total Charge           Charge          ....    0
 Multiplicity           Mult            ....    1
 Number of Electrons    NEL             ....   40
 Basis Dimension        Dim             ....  164

ORBITAL ENERGIES
----------------

  NO   OCC          E(Eh)            E(eV)
   0   2.0000     -14.007186      -381.1549
   1   2.0000     -14.005264      -381.1026
   2   2.0000      -9.937528      -270.4139
   3   2.0000      -9.928338      -270.1638
   4   2.0000      -9.812610      -267.0147
   5   2.0000      -0.882048       -24.0017
   6   2.0000      -0.803589       -21.8668
   7   2.0000      -0.673489       -18.3266
   8   2.0000      -0.603173       -16.4132
   9   2.0000      -0.540653       -14.7119
  10   2.0000      -0.483708       -13.1624
  11   2.0000      -0.444410       -12.0930
  12   2.0000      -0.434070       -11.8117
  13   2.0000      -0.404156       -10.9976
  14   2.0000      -0.363087        -9.8801
  15   2.0000      -0.346240        -9.4217
  16   2.0000      -0.341966        -9.3054
  17   2.0000      -0.300147        -8.1674
  18   2.0000      -0.220304        -5.9948
  19   2.0000      -0.146996        -4.0000
  20   0.0000      -0.010253        -0.2790
  21   0.0000       0.011360         0.3091
  22   0.0000       0.028806         0.7839
  23   0.0000       0.036913         1.0045
  24   0.0000       0.060928         1.6579

MULLIKEN ATOMIC CHARGES
-----------------------
   0 C :    1.201174
   1 N :   -0.500914
   2 C :    0.145386
   3 C :    0.516246
   4 N :    0.164546
   5 H :   -0.069821
   6 H :   -0.135166
   7 H :   -0.163588
   8 H :   -0.244239
   9 H :   -0.329908
  10 H :   -0.234566
  11 H :   -0.239737
  12 H :   -0.109412
Sum of atomic charges:   -0.0000000

LOEWDIN ATOMIC CHARGES
----------------------
   0 C :    0.207681
   1 N :   -0.024924
   2 C :   -0.263619
   3 C :    0.146841
   4 N :    0.214868
   5 H :    0.001164
   6 H :   -0.029528
   7 H :    0.020012
   8 H :   -0.102636
   9 H :   -0.103552
  10 H :   -0.033058
  11 H :   -0.015844
  12 H :   -0.017406

  Mayer bond orders larger than 0.100000
B(  0-C ,  1-N ) :   0.9256 B(  0-C , 10-H ) :   0.8174 B(  0-C , 11-H ) :   0.7569
B(  0-C , 12-H ) :   0.7843 B(  1-N ,  2-C ) :   1.1825 B(  1-N ,  3-C ) :   0.2281
B(  1-N ,  7-H ) :   1.1331 B(  1-N , 10-H ) :   0.1522 B(  1-N , 11-H ) :   0.2208
B(  1-N , 12-H ) :   0.1270 B(  2-C ,  3-C ) :   1.7390 B(  2-C ,  4-N ) :   1.0193
B(  2-C ,  7-H ) :  -0.1119 B(  2-C ,  8-H ) :   0.2390 B(  2-C ,  9-H ) :   0.3464
B(  3-C ,  4-N ) :   0.2380 B(  3-C ,  8-H ) :   0.8364 B(  3-C ,  9-H ) :   0.5651
B(  4-N ,  5-H ) :   1.0930 B(  4-N ,  6-H ) :   0.9710 B(  5-H ,  6-H ) :  -0.1174
B(  8-H ,  9-H ) :   0.2092

Dispersion correction           -0.009493304
FINAL SINGLE POINT ENERGY      -228.145358536469

DIPOLE MOMENT
-------------
                                X             Y             Z
Electronic contribution:      0.98509       1.47824      -0.29093
Nuclear contribution   :     -2.30713      -1.79036       0.37856
                        -----------------------------------------
Total Dipole Moment    :     -1.32204      -0.31213       0.08763
                        -----------------------------------------
Magnitude (a.u.)       :      1.36121
Magnitude (Debye)      :      3.45992

Rotational constants in cm-1:     0.307513     0.139026     0.101190
Rotational constants in MHz :  9218.994719  4167.905268  3033.592538

                             ****ORCA TERMINATED NORMALLY****
TOTAL RUN TIME: 0 days 0 hours 0 minutes 6 seconds 675 msec
