                         Program Version 5.0.0 -  RELEASE  -
|  1> !PBE D3BJ RIJCOSX def2-SVPD def2/J TightSCF
|  2> *xyz 0 1
|  3> C          3.90595        2.81985       -3.75292
|  4> N          5.29562        3.13151       -4.10533
|  5> C          5.70862        3.46889       -5.32419
|  6> N          6.90470        3.03895       -5.71708
|  7> C          4.98188        4.29357       -6.09746
|  8> H          5.00055        4.10131       -7.08776
|  9> H          4.08469        4.59690       -5.73965
| 10> H          5.96336        2.52611       -3.64239
| 11> H          7.04716        2.06686       -5.47360
| 12> H          7.19815        3.30799       -6.64523
| 13> H          3.24866        3.48801       -4.26909
| 14> H          3.77188        2.93227       -2.69732
| 15> H          3.68381        1.81198       -4.03533
| 16> *
| 17>
| 18> %MaxCore 64000
| 19>
| 20> %pal nprocs 4
| 21> end
| 22>
| 23> %scf
| 24>   MaxIter 150
| 25> end
| 26>
| 27>
| 28>                          ****END OF INPUT****

CARTESIAN COORDINATES (ANGSTROEM)
---------------------------------
  C      3.905950    2.819850   -3.752920
  N      5.295620    3.131510   -4.105330
  C      5.708620    3.468890   -5.324190
  N      6.904700    3.038950   -5.717080
  C      4.981880    4.293570   -6.097460
  H      5.000550    4.101310   -7.087760
  H      4.084690    4.596900   -5.739650
  H      5.963360    2.526110   -3.642390
  H      7.047160    2.066860   -5.473600
  H      7.198150    3.307990   -6.645230
  H      3.248660    3.488010   -4.269090
  H      3.771880    2.932270   -2.697320
  H      3.683810    1.811980   -4.035330

 Total Charge           Charge          ....    0
 Multiplicity           Mult            ....    1
 Number of Electrons    NEL             ....   40
 Basis Dimension        Dim             ....  164

ORBITAL ENERGIES
----------------

  NO   OCC          E(Eh)            E(eV)
   0   2.0000     -14.008940      -381.2026
   1   2.0000     -14.004688      -381.0869
   2   2.0000      -9.937072      -270.4015
   3   2.0000      -9.922681      -270.0099
   4   2.0000      -9.816726      -267.1267
   5   2.0000      -0.887112       -24.1395
   6   2.0000      -0.805317       -21.9138
   7   2.0000      -0.651340       -17.7239
   8   2.0000      -0.627274       -17.0690
   9   2.0000      -0.511432       -13.9168
  10   2.0000      -0.490942       -13.3592
  11   2.0000      -0.471204       -12.8221
  12   2.0000      -0.409477       -11.1424
  13   2.0000      -0.401468       -10.9245
  14   2.0000      -0.372076       -10.1247
  15   2.0000      -0.341032        -9.2800
  16   2.0000      -0.335276        -9.1233
  17   2.0000      -0.303258        -8.2521
  18   2.0000      -0.221334        -6.0228
  19   2.0000      -0.147639        -4.0175
  20   0.0000      -0.009022        -0.2455
  21   0.0000       0.014927         0.4062
  22   0.0000       0.028360         0.7717
  23   0.0000       0.035841         0.9753
  24   0.0000       0.060494         1.6461

MULLIKEN ATOMIC CHARGES
-----------------------
   0 C :    1.248229
   1 N :   -0.390011
   2 C :    0.077596
   3 N :    0.016030
   4 C :    0.480290
   5 H :   -0.336381
   6 H :   -0.195519
   7 H :   -0.292550
   8 H :   -0.044317
   9 H :    0.014674
  10 H :   -0.211167
  11 H :   -0.226410
  12 H :   -0.140464
Sum of atomic charges:    0.0000000

LOEWDIN ATOMIC CHARGES
----------------------
   0 C :    0.217063
   1 N :   -0.025526
   2 C :   -0.274282
   3 N :    0.200477
   4 C :    0.165832
   5 H :   -0.104083
   6 H :   -0.114346
   7 H :    0.007484
   8 H :   -0.013804
   9 H :    0.000013
  10 H :   -0.026462
  11 H :   -0.015681
  12 H :   -0.016685

  Mayer bond orders larger than 0.100000
B(  0-C ,  1-N ) :   0.8996 B(  0-C , 10-H ) :   0.8229 B(  0-C , 11-H ) :   0.7444
B(  0-C , 12-H ) :   0.7760 B(  1-N ,  2-C ) :   1.1576 B(  1-N ,  3-N ) :   0.1717
B(  1-N ,  4-C ) :   0.2402 B(  1-N ,  7-H ) :   1.1074 B(  1-N , 10-H ) :   0.1316
B(  1-N , 11-H ) :   0.2085 B(  1-N , 12-H ) :   0.1642 B(  2-C ,  3-N ) :   1.0402
B(  2-C ,  4-C ) :   1.8119 B(  2-C ,  5-H ) :   0.2211 B(  2-C ,  6-H ) :   0.2881
B(  3-N ,  4-C ) :   0.1748 B(  3-N ,  8-H ) :   0.9878 B(  3-N ,  9-H ) :   0.9657
B(  4-C ,  5-H ) :   0.8218 B(  4-C ,  6-H ) :   0.5287 B(  5-H ,  6-H ) :   0.3035

Dispersion correction           -0.009527824
FINAL SINGLE POINT ENERGY      -228.148517402448

DIPOLE MOMENT
-------------
                                X             Y             Z
Electronic contribution:      2.79886       0.31329       0.00675
Nuclear contribution   :     -2.69659      -1.53624       0.30152
                        -----------------------------------------
Total Dipole Moment    :      0.10227      -1.22296       0.30827
                        -----------------------------------------
Magnitude (a.u.)       :      1.26535
Magnitude (Debye)      :      3.21626

Rotational constants in cm-1:     0.320409     0.134796     0.100241
Rotational constants in MHz :  9605.632807  4041.079317  3005.150506

                             ****ORCA TERMINATED NORMALLY****
TOTAL RUN TIME: 0 days 0 hours 0 minutes 6 seconds 880 msec
