                         Program Version 5.0.0 -  RELEASE  -
|  1> !PBE D3BJ RIJCOSX def2-SVPD def2/J TightSCF xyzfile
|  2>
|  3> *xyzfile 0 1 D1.xyz
|  4>
|  5> %MaxCore 64000
|  6>
|  7> %pal nprocs 4
|  8> end
|  9>
| 10> %scf
| 11>   MaxIter 150
| 12> end
| 13>
| 14>
| 15>                          ****END OF INPUT****

CARTESIAN COORDINATES (ANGSTROEM)
---------------------------------
  C      3.905947    2.819855   -3.752920
  C      5.295615    3.131515   -4.105334
  C      3.803511    1.374716   -3.260807
  C      3.939934    0.320362   -4.367729
  H      4.105043   -0.655085   -3.907733
  H      3.022801    0.280517   -4.957117
  C      5.105846    0.668022   -5.305463
  C      5.708619    3.468885   -5.324190
  N      6.904696    3.038954   -5.717084
  N      4.981884    4.293570   -6.097457
  H      5.000546    4.101311   -7.087761
  H      4.084693    4.596899   -5.739652
  H      5.963358    2.526112   -3.642391
  H      7.047164    2.066861   -5.473604
  H      7.198145    3.307994   -6.645225
  H      3.282025    2.949187   -4.640259
  H      3.565254    3.514574   -2.982523
  H      4.574833    1.215157   -2.500443
  H      2.843514    1.260845   -2.751465
  F      4.809132    1.150187   -6.414361
  O      6.267366    0.564999   -4.819481

 Total Charge           Charge          ....    0
 Multiplicity           Mult            ....    1
 Number of Electrons    NEL             ....   78
 Basis Dimension        Dim             ....  294

ORBITAL ENERGIES
----------------

  NO   OCC          E(Eh)            E(eV)
   0   2.0000     -24.351268      -662.6317
   1   2.0000     -18.772194      -510.8174
   2   2.0000     -14.007193      -381.1551
   3   2.0000     -13.986111      -380.5814
   4   2.0000     -10.070092      -274.0211
   5   2.0000      -9.934487      -270.3311
   6   2.0000      -9.922427      -270.0030
   7   2.0000      -9.904091      -269.5040
   8   2.0000      -9.887825      -269.0614
   9   2.0000      -9.829355      -267.4704
  10   2.0000      -1.214770       -33.0556
  11   2.0000      -0.941845       -25.6289
  12   2.0000      -0.873847       -23.7786
  13   2.0000      -0.789381       -21.4801
  14   2.0000      -0.738783       -20.1033
  15   2.0000      -0.677056       -18.4236
  16   2.0000      -0.624776       -17.0010
  17   2.0000      -0.594690       -16.1823
  18   2.0000      -0.547156       -14.8889
  19   2.0000      -0.524712       -14.2781
  20   2.0000      -0.500684       -13.6243
  21   2.0000      -0.487815       -13.2741
  22   2.0000      -0.475024       -12.9261
  23   2.0000      -0.466778       -12.7017
  24   2.0000      -0.448879       -12.2146
  25   2.0000      -0.420725       -11.4485
  26   2.0000      -0.412710       -11.2304
  27   2.0000      -0.393479       -10.7071
  28   2.0000      -0.384972       -10.4756
  29   2.0000      -0.349740        -9.5169
  30   2.0000      -0.344122        -9.3640
  31   2.0000      -0.326850        -8.8940
  32   2.0000      -0.320799        -8.7294
  33   2.0000      -0.307270        -8.3612
  34   2.0000      -0.295115        -8.0305
  35   2.0000      -0.283466        -7.7135
  36   2.0000      -0.252690        -6.8760
  37   2.0000      -0.225963        -6.1488
  38   2.0000      -0.146061        -3.9745
  39   0.0000      -0.074005        -2.0138
  40   0.0000      -0.009270        -0.2523
  41   0.0000       0.011583         0.3152
  42   0.0000       0.017438         0.4745
  43   0.0000       0.024013         0.6534

MULLIKEN ATOMIC CHARGES
-----------------------
   0 C :    0.363050
   1 C :    0.016499
   2 C :    0.193121
   3 C :    0.279879
   4 H :   -0.084203
   5 H :   -0.008918
   6 C :    0.730380
   7 C :    0.151933
   8 N :    0.275449
   9 N :    0.013181
  10 H :   -0.072936
  11 H :   -0.002418
  12 H :   -0.221573
  13 H :   -0.107112
  14 H :   -0.064060
  15 H :   -0.142882
  16 H :   -0.248160
  17 H :    0.058148
  18 H :   -0.182254
  19 F :   -0.363149
  20 O :   -0.583976
Sum of atomic charges:   -0.0000000

LOEWDIN ATOMIC CHARGES
----------------------
   0 C :   -0.050101
   1 C :   -0.005102
   2 C :   -0.017628
   3 C :    0.061176
   4 H :    0.036751
   5 H :    0.023563
   6 C :   -0.022051
   7 C :   -0.259106
   8 N :    0.234576
   9 N :    0.221594
  10 H :   -0.014456
  11 H :   -0.009103
  12 H :   -0.049803
  13 H :   -0.076984
  14 H :   -0.006218
  15 H :    0.007785
  16 H :    0.012061
  17 H :    0.034245
  18 H :    0.021134
  19 F :   -0.005292
  20 O :   -0.137042

  Mayer bond orders larger than 0.100000
B(  0-C ,  1-C ) :   1.0154 B(  0-C ,  2-C ) :   1.2331 B(  0-C , 12-H ) :   0.2356
B(  0-C , 15-H ) :   0.7591 B(  0-C , 16-H ) :   0.8058 B(  0-C , 18-H ) :   0.2272
B(  1-C ,  2-C ) :   0.1575 B(  1-C ,  7-C ) :   1.6740 B(  1-C ,  8-N ) :   0.3614
B(  1-C ,  9-N ) :   0.1879 B(  1-C , 12-H ) :   0.4229 B(  1-C , 15-H ) :   0.1177
B(  1-C , 16-H ) :   0.1726 B(  2-C ,  3-C ) :   1.2199 B(  2-C ,  4-H ) :   0.1866
B(  2-C ,  5-H ) :   0.1263 B(  2-C , 17-H ) :   0.7903 B(  2-C , 18-H ) :   0.8534
B(  3-C ,  4-H ) :   0.7876 B(  3-C ,  5-H ) :   0.8524 B(  3-C ,  6-C ) :   1.1130
B(  4-H ,  6-C ) :   0.1234 B(  5-H ,  6-C ) :   0.1259 B(  6-C , 19-F ) :   0.6727
B(  6-C , 20-O ) :   1.5968 B(  7-C ,  8-N ) :   0.8908 B(  7-C ,  9-N ) :   0.9605
B(  7-C , 12-H ) :   0.3050 B(  7-C , 14-H ) :   0.1851 B(  8-N ,  9-N ) :   0.1728
B(  8-N , 13-H ) :   0.8889 B(  8-N , 14-H ) :   0.8294 B(  9-N , 10-H ) :   1.0763
B(  9-N , 11-H ) :   0.9641 B( 10-H , 11-H ) :  -0.1069 B( 13-H , 20-O ) :   0.1326
B( 15-H , 16-H ) :  -0.1195

Dispersion correction           -0.022828417
FINAL SINGLE POINT ENERGY      -518.852397558158

DIPOLE MOMENT
-------------
                                X             Y             Z
Electronic contribution:      3.48025      -3.51148      -6.43644
Nuclear contribution   :     -4.60158       3.22721       5.56005
                        -----------------------------------------
Total Dipole Moment    :     -1.12133      -0.28426      -0.87638
                        -----------------------------------------
Magnitude (a.u.)       :      1.45129
Magnitude (Debye)      :      3.68889

Rotational constants in cm-1:     0.061224     0.042534     0.033552
Rotational constants in MHz :  1835.464095  1275.135177  1005.856966

                             ****ORCA TERMINATED NORMALLY****
TOTAL RUN TIME: 0 days 0 hours 0 minutes 21 seconds 46 msec
