                         Program Version 5.0.0 -  RELEASE  -
|  1> !PBE D3BJ RIJCOSX def2-SVPD def2/J TightSCF xyzfile
|  2>
|  3> *xyzfile 0 1 D2.xyz
|  4>
|  5> %MaxCore 64000
|  6>
|  7> %pal nprocs 4
|  8> end
|  9>
| 10> %scf
| 11>   MaxIter 150
| 12> end
| 13>
| 14>
| 15>                          ****END OF INPUT****

CARTESIAN COORDINATES (ANGSTROEM)
---------------------------------
  C      3.905947    2.819855   -3.752920
  N      5.295615    3.131515   -4.105334
  C      3.803511    1.374716   -3.260807
  C      3.939934    0.320362   -4.367729
  H      4.105043   -0.655085   -3.907733
  H      3.022801    0.280517   -4.957117
  C      5.105846    0.668022   -5.305463
  C      5.708619    3.468885   -5.324190
  C      6.904696    3.038954   -5.717084
  N      4.981884    4.293570   -6.097457
  H      5.000546    4.101311   -7.087761
  H      4.084693    4.596899   -5.739652
  H      5.963358    2.526112   -3.642391
  H      7.047164    2.066861   -5.473604
  H      7.198145    3.307994   -6.645225
  H      3.282025    2.949187   -4.640259
  H      3.565254    3.514574   -2.982523
  H      4.574833    1.215157   -2.500443
  H      2.843514    1.260845   -2.751465
  F      4.809132    1.150187   -6.414361
  O      6.267366    0.564999   -4.819481

 Total Charge           Charge          ....    0
 Multiplicity           Mult            ....    1
 Number of Electrons    NEL             ....   78
 Basis Dimension        Dim             ....  294

ORBITAL ENERGIES
----------------

  NO   OCC          E(Eh)            E(eV)
   0   2.0000     -24.353562      -662.6941
   1   2.0000     -18.774432      -510.8783
   2   2.0000     -14.005962      -381.1216
   3   2.0000     -14.001912      -381.0114
   4   2.0000     -10.074039      -274.1285
   5   2.0000      -9.943757      -270.5834
   6   2.0000      -9.934964      -270.3441
   7   2.0000      -9.929134      -270.1855
   8   2.0000      -9.927907      -270.1521
   9   2.0000      -9.795946      -266.5612
  10   2.0000      -1.216592       -33.1052
  11   2.0000      -0.944135       -25.6912
  12   2.0000      -0.882304       -24.0087
  13   2.0000      -0.806620       -21.9493
  14   2.0000      -0.742039       -20.1919
  15   2.0000      -0.671716       -18.2783
  16   2.0000      -0.629648       -17.1336
  17   2.0000      -0.599417       -16.3110
  18   2.0000      -0.560058       -15.2400
  19   2.0000      -0.540057       -14.6957
  20   2.0000      -0.505719       -13.7613
  21   2.0000      -0.490850       -13.3567
  22   2.0000      -0.480886       -13.0856
  23   2.0000      -0.456654       -12.4262
  24   2.0000      -0.448875       -12.2145
  25   2.0000      -0.434608       -11.8263
  26   2.0000      -0.423446       -11.5226
  27   2.0000      -0.394617       -10.7381
  28   2.0000      -0.374206       -10.1827
  29   2.0000      -0.362889        -9.8747
  30   2.0000      -0.349302        -9.5050
  31   2.0000      -0.347251        -9.4492
  32   2.0000      -0.327029        -8.8989
  33   2.0000      -0.326045        -8.8721
  34   2.0000      -0.306718        -8.3462
  35   2.0000      -0.293518        -7.9870
  36   2.0000      -0.238969        -6.5027
  37   2.0000      -0.220845        -6.0095
  38   2.0000      -0.138357        -3.7649
  39   0.0000      -0.080584        -2.1928
  40   0.0000      -0.013553        -0.3688
  41   0.0000       0.005954         0.1620
  42   0.0000       0.014898         0.4054
  43   0.0000       0.021189         0.5766

MULLIKEN ATOMIC CHARGES
-----------------------
   0 C :    0.797893
   1 N :   -0.305063
   2 C :    0.101804
   3 C :    0.239529
   4 H :   -0.081106
   5 H :    0.000059
   6 C :    0.683423
   7 C :    0.009499
   8 C :    0.785706
   9 N :    0.069927
  10 H :   -0.032297
  11 H :   -0.035947
  12 H :   -0.079057
  13 H :   -0.441884
  14 H :   -0.256871
  15 H :   -0.024379
  16 H :   -0.372626
  17 H :    0.055971
  18 H :   -0.168450
  19 F :   -0.350877
  20 O :   -0.595253
Sum of atomic charges:    0.0000000

LOEWDIN ATOMIC CHARGES
----------------------
   0 C :    0.051854
   1 N :    0.024759
   2 C :   -0.008916
   3 C :    0.059902
   4 H :    0.038515
   5 H :    0.024891
   6 C :   -0.021055
   7 C :   -0.273107
   8 C :    0.170808
   9 N :    0.219147
  10 H :    0.000074
  11 H :   -0.024893
  12 H :    0.013065
  13 H :   -0.153642
  14 H :   -0.089933
  15 H :    0.015461
  16 H :    0.015667
  17 H :    0.033288
  18 H :    0.025364
  19 F :    0.005298
  20 O :   -0.126547

  Mayer bond orders larger than 0.100000
B(  0-C ,  1-N ) :   0.8478 B(  0-C ,  2-C ) :   1.1917 B(  0-C , 15-H ) :   0.7129
B(  0-C , 16-H ) :   0.8222 B(  0-C , 18-H ) :   0.1955 B(  1-N ,  2-C ) :   0.1611
B(  1-N ,  7-C ) :   1.1411 B(  1-N ,  8-C ) :   0.2106 B(  1-N , 12-H ) :   1.0366
B(  1-N , 15-H ) :   0.1453 B(  1-N , 16-H ) :   0.1223 B(  2-C ,  3-C ) :   1.2384
B(  2-C ,  4-H ) :   0.1880 B(  2-C ,  5-H ) :   0.1266 B(  2-C , 17-H ) :   0.8043
B(  2-C , 18-H ) :   0.9085 B(  3-C ,  4-H ) :   0.7852 B(  3-C ,  5-H ) :   0.8505
B(  3-C ,  6-C ) :   1.1125 B(  4-H ,  6-C ) :   0.1293 B(  5-H ,  6-C ) :   0.1323
B(  6-C , 19-F ) :   0.7002 B(  6-C , 20-O ) :   1.6886 B(  7-C ,  8-C ) :   1.7657
B(  7-C ,  9-N ) :   0.8741 B(  7-C , 11-H ) :   0.1652 B(  7-C , 12-H ) :  -0.1471
B(  7-C , 13-H ) :   0.2108 B(  7-C , 14-H ) :   0.4713 B(  8-C ,  9-N ) :   0.3132
B(  8-C , 13-H ) :   0.5344 B(  8-C , 14-H ) :   0.3006 B(  9-N , 10-H ) :   1.0587
B(  9-N , 11-H ) :   0.8427 B(  9-N , 14-H ) :   0.1118 B( 10-H , 11-H ) :  -0.1275
B( 13-H , 14-H ) :   0.1895 B( 13-H , 20-O ) :   0.2128 B( 15-H , 16-H ) :  -0.1336

Dispersion correction           -0.022717319
FINAL SINGLE POINT ENERGY      -518.821643546611

DIPOLE MOMENT
-------------
                                X             Y             Z
Electronic contribution:      2.15836      -3.71084      -5.18190
Nuclear contribution   :     -4.40347       3.21582       5.36161
                        -----------------------------------------
Total Dipole Moment    :     -2.24511      -0.49502       0.17971
                        -----------------------------------------
Magnitude (a.u.)       :      2.30605
Magnitude (Debye)      :      5.86150

Rotational constants in cm-1:     0.061226     0.043199     0.033926
Rotational constants in MHz :  1835.503528  1295.087558  1017.061512

                             ****ORCA TERMINATED NORMALLY****
TOTAL RUN TIME: 0 days 0 hours 0 minutes 22 seconds 663 msec
