                         Program Version 5.0.0 -  RELEASE  -
|  1> !PBE D3BJ RIJCOSX def2-SVPD def2/J TightSCF xyzfile
|  2>
|  3> *xyzfile 0 1 D3.xyz
|  4>
|  5> %MaxCore 64000
|  6>
|  7> %pal nprocs 4
|  8> end
|  9>
| 10> %scf
| 11>   MaxIter 150
| 12> end
| 13>
| 14>
| 15>                          ****END OF INPUT****

CARTESIAN COORDINATES (ANGSTROEM)
---------------------------------
  C      3.905947    2.819855   -3.752920
  N      5.295615    3.131515   -4.105334
  C      3.803511    1.374716   -3.260807
  C      3.939934    0.320362   -4.367729
  H      4.105043   -0.655085   -3.907733
  H      3.022801    0.280517   -4.957117
  C      5.105846    0.668022   -5.305463
  C      5.708619    3.468885   -5.324190
  N      6.904696    3.038954   -5.717084
  C      4.981884    4.293570   -6.097457
  H      5.000546    4.101311   -7.087761
  H      4.084693    4.596899   -5.739652
  H      5.963358    2.526112   -3.642391
  H      7.047164    2.066861   -5.473604
  H      7.198145    3.307994   -6.645225
  H      3.282025    2.949187   -4.640259
  H      3.565254    3.514574   -2.982523
  H      4.574833    1.215157   -2.500443
  H      2.843514    1.260845   -2.751465
  F      4.809132    1.150187   -6.414361
  O      6.267366    0.564999   -4.819481

 Total Charge           Charge          ....    0
 Multiplicity           Mult            ....    1
 Number of Electrons    NEL             ....   78
 Basis Dimension        Dim             ....  294

ORBITAL ENERGIES
----------------

  NO   OCC          E(Eh)            E(eV)
   0   2.0000     -24.363937      -662.9764
   1   2.0000     -18.791601      -511.3455
   2   2.0000     -14.008663      -381.1951
   3   2.0000     -13.983059      -380.4984
   4   2.0000     -10.088628      -274.5255
   5   2.0000      -9.940567      -270.4966
   6   2.0000      -9.940471      -270.4940
   7   2.0000      -9.931618      -270.2531
   8   2.0000      -9.929300      -270.1900
   9   2.0000      -9.812207      -267.0037
  10   2.0000      -1.226882       -33.3851
  11   2.0000      -0.961571       -26.1657
  12   2.0000      -0.883577       -24.0434
  13   2.0000      -0.804533       -21.8925
  14   2.0000      -0.741410       -20.1748
  15   2.0000      -0.666982       -18.1495
  16   2.0000      -0.632221       -17.2036
  17   2.0000      -0.613053       -16.6820
  18   2.0000      -0.572757       -15.5855
  19   2.0000      -0.515920       -14.0389
  20   2.0000      -0.513818       -13.9817
  21   2.0000      -0.499572       -13.5940
  22   2.0000      -0.482374       -13.1261
  23   2.0000      -0.465553       -12.6683
  24   2.0000      -0.452040       -12.3006
  25   2.0000      -0.435962       -11.8631
  26   2.0000      -0.426924       -11.6172
  27   2.0000      -0.391717       -10.6592
  28   2.0000      -0.380844       -10.3633
  29   2.0000      -0.366991        -9.9863
  30   2.0000      -0.348622        -9.4865
  31   2.0000      -0.346832        -9.4378
  32   2.0000      -0.335493        -9.1292
  33   2.0000      -0.329361        -8.9624
  34   2.0000      -0.319320        -8.6891
  35   2.0000      -0.292114        -7.9488
  36   2.0000      -0.267827        -7.2879
  37   2.0000      -0.214778        -5.8444
  38   2.0000      -0.144331        -3.9274
  39   0.0000      -0.093466        -2.5433
  40   0.0000      -0.010090        -0.2746
  41   0.0000       0.013742         0.3739
  42   0.0000       0.016774         0.4564
  43   0.0000       0.025820         0.7026

MULLIKEN ATOMIC CHARGES
-----------------------
   0 C :    0.825151
   1 N :   -0.253952
   2 C :    0.151417
   3 C :    0.280270
   4 H :   -0.083666
   5 H :   -0.002401
   6 C :    0.708078
   7 C :    0.087192
   8 N :    0.189991
   9 C :    0.415496
  10 H :   -0.418018
  11 H :   -0.159916
  12 H :   -0.202001
  13 H :   -0.130233
  14 H :    0.035223
  15 H :    0.011184
  16 H :   -0.447117
  17 H :    0.046544
  18 H :   -0.162439
  19 F :   -0.337893
  20 O :   -0.552910
Sum of atomic charges:   -0.0000000

LOEWDIN ATOMIC CHARGES
----------------------
   0 C :    0.065645
   1 N :    0.026112
   2 C :   -0.007390
   3 C :    0.062825
   4 H :    0.039448
   5 H :    0.028044
   6 C :   -0.015830
   7 C :   -0.283317
   8 N :    0.231299
   9 C :    0.161725
  10 H :   -0.102502
  11 H :   -0.111319
  12 H :    0.003967
  13 H :   -0.088901
  14 H :    0.007736
  15 H :    0.021184
  16 H :    0.021012
  17 H :    0.031164
  18 H :    0.027565
  19 F :    0.013579
  20 O :   -0.132047

  Mayer bond orders larger than 0.100000
B(  0-C ,  1-N ) :   0.8728 B(  0-C ,  2-C ) :   1.1644 B(  0-C , 15-H ) :   0.7294
B(  0-C , 16-H ) :   0.8612 B(  0-C , 18-H ) :   0.2067 B(  1-N ,  2-C ) :   0.1754
B(  1-N ,  7-C ) :   1.2041 B(  1-N ,  8-N ) :   0.1194 B(  1-N ,  9-C ) :   0.2687
B(  1-N , 12-H ) :   0.9873 B(  1-N , 15-H ) :   0.1569 B(  2-C ,  3-C ) :   1.2264
B(  2-C ,  4-H ) :   0.1886 B(  2-C ,  5-H ) :   0.1257 B(  2-C , 17-H ) :   0.8058
B(  2-C , 18-H ) :   0.8887 B(  3-C ,  4-H ) :   0.7803 B(  3-C ,  5-H ) :   0.8346
B(  3-C ,  6-C ) :   1.1265 B(  4-H ,  6-C ) :   0.1352 B(  5-H ,  6-C ) :   0.1530
B(  6-C , 19-F ) :   0.7207 B(  6-C , 20-O ) :   1.6228 B(  7-C ,  8-N ) :   1.0076
B(  7-C ,  9-C ) :   1.7918 B(  7-C , 10-H ) :   0.2137 B(  7-C , 11-H ) :   0.3326
B(  7-C , 12-H ) :  -0.1859 B(  7-C , 13-H ) :   0.1299 B(  7-C , 14-H ) :   0.1166
B(  8-N ,  9-C ) :   0.1816 B(  8-N , 13-H ) :   0.8283 B(  8-N , 14-H ) :   0.8967
B(  9-C , 10-H ) :   0.8349 B(  9-C , 11-H ) :   0.5440 B( 10-H , 11-H ) :   0.1908
B( 13-H , 20-O ) :   0.1023 B( 15-H , 16-H ) :  -0.1316

Dispersion correction           -0.022710818
FINAL SINGLE POINT ENERGY      -518.840012372644

DIPOLE MOMENT
-------------
                                X             Y             Z
Electronic contribution:      3.63170      -4.77755      -4.87484
Nuclear contribution   :     -4.64021       3.37029       5.31478
                        -----------------------------------------
Total Dipole Moment    :     -1.00851      -1.40727       0.43994
                        -----------------------------------------
Magnitude (a.u.)       :      1.78635
Magnitude (Debye)      :      4.54054

Rotational constants in cm-1:     0.061077     0.043622     0.034103
Rotational constants in MHz :  1831.041375  1307.759852  1022.388536

                             ****ORCA TERMINATED NORMALLY****
TOTAL RUN TIME: 0 days 0 hours 0 minutes 19 seconds 367 msec
