                         Program Version 5.0.0 -  RELEASE  -
|  1> !B3LYP D3BJ RIJCOSX def2-SVPD def2/J TightSCF
|  2> *xyz -1 1
|  3> C         -0.81136       -2.90878       -4.60763
|  4> C         -1.91658       -2.48508       -3.64367
|  5> H         -2.55452       -1.71243       -4.09199
|  6> C         -1.36353       -1.98134       -2.29361
|  7> H         -2.55345       -3.35567       -3.45881
|  8> O         -0.35039       -2.74969       -1.79601
|  9> H         -2.22622       -1.90839       -1.60204
| 10> H         -1.05135       -0.91567       -2.44333
| 11> H         -1.24783       -3.24801       -5.52377
| 12> H         -0.24047       -3.70079       -4.16978
| 13> H         -0.17107       -2.07453       -4.80501
| 14> *
| 15>
| 16> %MaxCore 64000
| 17> %pal nprocs 4
| 18> end
| 19>
| 20> %scf
| 21>   MaxIter 150
| 22> end
| 23>
| 24>
| 25>                          ****END OF INPUT****

CARTESIAN COORDINATES (ANGSTROEM)
---------------------------------
  C     -0.811360   -2.908780   -4.607630
  C     -1.916580   -2.485080   -3.643670
  H     -2.554520   -1.712430   -4.091990
  C     -1.363530   -1.981340   -2.293610
  H     -2.553450   -3.355670   -3.458810
  O     -0.350390   -2.749690   -1.796010
  H     -2.226220   -1.908390   -1.602040
  H     -1.051350   -0.915670   -2.443330
  H     -1.247830   -3.248010   -5.523770
  H     -0.240470   -3.700790   -4.169780
  H     -0.171070   -2.074530   -4.805010

 Total Charge           Charge          ....   -1
 Multiplicity           Mult            ....    1
 Number of Electrons    NEL             ....   34
 Basis Dimension        Dim             ....  139

ORBITAL ENERGIES
----------------

  NO   OCC          E(Eh)            E(eV)
   0   2.0000     -18.813306      -511.9361
   1   2.0000     -10.000631      -272.1310
   2   2.0000      -9.996869      -272.0286
   3   2.0000      -9.991535      -271.8835
   4   2.0000      -0.677719       -18.4417
   5   2.0000      -0.573658       -15.6100
   6   2.0000      -0.460834       -12.5399
   7   2.0000      -0.356957        -9.7133
   8   2.0000      -0.274591        -7.4720
   9   2.0000      -0.263300        -7.1648
  10   2.0000      -0.213005        -5.7962
  11   2.0000      -0.189484        -5.1561
  12   2.0000      -0.161651        -4.3988
  13   2.0000      -0.149904        -4.0791
  14   2.0000      -0.115503        -3.1430
  15   2.0000       0.023398         0.6367
  16   2.0000       0.027371         0.7448
  17   0.0000       0.165258         4.4969
  18   0.0000       0.189259         5.1500
  19   0.0000       0.206832         5.6282
  20   0.0000       0.228801         6.2260
  21   0.0000       0.249522         6.7898

MULLIKEN ATOMIC CHARGES
-----------------------
   0 C :    0.839195
   1 C :   -0.380561
   2 H :   -0.167477
   3 C :    0.577161
   4 H :   -0.133094
   5 O :   -0.867241
   6 H :   -0.257160
   7 H :   -0.179547
   8 H :   -0.195551
   9 H :   -0.086161
  10 H :   -0.149565
Sum of atomic charges:   -1.0000000

LOEWDIN ATOMIC CHARGES
----------------------
   0 C :    0.089590
   1 C :   -0.107210
   2 H :   -0.016799
   3 C :   -0.211805
   4 H :   -0.007754
   5 O :   -0.544510
   6 H :   -0.040487
   7 H :   -0.033740
   8 H :   -0.054553
   9 H :   -0.038392
  10 H :   -0.034340

  Mayer bond orders larger than 0.100000
B(  0-C ,  1-C ) :   1.2702 B(  0-C ,  4-H ) :   0.1019 B(  0-C ,  8-H ) :   0.7391
B(  0-C ,  9-H ) :   0.7800 B(  0-C , 10-H ) :   0.7748 B(  1-C ,  2-H ) :   0.9770
B(  1-C ,  3-C ) :   1.0476 B(  1-C ,  4-H ) :   0.9153 B(  1-C ,  5-O ) :   0.1207
B(  1-C ,  6-H ) :   0.1759 B(  1-C ,  7-H ) :   0.1737 B(  1-C ,  8-H ) :   0.2366
B(  1-C ,  9-H ) :   0.2315 B(  1-C , 10-H ) :   0.2272 B(  2-H ,  3-C ) :   0.1139
B(  3-C ,  4-H ) :   0.1188 B(  3-C ,  5-O ) :   1.1551 B(  3-C ,  6-H ) :   0.9167
B(  3-C ,  7-H ) :   0.9119 B(  6-H ,  7-H ) :   0.1060

Dispersion correction           -0.010983123
FINAL SINGLE POINT ENERGY      -193.501330297696

DIPOLE MOMENT
-------------
                                X             Y             Z
Electronic contribution:      1.29291      -0.56327       2.54773
Nuclear contribution   :     -2.20255       0.75707      -4.26861
                        -----------------------------------------
Total Dipole Moment    :     -0.90964       0.19380      -1.72089
                        -----------------------------------------
Magnitude (a.u.)       :      1.95613
Magnitude (Debye)      :      4.97209

Rotational constants in cm-1:     0.480704     0.187939     0.150770
Rotational constants in MHz : 14411.155440  5634.276828  4519.982802

                             ****ORCA TERMINATED NORMALLY****
TOTAL RUN TIME: 0 days 0 hours 0 minutes 10 seconds 275 msec
