                         Program Version 5.0.0 -  RELEASE  -
|  1> !B3LYP D3BJ RIJCOSX def2-SVPD def2/J TightSCF
|  2> *xyz 1 1
|  3> C          1.64703       -2.34528       -5.02041
|  4> C          0.21763       -1.81402       -4.92439
|  5> C          2.20996       -2.81239       -3.66571
|  6> H          2.30838       -1.58870       -5.45713
|  7> H          1.67429       -3.20348       -5.69739
|  8> C          2.48901       -1.66851       -2.73754
|  9> N          3.59631       -0.94761       -2.95225
| 10> N          1.66394       -1.41369       -1.77781
| 11> H          0.81164       -1.96318       -1.70275
| 12> H          1.84550       -0.63508       -1.15875
| 13> H          4.20535       -1.17600       -3.73383
| 14> H          3.81723       -0.12585       -2.40604
| 15> H          3.14311       -3.36280       -3.81152
| 16> H          1.48768       -3.45893       -3.16521
| 17> H         -0.11459       -1.50684       -5.89401
| 18> H          0.19193       -0.97796       -4.25713
| 19> H         -0.42543       -2.58523       -4.55479
| 20> *
| 21>
| 22> %MaxCore 64000
| 23> %pal nprocs 4
| 24> end
| 25>
| 26> %scf
| 27>   MaxIter 150
| 28> end
| 29>
| 30>
| 31>                          ****END OF INPUT****

CARTESIAN COORDINATES (ANGSTROEM)
---------------------------------
  C      1.647030   -2.345280   -5.020410
  C      0.217630   -1.814020   -4.924390
  C      2.209960   -2.812390   -3.665710
  H      2.308380   -1.588700   -5.457130
  H      1.674290   -3.203480   -5.697390
  C      2.489010   -1.668510   -2.737540
  N      3.596310   -0.947610   -2.952250
  N      1.663940   -1.413690   -1.777810
  H      0.811640   -1.963180   -1.702750
  H      1.845500   -0.635080   -1.158750
  H      4.205350   -1.176000   -3.733830
  H      3.817230   -0.125850   -2.406040
  H      3.143110   -3.362800   -3.811520
  H      1.487680   -3.458930   -3.165210
  H     -0.114590   -1.506840   -5.894010
  H      0.191930   -0.977960   -4.257130
  H     -0.425430   -2.585230   -4.554790

 Total Charge           Charge          ....    1
 Multiplicity           Mult            ....    1
 Number of Electrons    NEL             ....   48
 Basis Dimension        Dim             ....  208

ORBITAL ENERGIES
----------------

  NO   OCC          E(Eh)            E(eV)
   0   2.0000     -14.579754      -396.7353
   1   2.0000     -14.570365      -396.4798
   2   2.0000     -10.501561      -285.7620
   3   2.0000     -10.376375      -282.3555
   4   2.0000     -10.344571      -281.4901
   5   2.0000     -10.310386      -280.5599
   6   2.0000      -1.194643       -32.5079
   7   2.0000      -1.099231       -29.9116
   8   2.0000      -0.966070       -26.2881
   9   2.0000      -0.881311       -23.9817
  10   2.0000      -0.830137       -22.5892
  11   2.0000      -0.784825       -21.3562
  12   2.0000      -0.768161       -20.9027
  13   2.0000      -0.731780       -19.9128
  14   2.0000      -0.704389       -19.1674
  15   2.0000      -0.651023       -17.7152
  16   2.0000      -0.624635       -16.9972
  17   2.0000      -0.599181       -16.3045
  18   2.0000      -0.571859       -15.5611
  19   2.0000      -0.561430       -15.2773
  20   2.0000      -0.506839       -13.7918
  21   2.0000      -0.502138       -13.6639
  22   2.0000      -0.497221       -13.5301
  23   2.0000      -0.486949       -13.2506
  24   0.0000      -0.209389        -5.6978
  25   0.0000      -0.159847        -4.3497
  26   0.0000      -0.119713        -3.2576
  27   0.0000      -0.114308        -3.1105
  28   0.0000      -0.088625        -2.4116

MULLIKEN ATOMIC CHARGES
-----------------------
   0 C :   -0.124591
   1 C :    0.980109
   2 C :    0.204914
   3 H :   -0.108074
   4 H :   -0.133416
   5 C :    0.636120
   6 N :    0.133927
   7 N :    0.186301
   8 H :    0.044107
   9 H :   -0.133993
  10 H :    0.002740
  11 H :   -0.169879
  12 H :   -0.117520
  13 H :   -0.027006
  14 H :   -0.150000
  15 H :   -0.189620
  16 H :   -0.034118
Sum of atomic charges:    1.0000000

LOEWDIN ATOMIC CHARGES
----------------------
   0 C :   -0.036209
   1 C :    0.149356
   2 C :    0.050345
   3 H :    0.023683
   4 H :    0.037097
   5 C :   -0.050381
   6 N :    0.288394
   7 N :    0.294498
   8 H :    0.059156
   9 H :    0.053091
  10 H :    0.049672
  11 H :    0.040287
  12 H :    0.044722
  13 H :    0.034413
  14 H :   -0.002309
  15 H :   -0.027337
  16 H :   -0.008480

  Mayer bond orders larger than 0.100000
B(  0-C ,  1-C ) :   1.3220 B(  0-C ,  2-C ) :   1.1622 B(  0-C ,  3-H ) :   0.8652
B(  0-C ,  4-H ) :   0.9302 B(  0-C , 13-H ) :   0.1165 B(  0-C , 14-H ) :   0.2385
B(  0-C , 15-H ) :   0.2460 B(  0-C , 16-H ) :   0.2244 B(  1-C , 14-H ) :   0.7338
B(  1-C , 15-H ) :   0.7550 B(  1-C , 16-H ) :   0.7353 B(  2-C ,  3-H ) :   0.1315
B(  2-C ,  4-H ) :   0.1096 B(  2-C ,  5-C ) :   1.0905 B(  2-C ,  6-N ) :   0.1227
B(  2-C ,  7-N ) :   0.1053 B(  2-C , 12-H ) :   0.8724 B(  2-C , 13-H ) :   0.8043
B(  5-C ,  6-N ) :   1.1115 B(  5-C ,  7-N ) :   1.1480 B(  5-C ,  9-H ) :  -0.1601
B(  5-C , 11-H ) :  -0.1570 B(  5-C , 12-H ) :   0.1009 B(  5-C , 13-H ) :   0.1553
B(  6-N ,  7-N ) :   0.1665 B(  6-N , 10-H ) :   1.1153 B(  6-N , 11-H ) :   1.2858
B(  7-N ,  8-H ) :   1.0848 B(  7-N ,  9-H ) :   1.2861 B(  8-H ,  9-H ) :  -0.1695
B( 10-H , 11-H ) :  -0.1795

Dispersion correction           -0.022457050
FINAL SINGLE POINT ENERGY      -268.017267496390

DIPOLE MOMENT
-------------
                                X             Y             Z
Electronic contribution:      3.26812       1.27665       4.36841
Nuclear contribution   :     -2.54148      -0.64126      -3.14660
                        -----------------------------------------
Total Dipole Moment    :      0.72664       0.63540       1.22181
                        -----------------------------------------
Magnitude (a.u.)       :      1.55710
Magnitude (Debye)      :      3.95782

Rotational constants in cm-1:     0.179759     0.078784     0.067518
Rotational constants in MHz :  5389.046501  2361.884510  2024.132984

                             ****ORCA TERMINATED NORMALLY****
TOTAL RUN TIME: 0 days 0 hours 0 minutes 20 seconds 995 msec
