                         Program Version 5.0.0 -  RELEASE  -
|  1> !B3LYP D3BJ RIJCOSX def2-SVPD def2/J TightSCF xyzfile
|  2>
|  3> *xyzfile 0 1 B.xyz
|  4>
|  5> %MaxCore 64000
|  6>
|  7> %pal nprocs 4
|  8> end
|  9>
| 10> %scf
| 11>   MaxIter 150
| 12> end
| 13>
| 14>
| 15>                          ****END OF INPUT****

CARTESIAN COORDINATES (ANGSTROEM)
---------------------------------
  C      1.647032   -2.345276   -5.020411
  C      0.217628   -1.814022   -4.924389
  C      2.209964   -2.812388   -3.665708
  C     -0.811356   -2.908780   -4.607625
  C     -1.916579   -2.485081   -3.643665
  H     -2.554525   -1.712428   -4.091993
  C     -1.363531   -1.981337   -2.293608
  H     -2.553448   -3.355667   -3.458815
  O     -0.350395   -2.749689   -1.796006
  H      2.308385   -1.588704   -5.457128
  H      1.674286   -3.203478   -5.697392
  C      2.489007   -1.668510   -2.737538
  N      3.596314   -0.947608   -2.952247
  N      1.663936   -1.413685   -1.777806
  H      0.811642   -1.963178   -1.702755
  H      1.845503   -0.635078   -1.158749
  H      4.205351   -1.176003   -3.733825
  H      3.817230   -0.125845   -2.406041
  H     -1.244829   -3.280884   -5.541040
  H     -0.306331   -3.757746   -4.142734
  H     -0.036244   -1.318555   -5.865303
  H      0.175004   -1.035382   -4.158095
  H      3.143106   -3.362803   -3.811524
  H      1.487683   -3.458935   -3.165211
  H     -2.226220   -1.908386   -1.602039
  H     -1.051353   -0.915671   -2.443331

 Total Charge           Charge          ....    0
 Multiplicity           Mult            ....    1
 Number of Electrons    NEL             ....   80
 Basis Dimension        Dim             ....  331

ORBITAL ENERGIES
----------------

  NO   OCC          E(Eh)            E(eV)
   0   2.0000     -18.996198      -516.9128
   1   2.0000     -14.408803      -392.0835
   2   2.0000     -14.362366      -390.8199
   3   2.0000     -10.322048      -280.8772
   4   2.0000     -10.208037      -277.7748
   5   2.0000     -10.196210      -277.4530
   6   2.0000     -10.166429      -276.6426
   7   2.0000     -10.158437      -276.4251
   8   2.0000     -10.146708      -276.1060
   9   2.0000     -10.129828      -275.6466
  10   2.0000      -1.014534       -27.6069
  11   2.0000      -0.922144       -25.0928
  12   2.0000      -0.867942       -23.6179
  13   2.0000      -0.809529       -22.0284
  14   2.0000      -0.748005       -20.3543
  15   2.0000      -0.698803       -19.0154
  16   2.0000      -0.648538       -17.6476
  17   2.0000      -0.627077       -17.0636
  18   2.0000      -0.599543       -16.3144
  19   2.0000      -0.586537       -15.9605
  20   2.0000      -0.559906       -15.2358
  21   2.0000      -0.523492       -14.2449
  22   2.0000      -0.497837       -13.5468
  23   2.0000      -0.484797       -13.1920
  24   2.0000      -0.464183       -12.6311
  25   2.0000      -0.441065       -12.0020
  26   2.0000      -0.429299       -11.6818
  27   2.0000      -0.403053       -10.9676
  28   2.0000      -0.391249       -10.6464
  29   2.0000      -0.387881       -10.5548
  30   2.0000      -0.357224        -9.7206
  31   2.0000      -0.348927        -9.4948
  32   2.0000      -0.339337        -9.2338
  33   2.0000      -0.319803        -8.7023
  34   2.0000      -0.312663        -8.5080
  35   2.0000      -0.300170        -8.1681
  36   2.0000      -0.291840        -7.9414
  37   2.0000      -0.285096        -7.7579
  38   2.0000      -0.169743        -4.6189
  39   2.0000      -0.162097        -4.4109
  40   0.0000      -0.037288        -1.0147
  41   0.0000      -0.020986        -0.5711
  42   0.0000       0.015232         0.4145
  43   0.0000       0.036207         0.9852
  44   0.0000       0.043085         1.1724

MULLIKEN ATOMIC CHARGES
-----------------------
   0 C :    0.462499
   1 C :    0.339353
   2 C :    0.334794
   3 C :    0.223279
   4 C :    0.418998
   5 H :   -0.245171
   6 C :    0.661276
   7 H :   -0.050129
   8 O :   -0.734034
   9 H :   -0.174372
  10 H :   -0.175570
  11 C :    0.595761
  12 N :    0.142216
  13 N :    0.586830
  14 H :   -0.427755
  15 H :   -0.174945
  16 H :   -0.091834
  17 H :   -0.203545
  18 H :   -0.326364
  19 H :   -0.033664
  20 H :   -0.271742
  21 H :   -0.164573
  22 H :   -0.199406
  23 H :   -0.060039
  24 H :   -0.495215
  25 H :    0.063351
Sum of atomic charges:   -0.0000000

LOEWDIN ATOMIC CHARGES
----------------------
   0 C :   -0.009744
   1 C :   -0.009832
   2 C :    0.058485
   3 C :   -0.024173
   4 C :   -0.025169
   5 H :    0.011135
   6 C :   -0.082125
   7 H :    0.014899
   8 O :   -0.398825
   9 H :    0.007578
  10 H :    0.025292
  11 C :   -0.049172
  12 N :    0.243305
  13 N :    0.315687
  14 H :   -0.195071
  15 H :    0.034949
  16 H :    0.022349
  17 H :    0.015985
  18 H :    0.011937
  19 H :   -0.000024
  20 H :    0.016531
  21 H :   -0.006120
  22 H :    0.026757
  23 H :    0.007933
  24 H :   -0.000475
  25 H :   -0.012093

  Mayer bond orders larger than 0.100000
B(  0-C ,  1-C ) :   1.2056 B(  0-C ,  2-C ) :   1.1312 B(  0-C ,  9-H ) :   0.6666
B(  0-C , 10-H ) :   0.7988 B(  0-C , 21-H ) :   0.1721 B(  0-C , 22-H ) :   0.1227
B(  0-C , 23-H ) :   0.1140 B(  1-C ,  2-C ) :   0.1383 B(  1-C ,  3-C ) :   1.1494
B(  1-C ,  9-H ) :   0.2103 B(  1-C , 10-H ) :   0.1166 B(  1-C , 18-H ) :   0.2409
B(  1-C , 19-H ) :   0.1140 B(  1-C , 20-H ) :   0.7681 B(  1-C , 21-H ) :   0.7413
B(  2-C ,  9-H ) :   0.1557 B(  2-C , 10-H ) :   0.1475 B(  2-C , 11-C ) :   1.0715
B(  2-C , 12-N ) :   0.1109 B(  2-C , 22-H ) :   0.7236 B(  2-C , 23-H ) :   0.8066
B(  3-C ,  4-C ) :   1.2321 B(  3-C ,  5-H ) :   0.1562 B(  3-C ,  7-H ) :   0.2454
B(  3-C , 18-H ) :   0.7946 B(  3-C , 19-H ) :   0.7649 B(  3-C , 20-H ) :   0.1347
B(  3-C , 21-H ) :   0.1824 B(  4-C ,  5-H ) :   0.8524 B(  4-C ,  6-C ) :   1.1022
B(  4-C ,  7-H ) :   0.6210 B(  4-C , 19-H ) :   0.1027 B(  4-C , 24-H ) :   0.1593
B(  4-C , 25-H ) :   0.1235 B(  5-H ,  6-C ) :   0.1217 B(  6-C ,  7-H ) :   0.1387
B(  6-C ,  8-O ) :   0.9711 B(  6-C , 24-H ) :   0.9659 B(  6-C , 25-H ) :   0.7782
B(  8-O , 14-H ) :   0.4983 B(  9-H , 10-H ) :  -0.1247 B( 11-C , 12-N ) :   0.9998
B( 11-C , 13-N ) :   1.2175 B( 11-C , 15-H ) :  -0.2113 B( 11-C , 16-H ) :  -0.1562
B( 11-C , 17-H ) :  -0.1256 B( 11-C , 22-H ) :   0.1499 B( 11-C , 23-H ) :   0.2104
B( 12-N , 13-N ) :   0.1758 B( 12-N , 16-H ) :   1.2207 B( 12-N , 17-H ) :   1.2759
B( 13-N , 14-H ) :   0.9201 B( 13-N , 15-H ) :   1.2498 B( 14-H , 15-H ) :  -0.2126
B( 16-H , 17-H ) :  -0.1780 B( 19-H , 23-H ) :   0.1223 B( 20-H , 21-H ) :  -0.1040

Dispersion correction           -0.043698642
FINAL SINGLE POINT ENERGY      -460.520968045658

DIPOLE MOMENT
-------------
                                X             Y             Z
Electronic contribution:      5.59229       0.89362       4.30106
Nuclear contribution   :     -2.25948       0.71378      -5.15247
                        -----------------------------------------
Total Dipole Moment    :      3.33281       1.60740      -0.85141
                        -----------------------------------------
Magnitude (a.u.)       :      3.79687
Magnitude (Debye)      :      9.65088

Rotational constants in cm-1:     0.063973     0.031829     0.024059
Rotational constants in MHz :  1917.874550   954.201145   721.285252

                             ****ORCA TERMINATED NORMALLY****
TOTAL RUN TIME: 0 days 0 hours 1 minutes 31 seconds 649 msec
