                         Program Version 5.0.0 -  RELEASE  -
|  1> !B3LYP D3BJ RIJCOSX def2-SVPD def2/J TightSCF
|  2> *xyz 0 1
|  3> C         -0.81136       -2.90878       -4.60763
|  4> C         -1.91658       -2.48508       -3.64367
|  5> H         -2.55452       -1.71243       -4.09199
|  6> C         -1.36353       -1.98134       -2.29361
|  7> H         -2.55345       -3.35567       -3.45881
|  8> F         -0.35039       -2.74969       -1.79601
|  9> H         -2.22622       -1.90839       -1.60204
| 10> H         -1.05135       -0.91567       -2.44333
| 11> H         -1.24783       -3.24801       -5.52377
| 12> H         -0.24047       -3.70079       -4.16978
| 13> H         -0.17107       -2.07453       -4.80501
| 14> *
| 15>
| 16> %MaxCore 64000
| 17> %pal nprocs 4
| 18> end
| 19>
| 20> %scf
| 21>   MaxIter 150
| 22> end
| 23>
| 24>
| 25>                          ****END OF INPUT****

CARTESIAN COORDINATES (ANGSTROEM)
---------------------------------
  C     -0.811360   -2.908780   -4.607630
  C     -1.916580   -2.485080   -3.643670
  H     -2.554520   -1.712430   -4.091990
  C     -1.363530   -1.981340   -2.293610
  H     -2.553450   -3.355670   -3.458810
  F     -0.350390   -2.749690   -1.796010
  H     -2.226220   -1.908390   -1.602040
  H     -1.051350   -0.915670   -2.443330
  H     -1.247830   -3.248010   -5.523770
  H     -0.240470   -3.700790   -4.169780
  H     -0.171070   -2.074530   -4.805010

 Total Charge           Charge          ....    0
 Multiplicity           Mult            ....    1
 Number of Electrons    NEL             ....   34
 Basis Dimension        Dim             ....  139

ORBITAL ENERGIES
----------------

  NO   OCC          E(Eh)            E(eV)
   0   2.0000     -24.688546      -671.8095
   1   2.0000     -10.262918      -279.2682
   2   2.0000     -10.189780      -277.2780
   3   2.0000     -10.169619      -276.7294
   4   2.0000      -1.187815       -32.3221
   5   2.0000      -0.781302       -21.2603
   6   2.0000      -0.684345       -18.6220
   7   2.0000      -0.591581       -16.0978
   8   2.0000      -0.511579       -13.9208
   9   2.0000      -0.495723       -13.4893
  10   2.0000      -0.475660       -12.9434
  11   2.0000      -0.437366       -11.9013
  12   2.0000      -0.399622       -10.8743
  13   2.0000      -0.374916       -10.2020
  14   2.0000      -0.358667        -9.7598
  15   2.0000      -0.329318        -8.9612
  16   2.0000      -0.324127        -8.8199
  17   0.0000       0.018847         0.5129
  18   0.0000       0.044396         1.2081
  19   0.0000       0.055574         1.5123
  20   0.0000       0.068064         1.8521
  21   0.0000       0.089122         2.4251

MULLIKEN ATOMIC CHARGES
-----------------------
   0 C :    0.848768
   1 C :   -0.326125
   2 H :   -0.156245
   3 C :    0.867261
   4 H :   -0.133821
   5 F :   -0.437842
   6 H :   -0.171370
   7 H :   -0.096792
   8 H :   -0.167358
   9 H :   -0.088974
  10 H :   -0.137502
Sum of atomic charges:   -0.0000000

LOEWDIN ATOMIC CHARGES
----------------------
   0 C :    0.127379
   1 C :   -0.059008
   2 H :    0.023451
   3 C :    0.100713
   4 H :    0.016105
   5 F :   -0.206683
   6 H :    0.025087
   7 H :    0.033807
   8 H :   -0.022275
   9 H :   -0.020401
  10 H :   -0.018176

  Mayer bond orders larger than 0.100000
B(  0-C ,  1-C ) :   1.3119 B(  0-C ,  8-H ) :   0.7657 B(  0-C ,  9-H ) :   0.7812
B(  0-C , 10-H ) :   0.7726 B(  1-C ,  2-H ) :   0.9311 B(  1-C ,  3-C ) :   1.1887
B(  1-C ,  4-H ) :   0.8964 B(  1-C ,  6-H ) :   0.1348 B(  1-C ,  7-H ) :   0.1380
B(  1-C ,  8-H ) :   0.2204 B(  1-C ,  9-H ) :   0.1991 B(  1-C , 10-H ) :   0.2047
B(  3-C ,  5-F ) :   0.7345 B(  3-C ,  6-H ) :   0.8779 B(  3-C ,  7-H ) :   0.8593

Dispersion correction           -0.010338730
FINAL SINGLE POINT ENERGY      -218.108953492868

DIPOLE MOMENT
-------------
                                X             Y             Z
Electronic contribution:      2.58914      -0.69897       5.47870
Nuclear contribution   :     -3.10989       1.02097      -5.82098
                        -----------------------------------------
Total Dipole Moment    :     -0.52076       0.32201      -0.34228
                        -----------------------------------------
Magnitude (a.u.)       :      0.70145
Magnitude (Debye)      :      1.78294

Rotational constants in cm-1:     0.466172     0.177379     0.142652
Rotational constants in MHz : 13975.492374  5317.681709  4276.599690

                             ****ORCA TERMINATED NORMALLY****
TOTAL RUN TIME: 0 days 0 hours 0 minutes 8 seconds 658 msec
