                         Program Version 5.0.0 -  RELEASE  -
|  1> !B3LYP D3BJ RIJCOSX def2-SVPD def2/J TightSCF
|  2> *xyz 0 1
|  3> C          1.64703       -2.34528       -5.02041
|  4> C          0.21763       -1.81402       -4.92439
|  5> C          2.20996       -2.81239       -3.66571
|  6> H          2.30838       -1.58870       -5.45713
|  7> H          1.67429       -3.20348       -5.69739
|  8> C          2.48901       -1.66851       -2.73754
|  9> C          3.59631       -0.94761       -2.95225
| 10> N          1.66394       -1.41369       -1.77781
| 11> H          0.81164       -1.96318       -1.70275
| 12> H          1.84550       -0.63508       -1.15875
| 13> H          4.20535       -1.17600       -3.73383
| 14> H          3.81723       -0.12585       -2.40604
| 15> H          3.14311       -3.36280       -3.81152
| 16> H          1.48768       -3.45893       -3.16521
| 17> H         -0.11459       -1.50684       -5.89401
| 18> H          0.19193       -0.97796       -4.25713
| 19> H         -0.42543       -2.58523       -4.55479
| 20> *
| 21>
| 22> %MaxCore 64000
| 23> %pal nprocs 4
| 24> end
| 25>
| 26> %scf
| 27>   MaxIter 150
| 28> end
| 29>
| 30>
| 31>                          ****END OF INPUT****

CARTESIAN COORDINATES (ANGSTROEM)
---------------------------------
  C      1.647030   -2.345280   -5.020410
  C      0.217630   -1.814020   -4.924390
  C      2.209960   -2.812390   -3.665710
  H      2.308380   -1.588700   -5.457130
  H      1.674290   -3.203480   -5.697390
  C      2.489010   -1.668510   -2.737540
  C      3.596310   -0.947610   -2.952250
  N      1.663940   -1.413690   -1.777810
  H      0.811640   -1.963180   -1.702750
  H      1.845500   -0.635080   -1.158750
  H      4.205350   -1.176000   -3.733830
  H      3.817230   -0.125850   -2.406040
  H      3.143110   -3.362800   -3.811520
  H      1.487680   -3.458930   -3.165210
  H     -0.114590   -1.506840   -5.894010
  H      0.191930   -0.977960   -4.257130
  H     -0.425430   -2.585230   -4.554790

 Total Charge           Charge          ....    0
 Multiplicity           Mult            ....    1
 Number of Electrons    NEL             ....   48
 Basis Dimension        Dim             ....  208

ORBITAL ENERGIES
----------------

  NO   OCC          E(Eh)            E(eV)
   0   2.0000     -14.336768      -390.1233
   1   2.0000     -10.201573      -277.5989
   2   2.0000     -10.180393      -277.0226
   3   2.0000     -10.177775      -276.9513
   4   2.0000     -10.165636      -276.6210
   5   2.0000     -10.113129      -275.1922
   6   2.0000      -0.931702       -25.3529
   7   2.0000      -0.785973       -21.3874
   8   2.0000      -0.723319       -19.6825
   9   2.0000      -0.672570       -18.3016
  10   2.0000      -0.603325       -16.4173
  11   2.0000      -0.561066       -15.2674
  12   2.0000      -0.529684       -14.4134
  13   2.0000      -0.483616       -13.1599
  14   2.0000      -0.451741       -12.2925
  15   2.0000      -0.430635       -11.7182
  16   2.0000      -0.404625       -11.0104
  17   2.0000      -0.391739       -10.6598
  18   2.0000      -0.372093       -10.1252
  19   2.0000      -0.359032        -9.7698
  20   2.0000      -0.339874        -9.2484
  21   2.0000      -0.327822        -8.9205
  22   2.0000      -0.325948        -8.8695
  23   2.0000      -0.184163        -5.0113
  24   0.0000       0.013891         0.3780
  25   0.0000       0.035579         0.9682
  26   0.0000       0.043724         1.1898
  27   0.0000       0.049059         1.3350
  28   0.0000       0.064679         1.7600

MULLIKEN ATOMIC CHARGES
-----------------------
   0 C :   -0.198085
   1 C :    0.949952
   2 C :    0.465400
   3 H :   -0.113002
   4 H :   -0.178571
   5 C :   -0.142655
   6 C :    0.614537
   7 N :    0.307762
   8 H :   -0.090677
   9 H :   -0.181784
  10 H :   -0.225425
  11 H :   -0.596346
  12 H :   -0.071561
  13 H :   -0.140162
  14 H :   -0.181414
  15 H :   -0.173199
  16 H :   -0.044771
Sum of atomic charges:    0.0000000

LOEWDIN ATOMIC CHARGES
----------------------
   0 C :   -0.056404
   1 C :    0.128378
   2 C :    0.010718
   3 H :    0.017021
   4 H :    0.012768
   5 C :   -0.265291
   6 C :    0.181602
   7 N :    0.177729
   8 H :    0.006445
   9 H :    0.014058
  10 H :   -0.086463
  11 H :   -0.098270
  12 H :    0.023947
  13 H :    0.009043
  14 H :   -0.023396
  15 H :   -0.028657
  16 H :   -0.023230

  Mayer bond orders larger than 0.100000
B(  0-C ,  1-C ) :   1.3007 B(  0-C ,  2-C ) :   1.1617 B(  0-C ,  3-H ) :   0.9078
B(  0-C ,  4-H ) :   0.9312 B(  0-C , 12-H ) :   0.1131 B(  0-C , 13-H ) :   0.1584
B(  0-C , 14-H ) :   0.2487 B(  0-C , 15-H ) :   0.2473 B(  0-C , 16-H ) :   0.2352
B(  1-C , 14-H ) :   0.7165 B(  1-C , 15-H ) :   0.7804 B(  1-C , 16-H ) :   0.7362
B(  2-C ,  3-H ) :   0.1553 B(  2-C ,  5-C ) :   1.0507 B(  2-C ,  6-C ) :   0.2004
B(  2-C ,  7-N ) :   0.1258 B(  2-C , 12-H ) :   0.8091 B(  2-C , 13-H ) :   0.6694
B(  5-C ,  6-C ) :   1.6675 B(  5-C ,  7-N ) :   1.2159 B(  5-C , 11-H ) :   0.1886
B(  5-C , 12-H ) :   0.1465 B(  5-C , 13-H ) :   0.2341 B(  6-C ,  7-N ) :   0.2850
B(  6-C , 10-H ) :   0.7913 B(  6-C , 11-H ) :   0.6522 B(  7-N ,  8-H ) :   1.0527
B(  7-N ,  9-H ) :   1.2288 B(  8-H ,  9-H ) :  -0.1528

Dispersion correction           -0.023267509
FINAL SINGLE POINT ENERGY      -251.557304413100

DIPOLE MOMENT
-------------
                                X             Y             Z
Electronic contribution:      1.44562       0.28541       3.30072
Nuclear contribution   :     -2.15663      -0.43764      -3.01766
                        -----------------------------------------
Total Dipole Moment    :     -0.71101      -0.15223       0.28306
                        -----------------------------------------
Magnitude (a.u.)       :      0.78028
Magnitude (Debye)      :      1.98331

Rotational constants in cm-1:     0.184410     0.080989     0.069427
Rotational constants in MHz :  5528.462717  2427.993314  2081.376031

                             ****ORCA TERMINATED NORMALLY****
TOTAL RUN TIME: 0 days 0 hours 0 minutes 24 seconds 114 msec
