                         Program Version 5.0.0 -  RELEASE  -
|  1> !B3LYP D3BJ RIJCOSX def2-SVPD def2/J TightSCF
|  2> *xyz 0 1
|  3> C          1.64703       -2.34528       -5.02041
|  4> C          0.21763       -1.81402       -4.92439
|  5> C          2.20996       -2.81239       -3.66571
|  6> H          2.30838       -1.58870       -5.45713
|  7> H          1.67429       -3.20348       -5.69739
|  8> C          2.48901       -1.66851       -2.73754
|  9> N          3.59631       -0.94761       -2.95225
| 10> C          1.66394       -1.41369       -1.77781
| 11> H          0.81164       -1.96318       -1.70275
| 12> H          1.84550       -0.63508       -1.15875
| 13> H          4.20535       -1.17600       -3.73383
| 14> H          3.81723       -0.12585       -2.40604
| 15> H          3.14311       -3.36280       -3.81152
| 16> H          1.48768       -3.45893       -3.16521
| 17> H         -0.11459       -1.50684       -5.89401
| 18> H          0.19193       -0.97796       -4.25713
| 19> H         -0.42543       -2.58523       -4.55479
| 20> *
| 21>
| 22> %MaxCore 64000
| 23> %pal nprocs 4
| 24> end
| 25>
| 26> %scf
| 27>   MaxIter 150
| 28> end
| 29>
| 30>
| 31>                          ****END OF INPUT****

CARTESIAN COORDINATES (ANGSTROEM)
---------------------------------
  C      1.647030   -2.345280   -5.020410
  C      0.217630   -1.814020   -4.924390
  C      2.209960   -2.812390   -3.665710
  H      2.308380   -1.588700   -5.457130
  H      1.674290   -3.203480   -5.697390
  C      2.489010   -1.668510   -2.737540
  N      3.596310   -0.947610   -2.952250
  C      1.663940   -1.413690   -1.777810
  H      0.811640   -1.963180   -1.702750
  H      1.845500   -0.635080   -1.158750
  H      4.205350   -1.176000   -3.733830
  H      3.817230   -0.125850   -2.406040
  H      3.143110   -3.362800   -3.811520
  H      1.487680   -3.458930   -3.165210
  H     -0.114590   -1.506840   -5.894010
  H      0.191930   -0.977960   -4.257130
  H     -0.425430   -2.585230   -4.554790

 Total Charge           Charge          ....    0
 Multiplicity           Mult            ....    1
 Number of Electrons    NEL             ....   48
 Basis Dimension        Dim             ....  208

ORBITAL ENERGIES
----------------

  NO   OCC          E(Eh)            E(eV)
   0   2.0000     -14.329889      -389.9361
   1   2.0000     -10.198594      -277.5179
   2   2.0000     -10.178925      -276.9826
   3   2.0000     -10.178650      -276.9751
   4   2.0000     -10.160177      -276.4725
   5   2.0000     -10.116831      -275.2930
   6   2.0000      -0.912836       -24.8395
   7   2.0000      -0.785134       -21.3646
   8   2.0000      -0.730456       -19.8767
   9   2.0000      -0.677130       -18.4257
  10   2.0000      -0.591810       -16.1040
  11   2.0000      -0.562158       -15.2971
  12   2.0000      -0.520826       -14.1724
  13   2.0000      -0.475625       -12.9424
  14   2.0000      -0.447124       -12.1669
  15   2.0000      -0.441435       -12.0121
  16   2.0000      -0.400344       -10.8939
  17   2.0000      -0.391221       -10.6457
  18   2.0000      -0.373091       -10.1523
  19   2.0000      -0.362386        -9.8610
  20   2.0000      -0.337525        -9.1845
  21   2.0000      -0.322774        -8.7831
  22   2.0000      -0.319370        -8.6905
  23   2.0000      -0.196150        -5.3375
  24   0.0000       0.014999         0.4081
  25   0.0000       0.038180         1.0389
  26   0.0000       0.043118         1.1733
  27   0.0000       0.050505         1.3743
  28   0.0000       0.069557         1.8927

MULLIKEN ATOMIC CHARGES
-----------------------
   0 C :   -0.107128
   1 C :    0.967269
   2 C :    0.386966
   3 H :   -0.143715
   4 H :   -0.164999
   5 C :   -0.041208
   6 N :    0.219354
   7 C :    0.566247
   8 H :   -0.157586
   9 H :   -0.537989
  10 H :   -0.159869
  11 H :   -0.222701
  12 H :   -0.206233
  13 H :    0.009608
  14 H :   -0.177825
  15 H :   -0.168890
  16 H :   -0.061303
Sum of atomic charges:    0.0000000

LOEWDIN ATOMIC CHARGES
----------------------
   0 C :   -0.060647
   1 C :    0.131548
   2 C :    0.009151
   3 H :    0.010978
   4 H :    0.012167
   5 C :   -0.262219
   6 N :    0.179700
   7 C :    0.176295
   8 H :   -0.073672
   9 H :   -0.081621
  10 H :   -0.004527
  11 H :   -0.000777
  12 H :    0.016640
  13 H :    0.018824
  14 H :   -0.024693
  15 H :   -0.027927
  16 H :   -0.019219

  Mayer bond orders larger than 0.100000
B(  0-C ,  1-C ) :   1.2949 B(  0-C ,  2-C ) :   1.1314 B(  0-C ,  3-H ) :   0.8644
B(  0-C ,  4-H ) :   0.8848 B(  0-C , 13-H ) :   0.1259 B(  0-C , 14-H ) :   0.2492
B(  0-C , 15-H ) :   0.2512 B(  0-C , 16-H ) :   0.2339 B(  1-C , 14-H ) :   0.7163
B(  1-C , 15-H ) :   0.7771 B(  1-C , 16-H ) :   0.7307 B(  2-C ,  3-H ) :   0.1576
B(  2-C ,  4-H ) :   0.1357 B(  2-C ,  5-C ) :   1.0953 B(  2-C ,  6-N ) :   0.1374
B(  2-C ,  7-C ) :   0.1817 B(  2-C , 12-H ) :   0.8423 B(  2-C , 13-H ) :   0.7657
B(  5-C ,  6-N ) :   1.1992 B(  5-C ,  7-C ) :   1.6641 B(  5-C ,  8-H ) :   0.1470
B(  5-C ,  9-H ) :   0.3005 B(  5-C , 12-H ) :   0.1686 B(  5-C , 13-H ) :   0.1748
B(  6-N ,  7-C ) :   0.2617 B(  6-N , 10-H ) :   1.1543 B(  6-N , 11-H ) :   1.2452
B(  7-C ,  8-H ) :   0.8912 B(  7-C ,  9-H ) :   0.5101 B( 10-H , 11-H ) :  -0.1566

Dispersion correction           -0.023300102
FINAL SINGLE POINT ENERGY      -251.561372587596

DIPOLE MOMENT
-------------
                                X             Y             Z
Electronic contribution:      3.12201       0.70480       2.30941
Nuclear contribution   :     -2.61370      -0.54788      -2.73987
                        -----------------------------------------
Total Dipole Moment    :      0.50831       0.15692      -0.43045
                        -----------------------------------------
Magnitude (a.u.)       :      0.68432
Magnitude (Debye)      :      1.73940

Rotational constants in cm-1:     0.186678     0.079942     0.069329
Rotational constants in MHz :  5596.476267  2396.611465  2078.426257

                             ****ORCA TERMINATED NORMALLY****
TOTAL RUN TIME: 0 days 0 hours 0 minutes 22 seconds 373 msec
