                         Program Version 5.0.0 -  RELEASE  -
|  1> !CAM-B3LYP RIJCOSX def2-TZVP def2/J TightSCF
|  2> *xyz -1 1
|  3> C         -0.77455        2.78833       -0.54394
|  4> C          0.69721        3.22791       -0.52513
|  5> O          1.48929        2.37470        0.19919
|  6> H          0.71600        4.26403       -0.13077
|  7> H          1.03615        3.33092       -1.58367
|  8> H         -1.34746        3.48478       -1.11982
|  9> H         -1.15078        2.75876        0.45729
| 10> H         -0.85058        1.81526       -0.98241
| 11> *
| 12>
| 13> %MaxCore 64000
| 14> %pal nprocs 4
| 15> end
| 16>
| 17> %scf
| 18>   MaxIter 150
| 19> end
| 20>
| 21>
| 22>                          ****END OF INPUT****

CARTESIAN COORDINATES (ANGSTROEM)
---------------------------------
  C     -0.774550    2.788330   -0.543940
  C      0.697210    3.227910   -0.525130
  O      1.489290    2.374700    0.199190
  H      0.716000    4.264030   -0.130770
  H      1.036150    3.330920   -1.583670
  H     -1.347460    3.484780   -1.119820
  H     -1.150780    2.758760    0.457290
  H     -0.850580    1.815260   -0.982410

 Total Charge           Charge          ....   -1
 Multiplicity           Mult            ....    1
 Number of Electrons    NEL             ....   26
 Basis Dimension        Dim             ....  123

ORBITAL ENERGIES
----------------

  NO   OCC          E(Eh)            E(eV)
   0   2.0000     -18.839270      -512.6426
   1   2.0000     -10.047444      -273.4049
   2   2.0000     -10.026252      -272.8282
   3   2.0000      -0.743818       -20.2403
   4   2.0000      -0.599185       -16.3047
   5   2.0000      -0.440335       -11.9821
   6   2.0000      -0.313405        -8.5282
   7   2.0000      -0.290048        -7.8926
   8   2.0000      -0.231966        -6.3121
   9   2.0000      -0.214001        -5.8233
  10   2.0000      -0.163234        -4.4418
  11   2.0000      -0.017166        -0.4671
  12   2.0000      -0.015297        -0.4162
  13   0.0000       0.253110         6.8875
  14   0.0000       0.289811         7.8862
  15   0.0000       0.316803         8.6206
  16   0.0000       0.318385         8.6637
  17   0.0000       0.353611         9.6222

MULLIKEN ATOMIC CHARGES
-----------------------
   0 C :   -0.164935
   1 C :    0.059525
   2 O :   -0.781399
   3 H :   -0.069899
   4 H :   -0.071943
   5 H :   -0.026371
   6 H :    0.027980
   7 H :    0.027043
Sum of atomic charges:   -1.0000000

LOEWDIN ATOMIC CHARGES
----------------------
   0 C :   -0.363023
   1 C :   -0.550651
   2 O :   -0.439799
   3 H :    0.052945
   4 H :    0.052160
   5 H :    0.073697
   6 H :    0.087542
   7 H :    0.087129

  Mayer bond orders larger than 0.100000
B(  0-C ,  1-C ) :   0.8814 B(  0-C ,  2-O ) :  -0.2272 B(  0-C ,  5-H ) :   0.9339
B(  0-C ,  6-H ) :   0.9728 B(  0-C ,  7-H ) :   0.9722 B(  1-C ,  2-O ) :   1.6128
B(  1-C ,  3-H ) :   0.9271 B(  1-C ,  4-H ) :   0.9277

FINAL SINGLE POINT ENERGY      -154.406921110167

DIPOLE MOMENT
-------------
                                X             Y             Z
Electronic contribution:      2.45664      -1.11055       1.23965
Nuclear contribution   :     -3.69910       1.55962      -1.78699
                        -----------------------------------------
Total Dipole Moment    :     -1.24245       0.44907      -0.54734
                        -----------------------------------------
Magnitude (a.u.)       :      1.43001
Magnitude (Debye)      :      3.63480

Rotational constants in cm-1:     1.268893     0.327436     0.287754
Rotational constants in MHz : 38040.440181  9816.269339  8626.646564

                             ****ORCA TERMINATED NORMALLY****
TOTAL RUN TIME: 0 days 0 hours 0 minutes 15 seconds 63 msec
