                         Program Version 5.0.0 -  RELEASE  -
|  1> !CAM-B3LYP RIJCOSX def2-TZVP def2/J TightSCF
|  2> *xyz 1 1
|  3> C          3.95643        0.50147       -0.37910
|  4> H          3.16840        0.02920        0.20738
|  5> N          3.80389        1.96157       -0.15675
|  6> C          3.84232        0.14849       -1.85406
|  7> H          4.92323        0.17798        0.00937
|  8> H          4.20643        2.24441        0.74536
|  9> H          2.80827        2.21132       -0.09610
| 10> H          4.28076        2.50155       -0.89104
| 11> H          4.62951        0.62800       -2.39748
| 12> H          2.89665        0.48102       -2.22825
| 13> H          3.92053       -0.91187       -1.97413
| 14> *
| 15>
| 16> %MaxCore 64000
| 17> %pal nprocs 4
| 18> end
| 19>
| 20> %scf
| 21>   MaxIter 150
| 22> end
| 23>
| 24>
| 25>                          ****END OF INPUT****

CARTESIAN COORDINATES (ANGSTROEM)
---------------------------------
  C      3.956430    0.501470   -0.379100
  H      3.168400    0.029200    0.207380
  N      3.803890    1.961570   -0.156750
  C      3.842320    0.148490   -1.854060
  H      4.923230    0.177980    0.009370
  H      4.206430    2.244410    0.745360
  H      2.808270    2.211320   -0.096100
  H      4.280760    2.501550   -0.891040
  H      4.629510    0.628000   -2.397480
  H      2.896650    0.481020   -2.228250
  H      3.920530   -0.911870   -1.974130

 Total Charge           Charge          ....    1
 Multiplicity           Mult            ....    1
 Number of Electrons    NEL             ....   26
 Basis Dimension        Dim             ....  141

ORBITAL ENERGIES
----------------

  NO   OCC          E(Eh)            E(eV)
   0   2.0000     -14.725234      -400.6940
   1   2.0000     -10.497627      -285.6549
   2   2.0000     -10.417065      -283.4627
   3   2.0000      -1.301235       -35.4084
   4   2.0000      -1.048700       -28.5366
   5   2.0000      -0.923179       -25.1210
   6   2.0000      -0.876767       -23.8581
   7   2.0000      -0.858229       -23.3536
   8   2.0000      -0.767448       -20.8833
   9   2.0000      -0.713455       -19.4141
  10   2.0000      -0.650146       -17.6914
  11   2.0000      -0.635300       -17.2874
  12   2.0000      -0.617519       -16.8036
  13   0.0000      -0.158073        -4.3014
  14   0.0000      -0.097186        -2.6446
  15   0.0000      -0.091245        -2.4829
  16   0.0000      -0.073728        -2.0062
  17   0.0000      -0.034997        -0.9523

MULLIKEN ATOMIC CHARGES
-----------------------
   0 C :   -0.201129
   1 H :    0.190060
   2 N :   -0.286534
   3 C :   -0.363589
   4 H :    0.192266
   5 H :    0.329666
   6 H :    0.330143
   7 H :    0.325031
   8 H :    0.153497
   9 H :    0.148869
  10 H :    0.181721
Sum of atomic charges:    1.0000000

LOEWDIN ATOMIC CHARGES
----------------------
   0 C :   -0.278892
   1 H :    0.152366
   2 N :    0.170257
   3 C :   -0.278165
   4 H :    0.153588
   5 H :    0.223758
   6 H :    0.225486
   7 H :    0.223307
   8 H :    0.130369
   9 H :    0.130212
  10 H :    0.147714

  Mayer bond orders larger than 0.100000
B(  0-C ,  1-H ) :   0.9591 B(  0-C ,  2-N ) :   0.8422 B(  0-C ,  3-C ) :   0.9663
B(  0-C ,  4-H ) :   0.9572 B(  2-N ,  5-H ) :   0.8822 B(  2-N ,  6-H ) :   0.8802
B(  2-N ,  7-H ) :   0.8753 B(  3-C ,  8-H ) :   0.9602 B(  3-C ,  9-H ) :   0.9605
B(  3-C , 10-H ) :   0.9621

FINAL SINGLE POINT ENERGY      -135.506343264493

DIPOLE MOMENT
-------------
                                X             Y             Z
Electronic contribution:     -0.01147       1.34713       1.26341
Nuclear contribution   :     -0.06214      -0.04120      -0.39947
                        -----------------------------------------
Total Dipole Moment    :     -0.07361       1.30593       0.86394
                        -----------------------------------------
Magnitude (a.u.)       :      1.56757
Magnitude (Debye)      :      3.98444

Rotational constants in cm-1:     1.011771     0.281435     0.249812
Rotational constants in MHz : 30332.138762  8437.210602  7489.166323

                             ****ORCA TERMINATED NORMALLY****
TOTAL RUN TIME: 0 days 0 hours 0 minutes 17 seconds 318 msec
