                         Program Version 5.0.0 -  RELEASE  -
|  1> !CAM-B3LYP RIJCOSX def2-TZVP def2/J TightSCF xyzfile
|  2>
|  3> *xyzfile 0 1 B.xyz
|  4>
|  5> %MaxCore 64000
|  6>
|  7> %pal nprocs 18
|  8> end
|  9>
| 10> %scf
| 11>   MaxIter 150
| 12> end
| 13>
| 14>
| 15>                          ****END OF INPUT****

CARTESIAN COORDINATES (ANGSTROEM)
---------------------------------
  C      3.956426    0.501466   -0.379100
  H      3.168398    0.029201    0.207383
  N      3.803893    1.961572   -0.156747
  C      3.842322    0.148490   -1.854058
  H      4.923231    0.177982    0.009371
  H      4.620021    0.694502   -2.402150
  H      4.096015   -0.910930   -1.955103
  C      2.475619    0.412708   -2.485377
  H      2.174689    1.445076   -2.287971
  C      1.383931   -0.532740   -1.995203
  H      2.575613    0.318574   -3.571460
  H      1.264698   -0.412309   -0.915491
  H      1.705223   -1.566885   -2.164984
  C      0.031398   -0.317260   -2.677791
  C     -0.587292    1.060853   -2.436460
  H     -0.662815   -1.089530   -2.329985
  H      0.149465   -0.478040   -3.755648
  H      0.104376    1.828590   -2.793130
  C     -0.951213    1.334978   -0.972500
  H     -1.478832    1.161355   -3.062484
  H     -0.317007    0.741648   -0.311389
  H     -1.980916    1.012842   -0.788958
  C     -0.774550    2.788332   -0.543943
  H     -1.352609    3.459372   -1.192585
  H     -1.171014    2.902331    0.469968
  C      0.697208    3.227911   -0.525126
  O      1.489294    2.374703    0.199189
  H      0.715998    4.264030   -0.130774
  H      1.036148    3.330920   -1.583669
  H      4.206425    2.244406    0.745359
  H      2.808269    2.211323   -0.096097
  H      4.280757    2.501552   -0.891037

 Total Charge           Charge          ....    0
 Multiplicity           Mult            ....    1
 Number of Electrons    NEL             ....   90
 Basis Dimension        Dim             ....  467

ORBITAL ENERGIES
----------------

  NO   OCC          E(Eh)            E(eV)
   0   2.0000     -19.061614      -518.6929
   1   2.0000     -14.469243      -393.7281
   2   2.0000     -10.310938      -280.5749
   3   2.0000     -10.266070      -279.3540
   4   2.0000     -10.239599      -278.6337
   5   2.0000     -10.227098      -278.2935
   6   2.0000     -10.223889      -278.2062
   7   2.0000     -10.221474      -278.1404
   8   2.0000     -10.208727      -277.7936
   9   2.0000     -10.195332      -277.4291
  10   2.0000     -10.188273      -277.2370
  11   2.0000      -1.072957       -29.1966
  12   2.0000      -0.968184       -26.3456
  13   2.0000      -0.901174       -24.5222
  14   2.0000      -0.861141       -23.4328
  15   2.0000      -0.822013       -22.3681
  16   2.0000      -0.778128       -21.1739
  17   2.0000      -0.739431       -20.1209
  18   2.0000      -0.699091       -19.0232
  19   2.0000      -0.671245       -18.2655
  20   2.0000      -0.644141       -17.5280
  21   2.0000      -0.640525       -17.4296
  22   2.0000      -0.621847       -16.9213
  23   2.0000      -0.583172       -15.8689
  24   2.0000      -0.562172       -15.2975
  25   2.0000      -0.538294       -14.6477
  26   2.0000      -0.536875       -14.6091
  27   2.0000      -0.506486       -13.7822
  28   2.0000      -0.491245       -13.3675
  29   2.0000      -0.486492       -13.2381
  30   2.0000      -0.468200       -12.7404
  31   2.0000      -0.457796       -12.4573
  32   2.0000      -0.447513       -12.1774
  33   2.0000      -0.429371       -11.6838
  34   2.0000      -0.420699       -11.4478
  35   2.0000      -0.408412       -11.1135
  36   2.0000      -0.400077       -10.8867
  37   2.0000      -0.389079       -10.5874
  38   2.0000      -0.378017       -10.2864
  39   2.0000      -0.372404       -10.1336
  40   2.0000      -0.351917        -9.5761
  41   2.0000      -0.345852        -9.4111
  42   2.0000      -0.342142        -9.3102
  43   2.0000      -0.242993        -6.6122
  44   2.0000      -0.236062        -6.4236
  45   0.0000       0.028902         0.7865
  46   0.0000       0.070634         1.9220
  47   0.0000       0.075672         2.0591
  48   0.0000       0.090818         2.4713
  49   0.0000       0.103607         2.8193

MULLIKEN ATOMIC CHARGES
-----------------------
   0 C :   -0.170050
   1 H :    0.169521
   2 N :   -0.289203
   3 C :   -0.243564
   4 H :    0.137801
   5 H :    0.123420
   6 H :    0.118821
   7 C :   -0.204832
   8 H :    0.110813
   9 C :   -0.209061
  10 H :    0.105100
  11 H :    0.119731
  12 H :    0.091932
  13 C :   -0.176433
  14 C :   -0.238293
  15 H :    0.097266
  16 H :    0.093070
  17 H :    0.104903
  18 C :   -0.143894
  19 H :    0.093246
  20 H :    0.091270
  21 H :    0.083527
  22 C :   -0.121832
  23 H :    0.060478
  24 H :    0.071826
  25 C :   -0.016861
  26 O :   -0.721890
  27 H :    0.039181
  28 H :    0.013133
  29 H :    0.263940
  30 H :    0.293226
  31 H :    0.253709
Sum of atomic charges:    0.0000000

LOEWDIN ATOMIC CHARGES
----------------------
   0 C :   -0.275893
   1 H :    0.147385
   2 N :    0.140705
   3 C :   -0.274229
   4 H :    0.129904
   5 H :    0.134971
   6 H :    0.146355
   7 C :   -0.266125
   8 H :    0.141053
   9 C :   -0.269627
  10 H :    0.137336
  11 H :    0.136752
  12 H :    0.131458
  13 C :   -0.268846
  14 C :   -0.264943
  15 H :    0.135411
  16 H :    0.131216
  17 H :    0.131259
  18 C :   -0.272022
  19 H :    0.130354
  20 H :    0.137327
  21 H :    0.126328
  22 C :   -0.282938
  23 H :    0.124257
  24 H :    0.129480
  25 C :   -0.474135
  26 O :   -0.283686
  27 H :    0.095321
  28 H :    0.080528
  29 H :    0.193090
  30 H :    0.084183
  31 H :    0.187772

  Mayer bond orders larger than 0.100000
B(  0-C ,  1-H ) :   0.9766 B(  0-C ,  2-N ) :   0.8655 B(  0-C ,  3-C ) :   0.9609
B(  0-C ,  4-H ) :   0.9774 B(  2-N , 29-H ) :   0.9151 B(  2-N , 30-H ) :   0.6354
B(  2-N , 31-H ) :   0.9074 B(  3-C ,  5-H ) :   0.9919 B(  3-C ,  6-H ) :   0.9752
B(  3-C ,  7-C ) :   0.9385 B(  7-C ,  8-H ) :   0.9865 B(  7-C ,  9-C ) :   0.9158
B(  7-C , 10-H ) :   0.9749 B(  9-C , 11-H ) :   0.9794 B(  9-C , 12-H ) :   0.9719
B(  9-C , 13-C ) :   0.9740 B( 13-C , 14-C ) :   0.9437 B( 13-C , 15-H ) :   0.9791
B( 13-C , 16-H ) :   0.9860 B( 14-C , 17-H ) :   0.9972 B( 14-C , 18-C ) :   0.9233
B( 14-C , 19-H ) :   0.9749 B( 18-C , 20-H ) :   0.9694 B( 18-C , 21-H ) :   0.9733
B( 18-C , 22-C ) :   0.9749 B( 22-C , 23-H ) :   0.9674 B( 22-C , 24-H ) :   0.9663
B( 22-C , 25-C ) :   0.9538 B( 25-C , 26-O ) :   1.1880 B( 25-C , 27-H ) :   0.9678
B( 25-C , 28-H ) :   0.9626 B( 26-O , 30-H ) :   0.4159

FINAL SINGLE POINT ENERGY      -485.451433807565

DIPOLE MOMENT
-------------
                                X             Y             Z
Electronic contribution:      2.15316       0.90520       2.58564
Nuclear contribution   :      0.61785      -1.47632      -2.91844
                        -----------------------------------------
Total Dipole Moment    :      2.77101      -0.57113      -0.33280
                        -----------------------------------------
Magnitude (a.u.)       :      2.84876
Magnitude (Debye)      :      7.24097

Rotational constants in cm-1:     0.040993     0.027400     0.018162
Rotational constants in MHz :  1228.944366   821.418004   544.476857

                             ****ORCA TERMINATED NORMALLY****
TOTAL RUN TIME: 0 days 0 hours 1 minutes 20 seconds 440 msec
