                         Program Version 5.0.0 -  RELEASE  -
|  1> !CAM-B3LYP RIJCOSX def2-TZVP def2/J TightSCF
|  2> *xyz 0 1
|  3> C         -0.77455        2.78833       -0.54394
|  4> C          0.69721        3.22791       -0.52513
|  5> F          1.48929        2.37470        0.19919
|  6> H          0.71600        4.26403       -0.13077
|  7> H          1.03615        3.33092       -1.58367
|  8> H         -1.34746        3.48478       -1.11982
|  9> H         -1.15078        2.75876        0.45729
| 10> H         -0.85058        1.81526       -0.98241
| 11> *
| 12>
| 13> %MaxCore 64000
| 14> %pal nprocs 4
| 15> end
| 16>
| 17> %scf
| 18>   MaxIter 150
| 19> end
| 20>
| 21>
| 22>                          ****END OF INPUT****

CARTESIAN COORDINATES (ANGSTROEM)
---------------------------------
  C     -0.774550    2.788330   -0.543940
  C      0.697210    3.227910   -0.525130
  F      1.489290    2.374700    0.199190
  H      0.716000    4.264030   -0.130770
  H      1.036150    3.330920   -1.583670
  H     -1.347460    3.484780   -1.119820
  H     -1.150780    2.758760    0.457290
  H     -0.850580    1.815260   -0.982410

 Total Charge           Charge          ....    0
 Multiplicity           Mult            ....    1
 Number of Electrons    NEL             ....   26
 Basis Dimension        Dim             ....  123

ORBITAL ENERGIES
----------------

  NO   OCC          E(Eh)            E(eV)
   0   2.0000     -24.741044      -673.2380
   1   2.0000     -10.323520      -280.9173
   2   2.0000     -10.237838      -278.5857
   3   2.0000      -1.278951       -34.8020
   4   2.0000      -0.847596       -23.0643
   5   2.0000      -0.709817       -19.3151
   6   2.0000      -0.580506       -15.7964
   7   2.0000      -0.568782       -15.4774
   8   2.0000      -0.530108       -14.4250
   9   2.0000      -0.475215       -12.9313
  10   2.0000      -0.469278       -12.7697
  11   2.0000      -0.403839       -10.9890
  12   2.0000      -0.397467       -10.8156
  13   0.0000       0.078014         2.1229
  14   0.0000       0.116765         3.1773
  15   0.0000       0.137321         3.7367
  16   0.0000       0.139889         3.8066
  17   0.0000       0.152723         4.1558

MULLIKEN ATOMIC CHARGES
-----------------------
   0 C :   -0.328478
   1 C :    0.042662
   2 F :   -0.242925
   3 H :    0.091014
   4 H :    0.091164
   5 H :    0.109195
   6 H :    0.118822
   7 H :    0.118547
Sum of atomic charges:    0.0000000

LOEWDIN ATOMIC CHARGES
----------------------
   0 C :   -0.310369
   1 C :   -0.367785
   2 F :    0.089767
   3 H :    0.116683
   4 H :    0.117478
   5 H :    0.120882
   6 H :    0.116785
   7 H :    0.116559

  Mayer bond orders larger than 0.100000
B(  0-C ,  1-C ) :   0.9687 B(  0-C ,  5-H ) :   0.9605 B(  0-C ,  6-H ) :   0.9726
B(  0-C ,  7-H ) :   0.9729 B(  1-C ,  2-F ) :   0.9903 B(  1-C ,  3-H ) :   0.9728
B(  1-C ,  4-H ) :   0.9731

FINAL SINGLE POINT ENERGY      -179.061965541896

DIPOLE MOMENT
-------------
                                X             Y             Z
Electronic contribution:      4.41198      -1.64722       1.99612
Nuclear contribution   :     -4.89513       2.05627      -2.36166
                        -----------------------------------------
Total Dipole Moment    :     -0.48315       0.40905      -0.36554
                        -----------------------------------------
Magnitude (a.u.)       :      0.73101
Magnitude (Debye)      :      1.85809

Rotational constants in cm-1:     1.247826     0.304622     0.269019
Rotational constants in MHz : 37408.889506  9132.346906  8064.979146

                             ****ORCA TERMINATED NORMALLY****
TOTAL RUN TIME: 0 days 0 hours 0 minutes 12 seconds 808 msec
