                         Program Version 5.0.0 -  RELEASE  -
|  1> !CAM-B3LYP RIJCOSX def2-TZVP def2/J TightSCF
|  2> *xyz 0 1
|  3> C          3.95643        0.50147       -0.37910
|  4> H          3.16840        0.02920        0.20738
|  5> C          3.80389        1.96157       -0.15675
|  6> C          3.84232        0.14849       -1.85406
|  7> H          4.92323        0.17798        0.00937
|  8> H          4.20643        2.24441        0.74536
|  9> H          2.80827        2.21132       -0.09610
| 10> H          4.28076        2.50155       -0.89104
| 11> H          4.62951        0.62800       -2.39748
| 12> H          2.89665        0.48102       -2.22825
| 13> H          3.92053       -0.91187       -1.97413
| 14> *
| 15>
| 16> %MaxCore 64000
| 17> %pal nprocs 4
| 18> end
| 19>
| 20> %scf
| 21>   MaxIter 150
| 22> end
| 23>
| 24>
| 25>                          ****END OF INPUT****

CARTESIAN COORDINATES (ANGSTROEM)
---------------------------------
  C      3.956430    0.501470   -0.379100
  H      3.168400    0.029200    0.207380
  C      3.803890    1.961570   -0.156750
  C      3.842320    0.148490   -1.854060
  H      4.923230    0.177980    0.009370
  H      4.206430    2.244410    0.745360
  H      2.808270    2.211320   -0.096100
  H      4.280760    2.501550   -0.891040
  H      4.629510    0.628000   -2.397480
  H      2.896650    0.481020   -2.228250
  H      3.920530   -0.911870   -1.974130

 Total Charge           Charge          ....    0
 Multiplicity           Mult            ....    1
 Number of Electrons    NEL             ....   26
 Basis Dimension        Dim             ....  141

ORBITAL ENERGIES
----------------

  NO   OCC          E(Eh)            E(eV)
   0   2.0000     -10.227928      -278.3161
   1   2.0000     -10.219218      -278.0791
   2   2.0000     -10.201044      -277.5845
   3   2.0000      -0.875609       -23.8265
   4   2.0000      -0.770723       -20.9724
   5   2.0000      -0.662292       -18.0219
   6   2.0000      -0.541021       -14.7219
   7   2.0000      -0.516225       -14.0472
   8   2.0000      -0.469776       -12.7832
   9   2.0000      -0.458459       -12.4753
  10   2.0000      -0.401845       -10.9348
  11   2.0000      -0.399610       -10.8739
  12   2.0000      -0.390108       -10.6154
  13   0.0000       0.077565         2.1106
  14   0.0000       0.119328         3.2471
  15   0.0000       0.126094         3.4312
  16   0.0000       0.132150         3.5960
  17   0.0000       0.153014         4.1637

MULLIKEN ATOMIC CHARGES
-----------------------
   0 C :   -0.146452
   1 H :    0.085447
   2 C :   -0.336359
   3 C :   -0.337850
   4 H :    0.087703
   5 H :    0.112127
   6 H :    0.110129
   7 H :    0.101825
   8 H :    0.107893
   9 H :    0.105071
  10 H :    0.110467
Sum of atomic charges:    0.0000000

LOEWDIN ATOMIC CHARGES
----------------------
   0 C :   -0.320849
   1 H :    0.131692
   2 C :   -0.305824
   3 C :   -0.306636
   4 H :    0.129554
   5 H :    0.109284
   6 H :    0.109752
   7 H :    0.108956
   8 H :    0.114625
   9 H :    0.115439
  10 H :    0.114008

  Mayer bond orders larger than 0.100000
B(  0-C ,  1-H ) :   0.9797 B(  0-C ,  2-C ) :   0.9386 B(  0-C ,  3-C ) :   0.9574
B(  0-C ,  4-H ) :   0.9808 B(  2-C ,  5-H ) :   0.9872 B(  2-C ,  6-H ) :   0.9827
B(  2-C ,  7-H ) :   0.9822 B(  3-C ,  8-H ) :   0.9795 B(  3-C ,  9-H ) :   0.9784
B(  3-C , 10-H ) :   0.9842

FINAL SINGLE POINT ENERGY      -119.094261347607

DIPOLE MOMENT
-------------
                                X             Y             Z
Electronic contribution:      0.08184      -0.29729       0.23648
Nuclear contribution   :     -0.08172       0.30475      -0.19303
                        -----------------------------------------
Total Dipole Moment    :      0.00013       0.00746       0.04345
                        -----------------------------------------
Magnitude (a.u.)       :      0.04409
Magnitude (Debye)      :      0.11207

Rotational constants in cm-1:     1.020248     0.295755     0.261591
Rotational constants in MHz : 30586.266829  8866.511639  7842.297953

                             ****ORCA TERMINATED NORMALLY****
TOTAL RUN TIME: 0 days 0 hours 0 minutes 16 seconds 720 msec
