                         Program Version 5.0.0 -  RELEASE  -
|  1> !BLYP D3BJ RIJCOSX def2-SVPD def2/J TightSCF
|  2> *xyz -1 1
|  3> C          1.72854        1.42432       -5.63944
|  4> S          2.25263       -0.18811       -6.27184
|  5> O          3.56261       -0.44446       -5.63155
|  6> O          2.34494       -0.03374       -7.69650
|  7> O          1.26606       -1.15918       -5.80536
|  8> H          0.77944        1.68154       -6.06127
|  9> H          2.45151        2.16548       -5.90944
| 10> H          1.64478        1.37937       -4.57367
| 11> *
| 12>
| 13> %MaxCore 64000
| 14>
| 15> %pal nprocs 8
| 16> end
| 17>
| 18> %scf
| 19>   MaxIter 150
| 20> end
| 21>
| 22>
| 23>                          ****END OF INPUT****

CARTESIAN COORDINATES (ANGSTROEM)
---------------------------------
  C      1.728540    1.424320   -5.639440
  S      2.252630   -0.188110   -6.271840
  O      3.562610   -0.444460   -5.631550
  O      2.344940   -0.033740   -7.696500
  O      1.266060   -1.159180   -5.805360
  H      0.779440    1.681540   -6.061270
  H      2.451510    2.165480   -5.909440
  H      1.644780    1.379370   -4.573670

 Total Charge           Charge          ....   -1
 Multiplicity           Mult            ....    1
 Number of Electrons    NEL             ....   50
 Basis Dimension        Dim             ....  140

ORBITAL ENERGIES
----------------

  NO   OCC          E(Eh)            E(eV)
   0   2.0000     -88.128935     -2398.1102
   1   2.0000     -18.571607      -505.3591
   2   2.0000     -18.565631      -505.1965
   3   2.0000     -18.557919      -504.9867
   4   2.0000      -9.775114      -265.9944
   5   2.0000      -7.665378      -208.5855
   6   2.0000      -5.700430      -155.1166
   7   2.0000      -5.700311      -155.1134
   8   2.0000      -5.699887      -155.1018
   9   2.0000      -0.832064       -22.6416
  10   2.0000      -0.697434       -18.9781
  11   2.0000      -0.675213       -18.3735
  12   2.0000      -0.502823       -13.6825
  13   2.0000      -0.323307        -8.7976
  14   2.0000      -0.241844        -6.5809
  15   2.0000      -0.235691        -6.4135
  16   2.0000      -0.234671        -6.3857
  17   2.0000      -0.193289        -5.2597
  18   2.0000      -0.191332        -5.2064
  19   2.0000      -0.098317        -2.6753
  20   2.0000      -0.097357        -2.6492
  21   2.0000      -0.067801        -1.8450
  22   2.0000      -0.062888        -1.7113
  23   2.0000      -0.051334        -1.3969
  24   2.0000      -0.014327        -0.3899
  25   0.0000       0.135642         3.6910
  26   0.0000       0.174882         4.7588
  27   0.0000       0.175212         4.7677
  28   0.0000       0.177691         4.8352
  29   0.0000       0.197921         5.3857

MULLIKEN ATOMIC CHARGES
-----------------------
   0 C :    0.907110
   1 S :    0.905517
   2 O :   -0.738516
   3 O :   -0.687043
   4 O :   -0.712825
   5 H :   -0.228993
   6 H :   -0.219493
   7 H :   -0.225758
Sum of atomic charges:   -1.0000000

LOEWDIN ATOMIC CHARGES
----------------------
   0 C :    0.068851
   1 S :    0.790328
   2 O :   -0.582977
   3 O :   -0.560645
   4 O :   -0.570805
   5 H :   -0.049566
   6 H :   -0.047664
   7 H :   -0.047521

  Mayer bond orders larger than 0.100000
B(  0-C ,  1-S ) :   0.9011 B(  0-C ,  5-H ) :   0.8456 B(  0-C ,  6-H ) :   0.8475
B(  0-C ,  7-H ) :   0.8497 B(  1-S ,  2-O ) :   1.3434 B(  1-S ,  3-O ) :   1.3876
B(  1-S ,  4-O ) :   1.3628 B(  1-S ,  5-H ) :   0.1369 B(  1-S ,  6-H ) :   0.1408
B(  1-S ,  7-H ) :   0.1471

Dispersion correction           -0.013585501
FINAL SINGLE POINT ENERGY      -663.445221020519

DIPOLE MOMENT
-------------
                                X             Y             Z
Electronic contribution:      1.20595      -3.87398      -1.62418
Nuclear contribution   :     -1.71379       5.17769       1.98321
                        -----------------------------------------
Total Dipole Moment    :     -0.50784       1.30370       0.35903
                        -----------------------------------------
Magnitude (a.u.)       :      1.44445
Magnitude (Debye)      :      3.67151

Rotational constants in cm-1:     0.172739     0.155771     0.153412
Rotational constants in MHz :  5178.588083  4669.889924  4599.189984

                             ****ORCA TERMINATED NORMALLY****
TOTAL RUN TIME: 0 days 0 hours 0 minutes 3 seconds 478 msec
