                         Program Version 5.0.0 -  RELEASE  -
|  1> !BLYP D3BJ RIJCOSX def2-SVPD def2/J TightSCF
|  2> *xyz 1 1
|  3> C          2.91632       -1.24259       -1.54313
|  4> C          3.46659       -1.59097       -2.88908
|  5> N          4.65227       -1.14316       -3.25969
|  6> N          2.75226       -2.29204       -3.72803
|  7> H          1.77836       -2.48960       -3.51274
|  8> H          2.94861       -2.20854       -4.71681
|  9> H          5.14672       -0.51251       -2.63385
| 10> H          4.78303       -1.00720       -4.25350
| 11> H          1.95294       -1.69278       -1.42424
| 12> H          2.82618       -0.17973       -1.45886
| 13> H          3.57606       -1.60596       -0.78312
| 14> *
| 15>
| 16> %MaxCore 64000
| 17>
| 18> %pal nprocs 8
| 19> end
| 20>
| 21> %scf
| 22>   MaxIter 150
| 23> end
| 24>
| 25>
| 26>                          ****END OF INPUT****

CARTESIAN COORDINATES (ANGSTROEM)
---------------------------------
  C      2.916320   -1.242590   -1.543130
  C      3.466590   -1.590970   -2.889080
  N      4.652270   -1.143160   -3.259690
  N      2.752260   -2.292040   -3.728030
  H      1.778360   -2.489600   -3.512740
  H      2.948610   -2.208540   -4.716810
  H      5.146720   -0.512510   -2.633850
  H      4.783030   -1.007200   -4.253500
  H      1.952940   -1.692780   -1.424240
  H      2.826180   -0.179730   -1.458860
  H      3.576060   -1.605960   -0.783120

 Total Charge           Charge          ....    1
 Multiplicity           Mult            ....    1
 Number of Electrons    NEL             ....   32
 Basis Dimension        Dim             ....  136

ORBITAL ENERGIES
----------------

  NO   OCC          E(Eh)            E(eV)
   0   2.0000     -14.280058      -388.5801
   1   2.0000     -14.275238      -388.4490
   2   2.0000     -10.249546      -278.9043
   3   2.0000     -10.125246      -275.5220
   4   2.0000      -1.120238       -30.4832
   5   2.0000      -1.027752       -27.9666
   6   2.0000      -0.878244       -23.8982
   7   2.0000      -0.781813       -21.2742
   8   2.0000      -0.722010       -19.6469
   9   2.0000      -0.715077       -19.4582
  10   2.0000      -0.655169       -17.8281
  11   2.0000      -0.615009       -16.7352
  12   2.0000      -0.574515       -15.6333
  13   2.0000      -0.557069       -15.1586
  14   2.0000      -0.531609       -14.4658
  15   2.0000      -0.464245       -12.6327
  16   0.0000      -0.260472        -7.0878
  17   0.0000      -0.190183        -5.1752
  18   0.0000      -0.147961        -4.0262
  19   0.0000      -0.142257        -3.8710
  20   0.0000      -0.120465        -3.2780

MULLIKEN ATOMIC CHARGES
-----------------------
   0 C :    0.985235
   1 C :   -0.032413
   2 N :    0.322932
   3 N :    0.311899
   4 H :   -0.018822
   5 H :   -0.128444
   6 H :   -0.014167
   7 H :   -0.120310
   8 H :   -0.111342
   9 H :   -0.112017
  10 H :   -0.082551
Sum of atomic charges:    1.0000000

LOEWDIN ATOMIC CHARGES
----------------------
   0 C :    0.249646
   1 C :   -0.091333
   2 N :    0.299910
   3 N :    0.303285
   4 H :    0.053763
   5 H :    0.045842
   6 H :    0.055108
   7 H :    0.041228
   8 H :    0.002649
   9 H :    0.020560
  10 H :    0.019342

  Mayer bond orders larger than 0.100000
B(  0-C ,  1-C ) :   1.3508 B(  0-C ,  8-H ) :   0.6972 B(  0-C ,  9-H ) :   0.7395
B(  0-C , 10-H ) :   0.5907 B(  1-C ,  2-N ) :   1.2288 B(  1-C ,  3-N ) :   1.2134
B(  1-C ,  5-H ) :  -0.1382 B(  1-C ,  8-H ) :   0.3311 B(  1-C ,  9-H ) :   0.1832
B(  1-C , 10-H ) :   0.3010 B(  2-N ,  3-N ) :   0.1935 B(  2-N ,  6-H ) :   1.0317
B(  2-N ,  7-H ) :   1.1635 B(  3-N ,  4-H ) :   1.0444 B(  3-N ,  5-H ) :   1.2028
B(  4-H ,  5-H ) :  -0.1379 B(  6-H ,  7-H ) :  -0.1258 B(  8-H , 10-H ) :   0.1050
B(  9-H , 10-H ) :   0.1074

Dispersion correction           -0.014184283
FINAL SINGLE POINT ENERGY      -189.513256651821

DIPOLE MOMENT
-------------
                                X             Y             Z
Electronic contribution:      0.91613      -0.74906      -1.81585
Nuclear contribution   :     -1.03256       1.11747       1.26949
                        -----------------------------------------
Total Dipole Moment    :     -0.11644       0.36841      -0.54636
                        -----------------------------------------
Magnitude (a.u.)       :      0.66917
Magnitude (Debye)      :      1.70090

Rotational constants in cm-1:     0.336859     0.298586     0.163958
Rotational constants in MHz : 10098.776812  8951.369850  4915.333652

                             ****ORCA TERMINATED NORMALLY****
TOTAL RUN TIME: 0 days 0 hours 0 minutes 3 seconds 435 msec
