                         Program Version 5.0.0 -  RELEASE  -
|  1> !BLYP D3BJ RIJCOSX def2-SVPD def2/J TightSCF
|  2> *xyz 0 1
|  3> C          1.72854        1.42432       -5.63944
|  4> S          2.25263       -0.18811       -6.27184
|  5> F          3.56261       -0.44446       -5.63155
|  6> O          2.34494       -0.03374       -7.69650
|  7> O          1.26606       -1.15918       -5.80536
|  8> H          0.77944        1.68154       -6.06127
|  9> H          2.45151        2.16548       -5.90944
| 10> H          1.64478        1.37937       -4.57367
| 11> *
| 12>
| 13> %MaxCore 64000
| 14>
| 15> %pal nprocs 8
| 16> end
| 17>
| 18> %scf
| 19>   MaxIter 150
| 20> end
| 21>
| 22>
| 23>                          ****END OF INPUT****

CARTESIAN COORDINATES (ANGSTROEM)
---------------------------------
  C      1.728540    1.424320   -5.639440
  S      2.252630   -0.188110   -6.271840
  F      3.562610   -0.444460   -5.631550
  O      2.344940   -0.033740   -7.696500
  O      1.266060   -1.159180   -5.805360
  H      0.779440    1.681540   -6.061270
  H      2.451510    2.165480   -5.909440
  H      1.644780    1.379370   -4.573670

 Total Charge           Charge          ....    0
 Multiplicity           Mult            ....    1
 Number of Electrons    NEL             ....   50
 Basis Dimension        Dim             ....  140

ORBITAL ENERGIES
----------------

  NO   OCC          E(Eh)            E(eV)
   0   2.0000     -88.388329     -2405.1687
   1   2.0000     -24.403993      -664.0664
   2   2.0000     -18.808129      -511.7952
   3   2.0000     -18.802017      -511.6289
   4   2.0000      -9.983153      -271.6554
   5   2.0000      -7.925544      -215.6650
   6   2.0000      -5.964686      -162.3074
   7   2.0000      -5.958468      -162.1382
   8   2.0000      -5.957273      -162.1056
   9   2.0000      -1.237910       -33.6852
  10   2.0000      -1.022515       -27.8240
  11   2.0000      -0.929410       -25.2905
  12   2.0000      -0.722010       -19.6469
  13   2.0000      -0.635359       -17.2890
  14   2.0000      -0.530226       -14.4282
  15   2.0000      -0.501419       -13.6443
  16   2.0000      -0.491193       -13.3661
  17   2.0000      -0.427271       -11.6266
  18   2.0000      -0.425499       -11.5784
  19   2.0000      -0.415090       -11.2952
  20   2.0000      -0.392849       -10.6900
  21   2.0000      -0.342236        -9.3127
  22   2.0000      -0.297790        -8.1033
  23   2.0000      -0.291203        -7.9240
  24   2.0000      -0.271580        -7.3901
  25   0.0000      -0.032242        -0.8773
  26   0.0000       0.000903         0.0246
  27   0.0000       0.011672         0.3176
  28   0.0000       0.032173         0.8755
  29   0.0000       0.032676         0.8892

MULLIKEN ATOMIC CHARGES
-----------------------
   0 C :    0.876019
   1 S :    1.089867
   2 F :   -0.348865
   3 O :   -0.555212
   4 O :   -0.578295
   5 H :   -0.168123
   6 H :   -0.154005
   7 H :   -0.161386
Sum of atomic charges:    0.0000000

LOEWDIN ATOMIC CHARGES
----------------------
   0 C :    0.137389
   1 S :    1.061989
   2 F :   -0.260682
   3 O :   -0.441882
   4 O :   -0.450517
   5 H :   -0.007037
   6 H :   -0.019641
   7 H :   -0.019620

  Mayer bond orders larger than 0.100000
B(  0-C ,  1-S ) :   0.9589 B(  0-C ,  5-H ) :   0.8454 B(  0-C ,  6-H ) :   0.8523
B(  0-C ,  7-H ) :   0.8553 B(  1-S ,  2-F ) :   0.7157 B(  1-S ,  3-O ) :   1.5846
B(  1-S ,  4-O ) :   1.5593 B(  1-S ,  5-H ) :   0.1372 B(  1-S ,  6-H ) :   0.1145
B(  1-S ,  7-H ) :   0.1200 B(  3-O ,  4-O ) :   0.1150

Dispersion correction           -0.012728493
FINAL SINGLE POINT ENERGY      -687.952527553309

DIPOLE MOMENT
-------------
                                X             Y             Z
Electronic contribution:      3.33183      -4.22972      -0.56435
Nuclear contribution   :     -3.03874       5.51823       1.39394
                        -----------------------------------------
Total Dipole Moment    :      0.29309       1.28851       0.82959
                        -----------------------------------------
Magnitude (a.u.)       :      1.56025
Magnitude (Debye)      :      3.96584

Rotational constants in cm-1:     0.164301     0.151617     0.146802
Rotational constants in MHz :  4925.615104  4545.361281  4401.017554

                             ****ORCA TERMINATED NORMALLY****
TOTAL RUN TIME: 0 days 0 hours 0 minutes 3 seconds 622 msec
