                         Program Version 5.0.0 -  RELEASE  -
|  1> !BLYP D3BJ RIJCOSX def2-SVPD def2/J TightSCF
|  2> *xyz 0 1
|  3> C          2.91632       -1.24259       -1.54313
|  4> C          3.46659       -1.59097       -2.88908
|  5> C          4.65227       -1.14316       -3.25969
|  6> N          2.75226       -2.29204       -3.72803
|  7> H          1.77836       -2.48960       -3.51274
|  8> H          2.94861       -2.20854       -4.71681
|  9> H          5.14672       -0.51251       -2.63385
| 10> H          4.78303       -1.00720       -4.25350
| 11> H          1.95294       -1.69278       -1.42424
| 12> H          2.82618       -0.17973       -1.45886
| 13> H          3.57606       -1.60596       -0.78312
| 14> *
| 15>
| 16> %MaxCore 64000
| 17>
| 18> %pal nprocs 8
| 19> end
| 20>
| 21> %scf
| 22>   MaxIter 150
| 23> end
| 24>
| 25>
| 26>                          ****END OF INPUT****

CARTESIAN COORDINATES (ANGSTROEM)
---------------------------------
  C      2.916320   -1.242590   -1.543130
  C      3.466590   -1.590970   -2.889080
  C      4.652270   -1.143160   -3.259690
  N      2.752260   -2.292040   -3.728030
  H      1.778360   -2.489600   -3.512740
  H      2.948610   -2.208540   -4.716810
  H      5.146720   -0.512510   -2.633850
  H      4.783030   -1.007200   -4.253500
  H      1.952940   -1.692780   -1.424240
  H      2.826180   -0.179730   -1.458860
  H      3.576060   -1.605960   -0.783120

 Total Charge           Charge          ....    0
 Multiplicity           Mult            ....    1
 Number of Electrons    NEL             ....   32
 Basis Dimension        Dim             ....  136

ORBITAL ENERGIES
----------------

  NO   OCC          E(Eh)            E(eV)
   0   2.0000     -14.030003      -381.7758
   1   2.0000      -9.941177      -270.5132
   2   2.0000      -9.916493      -269.8415
   3   2.0000      -9.852426      -268.0981
   4   2.0000      -0.843106       -22.9421
   5   2.0000      -0.675831       -18.3903
   6   2.0000      -0.613551       -16.6956
   7   2.0000      -0.513727       -13.9792
   8   2.0000      -0.469518       -12.7762
   9   2.0000      -0.415367       -11.3027
  10   2.0000      -0.383045       -10.4232
  11   2.0000      -0.351765        -9.5720
  12   2.0000      -0.339804        -9.2465
  13   2.0000      -0.315998        -8.5987
  14   2.0000      -0.285773        -7.7763
  15   2.0000      -0.155299        -4.2259
  16   0.0000      -0.005614        -0.1528
  17   0.0000       0.009395         0.2557
  18   0.0000       0.034799         0.9469
  19   0.0000       0.042703         1.1620
  20   0.0000       0.067777         1.8443

MULLIKEN ATOMIC CHARGES
-----------------------
   0 C :    1.153612
   1 C :   -0.558066
   2 C :    0.609877
   3 N :    0.400456
   4 H :   -0.166254
   5 H :   -0.152016
   6 H :   -0.243176
   7 H :   -0.527896
   8 H :   -0.246505
   9 H :   -0.159220
  10 H :   -0.110813
Sum of atomic charges:    0.0000000

LOEWDIN ATOMIC CHARGES
----------------------
   0 C :    0.182490
   1 C :   -0.296191
   2 C :    0.169506
   3 N :    0.187256
   4 H :   -0.006608
   5 H :    0.001380
   6 H :   -0.085057
   7 H :   -0.097307
   8 H :   -0.033417
   9 H :   -0.010858
  10 H :   -0.011194

  Mayer bond orders larger than 0.100000
B(  0-C ,  1-C ) :   1.2471 B(  0-C ,  3-N ) :   0.1082 B(  0-C ,  8-H ) :   0.5716
B(  0-C ,  9-H ) :   0.7276 B(  0-C , 10-H ) :   0.6010 B(  1-C ,  2-C ) :   1.8166
B(  1-C ,  3-N ) :   1.1860 B(  1-C ,  6-H ) :   0.1944 B(  1-C ,  7-H ) :   0.2633
B(  1-C ,  8-H ) :   0.3951 B(  1-C ,  9-H ) :   0.1749 B(  1-C , 10-H ) :   0.3127
B(  2-C ,  3-N ) :   0.2958 B(  2-C ,  6-H ) :   0.6809 B(  2-C ,  7-H ) :   0.6839
B(  3-N ,  4-H ) :   1.0517 B(  3-N ,  5-H ) :   1.0988 B(  4-H ,  5-H ) :  -0.1241
B(  6-H ,  7-H ) :   0.1538

Dispersion correction           -0.014959732
FINAL SINGLE POINT ENERGY      -173.045723892518

DIPOLE MOMENT
-------------
                                X             Y             Z
Electronic contribution:     -0.14140      -1.18864      -1.32393
Nuclear contribution   :     -0.76183       1.20997       1.18381
                        -----------------------------------------
Total Dipole Moment    :     -0.90323       0.02133      -0.14012
                        -----------------------------------------
Magnitude (a.u.)       :      0.91428
Magnitude (Debye)      :      2.32392

Rotational constants in cm-1:     0.357745     0.302571     0.170012
Rotational constants in MHz : 10724.926457  9070.849165  5096.845195

                             ****ORCA TERMINATED NORMALLY****
TOTAL RUN TIME: 0 days 0 hours 0 minutes 3 seconds 438 msec
