                         Program Version 5.0.0 -  RELEASE  -
|  1> !BLYP D3BJ RIJCOSX def2-SVPD def2/J TightSCF
|  2> *xyz 0 1
|  3> C          1.72854        1.42432       -5.63944
|  4> S          2.25263       -0.18811       -6.27184
|  5> O          3.56261       -0.44446       -5.63155
|  6> F          2.34494       -0.03374       -7.69650
|  7> O          1.26606       -1.15918       -5.80536
|  8> H          0.77944        1.68154       -6.06127
|  9> H          2.45151        2.16548       -5.90944
| 10> H          1.64478        1.37937       -4.57367
| 11> *
| 12>
| 13> %MaxCore 64000
| 14>
| 15> %pal nprocs 8
| 16> end
| 17>
| 18> %scf
| 19>   MaxIter 150
| 20> end
| 21>
| 22>
| 23>                          ****END OF INPUT****

CARTESIAN COORDINATES (ANGSTROEM)
---------------------------------
  C      1.728540    1.424320   -5.639440
  S      2.252630   -0.188110   -6.271840
  O      3.562610   -0.444460   -5.631550
  F      2.344940   -0.033740   -7.696500
  O      1.266060   -1.159180   -5.805360
  H      0.779440    1.681540   -6.061270
  H      2.451510    2.165480   -5.909440
  H      1.644780    1.379370   -4.573670

 Total Charge           Charge          ....    0
 Multiplicity           Mult            ....    1
 Number of Electrons    NEL             ....   50
 Basis Dimension        Dim             ....  140

ORBITAL ENERGIES
----------------

  NO   OCC          E(Eh)            E(eV)
   0   2.0000     -88.390781     -2405.2354
   1   2.0000     -24.425398      -664.6489
   2   2.0000     -18.802432      -511.6402
   3   2.0000     -18.794431      -511.4225
   4   2.0000      -9.984181      -271.6834
   5   2.0000      -7.927975      -215.7312
   6   2.0000      -5.967409      -162.3814
   7   2.0000      -5.960653      -162.1976
   8   2.0000      -5.959462      -162.1652
   9   2.0000      -1.274645       -34.6849
  10   2.0000      -1.009713       -27.4757
  11   2.0000      -0.910248       -24.7691
  12   2.0000      -0.724994       -19.7281
  13   2.0000      -0.652736       -17.7618
  14   2.0000      -0.545148       -14.8342
  15   2.0000      -0.526870       -14.3369
  16   2.0000      -0.496873       -13.5206
  17   2.0000      -0.428082       -11.6487
  18   2.0000      -0.424157       -11.5419
  19   2.0000      -0.416059       -11.3215
  20   2.0000      -0.387031       -10.5316
  21   2.0000      -0.334722        -9.1082
  22   2.0000      -0.291590        -7.9346
  23   2.0000      -0.280580        -7.6350
  24   2.0000      -0.256841        -6.9890
  25   0.0000      -0.033881        -0.9219
  26   0.0000       0.002586         0.0704
  27   0.0000       0.010161         0.2765
  28   0.0000       0.029253         0.7960
  29   0.0000       0.031634         0.8608

MULLIKEN ATOMIC CHARGES
-----------------------
   0 C :    0.876835
   1 S :    1.081960
   2 O :   -0.588331
   3 F :   -0.324819
   4 O :   -0.564783
   5 H :   -0.161553
   6 H :   -0.152711
   7 H :   -0.166598
Sum of atomic charges:   -0.0000000

LOEWDIN ATOMIC CHARGES
----------------------
   0 C :    0.136798
   1 S :    1.063735
   2 O :   -0.461383
   3 F :   -0.243013
   4 O :   -0.449908
   5 H :   -0.021132
   6 H :   -0.019402
   7 H :   -0.005694

  Mayer bond orders larger than 0.100000
B(  0-C ,  1-S ) :   0.9599 B(  0-C ,  5-H ) :   0.8497 B(  0-C ,  6-H ) :   0.8521
B(  0-C ,  7-H ) :   0.8510 B(  1-S ,  2-O ) :   1.5442 B(  1-S ,  3-F ) :   0.7736
B(  1-S ,  4-O ) :   1.5632 B(  1-S ,  5-H ) :   0.1097 B(  1-S ,  6-H ) :   0.1133
B(  1-S ,  7-H ) :   0.1456

Dispersion correction           -0.012726467
FINAL SINGLE POINT ENERGY      -687.934136277001

DIPOLE MOMENT
-------------
                                X             Y             Z
Electronic contribution:      1.31876      -3.56122      -3.94989
Nuclear contribution   :     -1.82220       5.10789       3.45696
                        -----------------------------------------
Total Dipole Moment    :     -0.50345       1.54667      -0.49293
                        -----------------------------------------
Magnitude (a.u.)       :      1.69960
Magnitude (Debye)      :      4.32004

Rotational constants in cm-1:     0.163267     0.154654     0.145086
Rotational constants in MHz :  4894.631475  4636.404456  4349.567403

                             ****ORCA TERMINATED NORMALLY****
TOTAL RUN TIME: 0 days 0 hours 0 minutes 3 seconds 567 msec
