                         Program Version 5.0.0 -  RELEASE  -
|  1> !BLYP D3BJ RIJCOSX def2-SVPD def2/J TightSCF
|  2> *xyz 0 1
|  3> C          2.91632       -1.24259       -1.54313
|  4> C          3.46659       -1.59097       -2.88908
|  5> N          4.65227       -1.14316       -3.25969
|  6> C          2.75226       -2.29204       -3.72803
|  7> H          1.77836       -2.48960       -3.51274
|  8> H          2.94861       -2.20854       -4.71681
|  9> H          5.14672       -0.51251       -2.63385
| 10> H          4.78303       -1.00720       -4.25350
| 11> H          1.95294       -1.69278       -1.42424
| 12> H          2.82618       -0.17973       -1.45886
| 13> H          3.57606       -1.60596       -0.78312
| 14> *
| 15>
| 16> %MaxCore 64000
| 17>
| 18> %pal nprocs 8
| 19> end
| 20>
| 21> %scf
| 22>   MaxIter 150
| 23> end
| 24>
| 25>
| 26>                          ****END OF INPUT****

CARTESIAN COORDINATES (ANGSTROEM)
---------------------------------
  C      2.916320   -1.242590   -1.543130
  C      3.466590   -1.590970   -2.889080
  N      4.652270   -1.143160   -3.259690
  C      2.752260   -2.292040   -3.728030
  H      1.778360   -2.489600   -3.512740
  H      2.948610   -2.208540   -4.716810
  H      5.146720   -0.512510   -2.633850
  H      4.783030   -1.007200   -4.253500
  H      1.952940   -1.692780   -1.424240
  H      2.826180   -0.179730   -1.458860
  H      3.576060   -1.605960   -0.783120

 Total Charge           Charge          ....    0
 Multiplicity           Mult            ....    1
 Number of Electrons    NEL             ....   32
 Basis Dimension        Dim             ....  136

ORBITAL ENERGIES
----------------

  NO   OCC          E(Eh)            E(eV)
   0   2.0000     -14.026743      -381.6871
   1   2.0000      -9.940498      -270.4947
   2   2.0000      -9.915091      -269.8033
   3   2.0000      -9.856808      -268.2174
   4   2.0000      -0.838087       -22.8055
   5   2.0000      -0.676330       -18.4039
   6   2.0000      -0.614819       -16.7301
   7   2.0000      -0.507277       -13.8037
   8   2.0000      -0.470618       -12.8062
   9   2.0000      -0.418173       -11.3791
  10   2.0000      -0.383672       -10.4402
  11   2.0000      -0.351137        -9.5549
  12   2.0000      -0.343609        -9.3501
  13   2.0000      -0.311530        -8.4772
  14   2.0000      -0.281604        -7.6628
  15   2.0000      -0.162463        -4.4208
  16   0.0000      -0.005079        -0.1382
  17   0.0000       0.013247         0.3605
  18   0.0000       0.036184         0.9846
  19   0.0000       0.044208         1.2030
  20   0.0000       0.068495         1.8638

MULLIKEN ATOMIC CHARGES
-----------------------
   0 C :    1.180753
   1 C :   -0.653344
   2 N :    0.421290
   3 C :    0.557160
   4 H :   -0.192991
   5 H :   -0.565419
   6 H :   -0.184673
   7 H :   -0.140179
   8 H :   -0.102540
   9 H :   -0.169843
  10 H :   -0.150213
Sum of atomic charges:   -0.0000000

LOEWDIN ATOMIC CHARGES
----------------------
   0 C :    0.178931
   1 C :   -0.302432
   2 N :    0.187286
   3 C :    0.176348
   4 H :   -0.086030
   5 H :   -0.091012
   6 H :   -0.004989
   7 H :   -0.002863
   8 H :   -0.019347
   9 H :   -0.015689
  10 H :   -0.020202

  Mayer bond orders larger than 0.100000
B(  0-C ,  1-C ) :   1.3723 B(  0-C ,  8-H ) :   0.7154 B(  0-C ,  9-H ) :   0.5487
B(  0-C , 10-H ) :   0.5313 B(  1-C ,  2-N ) :   1.2049 B(  1-C ,  3-C ) :   1.7795
B(  1-C ,  5-H ) :   0.2534 B(  1-C ,  8-H ) :   0.3200 B(  1-C ,  9-H ) :   0.3830
B(  1-C , 10-H ) :   0.3522 B(  2-N ,  3-C ) :   0.3115 B(  2-N ,  6-H ) :   1.0410
B(  2-N ,  7-H ) :   1.0623 B(  3-C ,  4-H ) :   0.7829 B(  3-C ,  5-H ) :   0.5972
B(  4-H ,  5-H ) :   0.1995 B(  6-H ,  7-H ) :  -0.1103 B(  8-H ,  9-H ) :   0.1202

Dispersion correction           -0.014958831
FINAL SINGLE POINT ENERGY      -173.049111689674

DIPOLE MOMENT
-------------
                                X             Y             Z
Electronic contribution:      1.52843      -0.19269      -0.94061
Nuclear contribution   :     -1.18794       0.95232       1.07877
                        -----------------------------------------
Total Dipole Moment    :      0.34049       0.75962       0.13817
                        -----------------------------------------
Magnitude (a.u.)       :      0.84383
Magnitude (Debye)      :      2.14485

Rotational constants in cm-1:     0.358436     0.301769     0.169913
Rotational constants in MHz : 10745.629007  9046.806054  5093.859032

                             ****ORCA TERMINATED NORMALLY****
TOTAL RUN TIME: 0 days 0 hours 0 minutes 3 seconds 480 msec
