                         Program Version 5.0.0 -  RELEASE  -
|  1> !BLYP D3BJ RIJCOSX def2-SVPD def2/J TightSCF
|  2> *xyz 0 1
|  3> C          1.72854        1.42432       -5.63944
|  4> S          2.25263       -0.18811       -6.27184
|  5> O          3.56261       -0.44446       -5.63155
|  6> O          2.34494       -0.03374       -7.69650
|  7> F          1.26606       -1.15918       -5.80536
|  8> H          0.77944        1.68154       -6.06127
|  9> H          2.45151        2.16548       -5.90944
| 10> H          1.64478        1.37937       -4.57367
| 11> *
| 12>
| 13> %MaxCore 64000
| 14>
| 15> %pal nprocs 8
| 16> end
| 17>
| 18> %scf
| 19>   MaxIter 150
| 20> end
| 21>
| 22>
| 23>                          ****END OF INPUT****

CARTESIAN COORDINATES (ANGSTROEM)
---------------------------------
  C      1.728540    1.424320   -5.639440
  S      2.252630   -0.188110   -6.271840
  O      3.562610   -0.444460   -5.631550
  O      2.344940   -0.033740   -7.696500
  F      1.266060   -1.159180   -5.805360
  H      0.779440    1.681540   -6.061270
  H      2.451510    2.165480   -5.909440
  H      1.644780    1.379370   -4.573670

 Total Charge           Charge          ....    0
 Multiplicity           Mult            ....    1
 Number of Electrons    NEL             ....   50
 Basis Dimension        Dim             ....  140

ORBITAL ENERGIES
----------------

  NO   OCC          E(Eh)            E(eV)
   0   2.0000     -88.389306     -2405.1953
   1   2.0000     -24.414618      -664.3555
   2   2.0000     -18.808488      -511.8050
   3   2.0000     -18.794363      -511.4206
   4   2.0000      -9.983692      -271.6701
   5   2.0000      -7.926558      -215.6926
   6   2.0000      -5.965822      -162.3383
   7   2.0000      -5.959358      -162.1624
   8   2.0000      -5.958185      -162.1304
   9   2.0000      -1.254506       -34.1369
  10   2.0000      -1.019053       -27.7298
  11   2.0000      -0.918404       -24.9910
  12   2.0000      -0.722639       -19.6640
  13   2.0000      -0.643927       -17.5221
  14   2.0000      -0.536493       -14.5987
  15   2.0000      -0.512787       -13.9537
  16   2.0000      -0.494077       -13.4445
  17   2.0000      -0.427835       -11.6420
  18   2.0000      -0.424860       -11.5610
  19   2.0000      -0.416895       -11.3443
  20   2.0000      -0.390092       -10.6149
  21   2.0000      -0.339811        -9.2467
  22   2.0000      -0.296943        -8.0802
  23   2.0000      -0.282201        -7.6791
  24   2.0000      -0.263451        -7.1689
  25   0.0000      -0.035308        -0.9608
  26   0.0000      -0.000042        -0.0011
  27   0.0000       0.010987         0.2990
  28   0.0000       0.031243         0.8502
  29   0.0000       0.031989         0.8705

MULLIKEN ATOMIC CHARGES
-----------------------
   0 C :    0.877184
   1 S :    1.086565
   2 O :   -0.594782
   3 O :   -0.548413
   4 F :   -0.338675
   5 H :   -0.160865
   6 H :   -0.159873
   7 H :   -0.161141
Sum of atomic charges:    0.0000000

LOEWDIN ATOMIC CHARGES
----------------------
   0 C :    0.137245
   1 S :    1.063381
   2 O :   -0.461499
   3 O :   -0.441336
   4 F :   -0.251452
   5 H :   -0.020889
   6 H :   -0.005756
   7 H :   -0.019694

  Mayer bond orders larger than 0.100000
B(  0-C ,  1-S ) :   0.9601 B(  0-C ,  5-H ) :   0.8506 B(  0-C ,  6-H ) :   0.8479
B(  0-C ,  7-H ) :   0.8542 B(  1-S ,  2-O ) :   1.5416 B(  1-S ,  3-O ) :   1.5859
B(  1-S ,  4-F ) :   0.7403 B(  1-S ,  5-H ) :   0.1102 B(  1-S ,  6-H ) :   0.1398
B(  1-S ,  7-H ) :   0.1186 B(  2-O ,  3-O ) :   0.1036

Dispersion correction           -0.012731190
FINAL SINGLE POINT ENERGY      -687.943001246251

DIPOLE MOMENT
-------------
                                X             Y             Z
Electronic contribution:     -0.45349      -5.40097      -0.85787
Nuclear contribution   :     -0.74433       6.23228       1.56758
                        -----------------------------------------
Total Dipole Moment    :     -1.19783       0.83131       0.70971
                        -----------------------------------------
Magnitude (a.u.)       :      1.62159
Magnitude (Debye)      :      4.12176

Rotational constants in cm-1:     0.164764     0.152261     0.145794
Rotational constants in MHz :  4939.488001  4564.674339  4370.797804

                             ****ORCA TERMINATED NORMALLY****
TOTAL RUN TIME: 0 days 0 hours 0 minutes 3 seconds 596 msec
