                         Program Version 5.0.0 -  RELEASE  -
|  1> !BLYP D3BJ RIJCOSX def2-SVPD def2/J TightSCF xyzfile
|  2>
|  3> *xyzfile 0 1 D2.xyz
|  4>
|  5> %MaxCore 64000
|  6>
|  7> %pal nprocs 4
|  8> end
|  9>
| 10> %scf
| 11>   MaxIter 150
| 12> end
| 13>
| 14>
| 15>                          ****END OF INPUT****

CARTESIAN COORDINATES (ANGSTROEM)
---------------------------------
  C      2.916324   -1.242589   -1.543125
  C      0.704661    1.443129   -4.503630
  C      1.728539    1.424320   -5.639443
  H      2.646718    1.953794   -5.381054
  H      1.299916    1.930613   -6.503614
  S      2.252625   -0.188115   -6.271840
  C      3.466585   -1.590971   -2.889082
  N      4.652275   -1.143164   -3.259692
  C      2.752264   -2.292043   -3.728029
  H      1.778364   -2.489604   -3.512738
  H      2.948612   -2.208544   -4.716813
  H      5.146723   -0.512508   -2.633852
  H      4.783030   -1.007203   -4.253498
  F      3.562607   -0.444464   -5.631552
  O      2.344944   -0.033742   -7.696501
  C      2.804084    0.290698   -1.359243
  C      1.052550    0.695659   -3.214915
  H     -0.232483    1.032925   -4.884449
  H      0.511700    2.495794   -4.267966
  C      2.388380    1.093669   -2.597108
  H      3.763425    0.674718   -0.999889
  H      2.094788    0.461222   -0.545756
  O      1.266058   -1.159177   -5.805365
  H      3.167316    1.013242   -3.359430
  H      2.357690    2.149375   -2.310997
  H      1.039284   -0.368429   -3.449329
  H      0.250787    0.865605   -2.488283
  H      1.940472   -1.716529   -1.441161
  H      3.558569   -1.663433   -0.766371

 Total Charge           Charge          ....    0
 Multiplicity           Mult            ....    1
 Number of Electrons    NEL             ....  112
 Basis Dimension        Dim             ....  404

ORBITAL ENERGIES
----------------

  NO   OCC          E(Eh)            E(eV)
   0   2.0000     -88.383806     -2405.0456
   1   2.0000     -24.405857      -664.1171
   2   2.0000     -18.807035      -511.7654
   3   2.0000     -18.796903      -511.4897
   4   2.0000     -14.024538      -381.6271
   5   2.0000      -9.980816      -271.5918
   6   2.0000      -9.947793      -270.6932
   7   2.0000      -9.933792      -270.3122
   8   2.0000      -9.929682      -270.2004
   9   2.0000      -9.928252      -270.1615
  10   2.0000      -9.923776      -270.0397
  11   2.0000      -9.922544      -270.0061
  12   2.0000      -9.852210      -268.0923
  13   2.0000      -7.920237      -215.5206
  14   2.0000      -5.959715      -162.1721
  15   2.0000      -5.953195      -161.9947
  16   2.0000      -5.951538      -161.9496
  17   2.0000      -1.241720       -33.7889
  18   2.0000      -1.020721       -27.7752
  19   2.0000      -0.927145       -25.2289
  20   2.0000      -0.839352       -22.8399
  21   2.0000      -0.752628       -20.4800
  22   2.0000      -0.718468       -19.5505
  23   2.0000      -0.682598       -18.5744
  24   2.0000      -0.656093       -17.8532
  25   2.0000      -0.636547       -17.3213
  26   2.0000      -0.607711       -16.5367
  27   2.0000      -0.561092       -15.2681
  28   2.0000      -0.531409       -14.4604
  29   2.0000      -0.508909       -13.8481
  30   2.0000      -0.505396       -13.7525
  31   2.0000      -0.496982       -13.5236
  32   2.0000      -0.487887       -13.2761
  33   2.0000      -0.468893       -12.7592
  34   2.0000      -0.440104       -11.9758
  35   2.0000      -0.438706       -11.9378
  36   2.0000      -0.425014       -11.5652
  37   2.0000      -0.412687       -11.2298
  38   2.0000      -0.401309       -10.9202
  39   2.0000      -0.394189       -10.7264
  40   2.0000      -0.385957       -10.5024
  41   2.0000      -0.370191       -10.0734
  42   2.0000      -0.357941        -9.7401
  43   2.0000      -0.341264        -9.2863
  44   2.0000      -0.339072        -9.2266
  45   2.0000      -0.336162        -9.1474
  46   2.0000      -0.323592        -8.8054
  47   2.0000      -0.312733        -8.5099
  48   2.0000      -0.302975        -8.2444
  49   2.0000      -0.291894        -7.9428
  50   2.0000      -0.287284        -7.8174
  51   2.0000      -0.285933        -7.7806
  52   2.0000      -0.277334        -7.5467
  53   2.0000      -0.272584        -7.4174
  54   2.0000      -0.266588        -7.2542
  55   2.0000      -0.159668        -4.3448
  56   0.0000      -0.027943        -0.7604
  57   0.0000      -0.011687        -0.3180
  58   0.0000      -0.004203        -0.1144
  59   0.0000      -0.000843        -0.0229
  60   0.0000       0.015726         0.4279

MULLIKEN ATOMIC CHARGES
-----------------------
   0 C :    0.804712
   1 C :    0.816426
   2 C :    0.458642
   3 H :    0.020757
   4 H :   -0.436136
   5 S :    1.286926
   6 C :   -0.780278
   7 N :    0.699199
   8 C :    1.047053
   9 H :   -0.211107
  10 H :   -0.697238
  11 H :   -0.086288
  12 H :   -0.330158
  13 F :   -0.515711
  14 O :   -0.548437
  15 C :    0.800555
  16 C :    0.632510
  17 H :   -0.135324
  18 H :   -0.206206
  19 C :    0.176765
  20 H :   -0.159303
  21 H :   -0.288073
  22 O :   -0.721647
  23 H :   -0.128152
  24 H :   -0.389339
  25 H :   -0.643487
  26 H :   -0.180968
  27 H :    0.162712
  28 H :   -0.448403
Sum of atomic charges:   -0.0000000

LOEWDIN ATOMIC CHARGES
----------------------
   0 C :    0.035725
   1 C :   -0.015470
   2 C :   -0.027895
   3 H :    0.008596
   4 H :    0.017296
   5 S :    1.104431
   6 C :   -0.261650
   7 N :    0.209677
   8 C :    0.179563
   9 H :   -0.067212
  10 H :   -0.120515
  11 H :    0.000320
  12 H :   -0.041632
  13 F :   -0.277838
  14 O :   -0.426583
  15 C :   -0.003067
  16 C :   -0.004453
  17 H :    0.028504
  18 H :    0.029106
  19 C :   -0.018647
  20 H :    0.007726
  21 H :    0.014584
  22 O :   -0.426740
  23 H :   -0.013634
  24 H :    0.021482
  25 H :   -0.015662
  26 H :    0.029522
  27 H :    0.018406
  28 H :    0.016059

  Mayer bond orders larger than 0.100000
B(  0-C ,  6-C ) :   1.3276 B(  0-C ,  8-C ) :   0.1503 B(  0-C , 15-C ) :   1.0574
B(  0-C , 20-H ) :   0.1658 B(  0-C , 21-H ) :   0.2642 B(  0-C , 27-H ) :   0.7261
B(  0-C , 28-H ) :   0.3107 B(  1-C ,  2-C ) :   1.1666 B(  1-C ,  3-H ) :   0.1322
B(  1-C ,  4-H ) :   0.2579 B(  1-C , 16-C ) :   1.2047 B(  1-C , 17-H ) :   0.5034
B(  1-C , 18-H ) :   0.5721 B(  1-C , 25-H ) :   0.1270 B(  1-C , 26-H ) :   0.1091
B(  2-C ,  3-H ) :   0.7996 B(  2-C ,  4-H ) :   0.7095 B(  2-C ,  5-S ) :   0.8967
B(  2-C , 16-C ) :   0.1214 B(  2-C , 17-H ) :   0.1535 B(  2-C , 18-H ) :   0.2259
B(  5-S , 13-F ) :   0.6587 B(  5-S , 14-O ) :   1.6119 B(  5-S , 22-O ) :   1.5440
B(  6-C ,  7-N ) :   1.0214 B(  6-C ,  8-C ) :   1.8683 B(  6-C ,  9-H ) :   0.1381
B(  6-C , 10-H ) :   0.6318 B(  6-C , 15-C ) :   0.2944 B(  6-C , 21-H ) :  -0.1265
B(  6-C , 27-H ) :   0.1234 B(  6-C , 28-H ) :   0.4962 B(  7-N ,  8-C ) :   0.5059
B(  7-N ,  9-H ) :   0.1903 B(  7-N , 10-H ) :  -0.1619 B(  7-N , 11-H ) :   0.9525
B(  7-N , 12-H ) :   0.8214 B(  8-C ,  9-H ) :   0.4657 B(  8-C , 10-H ) :  -0.2274
B(  8-C , 27-H ) :  -0.1285 B(  9-H , 10-H ) :   0.1006 B(  9-H , 25-H ) :   0.1214
B( 10-H , 12-H ) :   0.2011 B( 10-H , 21-H ) :  -0.1107 B( 11-H , 12-H ) :  -0.1641
B( 12-H , 13-F ) :   0.1498 B( 13-F , 22-O ) :   0.1124 B( 14-O , 22-O ) :   0.1008
B( 15-C , 19-C ) :   1.1496 B( 15-C , 20-H ) :   0.5046 B( 15-C , 21-H ) :   0.6268
B( 15-C , 23-H ) :   0.1655 B( 15-C , 24-H ) :   0.1170 B( 15-C , 27-H ) :   0.1622
B( 15-C , 28-H ) :   0.1148 B( 16-C , 17-H ) :   0.3635 B( 16-C , 18-H ) :   0.1059
B( 16-C , 19-C ) :   1.2190 B( 16-C , 23-H ) :   0.1897 B( 16-C , 24-H ) :   0.1812
B( 16-C , 25-H ) :   0.6673 B( 16-C , 26-H ) :   0.4851 B( 17-H , 18-H ) :  -0.1711
B( 19-C , 20-H ) :   0.3823 B( 19-C , 21-H ) :   0.2134 B( 19-C , 23-H ) :   0.7708
B( 19-C , 24-H ) :   0.6867 B( 19-C , 25-H ) :   0.2312 B( 19-C , 26-H ) :   0.2491
B( 20-H , 21-H ) :  -0.2060 B( 27-H , 28-H ) :  -0.1075

Dispersion correction           -0.073941254
FINAL SINGLE POINT ENERGY     -1016.871358705563

DIPOLE MOMENT
-------------
                                X             Y             Z
Electronic contribution:      3.44493      -4.28272     -18.26451
Nuclear contribution   :     -3.13969       6.14743      19.30799
                        -----------------------------------------
Total Dipole Moment    :      0.30524       1.86471       1.04348
                        -----------------------------------------
Magnitude (a.u.)       :      2.15851
Magnitude (Debye)      :      5.48650

Rotational constants in cm-1:     0.036460     0.018762     0.015014
Rotational constants in MHz :  1093.039020   562.475626   450.105862

                             ****ORCA TERMINATED NORMALLY****
TOTAL RUN TIME: 0 days 0 hours 0 minutes 40 seconds 607 msec
