                         Program Version 5.0.0 -  RELEASE  -
|  1> !M062X D3Zero RIJCOSX def2-SVPD def2/J TightSCF
|  2> *xyz -1 1
|  3> C          3.38093        2.08304       -3.35013
|  4> C          2.49556        1.81615       -2.13636
|  5> C          1.87218        0.42790       -2.07750
|  6> H          2.61427       -0.36583       -2.19889
|  7> H          1.38995        0.27309       -1.11236
|  8> S          0.57902        0.14047       -3.29794
|  9> O          0.22886       -1.24687       -3.12787
| 10> O         -0.43927        1.11897       -3.01455
| 11> O          1.24788        0.40347       -4.59565
| 12> H          1.69700        2.56197       -2.14111
| 13> H          3.08079        1.98744       -1.22584
| 14> H          2.81820        1.91840       -4.24519
| 15> H          4.22171        1.42153       -3.33067
| 16> H          3.72372        3.09635       -3.32565
| 17> *
| 18>
| 19> %MaxCore 64000
| 20>
| 21> %pal nprocs 8
| 22> end
| 23>
| 24> %scf
| 25>   MaxIter 150
| 26> end
| 27>
| 28>
| 29>                          ****END OF INPUT****

CARTESIAN COORDINATES (ANGSTROEM)
---------------------------------
  C      3.380930    2.083040   -3.350130
  C      2.495560    1.816150   -2.136360
  C      1.872180    0.427900   -2.077500
  H      2.614270   -0.365830   -2.198890
  H      1.389950    0.273090   -1.112360
  S      0.579020    0.140470   -3.297940
  O      0.228860   -1.246870   -3.127870
  O     -0.439270    1.118970   -3.014550
  O      1.247880    0.403470   -4.595650
  H      1.697000    2.561970   -2.141110
  H      3.080790    1.987440   -1.225840
  H      2.818200    1.918400   -4.245190
  H      4.221710    1.421530   -3.330670
  H      3.723720    3.096350   -3.325650

 Total Charge           Charge          ....   -1
 Multiplicity           Mult            ....    1
 Number of Electrons    NEL             ....   66
 Basis Dimension        Dim             ....  212

ORBITAL ENERGIES
----------------

  NO   OCC          E(Eh)            E(eV)
   0   2.0000     -89.939745     -2447.3849
   1   2.0000     -19.421986      -528.4991
   2   2.0000     -19.421725      -528.4920
   3   2.0000     -19.408099      -528.1212
   4   2.0000     -10.417993      -283.4880
   5   2.0000     -10.411252      -283.3046
   6   2.0000     -10.397339      -282.9260
   7   2.0000      -8.262966      -224.8467
   8   2.0000      -6.188308      -168.3924
   9   2.0000      -6.188206      -168.3896
  10   2.0000      -6.187813      -168.3790
  11   2.0000      -1.055017       -28.7085
  12   2.0000      -0.912847       -24.8398
  13   2.0000      -0.886595       -24.1255
  14   2.0000      -0.746481       -20.3128
  15   2.0000      -0.650232       -17.6937
  16   2.0000      -0.546260       -14.8645
  17   2.0000      -0.465237       -12.6597
  18   2.0000      -0.411006       -11.1840
  19   2.0000      -0.388618       -10.5748
  20   2.0000      -0.368455       -10.0262
  21   2.0000      -0.353263        -9.6128
  22   2.0000      -0.348400        -9.4805
  23   2.0000      -0.328775        -8.9464
  24   2.0000      -0.282815        -7.6958
  25   2.0000      -0.274424        -7.4675
  26   2.0000      -0.262699        -7.1484
  27   2.0000      -0.231811        -6.3079
  28   2.0000      -0.229796        -6.2531
  29   2.0000      -0.193672        -5.2701
  30   2.0000      -0.180802        -4.9199
  31   2.0000      -0.164275        -4.4701
  32   2.0000      -0.141772        -3.8578
  33   0.0000       0.153892         4.1876
  34   0.0000       0.173539         4.7222
  35   0.0000       0.176532         4.8037
  36   0.0000       0.184731         5.0268
  37   0.0000       0.201778         5.4907

MULLIKEN ATOMIC CHARGES
-----------------------
   0 C :    0.836704
   1 C :   -0.270006
   2 C :    0.080047
   3 H :   -0.053204
   4 H :   -0.042392
   5 S :    1.483035
   6 O :   -0.849384
   7 O :   -0.830499
   8 O :   -0.878680
   9 H :   -0.030374
  10 H :   -0.160194
  11 H :   -0.239731
  12 H :   -0.012114
  13 H :   -0.033207
Sum of atomic charges:   -1.0000000

LOEWDIN ATOMIC CHARGES
----------------------
   0 C :    0.115324
   1 C :   -0.094325
   2 C :   -0.094246
   3 H :    0.009548
   4 H :    0.002867
   5 S :    0.904096
   6 O :   -0.585931
   7 O :   -0.582891
   8 O :   -0.594400
   9 H :    0.018149
  10 H :    0.006856
  11 H :   -0.051798
  12 H :   -0.022099
  13 H :   -0.031151

  Mayer bond orders larger than 0.100000
B(  0-C ,  1-C ) :   1.2529 B(  0-C ,  9-H ) :   0.1019 B(  0-C , 11-H ) :   0.8280
B(  0-C , 12-H ) :   0.7190 B(  0-C , 13-H ) :   0.7251 B(  1-C ,  2-C ) :   1.1957
B(  1-C ,  3-H ) :   0.1169 B(  1-C ,  4-H ) :   0.1198 B(  1-C ,  9-H ) :   0.9048
B(  1-C , 10-H ) :   0.9227 B(  1-C , 11-H ) :   0.2755 B(  1-C , 12-H ) :   0.2173
B(  1-C , 13-H ) :   0.2050 B(  2-C ,  3-H ) :   0.9658 B(  2-C ,  4-H ) :   0.9273
B(  2-C ,  5-S ) :   0.8940 B(  2-C ,  9-H ) :   0.1296 B(  5-S ,  6-O ) :   1.3100
B(  5-S ,  7-O ) :   1.2522 B(  5-S ,  8-O ) :   1.2252 B(  8-O , 11-H ) :   0.1092
B( 11-H , 12-H ) :   0.1164

Dispersion correction           -0.000283678
FINAL SINGLE POINT ENERGY      -741.891871097681

DIPOLE MOMENT
-------------
                                X             Y             Z
Electronic contribution:     -8.80655      -5.54586      -2.87892
Nuclear contribution   :     10.42821       6.37804       4.08250
                        -----------------------------------------
Total Dipole Moment    :      1.62166       0.83217       1.20358
                        -----------------------------------------
Magnitude (a.u.)       :      2.18424
Magnitude (Debye)      :      5.55190

Rotational constants in cm-1:     0.136992     0.054831     0.052480
Rotational constants in MHz :  4106.928256  1643.799656  1573.299166

                             ****ORCA TERMINATED NORMALLY****
TOTAL RUN TIME: 0 days 0 hours 0 minutes 16 seconds 109 msec
