                         Program Version 5.0.0 -  RELEASE  -
|  1> !M062X D3Zero RIJCOSX def2-SVPD def2/J TightSCF
|  2> *xyz 1 1
|  3> C          3.38093        2.08304       -3.35013
|  4> N          4.53592        1.18245       -3.42852
|  5> C          2.49556        1.81615       -2.13636
|  6> C          1.87218        0.42790       -2.07750
|  7> C          4.67196        0.12227       -4.22060
|  8> N          5.86602       -0.50785       -4.22428
|  9> N          3.69888       -0.31284       -4.98699
| 10> H          2.73141       -0.05009       -4.84900
| 11> H          3.89005       -1.05517       -5.64373
| 12> H          5.25193        1.30346       -2.72101
| 13> H          6.69516       -0.06232       -3.85160
| 14> H          5.97538       -1.39688       -4.69141
| 15> H          1.69700        2.56197       -2.14111
| 16> H          3.08079        1.98744       -1.22584
| 17> H          2.80646        1.98651       -4.26848
| 18> H          3.77871        3.09828       -3.30738
| 19> H          1.29954        0.25615       -2.96490
| 20> H          1.23321        0.35984       -1.22194
| 21> H          2.64581       -0.30765       -2.00430
| 22> *
| 23>
| 24> %MaxCore 64000
| 25>
| 26> %pal nprocs 8
| 27> end
| 28>
| 29> %scf
| 30>   MaxIter 150
| 31> end
| 32>
| 33>
| 34>                          ****END OF INPUT****

CARTESIAN COORDINATES (ANGSTROEM)
---------------------------------
  C      3.380930    2.083040   -3.350130
  N      4.535920    1.182450   -3.428520
  C      2.495560    1.816150   -2.136360
  C      1.872180    0.427900   -2.077500
  C      4.671960    0.122270   -4.220600
  N      5.866020   -0.507850   -4.224280
  N      3.698880   -0.312840   -4.986990
  H      2.731410   -0.050090   -4.849000
  H      3.890050   -1.055170   -5.643730
  H      5.251930    1.303460   -2.721010
  H      6.695160   -0.062320   -3.851600
  H      5.975380   -1.396880   -4.691410
  H      1.697000    2.561970   -2.141110
  H      3.080790    1.987440   -1.225840
  H      2.806460    1.986510   -4.268480
  H      3.778710    3.098280   -3.307380
  H      1.299540    0.256150   -2.964900
  H      1.233210    0.359840   -1.221940
  H      2.645810   -0.307650   -2.004300

 Total Charge           Charge          ....    1
 Multiplicity           Mult            ....    1
 Number of Electrons    NEL             ....   56
 Basis Dimension        Dim             ....  236

ORBITAL ENERGIES
----------------

  NO   OCC          E(Eh)            E(eV)
   0   2.0000     -14.986319      -407.7985
   1   2.0000     -14.982227      -407.6871
   2   2.0000     -14.979088      -407.6017
   3   2.0000     -10.890129      -296.3355
   4   2.0000     -10.753285      -292.6117
   5   2.0000     -10.692019      -290.9446
   6   2.0000     -10.671773      -290.3937
   7   2.0000      -1.314310       -35.7642
   8   2.0000      -1.196316       -32.5534
   9   2.0000      -1.180486       -32.1227
  10   2.0000      -1.030195       -28.0330
  11   2.0000      -0.950177       -25.8556
  12   2.0000      -0.905081       -24.6285
  13   2.0000      -0.863814       -23.5056
  14   2.0000      -0.840128       -22.8610
  15   2.0000      -0.804686       -21.8966
  16   2.0000      -0.766519       -20.8581
  17   2.0000      -0.759837       -20.6762
  18   2.0000      -0.713248       -19.4085
  19   2.0000      -0.702475       -19.1153
  20   2.0000      -0.668986       -18.2040
  21   2.0000      -0.646826       -17.6010
  22   2.0000      -0.620175       -16.8758
  23   2.0000      -0.574822       -15.6417
  24   2.0000      -0.551532       -15.0079
  25   2.0000      -0.544575       -14.8186
  26   2.0000      -0.538215       -14.6456
  27   2.0000      -0.501908       -13.6576
  28   0.0000      -0.129182        -3.5152
  29   0.0000      -0.125456        -3.4138
  30   0.0000      -0.094897        -2.5823
  31   0.0000      -0.086013        -2.3405
  32   0.0000      -0.065816        -1.7909

MULLIKEN ATOMIC CHARGES
-----------------------
   0 C :    0.783117
   1 N :   -0.615422
   2 C :   -0.343223
   3 C :    0.756218
   4 C :    1.654062
   5 N :   -0.189517
   6 N :   -0.069513
   7 H :   -0.091226
   8 H :   -0.103318
   9 H :   -0.221792
  10 H :   -0.056066
  11 H :   -0.003203
  12 H :   -0.016092
  13 H :   -0.043852
  14 H :   -0.035836
  15 H :   -0.235517
  16 H :   -0.035446
  17 H :   -0.139326
  18 H :    0.005951
Sum of atomic charges:    1.0000000

LOEWDIN ATOMIC CHARGES
----------------------
   0 C :    0.084443
   1 N :    0.037602
   2 C :   -0.054324
   3 C :    0.133366
   4 C :   -0.026099
   5 N :    0.251307
   6 N :    0.278361
   7 H :    0.020310
   8 H :    0.044347
   9 H :    0.062860
  10 H :    0.037429
  11 H :    0.034356
  12 H :    0.037971
  13 H :    0.031958
  14 H :    0.026078
  15 H :    0.040847
  16 H :   -0.019526
  17 H :   -0.000700
  18 H :   -0.020588

  Mayer bond orders larger than 0.100000
B(  0-C ,  1-N ) :   0.9136 B(  0-C ,  2-C ) :   1.0810 B(  0-C ,  9-H ) :  -0.2115
B(  0-C , 12-H ) :   0.1032 B(  0-C , 13-H ) :   0.1232 B(  0-C , 14-H ) :   0.7230
B(  0-C , 15-H ) :   0.9629 B(  1-N ,  4-C ) :   0.8903 B(  1-N ,  5-N ) :   0.2651
B(  1-N ,  6-N ) :   0.2914 B(  1-N ,  9-H ) :   1.3701 B(  1-N , 14-H ) :   0.1529
B(  1-N , 15-H ) :   0.1418 B(  2-C ,  3-C ) :   1.3062 B(  2-C , 12-H ) :   0.9372
B(  2-C , 13-H ) :   0.9302 B(  2-C , 14-H ) :   0.1248 B(  2-C , 16-H ) :   0.2331
B(  2-C , 17-H ) :   0.2075 B(  2-C , 18-H ) :   0.2276 B(  3-C , 16-H ) :   0.7675
B(  3-C , 17-H ) :   0.8440 B(  3-C , 18-H ) :   0.7602 B(  4-C ,  5-N ) :   0.7288
B(  4-C ,  6-N ) :   0.8630 B(  4-C ,  7-H ) :  -0.1926 B(  4-C ,  8-H ) :  -0.2051
B(  4-C ,  9-H ) :  -0.2724 B(  4-C , 10-H ) :  -0.1758 B(  4-C , 11-H ) :  -0.1095
B(  5-N ,  6-N ) :   0.1764 B(  5-N , 10-H ) :   1.2072 B(  5-N , 11-H ) :   1.1723
B(  6-N ,  7-H ) :   1.1708 B(  6-N ,  8-H ) :   1.3167 B(  7-H ,  8-H ) :  -0.2369
B( 10-H , 11-H ) :  -0.1791 B( 14-H , 15-H ) :  -0.1604

Dispersion correction           -0.000497070
FINAL SINGLE POINT ENERGY      -323.336050380922

DIPOLE MOMENT
-------------
                                X             Y             Z
Electronic contribution:      5.29229      -1.45878      -3.77522
Nuclear contribution   :     -4.20917       0.72396       2.93051
                        -----------------------------------------
Total Dipole Moment    :      1.08311      -0.73482      -0.84470
                        -----------------------------------------
Magnitude (a.u.)       :      1.55776
Magnitude (Debye)      :      3.95951

Rotational constants in cm-1:     0.153116     0.051500     0.046494
Rotational constants in MHz :  4590.307026  1543.937577  1393.864628

                             ****ORCA TERMINATED NORMALLY****
TOTAL RUN TIME: 0 days 0 hours 0 minutes 20 seconds 77 msec
