                         Program Version 5.0.0 -  RELEASE  -
|  1> !M062X D3Zero RIJCOSX def2-SVPD def2/J TightSCF xyzfile
|  2>
|  3> *xyzfile 0 1 B.xyz
|  4>
|  5> %MaxCore 64000
|  6>
|  7> %pal nprocs 4
|  8> end
|  9>
| 10> %scf
| 11>   MaxIter 150
| 12> end
| 13>
| 14>
| 15>                          ****END OF INPUT****

CARTESIAN COORDINATES (ANGSTROEM)
---------------------------------
  C      3.380928    2.083045   -3.350127
  N      4.535924    1.182447   -3.428518
  C      2.495557    1.816150   -2.136364
  C      1.872181    0.427903   -2.077497
  H      2.614270   -0.365825   -2.198894
  H      1.389953    0.273087   -1.112360
  S      0.579024    0.140472   -3.297943
  C      4.671956    0.122273   -4.220598
  N      5.866023   -0.507849   -4.224284
  N      3.698881   -0.312844   -4.986988
  H      2.731405   -0.050091   -4.849000
  H      3.890046   -1.055172   -5.643730
  H      5.251933    1.303459   -2.721014
  H      6.695165   -0.062322   -3.851596
  H      5.975383   -1.396884   -4.691414
  O      0.228860   -1.246868   -3.127871
  O     -0.439269    1.118966   -3.014550
  O      1.247881    0.403474   -4.595647
  H      1.697003    2.561969   -2.141109
  H      3.080787    1.987436   -1.225838
  H      2.806463    1.986511   -4.268484
  H      3.778714    3.098282   -3.307383

 Total Charge           Charge          ....    0
 Multiplicity           Mult            ....    1
 Number of Electrons    NEL             ....   96
 Basis Dimension        Dim             ....  324

ORBITAL ENERGIES
----------------

  NO   OCC          E(Eh)            E(eV)
   0   2.0000     -90.084638     -2451.3276
   1   2.0000     -19.572785      -532.6026
   2   2.0000     -19.556373      -532.1560
   3   2.0000     -19.556277      -532.1533
   4   2.0000     -14.858684      -404.3253
   5   2.0000     -14.853688      -404.1894
   6   2.0000     -14.823226      -403.3605
   7   2.0000     -10.754803      -292.6531
   8   2.0000     -10.618155      -288.9347
   9   2.0000     -10.568796      -287.5915
  10   2.0000     -10.554040      -287.1900
  11   2.0000      -8.407291      -228.7740
  12   2.0000      -6.333155      -172.3339
  13   2.0000      -6.332239      -172.3090
  14   2.0000      -6.332061      -172.3041
  15   2.0000      -1.199162       -32.6309
  16   2.0000      -1.180390       -32.1200
  17   2.0000      -1.063960       -28.9518
  18   2.0000      -1.053938       -28.6791
  19   2.0000      -1.046891       -28.4874
  20   2.0000      -1.038118       -28.2486
  21   2.0000      -0.902251       -24.5515
  22   2.0000      -0.826696       -22.4955
  23   2.0000      -0.768688       -20.9171
  24   2.0000      -0.731529       -19.9059
  25   2.0000      -0.722942       -19.6722
  26   2.0000      -0.683098       -18.5881
  27   2.0000      -0.641477       -17.4555
  28   2.0000      -0.624999       -17.0071
  29   2.0000      -0.609223       -16.5778
  30   2.0000      -0.586255       -15.9528
  31   2.0000      -0.562277       -15.3003
  32   2.0000      -0.547821       -14.9070
  33   2.0000      -0.526214       -14.3190
  34   2.0000      -0.514944       -14.0124
  35   2.0000      -0.501131       -13.6365
  36   2.0000      -0.482470       -13.1287
  37   2.0000      -0.448865       -12.2142
  38   2.0000      -0.443247       -12.0614
  39   2.0000      -0.429495       -11.6872
  40   2.0000      -0.405805       -11.0425
  41   2.0000      -0.378257       -10.2929
  42   2.0000      -0.374288       -10.1849
  43   2.0000      -0.370106       -10.0711
  44   2.0000      -0.336694        -9.1619
  45   2.0000      -0.327101        -8.9009
  46   2.0000      -0.309924        -8.4334
  47   2.0000      -0.288542        -7.8516
  48   0.0000      -0.021022        -0.5720
  49   0.0000       0.001944         0.0529
  50   0.0000       0.013293         0.3617
  51   0.0000       0.031528         0.8579
  52   0.0000       0.049557         1.3485

MULLIKEN ATOMIC CHARGES
-----------------------
   0 C :    0.906389
   1 N :   -0.620692
   2 C :    0.194665
   3 C :    0.159926
   4 H :    0.068597
   5 H :   -0.186870
   6 S :    1.535323
   7 C :    1.525218
   8 N :   -0.174401
   9 N :    0.316548
  10 H :   -0.312639
  11 H :   -0.153624
  12 H :   -0.217754
  13 H :   -0.092342
  14 H :   -0.027390
  15 O :   -0.808078
  16 O :   -0.841739
  17 O :   -0.963124
  18 H :    0.016412
  19 H :   -0.069175
  20 H :    0.054897
  21 H :   -0.310148
Sum of atomic charges:    0.0000000

LOEWDIN ATOMIC CHARGES
----------------------
   0 C :    0.093134
   1 N :    0.030463
   2 C :   -0.017232
   3 C :   -0.071136
   4 H :    0.002537
   5 H :    0.019906
   6 S :    0.963917
   7 C :   -0.032497
   8 N :    0.226715
   9 N :    0.306785
  10 H :   -0.130035
  11 H :    0.039443
  12 H :    0.049150
  13 H :    0.019916
  14 H :    0.021451
  15 O :   -0.541749
  16 O :   -0.533953
  17 O :   -0.549978
  18 H :    0.037422
  19 H :    0.022416
  20 H :    0.012306
  21 H :    0.031017

  Mayer bond orders larger than 0.100000
B(  0-C ,  1-N ) :   0.8766 B(  0-C ,  2-C ) :   1.0962 B(  0-C , 12-H ) :  -0.1990
B(  0-C , 18-H ) :   0.1367 B(  0-C , 19-H ) :   0.1351 B(  0-C , 20-H ) :   0.7159
B(  0-C , 21-H ) :   0.8833 B(  1-N ,  7-C ) :   0.8964 B(  1-N ,  8-N ) :   0.2480
B(  1-N ,  9-N ) :   0.1861 B(  1-N , 12-H ) :   1.3640 B(  1-N , 20-H ) :   0.1793
B(  1-N , 21-H ) :   0.1447 B(  2-C ,  3-C ) :   1.2325 B(  2-C ,  4-H ) :   0.1292
B(  2-C ,  5-H ) :   0.1526 B(  2-C , 18-H ) :   0.8544 B(  2-C , 19-H ) :   0.7898
B(  2-C , 20-H ) :   0.1418 B(  3-C ,  4-H ) :   0.9155 B(  3-C ,  5-H ) :   0.8485
B(  3-C ,  6-S ) :   0.8729 B(  3-C , 17-O ) :   0.1455 B(  3-C , 18-H ) :   0.1470
B(  3-C , 19-H ) :   0.1179 B(  5-H ,  6-S ) :   0.1099 B(  6-S , 15-O ) :   1.3067
B(  6-S , 16-O ) :   1.3161 B(  6-S , 17-O ) :   1.0813 B(  7-C ,  8-N ) :   0.7198
B(  7-C ,  9-N ) :   1.0495 B(  7-C , 10-H ) :  -0.2835 B(  7-C , 11-H ) :  -0.1847
B(  7-C , 12-H ) :  -0.2580 B(  7-C , 13-H ) :  -0.1794 B(  7-C , 14-H ) :  -0.1040
B(  8-N ,  9-N ) :   0.1521 B(  8-N , 13-H ) :   1.2360 B(  8-N , 14-H ) :   1.1817
B(  9-N , 10-H ) :   1.1575 B(  9-N , 11-H ) :   1.2276 B(  9-N , 17-O ) :  -0.1158
B( 10-H , 11-H ) :  -0.2541 B( 10-H , 17-O ) :   0.2059 B( 13-H , 14-H ) :  -0.1815
B( 20-H , 21-H ) :  -0.1786

Dispersion correction           -0.000937957
FINAL SINGLE POINT ENERGY      -946.390583652191

DIPOLE MOMENT
-------------
                                X             Y             Z
Electronic contribution:     -7.00025      -3.17102      -2.40997
Nuclear contribution   :     13.40759       3.44219       2.21042
                        -----------------------------------------
Total Dipole Moment    :      6.40734       0.27117      -0.19955
                        -----------------------------------------
Magnitude (a.u.)       :      6.41618
Magnitude (Debye)      :     16.30864

Rotational constants in cm-1:     0.059860     0.020817     0.017914
Rotational constants in MHz :  1794.564877   624.092098   537.039275

                             ****ORCA TERMINATED NORMALLY****
TOTAL RUN TIME: 0 days 0 hours 1 minutes 31 seconds 388 msec
