                         Program Version 5.0.0 -  RELEASE  -
|  1> !M062X D3Zero RIJCOSX def2-SVPD def2/J TightSCF
|  2> *xyz 0 1
|  3> C          3.38093        2.08304       -3.35013
|  4> C          2.49556        1.81615       -2.13636
|  5> C          1.87218        0.42790       -2.07750
|  6> H          2.61427       -0.36583       -2.19889
|  7> H          1.38995        0.27309       -1.11236
|  8> S          0.57902        0.14047       -3.29794
|  9> F          0.22886       -1.24687       -3.12787
| 10> O         -0.43927        1.11897       -3.01455
| 11> O          1.24788        0.40347       -4.59565
| 12> H          1.69700        2.56197       -2.14111
| 13> H          3.08079        1.98744       -1.22584
| 14> H          2.81820        1.91840       -4.24519
| 15> H          4.22171        1.42153       -3.33067
| 16> H          3.72372        3.09635       -3.32565
| 17> *
| 18>
| 19> %MaxCore 64000
| 20>
| 21> %pal nprocs 8
| 22> end
| 23>
| 24> %scf
| 25>   MaxIter 150
| 26> end
| 27>
| 28>
| 29>                          ****END OF INPUT****

CARTESIAN COORDINATES (ANGSTROEM)
---------------------------------
  C      3.380930    2.083040   -3.350130
  C      2.495560    1.816150   -2.136360
  C      1.872180    0.427900   -2.077500
  H      2.614270   -0.365830   -2.198890
  H      1.389950    0.273090   -1.112360
  S      0.579020    0.140470   -3.297940
  F      0.228860   -1.246870   -3.127870
  O     -0.439270    1.118970   -3.014550
  O      1.247880    0.403470   -4.595650
  H      1.697000    2.561970   -2.141110
  H      3.080790    1.987440   -1.225840
  H      2.818200    1.918400   -4.245190
  H      4.221710    1.421530   -3.330670
  H      3.723720    3.096350   -3.325650

 Total Charge           Charge          ....    0
 Multiplicity           Mult            ....    1
 Number of Electrons    NEL             ....   66
 Basis Dimension        Dim             ....  212

ORBITAL ENERGIES
----------------

  NO   OCC          E(Eh)            E(eV)
   0   2.0000     -90.199091     -2454.4420
   1   2.0000     -25.382772      -690.7003
   2   2.0000     -19.655595      -534.8559
   3   2.0000     -19.640916      -534.4565
   4   2.0000     -10.612645      -288.7847
   5   2.0000     -10.577578      -287.8305
   6   2.0000     -10.537741      -286.7465
   7   2.0000      -8.523428      -231.9343
   8   2.0000      -6.451850      -175.5638
   9   2.0000      -6.446583      -175.4204
  10   2.0000      -6.445432      -175.3891
  11   2.0000      -1.521394       -41.3992
  12   2.0000      -1.230574       -33.4856
  13   2.0000      -1.120139       -30.4805
  14   2.0000      -0.923571       -25.1316
  15   2.0000      -0.852957       -23.2101
  16   2.0000      -0.801620       -21.8132
  17   2.0000      -0.721666       -19.6375
  18   2.0000      -0.693620       -18.8744
  19   2.0000      -0.671163       -18.2633
  20   2.0000      -0.643217       -17.5028
  21   2.0000      -0.573655       -15.6100
  22   2.0000      -0.560642       -15.2558
  23   2.0000      -0.528050       -14.3690
  24   2.0000      -0.518915       -14.1204
  25   2.0000      -0.501664       -13.6510
  26   2.0000      -0.466348       -12.6900
  27   2.0000      -0.437366       -11.9013
  28   2.0000      -0.434124       -11.8131
  29   2.0000      -0.419507       -11.4154
  30   2.0000      -0.408503       -11.1159
  31   2.0000      -0.383403       -10.4329
  32   2.0000      -0.379898       -10.3375
  33   0.0000       0.010256         0.2791
  34   0.0000       0.035702         0.9715
  35   0.0000       0.041764         1.1365
  36   0.0000       0.045943         1.2502
  37   0.0000       0.071358         1.9418

MULLIKEN ATOMIC CHARGES
-----------------------
   0 C :    0.825727
   1 C :   -0.298358
   2 C :   -0.000956
   3 H :    0.023735
   4 H :    0.042581
   5 S :    1.660664
   6 F :   -0.455538
   7 O :   -0.693515
   8 O :   -0.761654
   9 H :   -0.003920
  10 H :   -0.114391
  11 H :   -0.236790
  12 H :    0.011068
  13 H :    0.001347
Sum of atomic charges:   -0.0000000

LOEWDIN ATOMIC CHARGES
----------------------
   0 C :    0.139071
   1 C :   -0.063984
   2 C :   -0.058095
   3 H :    0.026706
   4 H :    0.020302
   5 S :    1.165434
   6 F :   -0.265559
   7 O :   -0.473275
   8 O :   -0.491900
   9 H :    0.031247
  10 H :    0.033825
  11 H :   -0.044710
  12 H :   -0.009070
  13 H :   -0.009993

  Mayer bond orders larger than 0.100000
B(  0-C ,  1-C ) :   1.2768 B(  0-C , 11-H ) :   0.8437 B(  0-C , 12-H ) :   0.7211
B(  0-C , 13-H ) :   0.7336 B(  1-C ,  2-C ) :   1.2445 B(  1-C ,  3-H ) :   0.1141
B(  1-C ,  4-H ) :   0.1224 B(  1-C ,  9-H ) :   0.9055 B(  1-C , 10-H ) :   0.9345
B(  1-C , 11-H ) :   0.2569 B(  1-C , 12-H ) :   0.2117 B(  1-C , 13-H ) :   0.1958
B(  2-C ,  3-H ) :   0.9575 B(  2-C ,  4-H ) :   0.8995 B(  2-C ,  5-S ) :   0.9379
B(  2-C ,  9-H ) :   0.1234 B(  5-S ,  6-F ) :   0.6227 B(  5-S ,  7-O ) :   1.4788
B(  5-S ,  8-O ) :   1.4269 B( 11-H , 12-H ) :   0.1177

Dispersion correction           -0.000274253
FINAL SINGLE POINT ENERGY      -766.370325451660

DIPOLE MOMENT
-------------
                                X             Y             Z
Electronic contribution:    -10.65872      -8.89973      -2.80983
Nuclear contribution   :     11.47400       8.34657       4.07449
                        -----------------------------------------
Total Dipole Moment    :      0.81527      -0.55315       1.26467
                        -----------------------------------------
Magnitude (a.u.)       :      1.60313
Magnitude (Debye)      :      4.07483

Rotational constants in cm-1:     0.134491     0.052696     0.050832
Rotational constants in MHz :  4031.952949  1579.780527  1523.918863

                             ****ORCA TERMINATED NORMALLY****
TOTAL RUN TIME: 0 days 0 hours 0 minutes 15 seconds 783 msec
