                         Program Version 5.0.0 -  RELEASE  -
|  1> !M062X D3Zero RIJCOSX def2-SVPD def2/J TightSCF
|  2> *xyz 0 1
|  3> C          3.38093        2.08304       -3.35013
|  4> C          4.53592        1.18245       -3.42852
|  5> C          2.49556        1.81615       -2.13636
|  6> C          1.87218        0.42790       -2.07750
|  7> C          4.67196        0.12227       -4.22060
|  8> N          5.86602       -0.50785       -4.22428
|  9> N          3.69888       -0.31284       -4.98699
| 10> H          2.73141       -0.05009       -4.84900
| 11> H          3.89005       -1.05517       -5.64373
| 12> H          5.25193        1.30346       -2.72101
| 13> H          6.69516       -0.06232       -3.85160
| 14> H          5.97538       -1.39688       -4.69141
| 15> H          1.69700        2.56197       -2.14111
| 16> H          3.08079        1.98744       -1.22584
| 17> H          2.80646        1.98651       -4.26848
| 18> H          3.77871        3.09828       -3.30738
| 19> H          1.29954        0.25615       -2.96490
| 20> H          1.23321        0.35984       -1.22194
| 21> H          2.64581       -0.30765       -2.00430
| 22> *
| 23>
| 24> %MaxCore 64000
| 25>
| 26> %pal nprocs 8
| 27> end
| 28>
| 29> %scf
| 30>   MaxIter 150
| 31> end
| 32>
| 33>
| 34>                          ****END OF INPUT****

CARTESIAN COORDINATES (ANGSTROEM)
---------------------------------
  C      3.380930    2.083040   -3.350130
  C      4.535920    1.182450   -3.428520
  C      2.495560    1.816150   -2.136360
  C      1.872180    0.427900   -2.077500
  C      4.671960    0.122270   -4.220600
  N      5.866020   -0.507850   -4.224280
  N      3.698880   -0.312840   -4.986990
  H      2.731410   -0.050090   -4.849000
  H      3.890050   -1.055170   -5.643730
  H      5.251930    1.303460   -2.721010
  H      6.695160   -0.062320   -3.851600
  H      5.975380   -1.396880   -4.691410
  H      1.697000    2.561970   -2.141110
  H      3.080790    1.987440   -1.225840
  H      2.806460    1.986510   -4.268480
  H      3.778710    3.098280   -3.307380
  H      1.299540    0.256150   -2.964900
  H      1.233210    0.359840   -1.221940
  H      2.645810   -0.307650   -2.004300

 Total Charge           Charge          ....    0
 Multiplicity           Mult            ....    1
 Number of Electrons    NEL             ....   56
 Basis Dimension        Dim             ....  236

ORBITAL ENERGIES
----------------

  NO   OCC          E(Eh)            E(eV)
   0   2.0000     -14.764821      -401.7712
   1   2.0000     -14.757864      -401.5819
   2   2.0000     -10.596305      -288.3401
   3   2.0000     -10.526653      -286.4448
   4   2.0000     -10.522551      -286.3332
   5   2.0000     -10.521028      -286.2917
   6   2.0000     -10.473336      -284.9940
   7   2.0000      -1.061105       -28.8741
   8   2.0000      -0.961134       -26.1538
   9   2.0000      -0.875799       -23.8317
  10   2.0000      -0.807722       -21.9792
  11   2.0000      -0.742543       -20.2056
  12   2.0000      -0.676833       -18.4176
  13   2.0000      -0.640367       -17.4253
  14   2.0000      -0.617758       -16.8101
  15   2.0000      -0.579663       -15.7734
  16   2.0000      -0.549894       -14.9634
  17   2.0000      -0.513112       -13.9625
  18   2.0000      -0.502141       -13.6640
  19   2.0000      -0.483473       -13.1560
  20   2.0000      -0.454380       -12.3643
  21   2.0000      -0.440715       -11.9925
  22   2.0000      -0.414445       -11.2776
  23   2.0000      -0.393007       -10.6943
  24   2.0000      -0.375438       -10.2162
  25   2.0000      -0.370271       -10.0756
  26   2.0000      -0.329051        -8.9539
  27   2.0000      -0.209892        -5.7114
  28   0.0000       0.035273         0.9598
  29   0.0000       0.056668         1.5420
  30   0.0000       0.067124         1.8265
  31   0.0000       0.077529         2.1097
  32   0.0000       0.086950         2.3660

MULLIKEN ATOMIC CHARGES
-----------------------
   0 C :    0.262968
   1 C :   -0.291826
   2 C :   -0.337493
   3 C :    0.763757
   4 C :    1.106282
   5 N :   -0.147485
   6 N :    0.021463
   7 H :   -0.122899
   8 H :   -0.252483
   9 H :   -0.293048
  10 H :   -0.074996
  11 H :   -0.111813
  12 H :   -0.080132
  13 H :   -0.065091
  14 H :   -0.088957
  15 H :   -0.083256
  16 H :   -0.062961
  17 H :   -0.134424
  18 H :   -0.007605
Sum of atomic charges:    0.0000000

LOEWDIN ATOMIC CHARGES
----------------------
   0 C :   -0.060197
   1 C :   -0.027171
   2 C :   -0.084384
   3 C :    0.116651
   4 C :   -0.220780
   5 N :    0.169587
   6 N :    0.193789
   7 H :   -0.009530
   8 H :   -0.003040
   9 H :   -0.047277
  10 H :    0.004724
  11 H :   -0.014007
  12 H :    0.012679
  13 H :    0.021471
  14 H :    0.005087
  15 H :    0.014382
  16 H :   -0.027963
  17 H :   -0.022200
  18 H :   -0.021819

  Mayer bond orders larger than 0.100000
B(  0-C ,  1-C ) :   1.1495 B(  0-C ,  2-C ) :   1.1100 B(  0-C ,  9-H ) :   0.2148
B(  0-C , 12-H ) :   0.1385 B(  0-C , 13-H ) :   0.1427 B(  0-C , 14-H ) :   0.7803
B(  0-C , 15-H ) :   0.8789 B(  1-C ,  4-C ) :   1.6093 B(  1-C ,  5-N ) :   0.4287
B(  1-C ,  6-N ) :   0.2598 B(  1-C ,  9-H ) :   0.8515 B(  1-C , 14-H ) :   0.2388
B(  1-C , 15-H ) :   0.1461 B(  2-C ,  3-C ) :   1.3132 B(  2-C , 12-H ) :   0.9173
B(  2-C , 13-H ) :   0.9202 B(  2-C , 14-H ) :   0.1263 B(  2-C , 16-H ) :   0.2383
B(  2-C , 17-H ) :   0.2219 B(  2-C , 18-H ) :   0.2541 B(  3-C , 12-H ) :   0.1029
B(  3-C , 16-H ) :   0.7700 B(  3-C , 17-H ) :   0.7910 B(  3-C , 18-H ) :   0.7592
B(  4-C ,  5-N ) :   0.6520 B(  4-C ,  6-N ) :   0.9290 B(  4-C ,  8-H ) :  -0.2369
B(  4-C ,  9-H ) :   0.1164 B(  4-C , 10-H ) :  -0.1724 B(  4-C , 14-H ) :  -0.1067
B(  5-N , 10-H ) :   1.2253 B(  5-N , 11-H ) :   1.1783 B(  6-N ,  7-H ) :   1.1355
B(  6-N ,  8-H ) :   1.3948 B(  7-H ,  8-H ) :  -0.2324 B( 10-H , 11-H ) :  -0.1710
B( 16-H , 18-H ) :   0.1133

Dispersion correction           -0.000493224
FINAL SINGLE POINT ENERGY      -306.868469305121

DIPOLE MOMENT
-------------
                                X             Y             Z
Electronic contribution:      4.22537      -1.63640      -3.46354
Nuclear contribution   :     -4.04774       0.83876       2.94666
                        -----------------------------------------
Total Dipole Moment    :      0.17763      -0.79764      -0.51687
                        -----------------------------------------
Magnitude (a.u.)       :      0.96692
Magnitude (Debye)      :      2.45772

Rotational constants in cm-1:     0.155283     0.051523     0.046710
Rotational constants in MHz :  4655.262593  1544.606434  1400.328421

                             ****ORCA TERMINATED NORMALLY****
TOTAL RUN TIME: 0 days 0 hours 0 minutes 19 seconds 732 msec
