                         Program Version 5.0.0 -  RELEASE  -
|  1> !M062X D3Zero RIJCOSX def2-SVPD def2/J TightSCF
|  2> *xyz 0 1
|  3> C          3.38093        2.08304       -3.35013
|  4> C          2.49556        1.81615       -2.13636
|  5> C          1.87218        0.42790       -2.07750
|  6> H          2.61427       -0.36583       -2.19889
|  7> H          1.38995        0.27309       -1.11236
|  8> S          0.57902        0.14047       -3.29794
|  9> O          0.22886       -1.24687       -3.12787
| 10> F         -0.43927        1.11897       -3.01455
| 11> O          1.24788        0.40347       -4.59565
| 12> H          1.69700        2.56197       -2.14111
| 13> H          3.08079        1.98744       -1.22584
| 14> H          2.81820        1.91840       -4.24519
| 15> H          4.22171        1.42153       -3.33067
| 16> H          3.72372        3.09635       -3.32565
| 17> *
| 18>
| 19> %MaxCore 64000
| 20>
| 21> %pal nprocs 8
| 22> end
| 23>
| 24> %scf
| 25>   MaxIter 150
| 26> end
| 27>
| 28>
| 29>                          ****END OF INPUT****

CARTESIAN COORDINATES (ANGSTROEM)
---------------------------------
  C      3.380930    2.083040   -3.350130
  C      2.495560    1.816150   -2.136360
  C      1.872180    0.427900   -2.077500
  H      2.614270   -0.365830   -2.198890
  H      1.389950    0.273090   -1.112360
  S      0.579020    0.140470   -3.297940
  O      0.228860   -1.246870   -3.127870
  F     -0.439270    1.118970   -3.014550
  O      1.247880    0.403470   -4.595650
  H      1.697000    2.561970   -2.141110
  H      3.080790    1.987440   -1.225840
  H      2.818200    1.918400   -4.245190
  H      4.221710    1.421530   -3.330670
  H      3.723720    3.096350   -3.325650

 Total Charge           Charge          ....    0
 Multiplicity           Mult            ....    1
 Number of Electrons    NEL             ....   66
 Basis Dimension        Dim             ....  212

ORBITAL ENERGIES
----------------

  NO   OCC          E(Eh)            E(eV)
   0   2.0000     -90.199486     -2454.4528
   1   2.0000     -25.383236      -690.7130
   2   2.0000     -19.655712      -534.8591
   3   2.0000     -19.641428      -534.4704
   4   2.0000     -10.612545      -288.7820
   5   2.0000     -10.581022      -287.9243
   6   2.0000     -10.541039      -286.8362
   7   2.0000      -8.523730      -231.9425
   8   2.0000      -6.452221      -175.5739
   9   2.0000      -6.446847      -175.4276
  10   2.0000      -6.445718      -175.3969
  11   2.0000      -1.521974       -41.4150
  12   2.0000      -1.229882       -33.4668
  13   2.0000      -1.121318       -30.5126
  14   2.0000      -0.927239       -25.2315
  15   2.0000      -0.849895       -23.1268
  16   2.0000      -0.805233       -21.9115
  17   2.0000      -0.720183       -19.5972
  18   2.0000      -0.695804       -18.9338
  19   2.0000      -0.686041       -18.6681
  20   2.0000      -0.633873       -17.2486
  21   2.0000      -0.570772       -15.5315
  22   2.0000      -0.560845       -15.2614
  23   2.0000      -0.532080       -14.4786
  24   2.0000      -0.524225       -14.2649
  25   2.0000      -0.502727       -13.6799
  26   2.0000      -0.466913       -12.7053
  27   2.0000      -0.443648       -12.0723
  28   2.0000      -0.437474       -11.9043
  29   2.0000      -0.422463       -11.4958
  30   2.0000      -0.408335       -11.1114
  31   2.0000      -0.387050       -10.5322
  32   2.0000      -0.376829       -10.2540
  33   0.0000       0.008956         0.2437
  34   0.0000       0.037007         1.0070
  35   0.0000       0.041453         1.1280
  36   0.0000       0.044175         1.2021
  37   0.0000       0.067906         1.8478

MULLIKEN ATOMIC CHARGES
-----------------------
   0 C :    0.827574
   1 C :   -0.244886
   2 C :    0.016125
   3 H :    0.014856
   4 H :    0.024380
   5 S :    1.612248
   6 O :   -0.702020
   7 F :   -0.423735
   8 O :   -0.747359
   9 H :   -0.035266
  10 H :   -0.120116
  11 H :   -0.238184
  12 H :    0.015265
  13 H :    0.001119
Sum of atomic charges:    0.0000000

LOEWDIN ATOMIC CHARGES
----------------------
   0 C :    0.137137
   1 C :   -0.079700
   2 C :   -0.047131
   3 H :    0.040860
   4 H :    0.020731
   5 S :    1.162598
   6 O :   -0.473657
   7 F :   -0.262774
   8 O :   -0.487717
   9 H :    0.024075
  10 H :    0.030889
  11 H :   -0.047648
  12 H :   -0.006838
  13 H :   -0.010823

  Mayer bond orders larger than 0.100000
B(  0-C ,  1-C ) :   1.2884 B(  0-C , 11-H ) :   0.8413 B(  0-C , 12-H ) :   0.7257
B(  0-C , 13-H ) :   0.7374 B(  1-C ,  2-C ) :   1.1948 B(  1-C ,  3-H ) :   0.1079
B(  1-C ,  4-H ) :   0.1078 B(  1-C ,  9-H ) :   0.8931 B(  1-C , 10-H ) :   0.9351
B(  1-C , 11-H ) :   0.2605 B(  1-C , 12-H ) :   0.2128 B(  1-C , 13-H ) :   0.1943
B(  2-C ,  3-H ) :   0.9679 B(  2-C ,  4-H ) :   0.9318 B(  2-C ,  5-S ) :   0.9692
B(  2-C ,  9-H ) :   0.1166 B(  5-S ,  6-O ) :   1.5444 B(  5-S ,  7-F ) :   0.6044
B(  5-S ,  8-O ) :   1.4627 B( 11-H , 12-H ) :   0.1147

Dispersion correction           -0.000285321
FINAL SINGLE POINT ENERGY      -766.369915132480

DIPOLE MOMENT
-------------
                                X             Y             Z
Electronic contribution:    -11.79002      -4.81419      -2.61293
Nuclear contribution   :     12.19253       5.80225       3.95262
                        -----------------------------------------
Total Dipole Moment    :      0.40251       0.98806       1.33969
                        -----------------------------------------
Magnitude (a.u.)       :      1.71262
Magnitude (Debye)      :      4.35313

Rotational constants in cm-1:     0.130581     0.053444     0.051914
Rotational constants in MHz :  3914.711139  1602.211061  1556.338643

                             ****ORCA TERMINATED NORMALLY****
TOTAL RUN TIME: 0 days 0 hours 0 minutes 16 seconds 598 msec
