                         Program Version 5.0.0 -  RELEASE  -
|  1> !M062X D3Zero RIJCOSX def2-SVPD def2/J TightSCF
|  2> *xyz 0 1
|  3> C          3.38093        2.08304       -3.35013
|  4> N          4.53592        1.18245       -3.42852
|  5> C          2.49556        1.81615       -2.13636
|  6> C          1.87218        0.42790       -2.07750
|  7> C          4.67196        0.12227       -4.22060
|  8> C          5.86602       -0.50785       -4.22428
|  9> N          3.69888       -0.31284       -4.98699
| 10> H          2.73141       -0.05009       -4.84900
| 11> H          3.89005       -1.05517       -5.64373
| 12> H          5.25193        1.30346       -2.72101
| 13> H          6.69516       -0.06232       -3.85160
| 14> H          5.97538       -1.39688       -4.69141
| 15> H          1.69700        2.56197       -2.14111
| 16> H          3.08079        1.98744       -1.22584
| 17> H          2.80646        1.98651       -4.26848
| 18> H          3.77871        3.09828       -3.30738
| 19> H          1.29954        0.25615       -2.96490
| 20> H          1.23321        0.35984       -1.22194
| 21> H          2.64581       -0.30765       -2.00430
| 22> *
| 23>
| 24> %MaxCore 64000
| 25>
| 26> %pal nprocs 8
| 27> end
| 28>
| 29> %scf
| 30>   MaxIter 150
| 31> end
| 32>
| 33>
| 34>                          ****END OF INPUT****

CARTESIAN COORDINATES (ANGSTROEM)
---------------------------------
  C      3.380930    2.083040   -3.350130
  N      4.535920    1.182450   -3.428520
  C      2.495560    1.816150   -2.136360
  C      1.872180    0.427900   -2.077500
  C      4.671960    0.122270   -4.220600
  C      5.866020   -0.507850   -4.224280
  N      3.698880   -0.312840   -4.986990
  H      2.731410   -0.050090   -4.849000
  H      3.890050   -1.055170   -5.643730
  H      5.251930    1.303460   -2.721010
  H      6.695160   -0.062320   -3.851600
  H      5.975380   -1.396880   -4.691410
  H      1.697000    2.561970   -2.141110
  H      3.080790    1.987440   -1.225840
  H      2.806460    1.986510   -4.268480
  H      3.778710    3.098280   -3.307380
  H      1.299540    0.256150   -2.964900
  H      1.233210    0.359840   -1.221940
  H      2.645810   -0.307650   -2.004300

 Total Charge           Charge          ....    0
 Multiplicity           Mult            ....    1
 Number of Electrons    NEL             ....   56
 Basis Dimension        Dim             ....  236

ORBITAL ENERGIES
----------------

  NO   OCC          E(Eh)            E(eV)
   0   2.0000     -14.763667      -401.7398
   1   2.0000     -14.760713      -401.6594
   2   2.0000     -10.599614      -288.4302
   3   2.0000     -10.589348      -288.1508
   4   2.0000     -10.553153      -287.1659
   5   2.0000     -10.540366      -286.8179
   6   2.0000     -10.458815      -284.5988
   7   2.0000      -1.068430       -29.0735
   8   2.0000      -0.980805       -26.6891
   9   2.0000      -0.881326       -23.9821
  10   2.0000      -0.807333       -21.9686
  11   2.0000      -0.752957       -20.4890
  12   2.0000      -0.681042       -18.5321
  13   2.0000      -0.674060       -18.3421
  14   2.0000      -0.618702       -16.8357
  15   2.0000      -0.570508       -15.5243
  16   2.0000      -0.544936       -14.8285
  17   2.0000      -0.532761       -14.4972
  18   2.0000      -0.519363       -14.1326
  19   2.0000      -0.469693       -12.7810
  20   2.0000      -0.466354       -12.6901
  21   2.0000      -0.453254       -12.3337
  22   2.0000      -0.436527       -11.8785
  23   2.0000      -0.415603       -11.3091
  24   2.0000      -0.408089       -11.1047
  25   2.0000      -0.404437       -11.0053
  26   2.0000      -0.315264        -8.5788
  27   2.0000      -0.208086        -5.6623
  28   0.0000       0.031445         0.8557
  29   0.0000       0.054853         1.4926
  30   0.0000       0.060441         1.6447
  31   0.0000       0.064620         1.7584
  32   0.0000       0.087517         2.3815

MULLIKEN ATOMIC CHARGES
-----------------------
   0 C :    0.781081
   1 N :   -0.492868
   2 C :   -0.328600
   3 C :    0.740077
   4 C :    0.843143
   5 C :    0.410567
   6 N :    0.079440
   7 H :   -0.201708
   8 H :   -0.125804
   9 H :   -0.274737
  10 H :   -0.424493
  11 H :   -0.323826
  12 H :   -0.043086
  13 H :   -0.068837
  14 H :   -0.078879
  15 H :   -0.304216
  16 H :   -0.040097
  17 H :   -0.181764
  18 H :    0.034608
Sum of atomic charges:   -0.0000000

LOEWDIN ATOMIC CHARGES
----------------------
   0 C :    0.053949
   1 N :   -0.019018
   2 C :   -0.076502
   3 C :    0.122102
   4 C :   -0.240127
   5 C :    0.146040
   6 N :    0.191649
   7 H :   -0.021524
   8 H :    0.014215
   9 H :    0.038691
  10 H :   -0.107694
  11 H :   -0.110728
  12 H :    0.018475
  13 H :    0.020965
  14 H :    0.012477
  15 H :    0.017279
  16 H :   -0.025502
  17 H :   -0.018383
  18 H :   -0.016365

  Mayer bond orders larger than 0.100000
B(  0-C ,  1-N ) :   0.9665 B(  0-C ,  2-C ) :   1.0702 B(  0-C ,  9-H ) :  -0.2283
B(  0-C , 12-H ) :   0.1159 B(  0-C , 13-H ) :   0.1361 B(  0-C , 14-H ) :   0.7275
B(  0-C , 15-H ) :   0.9582 B(  1-N ,  4-C ) :   0.9582 B(  1-N ,  5-C ) :   0.2313
B(  1-N ,  6-N ) :   0.2125 B(  1-N ,  9-H ) :   1.2969 B(  1-N , 14-H ) :   0.1831
B(  1-N , 15-H ) :   0.1436 B(  2-C ,  3-C ) :   1.3040 B(  2-C , 12-H ) :   0.9221
B(  2-C , 13-H ) :   0.9196 B(  2-C , 14-H ) :   0.1282 B(  2-C , 16-H ) :   0.2384
B(  2-C , 17-H ) :   0.2126 B(  2-C , 18-H ) :   0.2290 B(  3-C , 16-H ) :   0.7721
B(  3-C , 17-H ) :   0.8231 B(  3-C , 18-H ) :   0.7687 B(  4-C ,  5-C ) :   1.3933
B(  4-C ,  6-N ) :   0.9761 B(  4-C ,  7-H ) :  -0.1132 B(  4-C ,  8-H ) :  -0.1279
B(  4-C ,  9-H ) :  -0.2467 B(  4-C , 11-H ) :   0.2176 B(  5-C ,  6-N ) :   0.1929
B(  5-C , 10-H ) :   0.8972 B(  5-C , 11-H ) :   0.7510 B(  6-N ,  7-H ) :   1.1719
B(  6-N ,  8-H ) :   1.2586 B(  6-N , 14-H ) :   0.1137 B(  7-H ,  8-H ) :  -0.2225
B( 14-H , 15-H ) :  -0.1710

Dispersion correction           -0.000489080
FINAL SINGLE POINT ENERGY      -306.857283830523

DIPOLE MOMENT
-------------
                                X             Y             Z
Electronic contribution:      2.69843       0.00791      -2.60607
Nuclear contribution   :     -3.75638       0.46849       2.77235
                        -----------------------------------------
Total Dipole Moment    :     -1.05795       0.47640       0.16628
                        -----------------------------------------
Magnitude (a.u.)       :      1.17212
Magnitude (Debye)      :      2.97930

Rotational constants in cm-1:     0.154609     0.053528     0.048030
Rotational constants in MHz :  4635.053294  1604.739826  1439.897073

                             ****ORCA TERMINATED NORMALLY****
TOTAL RUN TIME: 0 days 0 hours 0 minutes 19 seconds 719 msec
