                         Program Version 5.0.0 -  RELEASE  -
|  1> !M062X D3Zero RIJCOSX def2-SVPD def2/J TightSCF
|  2> *xyz 0 1
|  3> C          3.38093        2.08304       -3.35013
|  4> C          2.49556        1.81615       -2.13636
|  5> C          1.87218        0.42790       -2.07750
|  6> H          2.61427       -0.36583       -2.19889
|  7> H          1.38995        0.27309       -1.11236
|  8> S          0.57902        0.14047       -3.29794
|  9> O          0.22886       -1.24687       -3.12787
| 10> O         -0.43927        1.11897       -3.01455
| 11> F          1.24788        0.40347       -4.59565
| 12> H          1.69700        2.56197       -2.14111
| 13> H          3.08079        1.98744       -1.22584
| 14> H          2.81820        1.91840       -4.24519
| 15> H          4.22171        1.42153       -3.33067
| 16> H          3.72372        3.09635       -3.32565
| 17> *
| 18>
| 19> %MaxCore 64000
| 20>
| 21> %pal nprocs 8
| 22> end
| 23>
| 24> %scf
| 25>   MaxIter 150
| 26> end
| 27>
| 28>
| 29>                          ****END OF INPUT****

CARTESIAN COORDINATES (ANGSTROEM)
---------------------------------
  C      3.380930    2.083040   -3.350130
  C      2.495560    1.816150   -2.136360
  C      1.872180    0.427900   -2.077500
  H      2.614270   -0.365830   -2.198890
  H      1.389950    0.273090   -1.112360
  S      0.579020    0.140470   -3.297940
  O      0.228860   -1.246870   -3.127870
  O     -0.439270    1.118970   -3.014550
  F      1.247880    0.403470   -4.595650
  H      1.697000    2.561970   -2.141110
  H      3.080790    1.987440   -1.225840
  H      2.818200    1.918400   -4.245190
  H      4.221710    1.421530   -3.330670
  H      3.723720    3.096350   -3.325650

 Total Charge           Charge          ....    0
 Multiplicity           Mult            ....    1
 Number of Electrons    NEL             ....   66
 Basis Dimension        Dim             ....  212

ORBITAL ENERGIES
----------------

  NO   OCC          E(Eh)            E(eV)
   0   2.0000     -90.196661     -2454.3759
   1   2.0000     -25.360043      -690.0819
   2   2.0000     -19.655132      -534.8433
   3   2.0000     -19.654580      -534.8283
   4   2.0000     -10.611160      -288.7443
   5   2.0000     -10.581003      -287.9237
   6   2.0000     -10.556119      -287.2466
   7   2.0000      -8.520776      -231.8621
   8   2.0000      -6.449088      -175.4886
   9   2.0000      -6.444115      -175.3533
  10   2.0000      -6.442990      -175.3227
  11   2.0000      -1.484470       -40.3945
  12   2.0000      -1.240231       -33.7484
  13   2.0000      -1.141927       -31.0734
  14   2.0000      -0.928699       -25.2712
  15   2.0000      -0.844562       -22.9817
  16   2.0000      -0.794569       -21.6213
  17   2.0000      -0.723303       -19.6821
  18   2.0000      -0.670985       -18.2584
  19   2.0000      -0.664015       -18.0688
  20   2.0000      -0.635352       -17.2888
  21   2.0000      -0.573719       -15.6117
  22   2.0000      -0.552616       -15.0374
  23   2.0000      -0.544516       -14.8170
  24   2.0000      -0.533365       -14.5136
  25   2.0000      -0.507439       -13.8081
  26   2.0000      -0.476333       -12.9617
  27   2.0000      -0.453131       -12.3303
  28   2.0000      -0.434953       -11.8357
  29   2.0000      -0.427307       -11.6276
  30   2.0000      -0.416954       -11.3459
  31   2.0000      -0.399478       -10.8703
  32   2.0000      -0.392777       -10.6880
  33   0.0000       0.015436         0.4200
  34   0.0000       0.036507         0.9934
  35   0.0000       0.042023         1.1435
  36   0.0000       0.044584         1.2132
  37   0.0000       0.071955         1.9580

MULLIKEN ATOMIC CHARGES
-----------------------
   0 C :    0.810024
   1 C :   -0.242212
   2 C :    0.012210
   3 H :    0.018769
   4 H :    0.032592
   5 S :    1.604801
   6 O :   -0.712755
   7 O :   -0.706154
   8 F :   -0.455393
   9 H :   -0.008890
  10 H :   -0.110391
  11 H :   -0.263152
  12 H :    0.018384
  13 H :    0.002167
Sum of atomic charges:   -0.0000000

LOEWDIN ATOMIC CHARGES
----------------------
   0 C :    0.135809
   1 C :   -0.077851
   2 C :   -0.046332
   3 H :    0.028953
   4 H :    0.034484
   5 S :    1.151294
   6 O :   -0.474449
   7 O :   -0.471844
   8 F :   -0.285490
   9 H :    0.028259
  10 H :    0.032543
  11 H :   -0.039924
  12 H :   -0.007922
  13 H :   -0.007529

  Mayer bond orders larger than 0.100000
B(  0-C ,  1-C ) :   1.2742 B(  0-C , 11-H ) :   0.8276 B(  0-C , 12-H ) :   0.7352
B(  0-C , 13-H ) :   0.7481 B(  1-C ,  2-C ) :   1.2109 B(  1-C ,  3-H ) :   0.1149
B(  1-C ,  4-H ) :   0.1102 B(  1-C ,  9-H ) :   0.9156 B(  1-C , 10-H ) :   0.9246
B(  1-C , 11-H ) :   0.2456 B(  1-C , 12-H ) :   0.2079 B(  1-C , 13-H ) :   0.1933
B(  2-C ,  3-H ) :   0.9763 B(  2-C ,  4-H ) :   0.9156 B(  2-C ,  5-S ) :   0.9838
B(  2-C ,  9-H ) :   0.1278 B(  5-S ,  6-O ) :   1.5273 B(  5-S ,  7-O ) :   1.4962
B(  5-S ,  8-F ) :   0.5831 B( 11-H , 12-H ) :   0.1101

Dispersion correction           -0.000292292
FINAL SINGLE POINT ENERGY      -766.389310568270

DIPOLE MOMENT
-------------
                                X             Y             Z
Electronic contribution:     -8.82891      -6.00193      -5.31262
Nuclear contribution   :     10.37810       6.57173       5.65300
                        -----------------------------------------
Total Dipole Moment    :      1.54919       0.56980       0.34038
                        -----------------------------------------
Magnitude (a.u.)       :      1.68538
Magnitude (Debye)      :      4.28391

Rotational constants in cm-1:     0.130522     0.054787     0.051463
Rotational constants in MHz :  3912.959799  1642.486768  1542.828917

                             ****ORCA TERMINATED NORMALLY****
TOTAL RUN TIME: 0 days 0 hours 0 minutes 16 seconds 474 msec
