                         Program Version 5.0.0 -  RELEASE  -
|  1> !M062X D3Zero RIJCOSX def2-SVPD def2/J TightSCF
|  2> *xyz 0 1
|  3> C          3.38093        2.08304       -3.35013
|  4> N          4.53592        1.18245       -3.42852
|  5> C          2.49556        1.81615       -2.13636
|  6> C          1.87218        0.42790       -2.07750
|  7> C          4.67196        0.12227       -4.22060
|  8> N          5.86602       -0.50785       -4.22428
|  9> C          3.69888       -0.31284       -4.98699
| 10> H          2.73141       -0.05009       -4.84900
| 11> H          3.89005       -1.05517       -5.64373
| 12> H          5.25193        1.30346       -2.72101
| 13> H          6.69516       -0.06232       -3.85160
| 14> H          5.97538       -1.39688       -4.69141
| 15> H          1.69700        2.56197       -2.14111
| 16> H          3.08079        1.98744       -1.22584
| 17> H          2.80646        1.98651       -4.26848
| 18> H          3.77871        3.09828       -3.30738
| 19> H          1.29954        0.25615       -2.96490
| 20> H          1.23321        0.35984       -1.22194
| 21> H          2.64581       -0.30765       -2.00430
| 22> *
| 23>
| 24> %MaxCore 64000
| 25>
| 26> %pal nprocs 8
| 27> end
| 28>
| 29> %scf
| 30>   MaxIter 150
| 31> end
| 32>
| 33>
| 34>                          ****END OF INPUT****

CARTESIAN COORDINATES (ANGSTROEM)
---------------------------------
  C      3.380930    2.083040   -3.350130
  N      4.535920    1.182450   -3.428520
  C      2.495560    1.816150   -2.136360
  C      1.872180    0.427900   -2.077500
  C      4.671960    0.122270   -4.220600
  N      5.866020   -0.507850   -4.224280
  C      3.698880   -0.312840   -4.986990
  H      2.731410   -0.050090   -4.849000
  H      3.890050   -1.055170   -5.643730
  H      5.251930    1.303460   -2.721010
  H      6.695160   -0.062320   -3.851600
  H      5.975380   -1.396880   -4.691410
  H      1.697000    2.561970   -2.141110
  H      3.080790    1.987440   -1.225840
  H      2.806460    1.986510   -4.268480
  H      3.778710    3.098280   -3.307380
  H      1.299540    0.256150   -2.964900
  H      1.233210    0.359840   -1.221940
  H      2.645810   -0.307650   -2.004300

 Total Charge           Charge          ....    0
 Multiplicity           Mult            ....    1
 Number of Electrons    NEL             ....   56
 Basis Dimension        Dim             ....  236

ORBITAL ENERGIES
----------------

  NO   OCC          E(Eh)            E(eV)
   0   2.0000     -14.761662      -401.6852
   1   2.0000     -14.758112      -401.5886
   2   2.0000     -10.597451      -288.3713
   3   2.0000     -10.581282      -287.9313
   4   2.0000     -10.545655      -286.9619
   5   2.0000     -10.527572      -286.4698
   6   2.0000     -10.464023      -284.7405
   7   2.0000      -1.062353       -28.9081
   8   2.0000      -0.972440       -26.4614
   9   2.0000      -0.867262       -23.5994
  10   2.0000      -0.804308       -21.8863
  11   2.0000      -0.769276       -20.9331
  12   2.0000      -0.680226       -18.5099
  13   2.0000      -0.639110       -17.3911
  14   2.0000      -0.615042       -16.7362
  15   2.0000      -0.586340       -15.9551
  16   2.0000      -0.535141       -14.5619
  17   2.0000      -0.527981       -14.3671
  18   2.0000      -0.496832       -13.5195
  19   2.0000      -0.477959       -13.0059
  20   2.0000      -0.457165       -12.4401
  21   2.0000      -0.450184       -12.2501
  22   2.0000      -0.437289       -11.8992
  23   2.0000      -0.408069       -11.1041
  24   2.0000      -0.402846       -10.9620
  25   2.0000      -0.391558       -10.6548
  26   2.0000      -0.308714        -8.4005
  27   2.0000      -0.221840        -6.0366
  28   0.0000       0.036024         0.9803
  29   0.0000       0.055415         1.5079
  30   0.0000       0.061910         1.6847
  31   0.0000       0.071181         1.9369
  32   0.0000       0.088266         2.4019

MULLIKEN ATOMIC CHARGES
-----------------------
   0 C :    0.788176
   1 N :   -0.595314
   2 C :   -0.371364
   3 C :    0.759923
   4 C :    1.078176
   5 N :   -0.054301
   6 C :    0.250754
   7 H :   -0.287775
   8 H :   -0.499188
   9 H :   -0.327586
  10 H :   -0.156560
  11 H :   -0.010912
  12 H :   -0.059987
  13 H :   -0.075402
  14 H :    0.021457
  15 H :   -0.274054
  16 H :   -0.000705
  17 H :   -0.181999
  18 H :   -0.003342
Sum of atomic charges:   -0.0000000

LOEWDIN ATOMIC CHARGES
----------------------
   0 C :    0.061933
   1 N :   -0.028423
   2 C :   -0.074328
   3 C :    0.124261
   4 C :   -0.236087
   5 N :    0.172409
   6 C :    0.160784
   7 H :   -0.110961
   8 H :   -0.096891
   9 H :    0.024660
  10 H :   -0.010466
  11 H :    0.003087
  12 H :    0.018245
  13 H :    0.017148
  14 H :    0.018146
  15 H :    0.017587
  16 H :   -0.020651
  17 H :   -0.021284
  18 H :   -0.019170

  Mayer bond orders larger than 0.100000
B(  0-C ,  1-N ) :   0.9058 B(  0-C ,  2-C ) :   1.0569 B(  0-C ,  9-H ) :  -0.2070
B(  0-C , 12-H ) :   0.1126 B(  0-C , 13-H ) :   0.1166 B(  0-C , 14-H ) :   0.7206
B(  0-C , 15-H ) :   0.9471 B(  1-N ,  4-C ) :   0.7950 B(  1-N ,  5-N ) :   0.1832
B(  1-N ,  6-C ) :   0.3899 B(  1-N ,  9-H ) :   1.4386 B(  1-N , 14-H ) :   0.1408
B(  1-N , 15-H ) :   0.1395 B(  2-C ,  3-C ) :   1.2928 B(  2-C , 12-H ) :   0.9408
B(  2-C , 13-H ) :   0.9379 B(  2-C , 14-H ) :   0.1323 B(  2-C , 16-H ) :   0.2368
B(  2-C , 17-H ) :   0.2127 B(  2-C , 18-H ) :   0.2286 B(  3-C , 16-H ) :   0.7667
B(  3-C , 17-H ) :   0.8189 B(  3-C , 18-H ) :   0.7792 B(  4-C ,  5-N ) :   0.8481
B(  4-C ,  6-C ) :   1.4319 B(  4-C ,  8-H ) :   0.2521 B(  4-C ,  9-H ) :  -0.3107
B(  5-N ,  6-C ) :   0.2980 B(  5-N , 10-H ) :   1.2026 B(  5-N , 11-H ) :   1.1247
B(  6-C ,  7-H ) :   0.7088 B(  6-C ,  8-H ) :   0.8377 B(  7-H ,  8-H ) :  -0.2235
B(  7-H , 14-H ) :   0.1020 B( 10-H , 11-H ) :  -0.1817 B( 14-H , 15-H ) :  -0.1685
B( 16-H , 18-H ) :   0.1023

Dispersion correction           -0.000493455
FINAL SINGLE POINT ENERGY      -306.861843184671

DIPOLE MOMENT
-------------
                                X             Y             Z
Electronic contribution:      4.85906      -0.22555      -1.97567
Nuclear contribution   :     -4.23110       0.51121       2.60527
                        -----------------------------------------
Total Dipole Moment    :      0.62796       0.28566       0.62960
                        -----------------------------------------
Magnitude (a.u.)       :      0.93399
Magnitude (Debye)      :      2.37400

Rotational constants in cm-1:     0.158478     0.052124     0.047173
Rotational constants in MHz :  4751.056263  1562.646208  1414.197352

                             ****ORCA TERMINATED NORMALLY****
TOTAL RUN TIME: 0 days 0 hours 0 minutes 19 seconds 858 msec
