                         Program Version 5.0.0 -  RELEASE  -
|  1> !M062X D3Zero RIJCOSX def2-SVPD def2/J TightSCF xyzfile
|  2>
|  3> *xyzfile 0 1 D1.xyz
|  4>
|  5> %MaxCore 64000
|  6>
|  7> %pal nprocs 4
|  8> end
|  9>
| 10> %scf
| 11>   MaxIter 150
| 12> end
| 13>
| 14>
| 15>                          ****END OF INPUT****

CARTESIAN COORDINATES (ANGSTROEM)
---------------------------------
  C      3.380928    2.083045   -3.350127
  C      4.535924    1.182447   -3.428518
  C      2.495557    1.816150   -2.136364
  C      1.872181    0.427903   -2.077497
  H      2.614270   -0.365825   -2.198894
  H      1.389953    0.273087   -1.112360
  S      0.579024    0.140472   -3.297943
  C      4.671956    0.122273   -4.220598
  N      5.866023   -0.507849   -4.224284
  N      3.698881   -0.312844   -4.986988
  H      2.731405   -0.050091   -4.849000
  H      3.890046   -1.055172   -5.643730
  H      5.251933    1.303459   -2.721014
  H      6.695165   -0.062322   -3.851596
  H      5.975383   -1.396884   -4.691414
  F      0.228860   -1.246868   -3.127871
  O     -0.439269    1.118966   -3.014550
  O      1.247881    0.403474   -4.595647
  H      1.697003    2.561969   -2.141109
  H      3.080787    1.987436   -1.225838
  H      2.806463    1.986511   -4.268484
  H      3.778714    3.098282   -3.307383

 Total Charge           Charge          ....    0
 Multiplicity           Mult            ....    1
 Number of Electrons    NEL             ....   96
 Basis Dimension        Dim             ....  324

ORBITAL ENERGIES
----------------

  NO   OCC          E(Eh)            E(eV)
   0   2.0000     -90.208778     -2454.7057
   1   2.0000     -25.389767      -690.8907
   2   2.0000     -19.662733      -535.0502
   3   2.0000     -19.657703      -534.9133
   4   2.0000     -14.756005      -401.5313
   5   2.0000     -14.739121      -401.0719
   6   2.0000     -10.607398      -288.6420
   7   2.0000     -10.594331      -288.2864
   8   2.0000     -10.563134      -287.4375
   9   2.0000     -10.528418      -286.4928
  10   2.0000     -10.473139      -284.9886
  11   2.0000      -8.532766      -232.1884
  12   2.0000      -6.461176      -175.8175
  13   2.0000      -6.456178      -175.6815
  14   2.0000      -6.454582      -175.6381
  15   2.0000      -1.528202       -41.5845
  16   2.0000      -1.241848       -33.7924
  17   2.0000      -1.138175       -30.9713
  18   2.0000      -1.052880       -28.6503
  19   2.0000      -0.952906       -25.9299
  20   2.0000      -0.920982       -25.0612
  21   2.0000      -0.861764       -23.4498
  22   2.0000      -0.822475       -22.3807
  23   2.0000      -0.770555       -20.9679
  24   2.0000      -0.718177       -19.5426
  25   2.0000      -0.701832       -19.0978
  26   2.0000      -0.676441       -18.4069
  27   2.0000      -0.670693       -18.2505
  28   2.0000      -0.633571       -17.2404
  29   2.0000      -0.612801       -16.6752
  30   2.0000      -0.593441       -16.1483
  31   2.0000      -0.567060       -15.4305
  32   2.0000      -0.561903       -15.2902
  33   2.0000      -0.545877       -14.8541
  34   2.0000      -0.525797       -14.3077
  35   2.0000      -0.512522       -13.9464
  36   2.0000      -0.479726       -13.0540
  37   2.0000      -0.475953       -12.9513
  38   2.0000      -0.464281       -12.6337
  39   2.0000      -0.452382       -12.3099
  40   2.0000      -0.427699       -11.6383
  41   2.0000      -0.422821       -11.5055
  42   2.0000      -0.404740       -11.0135
  43   2.0000      -0.401266       -10.9190
  44   2.0000      -0.390231       -10.6187
  45   2.0000      -0.375536       -10.2189
  46   2.0000      -0.319869        -8.7041
  47   2.0000      -0.210586        -5.7303
  48   0.0000       0.008547         0.2326
  49   0.0000       0.035336         0.9615
  50   0.0000       0.037679         1.0253
  51   0.0000       0.045873         1.2483
  52   0.0000       0.061287         1.6677

MULLIKEN ATOMIC CHARGES
-----------------------
   0 C :    0.375930
   1 C :   -0.139729
   2 C :    0.205944
   3 C :    0.051248
   4 H :    0.100515
   5 H :   -0.090027
   6 S :    1.687110
   7 C :    1.037100
   8 N :   -0.125950
   9 N :    0.434266
  10 H :   -0.378851
  11 H :   -0.266219
  12 H :   -0.376813
  13 H :   -0.096634
  14 H :   -0.112598
  15 F :   -0.452872
  16 O :   -0.733304
  17 O :   -0.861099
  18 H :   -0.003482
  19 H :   -0.028047
  20 H :   -0.077149
  21 H :   -0.149338
Sum of atomic charges:    0.0000000

LOEWDIN ATOMIC CHARGES
----------------------
   0 C :   -0.036336
   1 C :   -0.024940
   2 C :   -0.016438
   3 C :   -0.038670
   4 H :    0.019661
   5 H :    0.020053
   6 S :    1.203728
   7 C :   -0.212920
   8 N :    0.169760
   9 N :    0.221334
  10 H :   -0.144251
  11 H :    0.001354
  12 H :   -0.052815
  13 H :    0.002869
  14 H :   -0.013700
  15 F :   -0.256943
  16 O :   -0.458538
  17 O :   -0.469206
  18 H :    0.027839
  19 H :    0.038608
  20 H :   -0.001671
  21 H :    0.021221

  Mayer bond orders larger than 0.100000
B(  0-C ,  1-C ) :   1.1033 B(  0-C ,  2-C ) :   1.1281 B(  0-C , 12-H ) :   0.2019
B(  0-C , 18-H ) :   0.1744 B(  0-C , 19-H ) :   0.1581 B(  0-C , 20-H ) :   0.8071
B(  0-C , 21-H ) :   0.7932 B(  1-C ,  7-C ) :   1.5779 B(  1-C ,  8-N ) :   0.4096
B(  1-C ,  9-N ) :   0.1940 B(  1-C , 12-H ) :   0.7976 B(  1-C , 20-H ) :   0.2668
B(  1-C , 21-H ) :   0.1238 B(  2-C ,  3-C ) :   1.3153 B(  2-C ,  4-H ) :   0.1375
B(  2-C ,  5-H ) :   0.1643 B(  2-C , 18-H ) :   0.8063 B(  2-C , 19-H ) :   0.7731
B(  2-C , 20-H ) :   0.1453 B(  3-C ,  4-H ) :   0.9438 B(  3-C ,  5-H ) :   0.7975
B(  3-C ,  6-S ) :   0.9138 B(  3-C , 17-O ) :   0.1340 B(  3-C , 18-H ) :   0.1457
B(  3-C , 19-H ) :   0.1267 B(  6-S , 15-F ) :   0.5894 B(  6-S , 16-O ) :   1.5085
B(  6-S , 17-O ) :   1.3405 B(  7-C ,  8-N ) :   0.6594 B(  7-C ,  9-N ) :   0.9955
B(  7-C , 10-H ) :  -0.1456 B(  7-C , 11-H ) :  -0.2223 B(  7-C , 12-H ) :   0.1112
B(  7-C , 13-H ) :  -0.1993 B(  7-C , 20-H ) :  -0.1263 B(  8-N , 12-H ) :   0.1030
B(  8-N , 13-H ) :   1.2482 B(  8-N , 14-H ) :   1.1668 B(  9-N , 10-H ) :   1.1606
B(  9-N , 11-H ) :   1.2442 B(  9-N , 17-O ) :  -0.1263 B( 10-H , 11-H ) :  -0.2063
B( 10-H , 17-O ) :   0.1033 B( 13-H , 14-H ) :  -0.1715 B( 18-H , 19-H ) :  -0.1204

Dispersion correction           -0.000920030
FINAL SINGLE POINT ENERGY      -954.267048715683

DIPOLE MOMENT
-------------
                                X             Y             Z
Electronic contribution:    -15.23392      -6.68536      -1.10290
Nuclear contribution   :     15.92508       5.34175       1.81950
                        -----------------------------------------
Total Dipole Moment    :      0.69116      -1.34361       0.71660
                        -----------------------------------------
Magnitude (a.u.)       :      1.67227
Magnitude (Debye)      :      4.25058

Rotational constants in cm-1:     0.058561     0.020662     0.017762
Rotational constants in MHz :  1755.621534   619.433801   532.501507

                             ****ORCA TERMINATED NORMALLY****
TOTAL RUN TIME: 0 days 0 hours 1 minutes 31 seconds 482 msec
