                         Program Version 5.0.0 -  RELEASE  -
|  1> !M062X D3Zero RIJCOSX def2-SVPD def2/J TightSCF xyzfile
|  2>
|  3> *xyzfile 0 1 D3.xyz
|  4>
|  5> %MaxCore 64000
|  6>
|  7> %pal nprocs 4
|  8> end
|  9>
| 10> %scf
| 11>   MaxIter 150
| 12> end
| 13>
| 14>
| 15>                          ****END OF INPUT****

CARTESIAN COORDINATES (ANGSTROEM)
---------------------------------
  C      3.380928    2.083045   -3.350127
  N      4.535924    1.182447   -3.428518
  C      2.495557    1.816150   -2.136364
  C      1.872181    0.427903   -2.077497
  H      2.614270   -0.365825   -2.198894
  H      1.389953    0.273087   -1.112360
  S      0.579024    0.140472   -3.297943
  C      4.671956    0.122273   -4.220598
  N      5.866023   -0.507849   -4.224284
  C      3.698881   -0.312844   -4.986988
  H      2.731405   -0.050091   -4.849000
  H      3.890046   -1.055172   -5.643730
  H      5.251933    1.303459   -2.721014
  H      6.695165   -0.062322   -3.851596
  H      5.975383   -1.396884   -4.691414
  F      0.228860   -1.246868   -3.127871
  O     -0.439269    1.118966   -3.014550
  O      1.247881    0.403474   -4.595647
  H      1.697003    2.561969   -2.141109
  H      3.080787    1.987436   -1.225838
  H      2.806463    1.986511   -4.268484
  H      3.778714    3.098282   -3.307383

 Total Charge           Charge          ....    0
 Multiplicity           Mult            ....    1
 Number of Electrons    NEL             ....   96
 Basis Dimension        Dim             ....  324

ORBITAL ENERGIES
----------------

  NO   OCC          E(Eh)            E(eV)
   0   2.0000     -90.200920     -2454.4918
   1   2.0000     -25.382358      -690.6891
   2   2.0000     -19.655850      -534.8629
   3   2.0000     -19.639990      -534.4313
   4   2.0000     -14.764665      -401.7670
   5   2.0000     -14.754478      -401.4898
   6   2.0000     -10.611649      -288.7576
   7   2.0000     -10.590578      -288.1843
   8   2.0000     -10.589746      -288.1616
   9   2.0000     -10.582051      -287.9522
  10   2.0000     -10.442641      -284.1587
  11   2.0000      -8.524618      -231.9666
  12   2.0000      -6.453050      -175.5964
  13   2.0000      -6.447929      -175.4571
  14   2.0000      -6.446647      -175.4222
  15   2.0000      -1.520447       -41.3735
  16   2.0000      -1.232340       -33.5337
  17   2.0000      -1.125271       -30.6202
  18   2.0000      -1.062297       -28.9066
  19   2.0000      -0.974484       -26.5171
  20   2.0000      -0.917831       -24.9754
  21   2.0000      -0.850471       -23.1425
  22   2.0000      -0.809325       -22.0229
  23   2.0000      -0.784667       -21.3519
  24   2.0000      -0.731162       -19.8959
  25   2.0000      -0.693305       -18.8658
  26   2.0000      -0.678701       -18.4684
  27   2.0000      -0.658691       -17.9239
  28   2.0000      -0.634751       -17.2725
  29   2.0000      -0.614036       -16.7088
  30   2.0000      -0.594190       -16.1687
  31   2.0000      -0.569329       -15.4922
  32   2.0000      -0.568079       -15.4582
  33   2.0000      -0.535351       -14.5676
  34   2.0000      -0.523300       -14.2397
  35   2.0000      -0.520232       -14.1562
  36   2.0000      -0.477018       -12.9803
  37   2.0000      -0.471166       -12.8211
  38   2.0000      -0.463560       -12.6141
  39   2.0000      -0.449216       -12.2238
  40   2.0000      -0.445877       -12.1329
  41   2.0000      -0.435748       -11.8573
  42   2.0000      -0.419122       -11.4049
  43   2.0000      -0.407242       -11.0816
  44   2.0000      -0.386477       -10.5166
  45   2.0000      -0.352381        -9.5888
  46   2.0000      -0.311599        -8.4790
  47   2.0000      -0.215603        -5.8669
  48   0.0000       0.012639         0.3439
  49   0.0000       0.029966         0.8154
  50   0.0000       0.041209         1.1214
  51   0.0000       0.044711         1.2167
  52   0.0000       0.061852         1.6831

MULLIKEN ATOMIC CHARGES
-----------------------
   0 C :    0.923883
   1 N :   -0.630262
   2 C :    0.152952
   3 C :    0.153967
   4 H :    0.109196
   5 H :   -0.138885
   6 S :    1.661973
   7 C :    1.096850
   8 N :   -0.074766
   9 C :    0.766765
  10 H :   -0.784441
  11 H :   -0.400327
  12 H :   -0.302595
  13 H :   -0.142854
  14 H :   -0.011976
  15 F :   -0.450390
  16 O :   -0.740163
  17 O :   -0.877111
  18 H :   -0.014809
  19 H :   -0.043482
  20 H :    0.078712
  21 H :   -0.332239
Sum of atomic charges:   -0.0000000

LOEWDIN ATOMIC CHARGES
----------------------
   0 C :    0.088403
   1 N :   -0.027881
   2 C :   -0.005932
   3 C :   -0.036989
   4 H :    0.020262
   5 H :    0.019374
   6 S :    1.198173
   7 C :   -0.230739
   8 N :    0.167790
   9 C :    0.193280
  10 H :   -0.212809
  11 H :   -0.085161
  12 H :    0.021894
  13 H :   -0.013971
  14 H :    0.001814
  15 F :   -0.255125
  16 O :   -0.467874
  17 O :   -0.479295
  18 H :    0.032763
  19 H :    0.033901
  20 H :    0.011878
  21 H :    0.026243

  Mayer bond orders larger than 0.100000
B(  0-C ,  1-N ) :   0.8787 B(  0-C ,  2-C ) :   1.0604 B(  0-C , 12-H ) :  -0.1904
B(  0-C , 18-H ) :   0.1343 B(  0-C , 19-H ) :   0.1218 B(  0-C , 20-H ) :   0.6848
B(  0-C , 21-H ) :   0.9173 B(  1-N ,  7-C ) :   0.7637 B(  1-N ,  8-N ) :   0.1912
B(  1-N ,  9-C ) :   0.2982 B(  1-N , 12-H ) :   1.4589 B(  1-N , 20-H ) :   0.1702
B(  1-N , 21-H ) :   0.1395 B(  2-C ,  3-C ) :   1.2808 B(  2-C ,  4-H ) :   0.1362
B(  2-C ,  5-H ) :   0.1702 B(  2-C , 18-H ) :   0.8724 B(  2-C , 19-H ) :   0.8094
B(  2-C , 20-H ) :   0.1314 B(  3-C ,  4-H ) :   0.9357 B(  3-C ,  5-H ) :   0.7849
B(  3-C ,  6-S ) :   0.9311 B(  3-C , 17-O ) :   0.1342 B(  3-C , 18-H ) :   0.1190
B(  3-C , 19-H ) :   0.1172 B(  6-S , 15-F ) :   0.5792 B(  6-S , 16-O ) :   1.4912
B(  6-S , 17-O ) :   1.3853 B(  7-C ,  8-N ) :   0.7900 B(  7-C ,  9-C ) :   1.7325
B(  7-C , 10-H ) :  -0.1449 B(  7-C , 11-H ) :   0.3529 B(  7-C , 12-H ) :  -0.3244
B(  7-C , 20-H ) :  -0.1152 B(  8-N ,  9-C ) :   0.3530 B(  8-N , 13-H ) :   1.1930
B(  8-N , 14-H ) :   1.1350 B(  9-C , 11-H ) :   0.7135 B( 10-H , 11-H ) :  -0.1115
B( 10-H , 17-O ) :   0.1018 B( 10-H , 20-H ) :   0.1333 B( 13-H , 14-H ) :  -0.1792
B( 20-H , 21-H ) :  -0.2169

Dispersion correction           -0.000916967
FINAL SINGLE POINT ENERGY      -954.234587389872

DIPOLE MOMENT
-------------
                                X             Y             Z
Electronic contribution:    -14.64337      -5.47464       0.08050
Nuclear contribution   :     15.84345       5.19593       1.66752
                        -----------------------------------------
Total Dipole Moment    :      1.20008      -0.27871       1.74801
                        -----------------------------------------
Magnitude (a.u.)       :      2.13856
Magnitude (Debye)      :      5.43578

Rotational constants in cm-1:     0.059060     0.020573     0.017713
Rotational constants in MHz :  1770.576058   616.749938   531.036486

                             ****ORCA TERMINATED NORMALLY****
TOTAL RUN TIME: 0 days 0 hours 1 minutes 31 seconds 731 msec
