                         Program Version 5.0.0 -  RELEASE  -
|  1> !M062X D3Zero RIJCOSX def2-SVPD def2/J TightSCF xyzfile
|  2>
|  3> *xyzfile 0 1 D7.xyz
|  4>
|  5> %MaxCore 64000
|  6>
|  7> %pal nprocs 4
|  8> end
|  9>
| 10> %scf
| 11>   MaxIter 150
| 12> end
| 13>
| 14>
| 15>                          ****END OF INPUT****

CARTESIAN COORDINATES (ANGSTROEM)
---------------------------------
  C      3.380928    2.083045   -3.350127
  C      4.535924    1.182447   -3.428518
  C      2.495557    1.816150   -2.136364
  C      1.872181    0.427903   -2.077497
  H      2.614270   -0.365825   -2.198894
  H      1.389953    0.273087   -1.112360
  S      0.579024    0.140472   -3.297943
  C      4.671956    0.122273   -4.220598
  N      5.866023   -0.507849   -4.224284
  N      3.698881   -0.312844   -4.986988
  H      2.731405   -0.050091   -4.849000
  H      3.890046   -1.055172   -5.643730
  H      5.251933    1.303459   -2.721014
  H      6.695165   -0.062322   -3.851596
  H      5.975383   -1.396884   -4.691414
  O      0.228860   -1.246868   -3.127871
  O     -0.439269    1.118966   -3.014550
  F      1.247881    0.403474   -4.595647
  H      1.697003    2.561969   -2.141109
  H      3.080787    1.987436   -1.225838
  H      2.806463    1.986511   -4.268484
  H      3.778714    3.098282   -3.307383

 Total Charge           Charge          ....    0
 Multiplicity           Mult            ....    1
 Number of Electrons    NEL             ....   96
 Basis Dimension        Dim             ....  324

ORBITAL ENERGIES
----------------

  NO   OCC          E(Eh)            E(eV)
   0   2.0000     -90.199081     -2454.4418
   1   2.0000     -25.376947      -690.5418
   2   2.0000     -19.657566      -534.9096
   3   2.0000     -19.656997      -534.8941
   4   2.0000     -14.769072      -401.8869
   5   2.0000     -14.768963      -401.8839
   6   2.0000     -10.610990      -288.7397
   7   2.0000     -10.603086      -288.5246
   8   2.0000     -10.565057      -287.4898
   9   2.0000     -10.545710      -286.9634
  10   2.0000     -10.488840      -285.4158
  11   2.0000      -8.523189      -231.9278
  12   2.0000      -6.451803      -175.5625
  13   2.0000      -6.446397      -175.4154
  14   2.0000      -6.445039      -175.3784
  15   2.0000      -1.504247       -40.9326
  16   2.0000      -1.243991       -33.8507
  17   2.0000      -1.143948       -31.1284
  18   2.0000      -1.072759       -29.1913
  19   2.0000      -0.973044       -26.4779
  20   2.0000      -0.924268       -25.1506
  21   2.0000      -0.860976       -23.4284
  22   2.0000      -0.827765       -22.5246
  23   2.0000      -0.776706       -21.1353
  24   2.0000      -0.733338       -19.9551
  25   2.0000      -0.693966       -18.8838
  26   2.0000      -0.678534       -18.4639
  27   2.0000      -0.660560       -17.9748
  28   2.0000      -0.636355       -17.3161
  29   2.0000      -0.627803       -17.0834
  30   2.0000      -0.590746       -16.0750
  31   2.0000      -0.572914       -15.5898
  32   2.0000      -0.555840       -15.1252
  33   2.0000      -0.548353       -14.9214
  34   2.0000      -0.538201       -14.6452
  35   2.0000      -0.530102       -14.4248
  36   2.0000      -0.484096       -13.1729
  37   2.0000      -0.482459       -13.1284
  38   2.0000      -0.478828       -13.0296
  39   2.0000      -0.461054       -12.5459
  40   2.0000      -0.431264       -11.7353
  41   2.0000      -0.422083       -11.4855
  42   2.0000      -0.413277       -11.2459
  43   2.0000      -0.403665       -10.9843
  44   2.0000      -0.400496       -10.8980
  45   2.0000      -0.387517       -10.5449
  46   2.0000      -0.339285        -9.2324
  47   2.0000      -0.226179        -6.1546
  48   0.0000       0.017751         0.4830
  49   0.0000       0.034350         0.9347
  50   0.0000       0.036201         0.9851
  51   0.0000       0.047537         1.2936
  52   0.0000       0.062319         1.6958

MULLIKEN ATOMIC CHARGES
-----------------------
   0 C :    0.386527
   1 C :   -0.132814
   2 C :    0.244733
   3 C :    0.130982
   4 H :    0.069568
   5 H :   -0.096679
   6 S :    1.563001
   7 C :    1.068054
   8 N :   -0.129454
   9 N :    0.411477
  10 H :   -0.351096
  11 H :   -0.248971
  12 H :   -0.359163
  13 H :   -0.096058
  14 H :   -0.106570
  15 O :   -0.715499
  16 O :   -0.747374
  17 F :   -0.561119
  18 H :    0.002932
  19 H :   -0.028482
  20 H :   -0.154567
  21 H :   -0.149429
Sum of atomic charges:   -0.0000000

LOEWDIN ATOMIC CHARGES
----------------------
   0 C :   -0.040611
   1 C :   -0.021055
   2 C :   -0.030383
   3 C :   -0.030502
   4 H :    0.021160
   5 H :    0.033513
   6 S :    1.159442
   7 C :   -0.208837
   8 N :    0.174378
   9 N :    0.221715
  10 H :   -0.096367
  11 H :    0.008234
  12 H :   -0.047041
  13 H :    0.006527
  14 H :   -0.010126
  15 O :   -0.467647
  16 O :   -0.462275
  17 F :   -0.293109
  18 H :    0.025204
  19 H :    0.036526
  20 H :   -0.002191
  21 H :    0.023445

  Mayer bond orders larger than 0.100000
B(  0-C ,  1-C ) :   1.1087 B(  0-C ,  2-C ) :   1.1325 B(  0-C , 12-H ) :   0.2053
B(  0-C , 18-H ) :   0.1677 B(  0-C , 19-H ) :   0.1653 B(  0-C , 20-H ) :   0.7807
B(  0-C , 21-H ) :   0.8082 B(  1-C ,  7-C ) :   1.5914 B(  1-C ,  8-N ) :   0.4121
B(  1-C ,  9-N ) :   0.2003 B(  1-C , 12-H ) :   0.7925 B(  1-C , 20-H ) :   0.2695
B(  1-C , 21-H ) :   0.1242 B(  2-C ,  3-C ) :   1.2788 B(  2-C ,  4-H ) :   0.1409
B(  2-C ,  5-H ) :   0.1571 B(  2-C , 18-H ) :   0.8089 B(  2-C , 19-H ) :   0.7645
B(  2-C , 20-H ) :   0.1400 B(  3-C ,  4-H ) :   0.9620 B(  3-C ,  5-H ) :   0.7907
B(  3-C ,  6-S ) :   0.9840 B(  3-C , 18-H ) :   0.1549 B(  3-C , 19-H ) :   0.1289
B(  5-H ,  6-S ) :   0.1129 B(  6-S , 15-O ) :   1.4994 B(  6-S , 16-O ) :   1.4913
B(  6-S , 17-F ) :   0.5840 B(  7-C ,  8-N ) :   0.6523 B(  7-C ,  9-N ) :   0.9711
B(  7-C , 10-H ) :  -0.1306 B(  7-C , 11-H ) :  -0.2333 B(  7-C , 12-H ) :   0.1146
B(  7-C , 13-H ) :  -0.2037 B(  7-C , 20-H ) :  -0.1354 B(  8-N , 13-H ) :   1.2474
B(  8-N , 14-H ) :   1.1662 B(  9-N , 10-H ) :   1.1750 B(  9-N , 11-H ) :   1.2553
B(  9-N , 17-F ) :  -0.1075 B( 10-H , 11-H ) :  -0.1823 B( 13-H , 14-H ) :  -0.1722
B( 18-H , 19-H ) :  -0.1242

Dispersion correction           -0.000936018
FINAL SINGLE POINT ENERGY      -954.274172672027

DIPOLE MOMENT
-------------
                                X             Y             Z
Electronic contribution:    -13.13472      -3.81442      -3.63220
Nuclear contribution   :     14.80811       3.53278       3.42836
                        -----------------------------------------
Total Dipole Moment    :      1.67339      -0.28164      -0.20384
                        -----------------------------------------
Magnitude (a.u.)       :      1.70913
Magnitude (Debye)      :      4.34426

Rotational constants in cm-1:     0.059173     0.020923     0.018056
Rotational constants in MHz :  1773.956621   627.264018   541.303397

                             ****ORCA TERMINATED NORMALLY****
TOTAL RUN TIME: 0 days 0 hours 1 minutes 26 seconds 253 msec
