                         Program Version 5.0.0 -  RELEASE  -
|  1> !M062X D3Zero RIJCOSX def2-SVPD def2/J TightSCF xyzfile
|  2>
|  3> *xyzfile 0 1 D8.xyz
|  4>
|  5> %MaxCore 64000
|  6>
|  7> %pal nprocs 4
|  8> end
|  9>
| 10> %scf
| 11>   MaxIter 150
| 12> end
| 13>
| 14>
| 15>                          ****END OF INPUT****

CARTESIAN COORDINATES (ANGSTROEM)
---------------------------------
  C      3.380928    2.083045   -3.350127
  N      4.535924    1.182447   -3.428518
  C      2.495557    1.816150   -2.136364
  C      1.872181    0.427903   -2.077497
  H      2.614270   -0.365825   -2.198894
  H      1.389953    0.273087   -1.112360
  S      0.579024    0.140472   -3.297943
  C      4.671956    0.122273   -4.220598
  C      5.866023   -0.507849   -4.224284
  N      3.698881   -0.312844   -4.986988
  H      2.731405   -0.050091   -4.849000
  H      3.890046   -1.055172   -5.643730
  H      5.251933    1.303459   -2.721014
  H      6.695165   -0.062322   -3.851596
  H      5.975383   -1.396884   -4.691414
  O      0.228860   -1.246868   -3.127871
  O     -0.439269    1.118966   -3.014550
  F      1.247881    0.403474   -4.595647
  H      1.697003    2.561969   -2.141109
  H      3.080787    1.987436   -1.225838
  H      2.806463    1.986511   -4.268484
  H      3.778714    3.098282   -3.307383

 Total Charge           Charge          ....    0
 Multiplicity           Mult            ....    1
 Number of Electrons    NEL             ....   96
 Basis Dimension        Dim             ....  324

ORBITAL ENERGIES
----------------

  NO   OCC          E(Eh)            E(eV)
   0   2.0000     -90.212071     -2454.7953
   1   2.0000     -25.388241      -690.8491
   2   2.0000     -19.669535      -535.2353
   3   2.0000     -19.668571      -535.2090
   4   2.0000     -14.777446      -402.1147
   5   2.0000     -14.766060      -401.8049
   6   2.0000     -10.621315      -289.0207
   7   2.0000     -10.612489      -288.7805
   8   2.0000     -10.609853      -288.7088
   9   2.0000     -10.591420      -288.2072
  10   2.0000     -10.468901      -284.8733
  11   2.0000      -8.536031      -232.2772
  12   2.0000      -6.464629      -175.9115
  13   2.0000      -6.459213      -175.7641
  14   2.0000      -6.458015      -175.7315
  15   2.0000      -1.515753       -41.2457
  16   2.0000      -1.255736       -34.1703
  17   2.0000      -1.155563       -31.4445
  18   2.0000      -1.082275       -29.4502
  19   2.0000      -0.995621       -27.0922
  20   2.0000      -0.933865       -25.4118
  21   2.0000      -0.868436       -23.6313
  22   2.0000      -0.821864       -22.3641
  23   2.0000      -0.792032       -21.5523
  24   2.0000      -0.731986       -19.9184
  25   2.0000      -0.706604       -19.2277
  26   2.0000      -0.698325       -19.0024
  27   2.0000      -0.687487       -18.7075
  28   2.0000      -0.650198       -17.6928
  29   2.0000      -0.617632       -16.8066
  30   2.0000      -0.596267       -16.2253
  31   2.0000      -0.573021       -15.5927
  32   2.0000      -0.569354       -15.4929
  33   2.0000      -0.562551       -15.3078
  34   2.0000      -0.550327       -14.9752
  35   2.0000      -0.533003       -14.5037
  36   2.0000      -0.502816       -13.6823
  37   2.0000      -0.482583       -13.1317
  38   2.0000      -0.478021       -13.0076
  39   2.0000      -0.462408       -12.5828
  40   2.0000      -0.456148       -12.4124
  41   2.0000      -0.446664       -12.1544
  42   2.0000      -0.431093       -11.7306
  43   2.0000      -0.428804       -11.6683
  44   2.0000      -0.412702       -11.2302
  45   2.0000      -0.405803       -11.0425
  46   2.0000      -0.329922        -8.9776
  47   2.0000      -0.219427        -5.9709
  48   0.0000       0.010081         0.2743
  49   0.0000       0.025440         0.6923
  50   0.0000       0.034292         0.9331
  51   0.0000       0.036485         0.9928
  52   0.0000       0.057661         1.5690

MULLIKEN ATOMIC CHARGES
-----------------------
   0 C :    0.942282
   1 N :   -0.451717
   2 C :    0.205141
   3 C :    0.175960
   4 H :    0.131335
   5 H :   -0.150917
   6 S :    1.549721
   7 C :    0.715906
   8 C :    0.352374
   9 N :    0.529591
  10 H :   -0.429040
  11 H :   -0.175150
  12 H :   -0.252899
  13 H :   -0.398118
  14 H :   -0.258545
  15 O :   -0.707132
  16 O :   -0.742767
  17 F :   -0.568720
  18 H :    0.014513
  19 H :   -0.040811
  20 H :   -0.091288
  21 H :   -0.349717
Sum of atomic charges:   -0.0000000

LOEWDIN ATOMIC CHARGES
----------------------
   0 C :    0.075353
   1 N :   -0.015913
   2 C :   -0.021827
   3 C :   -0.028697
   4 H :    0.025830
   5 H :    0.035790
   6 S :    1.161350
   7 C :   -0.234052
   8 C :    0.150399
   9 N :    0.220377
  10 H :   -0.105574
  11 H :    0.023958
  12 H :    0.040164
  13 H :   -0.105347
  14 H :   -0.106288
  15 O :   -0.459496
  16 O :   -0.460123
  17 F :   -0.294317
  18 H :    0.030182
  19 H :    0.035658
  20 H :    0.005310
  21 H :    0.027264

  Mayer bond orders larger than 0.100000
B(  0-C ,  1-N ) :   0.9353 B(  0-C ,  2-C ) :   1.0791 B(  0-C , 12-H ) :  -0.2127
B(  0-C , 18-H ) :   0.1382 B(  0-C , 19-H ) :   0.1434 B(  0-C , 20-H ) :   0.7145
B(  0-C , 21-H ) :   0.8965 B(  1-N ,  7-C ) :   0.9640 B(  1-N ,  8-C ) :   0.2324
B(  1-N ,  9-N ) :   0.1275 B(  1-N , 12-H ) :   1.2654 B(  1-N , 20-H ) :   0.2252
B(  1-N , 21-H ) :   0.1511 B(  2-C ,  3-C ) :   1.2478 B(  2-C ,  4-H ) :   0.1404
B(  2-C ,  5-H ) :   0.1518 B(  2-C , 18-H ) :   0.8550 B(  2-C , 19-H ) :   0.7946
B(  2-C , 20-H ) :   0.1364 B(  3-C ,  4-H ) :   0.9215 B(  3-C ,  5-H ) :   0.8032
B(  3-C ,  6-S ) :   0.9896 B(  3-C , 18-H ) :   0.1244 B(  3-C , 19-H ) :   0.1188
B(  5-H ,  6-S ) :   0.1138 B(  6-S , 15-O ) :   1.5065 B(  6-S , 16-O ) :   1.4912
B(  6-S , 17-F ) :   0.5917 B(  7-C ,  8-C ) :   1.4255 B(  7-C ,  9-N ) :   1.0123
B(  7-C , 10-H ) :  -0.1115 B(  7-C , 11-H ) :  -0.1272 B(  7-C , 12-H ) :  -0.2296
B(  7-C , 13-H ) :   0.1033 B(  7-C , 14-H ) :   0.2165 B(  8-C ,  9-N ) :   0.1578
B(  8-C , 13-H ) :   0.7995 B(  8-C , 14-H ) :   0.7847 B(  9-N , 10-H ) :   1.0362
B(  9-N , 11-H ) :   1.1637 B(  9-N , 17-F ) :  -0.1090 B(  9-N , 20-H ) :   0.1126
B( 10-H , 11-H ) :  -0.1972 B( 20-H , 21-H ) :  -0.1945

Dispersion correction           -0.000933719
FINAL SINGLE POINT ENERGY      -954.257703845585

DIPOLE MOMENT
-------------
                                X             Y             Z
Electronic contribution:    -14.54888      -2.40605      -2.87483
Nuclear contribution   :     14.93782       3.36795       3.35075
                        -----------------------------------------
Total Dipole Moment    :      0.38894       0.96190       0.47592
                        -----------------------------------------
Magnitude (a.u.)       :      1.14150
Magnitude (Debye)      :      2.90146

Rotational constants in cm-1:     0.059219     0.021387     0.018380
Rotational constants in MHz :  1775.354399   641.172207   551.019443

                             ****ORCA TERMINATED NORMALLY****
TOTAL RUN TIME: 0 days 0 hours 1 minutes 40 seconds 379 msec
