                         Program Version 5.0.0 -  RELEASE  -
|  1> !PBE0 D3BJ RIJCOSX def2-SVPD def2/J TightSCF
|  2> *xyz -1 1
|  3> C          0.61188        1.65763       -4.50029
|  4> C          1.69499        1.54179       -5.57045
|  5> H          2.69733        1.73466       -5.18400
|  6> H          1.50666        2.27224       -6.35808
|  7> S          1.78029       -0.03313       -6.42874
|  8> O          2.56929        0.21366       -7.60736
|  9> O          0.41688       -0.46297       -6.61859
| 10> O          2.50513       -0.93326       -5.48257
| 11> H         -0.34424        1.45871       -4.93752
| 12> H          0.61845        2.64655       -4.09174
| 13> H          0.80247        0.94882       -3.72173
| 14> *
| 15> %MaxCore 64000
| 16>
| 17> %pal nprocs 4
| 18> end
| 19>
| 20> %scf
| 21>   MaxIter 150
| 22> end
| 23>
| 24>
| 25>                          ****END OF INPUT****

CARTESIAN COORDINATES (ANGSTROEM)
---------------------------------
  C      0.611880    1.657630   -4.500290
  C      1.694990    1.541790   -5.570450
  H      2.697330    1.734660   -5.184000
  H      1.506660    2.272240   -6.358080
  S      1.780290   -0.033130   -6.428740
  O      2.569290    0.213660   -7.607360
  O      0.416880   -0.462970   -6.618590
  O      2.505130   -0.933260   -5.482570
  H     -0.344240    1.458710   -4.937520
  H      0.618450    2.646550   -4.091740
  H      0.802470    0.948820   -3.721730

 Total Charge           Charge          ....   -1
 Multiplicity           Mult            ....    1
 Number of Electrons    NEL             ....   58
 Basis Dimension        Dim             ....  176

ORBITAL ENERGIES
----------------

  NO   OCC          E(Eh)            E(eV)
   0   2.0000     -89.036149     -2422.7968
   1   2.0000     -18.999737      -517.0091
   2   2.0000     -18.999060      -516.9907
   3   2.0000     -18.980454      -516.4844
   4   2.0000     -10.096879      -274.7500
   5   2.0000     -10.091160      -274.5944
   6   2.0000      -7.995878      -217.5789
   7   2.0000      -5.938189      -161.5863
   8   2.0000      -5.937927      -161.5792
   9   2.0000      -5.937512      -161.5679
  10   2.0000      -0.958970       -26.0949
  11   2.0000      -0.823064       -22.3967
  12   2.0000      -0.788078       -21.4447
  13   2.0000      -0.651986       -17.7414
  14   2.0000      -0.525532       -14.3005
  15   2.0000      -0.398752       -10.8506
  16   2.0000      -0.334857        -9.1119
  17   2.0000      -0.333337        -9.0706
  18   2.0000      -0.295150        -8.0314
  19   2.0000      -0.280062        -7.6209
  20   2.0000      -0.273521        -7.4429
  21   2.0000      -0.245666        -6.6849
  22   2.0000      -0.228740        -6.2243
  23   2.0000      -0.166866        -4.5406
  24   2.0000      -0.165868        -4.5135
  25   2.0000      -0.132768        -3.6128
  26   2.0000      -0.123123        -3.3503
  27   2.0000      -0.108359        -2.9486
  28   2.0000      -0.076485        -2.0813
  29   0.0000       0.148194         4.0326
  30   0.0000       0.175481         4.7751
  31   0.0000       0.182825         4.9749
  32   0.0000       0.189228         5.1492
  33   0.0000       0.209976         5.7137

MULLIKEN ATOMIC CHARGES
-----------------------
   0 C :    0.583095
   1 C :   -0.496903
   2 H :    0.005945
   3 H :    0.050495
   4 S :    1.425442
   5 O :   -0.816869
   6 O :   -0.829699
   7 O :   -0.875967
   8 H :    0.007487
   9 H :   -0.049634
  10 H :   -0.003392
Sum of atomic charges:   -1.0000000

LOEWDIN ATOMIC CHARGES
----------------------
   0 C :    0.097891
   1 C :   -0.140112
   2 H :    0.007256
   3 H :   -0.000298
   4 S :    0.864788
   5 O :   -0.578037
   6 O :   -0.573582
   7 O :   -0.609805
   8 H :   -0.022170
   9 H :   -0.032289
  10 H :   -0.013642

  Mayer bond orders larger than 0.100000
B(  0-C ,  1-C ) :   1.2967 B(  0-C ,  8-H ) :   0.8460 B(  0-C ,  9-H ) :   0.7893
B(  0-C , 10-H ) :   0.8436 B(  1-C ,  2-H ) :   1.0005 B(  1-C ,  3-H ) :   0.9911
B(  1-C ,  4-S ) :   0.9297 B(  1-C ,  8-H ) :   0.1847 B(  1-C ,  9-H ) :   0.1865
B(  1-C , 10-H ) :   0.1716 B(  4-S ,  5-O ) :   1.3113 B(  4-S ,  6-O ) :   1.2771
B(  4-S ,  7-O ) :   1.2390

Dispersion correction           -0.008245618
FINAL SINGLE POINT ENERGY      -702.318204539928

DIPOLE MOMENT
-------------
                                X             Y             Z
Electronic contribution:      2.22005      -5.57382      -4.96876
Nuclear contribution   :     -2.69163       7.29476       5.86550
                        -----------------------------------------
Total Dipole Moment    :     -0.47158       1.72094       0.89674
                        -----------------------------------------
Magnitude (a.u.)       :      1.99704
Magnitude (Debye)      :      5.07608

Rotational constants in cm-1:     0.163060     0.082831     0.081111
Rotational constants in MHz :  4888.419330  2483.225008  2431.646841

                             ****ORCA TERMINATED NORMALLY****
TOTAL RUN TIME: 0 days 0 hours 0 minutes 16 seconds 99 msec
