                         Program Version 5.0.0 -  RELEASE  -
|  1> !PBE0 D3BJ RIJCOSX def2-SVPD def2/J TightSCF
|  2> *xyz 1 1
|  3> C          1.96337       -1.74915       -1.89689
|  4> N          2.73849       -2.01517       -3.09711
|  5> C          4.04974       -2.15472       -3.15204
|  6> N          4.65821       -1.98629       -4.31866
|  7> N          4.76423       -2.45444       -2.05049
|  8> H          4.28736       -2.77626       -1.21750
|  9> H          5.75082       -2.65835       -2.12599
| 10> H          2.34518       -1.69027       -3.97145
| 11> H          4.10900       -1.59268       -5.07176
| 12> H          5.64910       -2.15646       -4.42724
| 13> C          2.08852       -0.30091       -1.41520
| 14> H          2.23127       -2.45162       -1.10264
| 15> H          0.93025       -1.97780       -2.15544
| 16> H          1.82118        0.36368       -2.21003
| 17> H          3.09792       -0.11068       -1.11551
| 18> H          1.43391       -0.14382       -0.58352
| 19> *
| 20> %MaxCore 64000
| 21>
| 22> %pal nprocs 4
| 23> end
| 24>
| 25> %scf
| 26>   MaxIter 150
| 27> end
| 28>
| 29>
| 30>                          ****END OF INPUT****

CARTESIAN COORDINATES (ANGSTROEM)
---------------------------------
  C      1.963370   -1.749150   -1.896890
  N      2.738490   -2.015170   -3.097110
  C      4.049740   -2.154720   -3.152040
  N      4.658210   -1.986290   -4.318660
  N      4.764230   -2.454440   -2.050490
  H      4.287360   -2.776260   -1.217500
  H      5.750820   -2.658350   -2.125990
  H      2.345180   -1.690270   -3.971450
  H      4.109000   -1.592680   -5.071760
  H      5.649100   -2.156460   -4.427240
  C      2.088520   -0.300910   -1.415200
  H      2.231270   -2.451620   -1.102640
  H      0.930250   -1.977800   -2.155440
  H      1.821180    0.363680   -2.210030
  H      3.097920   -0.110680   -1.115510
  H      1.433910   -0.143820   -0.583520

 Total Charge           Charge          ....    1
 Multiplicity           Mult            ....    1
 Number of Electrons    NEL             ....   48
 Basis Dimension        Dim             ....  200

ORBITAL ENERGIES
----------------

  NO   OCC          E(Eh)            E(eV)
   0   2.0000     -14.622026      -397.8855
   1   2.0000     -14.621903      -397.8822
   2   2.0000     -14.619620      -397.8201
   3   2.0000     -10.567865      -287.5662
   4   2.0000     -10.441472      -284.1269
   5   2.0000     -10.369134      -282.1585
   6   2.0000      -1.238562       -33.7030
   7   2.0000      -1.124951       -30.6115
   8   2.0000      -1.111304       -30.2401
   9   2.0000      -0.948467       -25.8091
  10   2.0000      -0.858843       -23.3703
  11   2.0000      -0.822305       -22.3761
  12   2.0000      -0.802762       -21.8443
  13   2.0000      -0.762056       -20.7366
  14   2.0000      -0.711666       -19.3654
  15   2.0000      -0.703489       -19.1429
  16   2.0000      -0.674042       -18.3416
  17   2.0000      -0.643758       -17.5176
  18   2.0000      -0.615080       -16.7372
  19   2.0000      -0.578882       -15.7522
  20   2.0000      -0.545018       -14.8307
  21   2.0000      -0.524752       -14.2792
  22   2.0000      -0.491938       -13.3863
  23   2.0000      -0.464216       -12.6320
  24   0.0000      -0.166002        -4.5171
  25   0.0000      -0.148482        -4.0404
  26   0.0000      -0.115181        -3.1342
  27   0.0000      -0.105871        -2.8809
  28   0.0000      -0.080223        -2.1830

MULLIKEN ATOMIC CHARGES
-----------------------
   0 C :    0.242585
   1 N :   -0.525311
   2 C :    1.660666
   3 N :   -0.228064
   4 N :   -0.138030
   5 H :   -0.011319
   6 H :   -0.124886
   7 H :   -0.173924
   8 H :    0.013684
   9 H :   -0.042972
  10 C :    0.512500
  11 H :   -0.033471
  12 H :   -0.215372
  13 H :    0.010368
  14 H :   -0.008373
  15 H :    0.061922
Sum of atomic charges:    1.0000000

LOEWDIN ATOMIC CHARGES
----------------------
   0 C :    0.040902
   1 N :    0.032844
   2 C :   -0.028854
   3 N :    0.259846
   4 N :    0.276941
   5 H :    0.023295
   6 H :    0.037715
   7 H :    0.057208
   8 H :    0.039675
   9 H :    0.044976
  10 C :    0.158975
  11 H :    0.028958
  12 H :    0.042539
  13 H :   -0.004954
  14 H :   -0.014432
  15 H :    0.004366

  Mayer bond orders larger than 0.100000
B(  0-C ,  1-N ) :   0.8766 B(  0-C ,  7-H ) :  -0.1273 B(  0-C , 10-C ) :   1.2575
B(  0-C , 11-H ) :   0.9190 B(  0-C , 12-H ) :   0.9034 B(  0-C , 13-H ) :   0.1940
B(  0-C , 14-H ) :   0.1625 B(  0-C , 15-H ) :   0.1418 B(  1-N ,  2-C ) :   0.9477
B(  1-N ,  3-N ) :   0.3116 B(  1-N ,  4-N ) :   0.2171 B(  1-N ,  7-H ) :   1.2776
B(  1-N , 11-H ) :   0.1247 B(  1-N , 12-H ) :   0.2018 B(  2-C ,  3-N ) :   0.7089
B(  2-C ,  4-N ) :   0.8349 B(  2-C ,  5-H ) :  -0.1226 B(  2-C ,  6-H ) :  -0.1683
B(  2-C ,  7-H ) :  -0.2207 B(  2-C ,  8-H ) :  -0.1448 B(  2-C ,  9-H ) :  -0.1426
B(  3-N ,  4-N ) :   0.1711 B(  3-N ,  8-H ) :   1.1509 B(  3-N ,  9-H ) :   1.2456
B(  4-N ,  5-H ) :   1.0870 B(  4-N ,  6-H ) :   1.2851 B(  5-H ,  6-H ) :  -0.1984
B(  8-H ,  9-H ) :  -0.1688 B( 10-C , 13-H ) :   0.8389 B( 10-C , 14-H ) :   0.8701
B( 10-C , 15-H ) :   0.8223

Dispersion correction           -0.010477708
FINAL SINGLE POINT ENERGY      -283.892819589389

DIPOLE MOMENT
-------------
                                X             Y             Z
Electronic contribution:      3.01660      -2.70946      -3.09209
Nuclear contribution   :     -2.17768       2.37118       2.44574
                        -----------------------------------------
Total Dipole Moment    :      0.83891      -0.33828      -0.64635
                        -----------------------------------------
Magnitude (a.u.)       :      1.11174
Magnitude (Debye)      :      2.82583

Rotational constants in cm-1:     0.215650     0.075183     0.066454
Rotational constants in MHz :  6465.033740  2253.919004  1992.232519

                             ****ORCA TERMINATED NORMALLY****
TOTAL RUN TIME: 0 days 0 hours 0 minutes 21 seconds 409 msec
