                         Program Version 5.0.0 -  RELEASE  -
|  1> !PBE0 D3BJ RIJCOSX def2-SVPD def2/J TightSCF
|  2> *xyz 0 1
|  3> C          0.61188        1.65763       -4.50029
|  4> C          1.69499        1.54179       -5.57045
|  5> H          2.69733        1.73466       -5.18400
|  6> H          1.50666        2.27224       -6.35808
|  7> S          1.78029       -0.03313       -6.42874
|  8> F          2.56929        0.21366       -7.60736
|  9> O          0.41688       -0.46297       -6.61859
| 10> O          2.50513       -0.93326       -5.48257
| 11> H         -0.34424        1.45871       -4.93752
| 12> H          0.61845        2.64655       -4.09174
| 13> H          0.80247        0.94882       -3.72173
| 14> *
| 15> %MaxCore 64000
| 16>
| 17> %pal nprocs 4
| 18> end
| 19>
| 20> %scf
| 21>   MaxIter 150
| 22> end
| 23>
| 24>
| 25>                          ****END OF INPUT****

CARTESIAN COORDINATES (ANGSTROEM)
---------------------------------
  C      0.611880    1.657630   -4.500290
  C      1.694990    1.541790   -5.570450
  H      2.697330    1.734660   -5.184000
  H      1.506660    2.272240   -6.358080
  S      1.780290   -0.033130   -6.428740
  F      2.569290    0.213660   -7.607360
  O      0.416880   -0.462970   -6.618590
  O      2.505130   -0.933260   -5.482570
  H     -0.344240    1.458710   -4.937520
  H      0.618450    2.646550   -4.091740
  H      0.802470    0.948820   -3.721730

 Total Charge           Charge          ....    0
 Multiplicity           Mult            ....    1
 Number of Electrons    NEL             ....   58
 Basis Dimension        Dim             ....  176

ORBITAL ENERGIES
----------------

  NO   OCC          E(Eh)            E(eV)
   0   2.0000     -89.297345     -2429.9043
   1   2.0000     -24.906615      -677.7435
   2   2.0000     -19.234755      -523.4043
   3   2.0000     -19.215190      -522.8719
   4   2.0000     -10.300101      -280.2800
   5   2.0000     -10.254893      -279.0498
   6   2.0000      -8.257932      -224.7098
   7   2.0000      -6.204169      -168.8240
   8   2.0000      -6.197814      -168.6511
   9   2.0000      -6.196530      -168.6161
  10   2.0000      -1.413750       -38.4701
  11   2.0000      -1.136254       -30.9190
  12   2.0000      -1.025949       -27.9175
  13   2.0000      -0.845229       -22.9999
  14   2.0000      -0.762459       -20.7476
  15   2.0000      -0.698622       -19.0105
  16   2.0000      -0.612277       -16.6609
  17   2.0000      -0.610072       -16.6009
  18   2.0000      -0.577282       -15.7086
  19   2.0000      -0.512876       -13.9561
  20   2.0000      -0.503401       -13.6982
  21   2.0000      -0.462195       -12.5770
  22   2.0000      -0.450204       -12.2507
  23   2.0000      -0.425821       -11.5872
  24   2.0000      -0.404788       -11.0148
  25   2.0000      -0.401272       -10.9192
  26   2.0000      -0.352278        -9.5860
  27   2.0000      -0.333240        -9.0679
  28   2.0000      -0.318460        -8.6657
  29   0.0000       0.001417         0.0385
  30   0.0000       0.023840         0.6487
  31   0.0000       0.040736         1.1085
  32   0.0000       0.044527         1.2116
  33   0.0000       0.053971         1.4686

MULLIKEN ATOMIC CHARGES
-----------------------
   0 C :    0.575892
   1 C :   -0.528847
   2 H :    0.056529
   3 H :    0.102729
   4 S :    1.597707
   5 F :   -0.416246
   6 O :   -0.691066
   7 O :   -0.735935
   8 H :    0.031970
   9 H :   -0.011331
  10 H :    0.018599
Sum of atomic charges:   -0.0000000

LOEWDIN ATOMIC CHARGES
----------------------
   0 C :    0.143029
   1 C :   -0.104093
   2 H :    0.026650
   3 H :    0.017289
   4 S :    1.132039
   5 F :   -0.257115
   6 O :   -0.462833
   7 O :   -0.493462
   8 H :   -0.004475
   9 H :   -0.001053
  10 H :    0.004025

  Mayer bond orders larger than 0.100000
B(  0-C ,  1-C ) :   1.3639 B(  0-C ,  8-H ) :   0.8399 B(  0-C ,  9-H ) :   0.7918
B(  0-C , 10-H ) :   0.8430 B(  1-C ,  2-H ) :   0.9833 B(  1-C ,  3-H ) :   0.9526
B(  1-C ,  4-S ) :   0.9766 B(  1-C ,  8-H ) :   0.1783 B(  1-C ,  9-H ) :   0.1762
B(  1-C , 10-H ) :   0.1658 B(  4-S ,  5-F ) :   0.6551 B(  4-S ,  6-O ) :   1.4939
B(  4-S ,  7-O ) :   1.4475

Dispersion correction           -0.007882782
FINAL SINGLE POINT ENERGY      -726.788790239305

DIPOLE MOMENT
-------------
                                X             Y             Z
Electronic contribution:      3.85186      -5.59973      -7.51344
Nuclear contribution   :     -3.66946       7.33549       7.42434
                        -----------------------------------------
Total Dipole Moment    :      0.18239       1.73576      -0.08910
                        -----------------------------------------
Magnitude (a.u.)       :      1.74759
Magnitude (Debye)      :      4.44203

Rotational constants in cm-1:     0.158379     0.080294     0.077843
Rotational constants in MHz :  4748.076444  2407.152850  2333.668303

                             ****ORCA TERMINATED NORMALLY****
TOTAL RUN TIME: 0 days 0 hours 0 minutes 15 seconds 808 msec
