                         Program Version 5.0.0 -  RELEASE  -
|  1> !PBE0 D3BJ RIJCOSX def2-SVPD def2/J TightSCF
|  2> *xyz 0 1
|  3> C          1.96337       -1.74915       -1.89689
|  4> C          2.73849       -2.01517       -3.09711
|  5> C          4.04974       -2.15472       -3.15204
|  6> N          4.65821       -1.98629       -4.31866
|  7> N          4.76423       -2.45444       -2.05049
|  8> H          4.28736       -2.77626       -1.21750
|  9> H          5.75082       -2.65835       -2.12599
| 10> H          2.34518       -1.69027       -3.97145
| 11> H          4.10900       -1.59268       -5.07176
| 12> H          5.64910       -2.15646       -4.42724
| 13> C          2.08852       -0.30091       -1.41520
| 14> H          2.23127       -2.45162       -1.10264
| 15> H          0.93025       -1.97780       -2.15544
| 16> H          1.82118        0.36368       -2.21003
| 17> H          3.09792       -0.11068       -1.11551
| 18> H          1.43391       -0.14382       -0.58352
| 19> *
| 20> %MaxCore 64000
| 21>
| 22> %pal nprocs 4
| 23> end
| 24>
| 25> %scf
| 26>   MaxIter 150
| 27> end
| 28>
| 29>
| 30>                          ****END OF INPUT****

CARTESIAN COORDINATES (ANGSTROEM)
---------------------------------
  C      1.963370   -1.749150   -1.896890
  C      2.738490   -2.015170   -3.097110
  C      4.049740   -2.154720   -3.152040
  N      4.658210   -1.986290   -4.318660
  N      4.764230   -2.454440   -2.050490
  H      4.287360   -2.776260   -1.217500
  H      5.750820   -2.658350   -2.125990
  H      2.345180   -1.690270   -3.971450
  H      4.109000   -1.592680   -5.071760
  H      5.649100   -2.156460   -4.427240
  C      2.088520   -0.300910   -1.415200
  H      2.231270   -2.451620   -1.102640
  H      0.930250   -1.977800   -2.155440
  H      1.821180    0.363680   -2.210030
  H      3.097920   -0.110680   -1.115510
  H      1.433910   -0.143820   -0.583520

 Total Charge           Charge          ....    0
 Multiplicity           Mult            ....    1
 Number of Electrons    NEL             ....   48
 Basis Dimension        Dim             ....  200

ORBITAL ENERGIES
----------------

  NO   OCC          E(Eh)            E(eV)
   0   2.0000     -14.398240      -391.7960
   1   2.0000     -14.395568      -391.7233
   2   2.0000     -10.274796      -279.5914
   3   2.0000     -10.207552      -277.7616
   4   2.0000     -10.196139      -277.4511
   5   2.0000     -10.152708      -276.2692
   6   2.0000      -0.978948       -26.6385
   7   2.0000      -0.887701       -24.1556
   8   2.0000      -0.790024       -21.4977
   9   2.0000      -0.709155       -19.2971
  10   2.0000      -0.631435       -17.1822
  11   2.0000      -0.595547       -16.2057
  12   2.0000      -0.559288       -15.2190
  13   2.0000      -0.524382       -14.2692
  14   2.0000      -0.489014       -13.3067
  15   2.0000      -0.452684       -12.3182
  16   2.0000      -0.433594       -11.7987
  17   2.0000      -0.399185       -10.8624
  18   2.0000      -0.393579       -10.7098
  19   2.0000      -0.368836       -10.0365
  20   2.0000      -0.339864        -9.2482
  21   2.0000      -0.328679        -8.9438
  22   2.0000      -0.278553        -7.5798
  23   2.0000      -0.169787        -4.6201
  24   0.0000       0.020708         0.5635
  25   0.0000       0.047810         1.3010
  26   0.0000       0.054827         1.4919
  27   0.0000       0.065550         1.7837
  28   0.0000       0.085405         2.3240

MULLIKEN ATOMIC CHARGES
-----------------------
   0 C :   -0.277246
   1 C :   -0.384183
   2 C :    1.024316
   3 N :   -0.175927
   4 N :   -0.217154
   5 H :    0.009157
   6 H :   -0.246268
   7 H :   -0.071782
   8 H :    0.012134
   9 H :   -0.148477
  10 C :    0.537477
  11 H :   -0.024528
  12 H :   -0.047154
  13 H :   -0.001430
  14 H :   -0.014055
  15 H :    0.025118
Sum of atomic charges:   -0.0000000

LOEWDIN ATOMIC CHARGES
----------------------
   0 C :   -0.105632
   1 C :   -0.049283
   2 C :   -0.218199
   3 N :    0.172095
   4 N :    0.195552
   5 H :   -0.005983
   6 H :   -0.011028
   7 H :   -0.048285
   8 H :    0.007863
   9 H :   -0.005056
  10 C :    0.118106
  11 H :    0.004172
  12 H :    0.013466
  13 H :   -0.017456
  14 H :   -0.024110
  15 H :   -0.026223

  Mayer bond orders larger than 0.100000
B(  0-C ,  1-C ) :   1.2503 B(  0-C ,  7-H ) :   0.2658 B(  0-C , 10-C ) :   1.2296
B(  0-C , 11-H ) :   0.9054 B(  0-C , 12-H ) :   0.8530 B(  0-C , 13-H ) :   0.2048
B(  0-C , 14-H ) :   0.1794 B(  0-C , 15-H ) :   0.1553 B(  1-C ,  2-C ) :   1.7912
B(  1-C ,  3-N ) :   0.3185 B(  1-C ,  4-N ) :   0.2050 B(  1-C ,  7-H ) :   0.8042
B(  1-C , 11-H ) :   0.1815 B(  1-C , 12-H ) :   0.2388 B(  2-C ,  3-N ) :   0.7710
B(  2-C ,  4-N ) :   0.7598 B(  2-C ,  6-H ) :  -0.2198 B(  2-C ,  7-H ) :   0.2500
B(  2-C ,  9-H ) :  -0.1070 B(  3-N ,  4-N ) :   0.1292 B(  3-N ,  8-H ) :   1.1370
B(  3-N ,  9-H ) :   1.2695 B(  4-N ,  5-H ) :   1.0356 B(  4-N ,  6-H ) :   1.3965
B(  5-H ,  6-H ) :  -0.2018 B(  8-H ,  9-H ) :  -0.1625 B( 10-C , 13-H ) :   0.8549
B( 10-C , 14-H ) :   0.8656 B( 10-C , 15-H ) :   0.8175

Dispersion correction           -0.010898923
FINAL SINGLE POINT ENERGY      -267.431387138062

DIPOLE MOMENT
-------------
                                X             Y             Z
Electronic contribution:      3.30142      -2.43401      -2.53026
Nuclear contribution   :     -2.31778       2.31977       2.35294
                        -----------------------------------------
Total Dipole Moment    :      0.98364      -0.11424      -0.17732
                        -----------------------------------------
Magnitude (a.u.)       :      1.00600
Magnitude (Debye)      :      2.55706

Rotational constants in cm-1:     0.219415     0.075373     0.066689
Rotational constants in MHz :  6577.897266  2259.621393  1999.290981

                             ****ORCA TERMINATED NORMALLY****
TOTAL RUN TIME: 0 days 0 hours 0 minutes 23 seconds 569 msec
