                         Program Version 5.0.0 -  RELEASE  -
|  1> !PBE0 D3BJ RIJCOSX def2-SVPD def2/J TightSCF
|  2> *xyz 0 1
|  3> C          0.61188        1.65763       -4.50029
|  4> C          1.69499        1.54179       -5.57045
|  5> H          2.69733        1.73466       -5.18400
|  6> H          1.50666        2.27224       -6.35808
|  7> S          1.78029       -0.03313       -6.42874
|  8> O          2.56929        0.21366       -7.60736
|  9> F          0.41688       -0.46297       -6.61859
| 10> O          2.50513       -0.93326       -5.48257
| 11> H         -0.34424        1.45871       -4.93752
| 12> H          0.61845        2.64655       -4.09174
| 13> H          0.80247        0.94882       -3.72173
| 14> *
| 15> %MaxCore 64000
| 16>
| 17> %pal nprocs 4
| 18> end
| 19>
| 20> %scf
| 21>   MaxIter 150
| 22> end
| 23>
| 24>
| 25>                          ****END OF INPUT****

CARTESIAN COORDINATES (ANGSTROEM)
---------------------------------
  C      0.611880    1.657630   -4.500290
  C      1.694990    1.541790   -5.570450
  H      2.697330    1.734660   -5.184000
  H      1.506660    2.272240   -6.358080
  S      1.780290   -0.033130   -6.428740
  O      2.569290    0.213660   -7.607360
  F      0.416880   -0.462970   -6.618590
  O      2.505130   -0.933260   -5.482570
  H     -0.344240    1.458710   -4.937520
  H      0.618450    2.646550   -4.091740
  H      0.802470    0.948820   -3.721730

 Total Charge           Charge          ....    0
 Multiplicity           Mult            ....    1
 Number of Electrons    NEL             ....   58
 Basis Dimension        Dim             ....  176

ORBITAL ENERGIES
----------------

  NO   OCC          E(Eh)            E(eV)
   0   2.0000     -89.297107     -2429.8978
   1   2.0000     -24.906149      -677.7308
   2   2.0000     -19.234409      -523.3949
   3   2.0000     -19.215369      -522.8768
   4   2.0000     -10.299911      -280.2748
   5   2.0000     -10.260368      -279.1988
   6   2.0000      -8.257711      -224.7037
   7   2.0000      -6.204074      -168.8214
   8   2.0000      -6.197533      -168.6434
   9   2.0000      -6.196253      -168.6086
  10   2.0000      -1.412147       -38.4265
  11   2.0000      -1.137433       -30.9511
  12   2.0000      -1.025799       -27.9134
  13   2.0000      -0.849014       -23.1028
  14   2.0000      -0.758632       -20.6434
  15   2.0000      -0.703160       -19.1339
  16   2.0000      -0.621797       -16.9200
  17   2.0000      -0.610558       -16.6141
  18   2.0000      -0.567665       -15.4470
  19   2.0000      -0.514024       -13.9873
  20   2.0000      -0.497945       -13.5498
  21   2.0000      -0.471253       -12.8234
  22   2.0000      -0.457058       -12.4372
  23   2.0000      -0.429466       -11.6864
  24   2.0000      -0.412656       -11.2289
  25   2.0000      -0.398779       -10.8513
  26   2.0000      -0.351431        -9.5629
  27   2.0000      -0.333346        -9.0708
  28   2.0000      -0.318665        -8.6713
  29   0.0000      -0.004486        -0.1221
  30   0.0000       0.032131         0.8743
  31   0.0000       0.040956         1.1145
  32   0.0000       0.043435         1.1819
  33   0.0000       0.051090         1.3902

MULLIKEN ATOMIC CHARGES
-----------------------
   0 C :    0.588581
   1 C :   -0.494586
   2 H :    0.051642
   3 H :    0.096592
   4 S :    1.566142
   5 O :   -0.673352
   6 F :   -0.423021
   7 O :   -0.733814
   8 H :    0.015530
   9 H :   -0.014188
  10 H :    0.020476
Sum of atomic charges:    0.0000000

LOEWDIN ATOMIC CHARGES
----------------------
   0 C :    0.127652
   1 C :   -0.091615
   2 H :    0.039257
   3 H :    0.021240
   4 S :    1.129086
   5 O :   -0.463022
   6 F :   -0.256761
   7 O :   -0.492599
   8 H :   -0.010493
   9 H :   -0.002720
  10 H :   -0.000025

  Mayer bond orders larger than 0.100000
B(  0-C ,  1-C ) :   1.3102 B(  0-C ,  8-H ) :   0.8434 B(  0-C ,  9-H ) :   0.7902
B(  0-C , 10-H ) :   0.8518 B(  1-C ,  2-H ) :   0.9893 B(  1-C ,  3-H ) :   0.9819
B(  1-C ,  4-S ) :   1.0037 B(  1-C ,  8-H ) :   0.1671 B(  1-C ,  9-H ) :   0.1811
B(  1-C , 10-H ) :   0.1625 B(  4-S ,  5-O ) :   1.5288 B(  4-S ,  6-F ) :   0.6443
B(  4-S ,  7-O ) :   1.4587

Dispersion correction           -0.007835120
FINAL SINGLE POINT ENERGY      -726.788697853320

DIPOLE MOMENT
-------------
                                X             Y             Z
Electronic contribution:      0.23825      -6.72426      -5.82903
Nuclear contribution   :     -1.42658       8.04056       6.39401
                        -----------------------------------------
Total Dipole Moment    :     -1.18834       1.31630       0.56498
                        -----------------------------------------
Magnitude (a.u.)       :      1.86118
Magnitude (Debye)      :      4.73074

Rotational constants in cm-1:     0.153659     0.082363     0.078978
Rotational constants in MHz :  4606.587369  2469.179541  2367.702074

                             ****ORCA TERMINATED NORMALLY****
TOTAL RUN TIME: 0 days 0 hours 0 minutes 15 seconds 365 msec
