                         Program Version 5.0.0 -  RELEASE  -
|  1> !PBE0 D3BJ RIJCOSX def2-SVPD def2/J TightSCF
|  2> *xyz 0 1
|  3> C          1.96337       -1.74915       -1.89689
|  4> N          2.73849       -2.01517       -3.09711
|  5> C          4.04974       -2.15472       -3.15204
|  6> C          4.65821       -1.98629       -4.31866
|  7> N          4.76423       -2.45444       -2.05049
|  8> H          4.28736       -2.77626       -1.21750
|  9> H          5.75082       -2.65835       -2.12599
| 10> H          2.34518       -1.69027       -3.97145
| 11> H          4.10900       -1.59268       -5.07176
| 12> H          5.64910       -2.15646       -4.42724
| 13> C          2.08852       -0.30091       -1.41520
| 14> H          2.23127       -2.45162       -1.10264
| 15> H          0.93025       -1.97780       -2.15544
| 16> H          1.82118        0.36368       -2.21003
| 17> H          3.09792       -0.11068       -1.11551
| 18> H          1.43391       -0.14382       -0.58352
| 19> *
| 20> %MaxCore 64000
| 21>
| 22> %pal nprocs 4
| 23> end
| 24>
| 25> %scf
| 26>   MaxIter 150
| 27> end
| 28>
| 29>
| 30>                          ****END OF INPUT****

CARTESIAN COORDINATES (ANGSTROEM)
---------------------------------
  C      1.963370   -1.749150   -1.896890
  N      2.738490   -2.015170   -3.097110
  C      4.049740   -2.154720   -3.152040
  C      4.658210   -1.986290   -4.318660
  N      4.764230   -2.454440   -2.050490
  H      4.287360   -2.776260   -1.217500
  H      5.750820   -2.658350   -2.125990
  H      2.345180   -1.690270   -3.971450
  H      4.109000   -1.592680   -5.071760
  H      5.649100   -2.156460   -4.427240
  C      2.088520   -0.300910   -1.415200
  H      2.231270   -2.451620   -1.102640
  H      0.930250   -1.977800   -2.155440
  H      1.821180    0.363680   -2.210030
  H      3.097920   -0.110680   -1.115510
  H      1.433910   -0.143820   -0.583520

 Total Charge           Charge          ....    0
 Multiplicity           Mult            ....    1
 Number of Electrons    NEL             ....   48
 Basis Dimension        Dim             ....  200

ORBITAL ENERGIES
----------------

  NO   OCC          E(Eh)            E(eV)
   0   2.0000     -14.396376      -391.7453
   1   2.0000     -14.396221      -391.7411
   2   2.0000     -10.275936      -279.6224
   3   2.0000     -10.273220      -279.5485
   4   2.0000     -10.221195      -278.1329
   5   2.0000     -10.144237      -276.0387
   6   2.0000      -0.987844       -26.8806
   7   2.0000      -0.900476       -24.5032
   8   2.0000      -0.787678       -21.4338
   9   2.0000      -0.717078       -19.5127
  10   2.0000      -0.644641       -17.5416
  11   2.0000      -0.615071       -16.7369
  12   2.0000      -0.551941       -15.0191
  13   2.0000      -0.511515       -13.9190
  14   2.0000      -0.494720       -13.4620
  15   2.0000      -0.451308       -12.2807
  16   2.0000      -0.447343       -12.1728
  17   2.0000      -0.415468       -11.3055
  18   2.0000      -0.396121       -10.7790
  19   2.0000      -0.388088       -10.5604
  20   2.0000      -0.372430       -10.1343
  21   2.0000      -0.368674       -10.0321
  22   2.0000      -0.266727        -7.2580
  23   2.0000      -0.173322        -4.7163
  24   0.0000       0.018916         0.5147
  25   0.0000       0.047829         1.3015
  26   0.0000       0.052592         1.4311
  27   0.0000       0.057657         1.5689
  28   0.0000       0.083898         2.2830

MULLIKEN ATOMIC CHARGES
-----------------------
   0 C :    0.241602
   1 N :   -0.481146
   2 C :    0.823933
   3 C :    0.249033
   4 N :   -0.034500
   5 H :   -0.102992
   6 H :   -0.157572
   7 H :   -0.205136
   8 H :   -0.163991
   9 H :   -0.330366
  10 C :    0.493573
  11 H :   -0.068076
  12 H :   -0.253243
  13 H :   -0.018385
  14 H :   -0.013595
  15 H :    0.020859
Sum of atomic charges:   -0.0000000

LOEWDIN ATOMIC CHARGES
----------------------
   0 C :    0.009377
   1 N :   -0.029503
   2 C :   -0.239507
   3 C :    0.139825
   4 N :    0.193900
   5 H :   -0.021773
   6 H :    0.006119
   7 H :    0.032534
   8 H :   -0.098125
   9 H :   -0.096900
  10 C :    0.130782
  11 H :    0.011044
  12 H :    0.019514
  13 H :   -0.016125
  14 H :   -0.021181
  15 H :   -0.019980

  Mayer bond orders larger than 0.100000
B(  0-C ,  1-N ) :   0.8655 B(  0-C ,  7-H ) :  -0.1315 B(  0-C , 10-C ) :   1.2308
B(  0-C , 11-H ) :   0.9211 B(  0-C , 12-H ) :   0.9113 B(  0-C , 13-H ) :   0.2079
B(  0-C , 14-H ) :   0.1706 B(  0-C , 15-H ) :   0.1464 B(  1-N ,  2-C ) :   0.9962
B(  1-N ,  3-C ) :   0.2597 B(  1-N ,  4-N ) :   0.1597 B(  1-N ,  7-H ) :   1.2213
B(  1-N , 11-H ) :   0.1397 B(  1-N , 12-H ) :   0.1974 B(  2-C ,  3-C ) :   1.4621
B(  2-C ,  4-N ) :   0.8633 B(  2-C ,  6-H ) :  -0.1156 B(  2-C ,  7-H ) :  -0.1644
B(  2-C ,  9-H ) :   0.1327 B(  3-C ,  4-N ) :   0.1948 B(  3-C ,  8-H ) :   0.8971
B(  3-C ,  9-H ) :   0.8650 B(  4-N ,  5-H ) :   1.0789 B(  4-N ,  6-H ) :   1.2523
B(  5-H ,  6-H ) :  -0.1934 B(  8-H ,  9-H ) :   0.1041 B( 10-C , 13-H ) :   0.8383
B( 10-C , 14-H ) :   0.8654 B( 10-C , 15-H ) :   0.8455

Dispersion correction           -0.010812887
FINAL SINGLE POINT ENERGY      -267.424994814827

DIPOLE MOMENT
-------------
                                X             Y             Z
Electronic contribution:      1.40838      -2.33752      -1.21373
Nuclear contribution   :     -1.91052       2.32590       2.09379
                        -----------------------------------------
Total Dipole Moment    :     -0.50215      -0.01162       0.88007
                        -----------------------------------------
Magnitude (a.u.)       :      1.01331
Magnitude (Debye)      :      2.57564

Rotational constants in cm-1:     0.219448     0.077923     0.068804
Rotational constants in MHz :  6578.886179  2336.083179  2062.700476

                             ****ORCA TERMINATED NORMALLY****
TOTAL RUN TIME: 0 days 0 hours 0 minutes 21 seconds 434 msec
