                         Program Version 5.0.0 -  RELEASE  -
|  1> !PBE0 D3BJ RIJCOSX def2-SVPD def2/J TightSCF
|  2> *xyz 0 1
|  3> C          0.61188        1.65763       -4.50029
|  4> C          1.69499        1.54179       -5.57045
|  5> H          2.69733        1.73466       -5.18400
|  6> H          1.50666        2.27224       -6.35808
|  7> S          1.78029       -0.03313       -6.42874
|  8> O          2.56929        0.21366       -7.60736
|  9> O          0.41688       -0.46297       -6.61859
| 10> F          2.50513       -0.93326       -5.48257
| 11> H         -0.34424        1.45871       -4.93752
| 12> H          0.61845        2.64655       -4.09174
| 13> H          0.80247        0.94882       -3.72173
| 14> *
| 15> %MaxCore 64000
| 16>
| 17> %pal nprocs 4
| 18> end
| 19>
| 20> %scf
| 21>   MaxIter 150
| 22> end
| 23>
| 24>
| 25>                          ****END OF INPUT****

CARTESIAN COORDINATES (ANGSTROEM)
---------------------------------
  C      0.611880    1.657630   -4.500290
  C      1.694990    1.541790   -5.570450
  H      2.697330    1.734660   -5.184000
  H      1.506660    2.272240   -6.358080
  S      1.780290   -0.033130   -6.428740
  O      2.569290    0.213660   -7.607360
  O      0.416880   -0.462970   -6.618590
  F      2.505130   -0.933260   -5.482570
  H     -0.344240    1.458710   -4.937520
  H      0.618450    2.646550   -4.091740
  H      0.802470    0.948820   -3.721730

 Total Charge           Charge          ....    0
 Multiplicity           Mult            ....    1
 Number of Electrons    NEL             ....   58
 Basis Dimension        Dim             ....  176

ORBITAL ENERGIES
----------------

  NO   OCC          E(Eh)            E(eV)
   0   2.0000     -89.294744     -2429.8335
   1   2.0000     -24.878815      -676.9870
   2   2.0000     -19.234507      -523.3976
   3   2.0000     -19.233771      -523.3775
   4   2.0000     -10.298645      -280.2404
   5   2.0000     -10.255327      -279.0616
   6   2.0000      -8.255221      -224.6360
   7   2.0000      -6.201209      -168.7435
   8   2.0000      -6.195406      -168.5856
   9   2.0000      -6.194060      -168.5489
  10   2.0000      -1.367605       -37.2144
  11   2.0000      -1.148825       -31.2611
  12   2.0000      -1.054688       -28.6995
  13   2.0000      -0.845228       -22.9998
  14   2.0000      -0.742557       -20.2060
  15   2.0000      -0.691036       -18.8040
  16   2.0000      -0.596077       -16.2201
  17   2.0000      -0.579710       -15.7747
  18   2.0000      -0.568976       -15.4826
  19   2.0000      -0.512804       -13.9541
  20   2.0000      -0.498183       -13.5563
  21   2.0000      -0.478749       -13.0274
  22   2.0000      -0.452468       -12.3123
  23   2.0000      -0.422664       -11.5013
  24   2.0000      -0.419783       -11.4229
  25   2.0000      -0.398846       -10.8531
  26   2.0000      -0.359650        -9.7866
  27   2.0000      -0.349912        -9.5216
  28   2.0000      -0.339712        -9.2440
  29   0.0000       0.000720         0.0196
  30   0.0000       0.032951         0.8967
  31   0.0000       0.039860         1.0846
  32   0.0000       0.044258         1.2043
  33   0.0000       0.051973         1.4142

MULLIKEN ATOMIC CHARGES
-----------------------
   0 C :    0.607568
   1 C :   -0.522734
   2 H :    0.051837
   3 H :    0.099399
   4 S :    1.586360
   5 O :   -0.691117
   6 O :   -0.707089
   7 F :   -0.444979
   8 H :    0.034503
   9 H :   -0.013438
  10 H :   -0.000310
Sum of atomic charges:    0.0000000

LOEWDIN ATOMIC CHARGES
----------------------
   0 C :    0.129845
   1 C :   -0.094462
   2 H :    0.025109
   3 H :    0.032181
   4 S :    1.127170
   5 O :   -0.464432
   6 O :   -0.461232
   7 F :   -0.281508
   8 H :   -0.005646
   9 H :   -0.003480
  10 H :   -0.003545

  Mayer bond orders larger than 0.100000
B(  0-C ,  1-C ) :   1.3275 B(  0-C ,  8-H ) :   0.8469 B(  0-C ,  9-H ) :   0.7865
B(  0-C , 10-H ) :   0.8391 B(  1-C ,  2-H ) :   0.9810 B(  1-C ,  3-H ) :   0.9787
B(  1-C ,  4-S ) :   1.0043 B(  1-C ,  8-H ) :   0.1790 B(  1-C ,  9-H ) :   0.1765
B(  1-C , 10-H ) :   0.1661 B(  4-S ,  5-O ) :   1.5232 B(  4-S ,  6-O ) :   1.4972
B(  4-S ,  7-F ) :   0.5832

Dispersion correction           -0.007854096
FINAL SINGLE POINT ENERGY      -726.812955838848

DIPOLE MOMENT
-------------
                                X             Y             Z
Electronic contribution:      3.76616      -7.55643      -3.90229
Nuclear contribution   :     -3.60260       8.53062       5.21025
                        -----------------------------------------
Total Dipole Moment    :      0.16355       0.97419       1.30796
                        -----------------------------------------
Magnitude (a.u.)       :      1.63907
Magnitude (Debye)      :      4.16618

Rotational constants in cm-1:     0.154011     0.080858     0.079602
Rotational constants in MHz :  4617.134198  2424.070332  2386.404775

                             ****ORCA TERMINATED NORMALLY****
TOTAL RUN TIME: 0 days 0 hours 0 minutes 15 seconds 732 msec
