                         Program Version 5.0.0 -  RELEASE  -
|  1> !PBE0 D3BJ RIJCOSX def2-SVPD def2/J TightSCF
|  2> *xyz 0 1
|  3> C          1.96337       -1.74915       -1.89689
|  4> N          2.73849       -2.01517       -3.09711
|  5> C          4.04974       -2.15472       -3.15204
|  6> N          4.65821       -1.98629       -4.31866
|  7> C          4.76423       -2.45444       -2.05049
|  8> H          4.28736       -2.77626       -1.21750
|  9> H          5.75082       -2.65835       -2.12599
| 10> H          2.34518       -1.69027       -3.97145
| 11> H          4.10900       -1.59268       -5.07176
| 12> H          5.64910       -2.15646       -4.42724
| 13> C          2.08852       -0.30091       -1.41520
| 14> H          2.23127       -2.45162       -1.10264
| 15> H          0.93025       -1.97780       -2.15544
| 16> H          1.82118        0.36368       -2.21003
| 17> H          3.09792       -0.11068       -1.11551
| 18> H          1.43391       -0.14382       -0.58352
| 19> *
| 20> %MaxCore 64000
| 21>
| 22> %pal nprocs 4
| 23> end
| 24>
| 25> %scf
| 26>   MaxIter 150
| 27> end
| 28>
| 29>
| 30>                          ****END OF INPUT****

CARTESIAN COORDINATES (ANGSTROEM)
---------------------------------
  C      1.963370   -1.749150   -1.896890
  N      2.738490   -2.015170   -3.097110
  C      4.049740   -2.154720   -3.152040
  N      4.658210   -1.986290   -4.318660
  C      4.764230   -2.454440   -2.050490
  H      4.287360   -2.776260   -1.217500
  H      5.750820   -2.658350   -2.125990
  H      2.345180   -1.690270   -3.971450
  H      4.109000   -1.592680   -5.071760
  H      5.649100   -2.156460   -4.427240
  C      2.088520   -0.300910   -1.415200
  H      2.231270   -2.451620   -1.102640
  H      0.930250   -1.977800   -2.155440
  H      1.821180    0.363680   -2.210030
  H      3.097920   -0.110680   -1.115510
  H      1.433910   -0.143820   -0.583520

 Total Charge           Charge          ....    0
 Multiplicity           Mult            ....    1
 Number of Electrons    NEL             ....   48
 Basis Dimension        Dim             ....  200

ORBITAL ENERGIES
----------------

  NO   OCC          E(Eh)            E(eV)
   0   2.0000     -14.400655      -391.8618
   1   2.0000     -14.398425      -391.8011
   2   2.0000     -10.277833      -279.6740
   3   2.0000     -10.266738      -279.3721
   4   2.0000     -10.214528      -277.9514
   5   2.0000     -10.144842      -276.0552
   6   2.0000      -0.993884       -27.0450
   7   2.0000      -0.904848       -24.6222
   8   2.0000      -0.770399       -20.9636
   9   2.0000      -0.722869       -19.6703
  10   2.0000      -0.658404       -17.9161
  11   2.0000      -0.577135       -15.7047
  12   2.0000      -0.564584       -15.3631
  13   2.0000      -0.539904       -14.6915
  14   2.0000      -0.483492       -13.1565
  15   2.0000      -0.453317       -12.3354
  16   2.0000      -0.432782       -11.7766
  17   2.0000      -0.412051       -11.2125
  18   2.0000      -0.393514       -10.7081
  19   2.0000      -0.380745       -10.3606
  20   2.0000      -0.376009       -10.2317
  21   2.0000      -0.358564        -9.7570
  22   2.0000      -0.264301        -7.1920
  23   2.0000      -0.174927        -4.7600
  24   0.0000       0.019070         0.5189
  25   0.0000       0.044288         1.2051
  26   0.0000       0.056160         1.5282
  27   0.0000       0.059620         1.6223
  28   0.0000       0.086629         2.3573

MULLIKEN ATOMIC CHARGES
-----------------------
   0 C :    0.208807
   1 N :   -0.480398
   2 C :    0.861639
   3 N :   -0.121234
   4 C :    0.237323
   5 H :   -0.031391
   6 H :   -0.476109
   7 H :   -0.288930
   8 H :   -0.113003
   9 H :   -0.071126
  10 C :    0.516560
  11 H :    0.057848
  12 H :   -0.265520
  13 H :   -0.026002
  14 H :   -0.024560
  15 H :    0.016096
Sum of atomic charges:    0.0000000

LOEWDIN ATOMIC CHARGES
----------------------
   0 C :    0.017801
   1 N :   -0.031892
   2 C :   -0.239960
   3 N :    0.178476
   4 C :    0.154817
   5 H :   -0.109978
   6 H :   -0.103918
   7 H :    0.018571
   8 H :   -0.008326
   9 H :    0.013587
  10 C :    0.133570
  11 H :    0.019309
  12 H :    0.019268
  13 H :   -0.020471
  14 H :   -0.022009
  15 H :   -0.018845

  Mayer bond orders larger than 0.100000
B(  0-C ,  1-N ) :   0.8424 B(  0-C ,  4-C ) :   0.1003 B(  0-C ,  7-H ) :  -0.1210
B(  0-C , 10-C ) :   1.2178 B(  0-C , 11-H ) :   0.8937 B(  0-C , 12-H ) :   0.9553
B(  0-C , 13-H ) :   0.1956 B(  0-C , 14-H ) :   0.1728 B(  0-C , 15-H ) :   0.1548
B(  1-N ,  2-C ) :   0.8546 B(  1-N ,  3-N ) :   0.2144 B(  1-N ,  4-C ) :   0.3276
B(  1-N ,  7-H ) :   1.3090 B(  1-N , 12-H ) :   0.1721 B(  2-C ,  3-N ) :   0.7817
B(  2-C ,  4-C ) :   1.6895 B(  2-C ,  5-H ) :   0.2425 B(  2-C ,  6-H ) :   0.1261
B(  2-C ,  7-H ) :  -0.2248 B(  3-N ,  4-C ) :   0.2143 B(  3-N ,  8-H ) :   1.1905
B(  3-N ,  9-H ) :   1.2335 B(  4-C ,  5-H ) :   0.6602 B(  4-C ,  6-H ) :   0.9974
B(  8-H ,  9-H ) :  -0.1625 B( 10-C , 13-H ) :   0.8474 B( 10-C , 14-H ) :   0.8792
B( 10-C , 15-H ) :   0.8382

Dispersion correction           -0.010869444
FINAL SINGLE POINT ENERGY      -267.424558820060

DIPOLE MOMENT
-------------
                                X             Y             Z
Electronic contribution:      1.34444      -1.83171      -3.42722
Nuclear contribution   :     -1.88803       2.22658       2.57497
                        -----------------------------------------
Total Dipole Moment    :     -0.54359       0.39487      -0.85225
                        -----------------------------------------
Magnitude (a.u.)       :      1.08524
Magnitude (Debye)      :      2.75845

Rotational constants in cm-1:     0.226509     0.075782     0.067928
Rotational constants in MHz :  6790.555051  2271.890226  2036.439218

                             ****ORCA TERMINATED NORMALLY****
TOTAL RUN TIME: 0 days 0 hours 0 minutes 21 seconds 13 msec
