                         Program Version 5.0.0 -  RELEASE  -
|  1> !PBE0 D3BJ RIJCOSX def2-SVPD def2/J TightSCF xyzfile
|  2>
|  3> *xyzfile 0 1 D1.xyz
|  4>
|  5> %MaxCore 64000
|  6>
|  7> %pal nprocs 4
|  8> end
|  9>
| 10> %scf
| 11>   MaxIter 150
| 12> end
| 13>
| 14>
| 15>                          ****END OF INPUT****

CARTESIAN COORDINATES (ANGSTROEM)
---------------------------------
  C      1.963365   -1.749150   -1.896887
  C      2.738490   -2.015170   -3.097113
  C      0.611877    1.657634   -4.500288
  C      1.694991    1.541794   -5.570447
  H      2.697326    1.734659   -5.183996
  H      1.506656    2.272239   -6.358076
  S      1.780287   -0.033128   -6.428739
  C      4.049736   -2.154717   -3.152044
  N      4.658206   -1.986293   -4.318655
  N      4.764231   -2.454435   -2.050491
  H      4.287363   -2.776259   -1.217496
  H      5.750825   -2.658351   -2.125988
  H      2.345176   -1.690274   -3.971447
  H      4.109004   -1.592677   -5.071760
  H      5.649095   -2.156462   -4.427237
  F      2.569287    0.213657   -7.607360
  O      0.416880   -0.462969   -6.618595
  C      2.088520   -0.300912   -1.415204
  H      2.231272   -2.451616   -1.102643
  H      0.930249   -1.977801   -2.155438
  C      0.680356    0.655418   -3.348038
  H     -0.356865    1.549231   -4.991128
  H      0.650228    2.675438   -4.096000
  C      1.968993    0.733582   -2.535654
  H      3.051356   -0.168602   -0.911868
  H      1.316501   -0.136231   -0.657252
  O      2.505129   -0.933263   -5.482570
  H      2.824195    0.624726   -3.208464
  H      2.058919    1.730331   -2.093112
  H      0.542252   -0.344731   -3.766662
  H     -0.174219    0.829692   -2.685182

 Total Charge           Charge          ....    0
 Multiplicity           Mult            ....    1
 Number of Electrons    NEL             ....  120
 Basis Dimension        Dim             ....  432

ORBITAL ENERGIES
----------------

  NO   OCC          E(Eh)            E(eV)
   0   2.0000     -89.307922     -2430.1921
   1   2.0000     -24.914199      -677.9498
   2   2.0000     -19.243328      -523.6376
   3   2.0000     -19.230579      -523.2907
   4   2.0000     -14.380794      -391.3213
   5   2.0000     -14.365496      -390.9050
   6   2.0000     -10.300185      -280.2823
   7   2.0000     -10.259954      -279.1875
   8   2.0000     -10.252519      -278.9852
   9   2.0000     -10.227865      -278.3144
  10   2.0000     -10.216342      -278.0008
  11   2.0000     -10.205763      -277.7129
  12   2.0000     -10.194171      -277.3975
  13   2.0000     -10.122615      -275.4504
  14   2.0000      -8.267367      -224.9665
  15   2.0000      -6.213671      -169.0826
  16   2.0000      -6.207475      -168.9140
  17   2.0000      -6.205911      -168.8714
  18   2.0000      -1.420894       -38.6645
  19   2.0000      -1.147093       -31.2140
  20   2.0000      -1.042949       -28.3801
  21   2.0000      -0.956788       -26.0355
  22   2.0000      -0.866219       -23.5710
  23   2.0000      -0.857039       -23.3212
  24   2.0000      -0.810686       -22.0599
  25   2.0000      -0.775819       -21.1111
  26   2.0000      -0.745549       -20.2874
  27   2.0000      -0.709854       -19.3161
  28   2.0000      -0.670186       -18.2367
  29   2.0000      -0.637789       -17.3551
  30   2.0000      -0.624731       -16.9998
  31   2.0000      -0.606303       -16.4983
  32   2.0000      -0.605101       -16.4656
  33   2.0000      -0.568392       -15.4667
  34   2.0000      -0.564430       -15.3589
  35   2.0000      -0.541554       -14.7364
  36   2.0000      -0.517265       -14.0755
  37   2.0000      -0.510125       -13.8812
  38   2.0000      -0.500940       -13.6313
  39   2.0000      -0.484946       -13.1961
  40   2.0000      -0.480591       -13.0776
  41   2.0000      -0.460041       -12.5184
  42   2.0000      -0.449175       -12.2227
  43   2.0000      -0.440725       -11.9927
  44   2.0000      -0.428677       -11.6649
  45   2.0000      -0.415920       -11.3178
  46   2.0000      -0.398535       -10.8447
  47   2.0000      -0.392540       -10.6816
  48   2.0000      -0.382823       -10.4171
  49   2.0000      -0.374772       -10.1981
  50   2.0000      -0.364691        -9.9238
  51   2.0000      -0.349273        -9.5042
  52   2.0000      -0.343688        -9.3522
  53   2.0000      -0.338103        -9.2003
  54   2.0000      -0.335217        -9.1217
  55   2.0000      -0.324390        -8.8271
  56   2.0000      -0.310289        -8.4434
  57   2.0000      -0.297215        -8.0876
  58   2.0000      -0.256878        -6.9900
  59   2.0000      -0.148315        -4.0359
  60   0.0000      -0.001705        -0.0464
  61   0.0000       0.018433         0.5016
  62   0.0000       0.028707         0.7811
  63   0.0000       0.035513         0.9664
  64   0.0000       0.045908         1.2492

MULLIKEN ATOMIC CHARGES
-----------------------
   0 C :    0.147758
   1 C :   -0.163215
   2 C :    0.273304
   3 C :   -0.079071
   4 H :    0.204309
   5 H :    0.008910
   6 S :    1.749177
   7 C :    0.965856
   8 N :   -0.033901
   9 N :   -0.184058
  10 H :   -0.014496
  11 H :   -0.250606
  12 H :   -0.162154
  13 H :   -0.107142
  14 H :   -0.258458
  15 F :   -0.496884
  16 O :   -0.737073
  17 C :    0.434968
  18 H :   -0.282038
  19 H :    0.173462
  20 C :   -0.142071
  21 H :    0.070830
  22 H :    0.018463
  23 C :   -0.274644
  24 H :    0.039056
  25 H :    0.084440
  26 O :   -0.844841
  27 H :    0.127096
  28 H :   -0.150656
  29 H :    0.010646
  30 H :   -0.126971
Sum of atomic charges:   -0.0000000

LOEWDIN ATOMIC CHARGES
----------------------
   0 C :   -0.051877
   1 C :   -0.028136
   2 C :   -0.023826
   3 C :   -0.048515
   4 H :    0.023775
   5 H :    0.019912
   6 S :    1.197418
   7 C :   -0.194148
   8 N :    0.195173
   9 N :    0.191347
  10 H :   -0.010417
  11 H :   -0.015634
  12 H :   -0.125285
  13 H :   -0.077887
  14 H :   -0.009235
  15 F :   -0.248963
  16 O :   -0.441266
  17 C :   -0.025163
  18 H :    0.001434
  19 H :    0.012063
  20 C :   -0.019988
  21 H :    0.030791
  22 H :    0.039599
  23 C :   -0.032361
  24 H :    0.018901
  25 H :    0.015809
  26 O :   -0.478275
  27 H :    0.010985
  28 H :    0.022749
  29 H :    0.015151
  30 H :    0.035870

  Mayer bond orders larger than 0.100000
B(  0-C ,  1-C ) :   1.1075 B(  0-C , 12-H ) :   0.3656 B(  0-C , 17-C ) :   1.1346
B(  0-C , 18-H ) :   0.9075 B(  0-C , 19-H ) :   0.6904 B(  0-C , 23-C ) :   0.1004
B(  0-C , 24-H ) :   0.1267 B(  0-C , 25-H ) :   0.1699 B(  1-C ,  7-C ) :   1.7879
B(  1-C ,  8-N ) :   0.2494 B(  1-C ,  9-N ) :   0.2481 B(  1-C , 12-H ) :   0.2751
B(  1-C , 18-H ) :   0.2133 B(  1-C , 19-H ) :   0.2407 B(  2-C ,  3-C ) :   1.3350
B(  2-C ,  4-H ) :   0.1021 B(  2-C ,  5-H ) :   0.1844 B(  2-C , 20-C ) :   1.2691
B(  2-C , 21-H ) :   0.7094 B(  2-C , 22-H ) :   0.8090 B(  3-C ,  4-H ) :   0.8553
B(  3-C ,  5-H ) :   0.8256 B(  3-C ,  6-S ) :   1.0625 B(  3-C , 21-H ) :   0.1117
B(  3-C , 22-H ) :   0.1108 B(  6-S , 15-F ) :   0.5381 B(  6-S , 16-O ) :   1.4141
B(  6-S , 26-O ) :   1.2502 B(  7-C ,  8-N ) :   0.6678 B(  7-C ,  9-N ) :   0.7526
B(  7-C , 11-H ) :  -0.2063 B(  7-C , 12-H ) :   0.4320 B(  7-C , 13-H ) :  -0.1092
B(  7-C , 14-H ) :  -0.2798 B(  8-N ,  9-N ) :   0.1154 B(  8-N , 13-H ) :   1.1434
B(  8-N , 14-H ) :   1.4218 B(  9-N , 10-H ) :   1.0628 B(  9-N , 11-H ) :   1.3982
B( 10-H , 11-H ) :  -0.2082 B( 12-H , 28-H ) :  -0.1115 B( 13-H , 14-H ) :  -0.2035
B( 13-H , 26-O ) :   0.1370 B( 16-O , 26-O ) :   0.1517 B( 17-C , 23-C ) :   1.2637
B( 17-C , 24-H ) :   0.7718 B( 17-C , 25-H ) :   0.7135 B( 20-C , 21-H ) :   0.2353
B( 20-C , 22-H ) :   0.1009 B( 20-C , 23-C ) :   1.2009 B( 20-C , 28-H ) :   0.1566
B( 20-C , 29-H ) :   0.9448 B( 20-C , 30-H ) :   0.8875 B( 23-C , 24-H ) :   0.2135
B( 23-C , 25-H ) :   0.1441 B( 23-C , 27-H ) :   0.9054 B( 23-C , 28-H ) :   0.9280
B( 23-C , 30-H ) :   0.1496

Dispersion correction           -0.033191757
FINAL SINGLE POINT ENERGY     -1071.511763054811

DIPOLE MOMENT
-------------
                                X             Y             Z
Electronic contribution:      0.73053      -0.97652     -23.49958
Nuclear contribution   :      0.18720       2.58739      22.98820
                        -----------------------------------------
Total Dipole Moment    :      0.91773       1.61088      -0.51138
                        -----------------------------------------
Magnitude (a.u.)       :      1.92319
Magnitude (Debye)      :      4.88836

Rotational constants in cm-1:     0.028798     0.014448     0.010940
Rotational constants in MHz :   863.355869   433.126694   327.985023

                             ****ORCA TERMINATED NORMALLY****
TOTAL RUN TIME: 0 days 0 hours 2 minutes 54 seconds 63 msec
