                         Program Version 5.0.0 -  RELEASE  -
|  1> !PBE0 D3BJ RIJCOSX def2-SVPD def2/J TightSCF xyzfile
|  2>
|  3> *xyzfile 0 1 D4.xyz
|  4>
|  5> %MaxCore 64000
|  6>
|  7> %pal nprocs 4
|  8> end
|  9>
| 10> %scf
| 11>   MaxIter 150
| 12> end
| 13>
| 14>
| 15>                          ****END OF INPUT****

CARTESIAN COORDINATES (ANGSTROEM)
---------------------------------
  C      1.963365   -1.749150   -1.896887
  C      2.738490   -2.015170   -3.097113
  C      0.611877    1.657634   -4.500288
  C      1.694991    1.541794   -5.570447
  H      2.697326    1.734659   -5.183996
  H      1.506656    2.272239   -6.358076
  S      1.780287   -0.033128   -6.428739
  C      4.049736   -2.154717   -3.152044
  N      4.658206   -1.986293   -4.318655
  N      4.764231   -2.454435   -2.050491
  H      4.287363   -2.776259   -1.217496
  H      5.750825   -2.658351   -2.125988
  H      2.345176   -1.690274   -3.971447
  H      4.109004   -1.592677   -5.071760
  H      5.649095   -2.156462   -4.427237
  O      2.569287    0.213657   -7.607360
  F      0.416880   -0.462969   -6.618595
  C      2.088520   -0.300912   -1.415204
  H      2.231272   -2.451616   -1.102643
  H      0.930249   -1.977801   -2.155438
  C      0.680356    0.655418   -3.348038
  H     -0.356865    1.549231   -4.991128
  H      0.650228    2.675438   -4.096000
  C      1.968993    0.733582   -2.535654
  H      3.051356   -0.168602   -0.911868
  H      1.316501   -0.136231   -0.657252
  O      2.505129   -0.933263   -5.482570
  H      2.824195    0.624726   -3.208464
  H      2.058919    1.730331   -2.093112
  H      0.542252   -0.344731   -3.766662
  H     -0.174219    0.829692   -2.685182

 Total Charge           Charge          ....    0
 Multiplicity           Mult            ....    1
 Number of Electrons    NEL             ....  120
 Basis Dimension        Dim             ....  432

ORBITAL ENERGIES
----------------

  NO   OCC          E(Eh)            E(eV)
   0   2.0000     -89.308773     -2430.2153
   1   2.0000     -24.914236      -677.9508
   2   2.0000     -19.242783      -523.6227
   3   2.0000     -19.228657      -523.2384
   4   2.0000     -14.381261      -391.3340
   5   2.0000     -14.364932      -390.8897
   6   2.0000     -10.300189      -280.2824
   7   2.0000     -10.264677      -279.3161
   8   2.0000     -10.253130      -279.0019
   9   2.0000     -10.236265      -278.5429
  10   2.0000     -10.220681      -278.1189
  11   2.0000     -10.208744      -277.7940
  12   2.0000     -10.196779      -277.4685
  13   2.0000     -10.122268      -275.4409
  14   2.0000      -8.268030      -224.9845
  15   2.0000      -6.214369      -169.1016
  16   2.0000      -6.208249      -168.9350
  17   2.0000      -6.206456      -168.8863
  18   2.0000      -1.419242       -38.6195
  19   2.0000      -1.148235       -31.2451
  20   2.0000      -1.042323       -28.3631
  21   2.0000      -0.956808       -26.0361
  22   2.0000      -0.866477       -23.5780
  23   2.0000      -0.861743       -23.4492
  24   2.0000      -0.812460       -22.1082
  25   2.0000      -0.774339       -21.0708
  26   2.0000      -0.747593       -20.3430
  27   2.0000      -0.713764       -19.4225
  28   2.0000      -0.671264       -18.2660
  29   2.0000      -0.641123       -17.4458
  30   2.0000      -0.623971       -16.9791
  31   2.0000      -0.617429       -16.8011
  32   2.0000      -0.602161       -16.3856
  33   2.0000      -0.569141       -15.4871
  34   2.0000      -0.563285       -15.3278
  35   2.0000      -0.539837       -14.6897
  36   2.0000      -0.514640       -14.0041
  37   2.0000      -0.512040       -13.9333
  38   2.0000      -0.494975       -13.4689
  39   2.0000      -0.491532       -13.3753
  40   2.0000      -0.485263       -13.2047
  41   2.0000      -0.461507       -12.5582
  42   2.0000      -0.452801       -12.3213
  43   2.0000      -0.446938       -12.1618
  44   2.0000      -0.434326       -11.8186
  45   2.0000      -0.411498       -11.1974
  46   2.0000      -0.401688       -10.9305
  47   2.0000      -0.395172       -10.7532
  48   2.0000      -0.387198       -10.5362
  49   2.0000      -0.378733       -10.3059
  50   2.0000      -0.367030        -9.9874
  51   2.0000      -0.354634        -9.6501
  52   2.0000      -0.351137        -9.5549
  53   2.0000      -0.343727        -9.3533
  54   2.0000      -0.332088        -9.0366
  55   2.0000      -0.327368        -8.9081
  56   2.0000      -0.313557        -8.5323
  57   2.0000      -0.292934        -7.9711
  58   2.0000      -0.256725        -6.9859
  59   2.0000      -0.148875        -4.0511
  60   0.0000      -0.005450        -0.1483
  61   0.0000       0.025770         0.7012
  62   0.0000       0.028011         0.7622
  63   0.0000       0.033469         0.9107
  64   0.0000       0.041930         1.1410

MULLIKEN ATOMIC CHARGES
-----------------------
   0 C :    0.153824
   1 C :   -0.192264
   2 C :    0.314946
   3 C :   -0.057231
   4 H :    0.174763
   5 H :    0.002844
   6 S :    1.665707
   7 C :    0.965218
   8 N :   -0.030756
   9 N :   -0.181563
  10 H :   -0.013088
  11 H :   -0.251144
  12 H :   -0.133230
  13 H :   -0.103658
  14 H :   -0.257076
  15 O :   -0.720119
  16 F :   -0.480926
  17 C :    0.435542
  18 H :   -0.276602
  19 H :    0.161728
  20 C :   -0.113275
  21 H :    0.049247
  22 H :    0.011510
  23 C :   -0.290376
  24 H :    0.039481
  25 H :    0.086328
  26 O :   -0.830862
  27 H :    0.136421
  28 H :   -0.148289
  29 H :    0.012557
  30 H :   -0.129657
Sum of atomic charges:    0.0000000

LOEWDIN ATOMIC CHARGES
----------------------
   0 C :   -0.053961
   1 C :   -0.032857
   2 C :   -0.039667
   3 C :   -0.035539
   4 H :    0.036201
   5 H :    0.023962
   6 S :    1.193609
   7 C :   -0.193711
   8 N :    0.199528
   9 N :    0.191583
  10 H :   -0.010624
  11 H :   -0.014952
  12 H :   -0.131362
  13 H :   -0.070454
  14 H :   -0.006822
  15 O :   -0.448612
  16 F :   -0.240289
  17 C :   -0.024909
  18 H :    0.001275
  19 H :    0.009672
  20 C :   -0.026128
  21 H :    0.025191
  22 H :    0.037671
  23 C :   -0.029814
  24 H :    0.019844
  25 H :    0.015610
  26 O :   -0.476548
  27 H :    0.012918
  28 H :    0.024212
  29 H :    0.009695
  30 H :    0.035279

  Mayer bond orders larger than 0.100000
B(  0-C ,  1-C ) :   1.0994 B(  0-C , 12-H ) :   0.3659 B(  0-C , 17-C ) :   1.1338
B(  0-C , 18-H ) :   0.9046 B(  0-C , 19-H ) :   0.6931 B(  0-C , 24-H ) :   0.1272
B(  0-C , 25-H ) :   0.1719 B(  1-C ,  7-C ) :   1.7931 B(  1-C ,  8-N ) :   0.2510
B(  1-C ,  9-N ) :   0.2465 B(  1-C , 10-H ) :  -0.1004 B(  1-C , 12-H ) :   0.2899
B(  1-C , 18-H ) :   0.2104 B(  1-C , 19-H ) :   0.2463 B(  2-C ,  3-C ) :   1.2791
B(  2-C ,  5-H ) :   0.1649 B(  2-C , 20-C ) :   1.2664 B(  2-C , 21-H ) :   0.7076
B(  2-C , 22-H ) :   0.8112 B(  3-C ,  4-H ) :   0.8789 B(  3-C ,  5-H ) :   0.8868
B(  3-C ,  6-S ) :   1.0801 B(  3-C , 21-H ) :   0.1068 B(  3-C , 22-H ) :   0.1070
B(  6-S , 15-O ) :   1.5118 B(  6-S , 16-F ) :   0.5072 B(  6-S , 26-O ) :   1.2831
B(  7-C ,  8-N ) :   0.6661 B(  7-C ,  9-N ) :   0.7618 B(  7-C , 11-H ) :  -0.2057
B(  7-C , 12-H ) :   0.4356 B(  7-C , 13-H ) :  -0.1110 B(  7-C , 14-H ) :  -0.2827
B(  8-N ,  9-N ) :   0.1154 B(  8-N , 12-H ) :   0.1011 B(  8-N , 13-H ) :   1.1440
B(  8-N , 14-H ) :   1.4222 B(  9-N , 10-H ) :   1.0595 B(  9-N , 11-H ) :   1.3986
B( 10-H , 11-H ) :  -0.2080 B( 12-H , 23-C ) :   0.1005 B( 12-H , 28-H ) :  -0.1168
B( 13-H , 14-H ) :  -0.2052 B( 13-H , 26-O ) :   0.1228 B( 16-F , 26-O ) :   0.1525
B( 17-C , 23-C ) :   1.2650 B( 17-C , 24-H ) :   0.7714 B( 17-C , 25-H ) :   0.7125
B( 20-C , 21-H ) :   0.2326 B( 20-C , 23-C ) :   1.2137 B( 20-C , 28-H ) :   0.1533
B( 20-C , 29-H ) :   0.9284 B( 20-C , 30-H ) :   0.8895 B( 23-C , 24-H ) :   0.2113
B( 23-C , 25-H ) :   0.1437 B( 23-C , 27-H ) :   0.8974 B( 23-C , 28-H ) :   0.9314
B( 23-C , 29-H ) :   0.1030 B( 23-C , 30-H ) :   0.1472

Dispersion correction           -0.033091169
FINAL SINGLE POINT ENERGY     -1071.511344801624

DIPOLE MOMENT
-------------
                                X             Y             Z
Electronic contribution:     -2.99760      -2.13800     -21.71861
Nuclear contribution   :      2.64598       3.36033      21.85869
                        -----------------------------------------
Total Dipole Moment    :     -0.35162       1.22233       0.14008
                        -----------------------------------------
Magnitude (a.u.)       :      1.27959
Magnitude (Debye)      :      3.25247

Rotational constants in cm-1:     0.028973     0.014435     0.011026
Rotational constants in MHz :   868.588266   432.748309   330.548534

                             ****ORCA TERMINATED NORMALLY****
TOTAL RUN TIME: 0 days 0 hours 2 minutes 50 seconds 926 msec
