                         Program Version 5.0.0 -  RELEASE  -
|  1> !PBE0 D3BJ RIJCOSX def2-SVPD def2/J TightSCF xyzfile
|  2>
|  3> *xyzfile 0 1 D6.xyz
|  4>
|  5> %MaxCore 64000
|  6>
|  7> %pal nprocs 4
|  8> end
|  9>
| 10> %scf
| 11>   MaxIter 150
| 12> end
| 13>
| 14>
| 15>                          ****END OF INPUT****

CARTESIAN COORDINATES (ANGSTROEM)
---------------------------------
  C      1.963365   -1.749150   -1.896887
  N      2.738490   -2.015170   -3.097113
  C      0.611877    1.657634   -4.500288
  C      1.694991    1.541794   -5.570447
  H      2.697326    1.734659   -5.183996
  H      1.506656    2.272239   -6.358076
  S      1.780287   -0.033128   -6.428739
  C      4.049736   -2.154717   -3.152044
  N      4.658206   -1.986293   -4.318655
  C      4.764231   -2.454435   -2.050491
  H      4.287363   -2.776259   -1.217496
  H      5.750825   -2.658351   -2.125988
  H      2.345176   -1.690274   -3.971447
  H      4.109004   -1.592677   -5.071760
  H      5.649095   -2.156462   -4.427237
  O      2.569287    0.213657   -7.607360
  F      0.416880   -0.462969   -6.618595
  C      2.088520   -0.300912   -1.415204
  H      2.231272   -2.451616   -1.102643
  H      0.930249   -1.977801   -2.155438
  C      0.680356    0.655418   -3.348038
  H     -0.356865    1.549231   -4.991128
  H      0.650228    2.675438   -4.096000
  C      1.968993    0.733582   -2.535654
  H      3.051356   -0.168602   -0.911868
  H      1.316501   -0.136231   -0.657252
  O      2.505129   -0.933263   -5.482570
  H      2.824195    0.624726   -3.208464
  H      2.058919    1.730331   -2.093112
  H      0.542252   -0.344731   -3.766662
  H     -0.174219    0.829692   -2.685182

 Total Charge           Charge          ....    0
 Multiplicity           Mult            ....    1
 Number of Electrons    NEL             ....  120
 Basis Dimension        Dim             ....  432

ORBITAL ENERGIES
----------------

  NO   OCC          E(Eh)            E(eV)
   0   2.0000     -89.327049     -2430.7126
   1   2.0000     -24.929828      -678.3751
   2   2.0000     -19.259095      -524.0666
   3   2.0000     -19.251376      -523.8566
   4   2.0000     -14.365980      -390.9182
   5   2.0000     -14.363778      -390.8583
   6   2.0000     -10.314202      -280.6637
   7   2.0000     -10.278527      -279.6930
   8   2.0000     -10.254158      -279.0298
   9   2.0000     -10.253178      -279.0032
  10   2.0000     -10.252338      -278.9803
  11   2.0000     -10.236901      -278.5602
  12   2.0000     -10.223895      -278.2063
  13   2.0000     -10.123084      -275.4631
  14   2.0000      -8.286177      -225.4783
  15   2.0000      -6.232535      -169.5959
  16   2.0000      -6.226481      -169.4312
  17   2.0000      -6.224564      -169.3790
  18   2.0000      -1.435021       -39.0489
  19   2.0000      -1.165983       -31.7280
  20   2.0000      -1.062481       -28.9116
  21   2.0000      -0.966621       -26.3031
  22   2.0000      -0.882293       -24.0084
  23   2.0000      -0.874464       -23.7954
  24   2.0000      -0.818239       -22.2654
  25   2.0000      -0.780661       -21.2429
  26   2.0000      -0.749828       -20.4038
  27   2.0000      -0.708471       -19.2785
  28   2.0000      -0.697177       -18.9712
  29   2.0000      -0.660705       -17.9787
  30   2.0000      -0.637273       -17.3411
  31   2.0000      -0.635137       -17.2830
  32   2.0000      -0.605872       -16.4866
  33   2.0000      -0.591081       -16.0841
  34   2.0000      -0.552773       -15.0417
  35   2.0000      -0.541858       -14.7447
  36   2.0000      -0.528098       -14.3703
  37   2.0000      -0.525968       -14.3123
  38   2.0000      -0.514839       -14.0095
  39   2.0000      -0.504564       -13.7299
  40   2.0000      -0.483838       -13.1659
  41   2.0000      -0.474567       -12.9136
  42   2.0000      -0.458274       -12.4703
  43   2.0000      -0.448631       -12.2079
  44   2.0000      -0.442720       -12.0470
  45   2.0000      -0.426929       -11.6173
  46   2.0000      -0.409975       -11.1560
  47   2.0000      -0.407518       -11.0891
  48   2.0000      -0.390189       -10.6176
  49   2.0000      -0.383580       -10.4378
  50   2.0000      -0.376308       -10.2399
  51   2.0000      -0.374343       -10.1864
  52   2.0000      -0.362536        -9.8651
  53   2.0000      -0.356008        -9.6875
  54   2.0000      -0.348818        -9.4918
  55   2.0000      -0.344993        -9.3877
  56   2.0000      -0.342597        -9.3225
  57   2.0000      -0.330651        -8.9975
  58   2.0000      -0.237406        -6.4602
  59   2.0000      -0.152599        -4.1524
  60   0.0000      -0.017740        -0.4827
  61   0.0000       0.014660         0.3989
  62   0.0000       0.019523         0.5312
  63   0.0000       0.029878         0.8130
  64   0.0000       0.031528         0.8579

MULLIKEN ATOMIC CHARGES
-----------------------
   0 C :    0.841837
   1 N :   -0.079314
   2 C :    0.317164
   3 C :   -0.054653
   4 H :    0.182508
   5 H :    0.003724
   6 S :    1.671216
   7 C :    0.868163
   8 N :    0.195064
   9 C :    0.301228
  10 H :    0.046576
  11 H :   -0.583710
  12 H :   -0.719746
  13 H :   -0.236868
  14 H :   -0.223960
  15 O :   -0.704765
  16 F :   -0.477527
  17 C :    0.299693
  18 H :   -0.226770
  19 H :   -0.125133
  20 C :   -0.116278
  21 H :    0.060327
  22 H :    0.016363
  23 C :   -0.158719
  24 H :   -0.031306
  25 H :    0.024859
  26 O :   -0.887803
  27 H :    0.152421
  28 H :   -0.243588
  29 H :    0.019155
  30 H :   -0.130160
Sum of atomic charges:   -0.0000000

LOEWDIN ATOMIC CHARGES
----------------------
   0 C :    0.065574
   1 N :   -0.000392
   2 C :   -0.037358
   3 C :   -0.032824
   4 H :    0.037951
   5 H :    0.026521
   6 S :    1.197895
   7 C :   -0.222169
   8 N :    0.204516
   9 C :    0.146298
  10 H :   -0.117408
  11 H :   -0.109874
  12 H :   -0.086850
  13 H :   -0.083389
  14 H :    0.011626
  15 O :   -0.437187
  16 F :   -0.237927
  17 C :   -0.012432
  18 H :    0.016505
  19 H :    0.016042
  20 C :   -0.031275
  21 H :    0.026645
  22 H :    0.040267
  23 C :   -0.028873
  24 H :    0.021066
  25 H :    0.021387
  26 O :   -0.475998
  27 H :    0.012777
  28 H :    0.027527
  29 H :    0.004447
  30 H :    0.036913

  Mayer bond orders larger than 0.100000
B(  0-C ,  1-N ) :   0.8721 B(  0-C , 12-H ) :  -0.3483 B(  0-C , 17-C ) :   1.0584
B(  0-C , 18-H ) :   0.9411 B(  0-C , 19-H ) :   0.7624 B(  1-N ,  7-C ) :   0.8687
B(  1-N ,  8-N ) :   0.1004 B(  1-N ,  9-C ) :   0.4720 B(  1-N , 12-H ) :   1.0706
B(  1-N , 13-H ) :   0.1059 B(  1-N , 19-H ) :   0.1464 B(  1-N , 26-O ) :  -0.1038
B(  2-C ,  3-C ) :   1.2791 B(  2-C ,  5-H ) :   0.1624 B(  2-C , 20-C ) :   1.2720
B(  2-C , 21-H ) :   0.6987 B(  2-C , 22-H ) :   0.8163 B(  3-C ,  4-H ) :   0.8819
B(  3-C ,  5-H ) :   0.8886 B(  3-C ,  6-S ) :   1.0750 B(  3-C , 21-H ) :   0.1064
B(  3-C , 22-H ) :   0.1080 B(  6-S , 15-O ) :   1.5260 B(  6-S , 16-F ) :   0.5111
B(  6-S , 26-O ) :   1.2720 B(  7-C ,  8-N ) :   0.7367 B(  7-C ,  9-C ) :   1.5440
B(  7-C , 10-H ) :   0.2870 B(  7-C , 11-H ) :   0.2513 B(  7-C , 12-H ) :  -0.3452
B(  7-C , 14-H ) :  -0.2082 B(  8-N ,  9-C ) :   0.2462 B(  8-N , 13-H ) :   1.0617
B(  8-N , 14-H ) :   1.3596 B(  9-C , 10-H ) :   0.5998 B(  9-C , 11-H ) :   0.8397
B(  9-C , 12-H ) :  -0.1138 B( 10-H , 18-H ) :   0.1431 B( 12-H , 27-H ) :   0.1094
B( 13-H , 14-H ) :  -0.2029 B( 13-H , 26-O ) :   0.2047 B( 16-F , 26-O ) :   0.1612
B( 17-C , 23-C ) :   1.2832 B( 17-C , 24-H ) :   0.8313 B( 17-C , 25-H ) :   0.8477
B( 18-H , 19-H ) :  -0.1462 B( 20-C , 21-H ) :   0.2326 B( 20-C , 23-C ) :   1.1969
B( 20-C , 28-H ) :   0.1495 B( 20-C , 29-H ) :   0.9438 B( 20-C , 30-H ) :   0.8914
B( 23-C , 24-H ) :   0.1885 B( 23-C , 25-H ) :   0.1220 B( 23-C , 27-H ) :   0.8454
B( 23-C , 28-H ) :   0.9637 B( 23-C , 30-H ) :   0.1311

Dispersion correction           -0.032872227
FINAL SINGLE POINT ENERGY     -1071.517701857978

DIPOLE MOMENT
-------------
                                X             Y             Z
Electronic contribution:     -4.85417      -1.36845     -22.72081
Nuclear contribution   :      2.90585       3.30398      21.99296
                        -----------------------------------------
Total Dipole Moment    :     -1.94832       1.93553      -0.72785
                        -----------------------------------------
Magnitude (a.u.)       :      2.84113
Magnitude (Debye)      :      7.22157

Rotational constants in cm-1:     0.029065     0.014689     0.011200
Rotational constants in MHz :   871.338526   440.374927   335.770911

                             ****ORCA TERMINATED NORMALLY****
TOTAL RUN TIME: 0 days 0 hours 2 minutes 49 seconds 598 msec
