                         Program Version 5.0.0 -  RELEASE  -
|  1> !PBE0 D3BJ RIJCOSX def2-SVPD def2/J TightSCF xyzfile
|  2>
|  3> *xyzfile 0 1 D8.xyz
|  4>
|  5> %MaxCore 64000
|  6>
|  7> %pal nprocs 4
|  8> end
|  9>
| 10> %scf
| 11>   MaxIter 150
| 12> end
| 13>
| 14>
| 15>                          ****END OF INPUT****

CARTESIAN COORDINATES (ANGSTROEM)
---------------------------------
  C      1.963365   -1.749150   -1.896887
  N      2.738490   -2.015170   -3.097113
  C      0.611877    1.657634   -4.500288
  C      1.694991    1.541794   -5.570447
  H      2.697326    1.734659   -5.183996
  H      1.506656    2.272239   -6.358076
  S      1.780287   -0.033128   -6.428739
  C      4.049736   -2.154717   -3.152044
  C      4.658206   -1.986293   -4.318655
  N      4.764231   -2.454435   -2.050491
  H      4.287363   -2.776259   -1.217496
  H      5.750825   -2.658351   -2.125988
  H      2.345176   -1.690274   -3.971447
  H      4.109004   -1.592677   -5.071760
  H      5.649095   -2.156462   -4.427237
  O      2.569287    0.213657   -7.607360
  O      0.416880   -0.462969   -6.618595
  C      2.088520   -0.300912   -1.415204
  H      2.231272   -2.451616   -1.102643
  H      0.930249   -1.977801   -2.155438
  C      0.680356    0.655418   -3.348038
  H     -0.356865    1.549231   -4.991128
  H      0.650228    2.675438   -4.096000
  C      1.968993    0.733582   -2.535654
  H      3.051356   -0.168602   -0.911868
  H      1.316501   -0.136231   -0.657252
  F      2.505129   -0.933263   -5.482570
  H      2.824195    0.624726   -3.208464
  H      2.058919    1.730331   -2.093112
  H      0.542252   -0.344731   -3.766662
  H     -0.174219    0.829692   -2.685182

 Total Charge           Charge          ....    0
 Multiplicity           Mult            ....    1
 Number of Electrons    NEL             ....  120
 Basis Dimension        Dim             ....  432

ORBITAL ENERGIES
----------------

  NO   OCC          E(Eh)            E(eV)
   0   2.0000     -89.300038     -2429.9776
   1   2.0000     -24.890900      -677.3158
   2   2.0000     -19.238656      -523.5104
   3   2.0000     -19.236871      -523.4619
   4   2.0000     -14.397540      -391.7770
   5   2.0000     -14.393585      -391.6694
   6   2.0000     -10.297629      -280.2127
   7   2.0000     -10.277248      -279.6581
   8   2.0000     -10.274383      -279.5802
   9   2.0000     -10.265587      -279.3408
  10   2.0000     -10.252206      -278.9767
  11   2.0000     -10.244935      -278.7788
  12   2.0000     -10.240306      -278.6529
  13   2.0000     -10.142446      -275.9900
  14   2.0000      -8.259278      -224.7464
  15   2.0000      -6.205546      -168.8615
  16   2.0000      -6.199410      -168.6945
  17   2.0000      -6.198058      -168.6577
  18   2.0000      -1.382396       -37.6169
  19   2.0000      -1.153397       -31.3855
  20   2.0000      -1.057638       -28.7798
  21   2.0000      -0.989930       -26.9374
  22   2.0000      -0.903734       -24.5919
  23   2.0000      -0.865068       -23.5397
  24   2.0000      -0.820323       -22.3221
  25   2.0000      -0.786319       -21.3968
  26   2.0000      -0.741642       -20.1811
  27   2.0000      -0.731077       -19.8936
  28   2.0000      -0.690408       -18.7870
  29   2.0000      -0.653710       -17.7883
  30   2.0000      -0.614862       -16.7312
  31   2.0000      -0.614346       -16.7172
  32   2.0000      -0.595309       -16.1992
  33   2.0000      -0.589064       -16.0293
  34   2.0000      -0.570872       -15.5342
  35   2.0000      -0.550152       -14.9704
  36   2.0000      -0.521110       -14.1801
  37   2.0000      -0.515916       -14.0388
  38   2.0000      -0.505707       -13.7610
  39   2.0000      -0.499885       -13.6026
  40   2.0000      -0.489939       -13.3319
  41   2.0000      -0.482322       -13.1246
  42   2.0000      -0.463704       -12.6180
  43   2.0000      -0.454934       -12.3794
  44   2.0000      -0.441058       -12.0018
  45   2.0000      -0.423074       -11.5124
  46   2.0000      -0.417270       -11.3545
  47   2.0000      -0.410487       -11.1699
  48   2.0000      -0.399190       -10.8625
  49   2.0000      -0.391827       -10.6621
  50   2.0000      -0.384484       -10.4623
  51   2.0000      -0.378315       -10.2945
  52   2.0000      -0.364288        -9.9128
  53   2.0000      -0.359092        -9.7714
  54   2.0000      -0.354520        -9.6470
  55   2.0000      -0.346150        -9.4192
  56   2.0000      -0.345122        -9.3912
  57   2.0000      -0.341677        -9.2975
  58   2.0000      -0.267570        -7.2809
  59   2.0000      -0.175017        -4.7625
  60   0.0000       0.006302         0.1715
  61   0.0000       0.018323         0.4986
  62   0.0000       0.025189         0.6854
  63   0.0000       0.029749         0.8095
  64   0.0000       0.038501         1.0477

MULLIKEN ATOMIC CHARGES
-----------------------
   0 C :    0.877459
   1 N :   -0.231795
   2 C :    0.342714
   3 C :   -0.075553
   4 H :    0.224842
   5 H :   -0.060234
   6 S :    1.653173
   7 C :    0.940398
   8 C :    0.489887
   9 N :   -0.009865
  10 H :   -0.036290
  11 H :   -0.189141
  12 H :   -0.508201
  13 H :   -0.197787
  14 H :   -0.549587
  15 O :   -0.733912
  16 O :   -0.757586
  17 C :    0.246386
  18 H :   -0.334155
  19 H :   -0.086815
  20 C :   -0.139156
  21 H :    0.075026
  22 H :    0.023649
  23 C :   -0.144095
  24 H :    0.036046
  25 H :   -0.036060
  26 F :   -0.612804
  27 H :    0.177454
  28 H :   -0.253434
  29 H :   -0.037409
  30 H :   -0.093159
Sum of atomic charges:    0.0000000

LOEWDIN ATOMIC CHARGES
----------------------
   0 C :    0.060524
   1 N :   -0.002056
   2 C :   -0.032882
   3 C :   -0.040122
   4 H :    0.023848
   5 H :    0.034583
   6 S :    1.148155
   7 C :   -0.216376
   8 C :    0.164894
   9 N :    0.196627
  10 H :   -0.021432
  11 H :    0.006544
  12 H :   -0.043868
  13 H :   -0.138170
  14 H :   -0.090620
  15 O :   -0.445655
  16 O :   -0.450031
  17 C :   -0.017626
  18 H :    0.011954
  19 H :    0.020569
  20 C :   -0.029042
  21 H :    0.031840
  22 H :    0.038225
  23 C :   -0.031526
  24 H :    0.020734
  25 H :    0.022133
  26 F :   -0.304497
  27 H :    0.010032
  28 H :    0.029355
  29 H :    0.006277
  30 H :    0.037610

  Mayer bond orders larger than 0.100000
B(  0-C ,  1-N ) :   0.8623 B(  0-C , 12-H ) :  -0.2902 B(  0-C , 17-C ) :   1.0790
B(  0-C , 18-H ) :   0.9347 B(  0-C , 19-H ) :   0.6909 B(  0-C , 25-H ) :   0.1031
B(  1-N ,  7-C ) :   0.9856 B(  1-N ,  8-C ) :   0.2317 B(  1-N ,  9-N ) :   0.2377
B(  1-N , 12-H ) :   1.1675 B(  1-N , 18-H ) :   0.1027 B(  1-N , 19-H ) :   0.1454
B(  2-C ,  3-C ) :   1.2817 B(  2-C ,  4-H ) :   0.1062 B(  2-C ,  5-H ) :   0.1563
B(  2-C , 20-C ) :   1.2810 B(  2-C , 21-H ) :   0.7058 B(  2-C , 22-H ) :   0.7914
B(  3-C ,  4-H ) :   0.8581 B(  3-C ,  5-H ) :   0.8648 B(  3-C ,  6-S ) :   1.0850
B(  3-C , 21-H ) :   0.1243 B(  3-C , 22-H ) :   0.1097 B(  6-S , 15-O ) :   1.4656
B(  6-S , 16-O ) :   1.3907 B(  6-S , 26-F ) :   0.5545 B(  7-C ,  8-C ) :   1.3996
B(  7-C ,  9-N ) :   0.8114 B(  7-C , 11-H ) :  -0.1572 B(  7-C , 12-H ) :  -0.3120
B(  7-C , 14-H ) :   0.2479 B(  8-C ,  9-N ) :   0.2874 B(  8-C , 13-H ) :   0.5973
B(  8-C , 14-H ) :   0.7974 B(  9-N , 10-H ) :   0.9800 B(  9-N , 11-H ) :   1.2925
B( 10-H , 11-H ) :  -0.2033 B( 12-H , 19-H ) :   0.1615 B( 12-H , 24-H ) :   0.1067
B( 13-H , 14-H ) :  -0.2059 B( 13-H , 26-F ) :   0.2997 B( 17-C , 18-H ) :   0.1127
B( 17-C , 23-C ) :   1.2733 B( 17-C , 24-H ) :   0.7917 B( 17-C , 25-H ) :   0.9180
B( 18-H , 19-H ) :  -0.1151 B( 20-C , 21-H ) :   0.2375 B( 20-C , 22-H ) :   0.1001
B( 20-C , 23-C ) :   1.1781 B( 20-C , 28-H ) :   0.1415 B( 20-C , 29-H ) :   0.9737
B( 20-C , 30-H ) :   0.8770 B( 23-C , 24-H ) :   0.1806 B( 23-C , 25-H ) :   0.1228
B( 23-C , 27-H ) :   0.8496 B( 23-C , 28-H ) :   0.9982 B( 23-C , 30-H ) :   0.1393

Dispersion correction           -0.032638375
FINAL SINGLE POINT ENERGY     -1071.523545189064

DIPOLE MOMENT
-------------
                                X             Y             Z
Electronic contribution:     -0.86322      -2.91592     -18.31517
Nuclear contribution   :      0.50676       3.90127      20.40426
                        -----------------------------------------
Total Dipole Moment    :     -0.35647       0.98536       2.08909
                        -----------------------------------------
Magnitude (a.u.)       :      2.33716
Magnitude (Debye)      :      5.94059

Rotational constants in cm-1:     0.029548     0.014706     0.011197
Rotational constants in MHz :   885.834387   440.871746   335.667619

                             ****ORCA TERMINATED NORMALLY****
TOTAL RUN TIME: 0 days 0 hours 2 minutes 38 seconds 186 msec
