                         Program Version 5.0.0 -  RELEASE  -
|  1> !PBE0 D3BJ RIJCOSX def2-SVPD def2/J TightSCF xyzfile
|  2>
|  3> *xyzfile 0 1 D9.xyz
|  4>
|  5> %MaxCore 64000
|  6>
|  7> %pal nprocs 4
|  8> end
|  9>
| 10> %scf
| 11>   MaxIter 150
| 12> end
| 13>
| 14>
| 15>                          ****END OF INPUT****

CARTESIAN COORDINATES (ANGSTROEM)
---------------------------------
  C      1.963365   -1.749150   -1.896887
  N      2.738490   -2.015170   -3.097113
  C      0.611877    1.657634   -4.500288
  C      1.694991    1.541794   -5.570447
  H      2.697326    1.734659   -5.183996
  H      1.506656    2.272239   -6.358076
  S      1.780287   -0.033128   -6.428739
  C      4.049736   -2.154717   -3.152044
  N      4.658206   -1.986293   -4.318655
  C      4.764231   -2.454435   -2.050491
  H      4.287363   -2.776259   -1.217496
  H      5.750825   -2.658351   -2.125988
  H      2.345176   -1.690274   -3.971447
  H      4.109004   -1.592677   -5.071760
  H      5.649095   -2.156462   -4.427237
  O      2.569287    0.213657   -7.607360
  O      0.416880   -0.462969   -6.618595
  C      2.088520   -0.300912   -1.415204
  H      2.231272   -2.451616   -1.102643
  H      0.930249   -1.977801   -2.155438
  C      0.680356    0.655418   -3.348038
  H     -0.356865    1.549231   -4.991128
  H      0.650228    2.675438   -4.096000
  C      1.968993    0.733582   -2.535654
  H      3.051356   -0.168602   -0.911868
  H      1.316501   -0.136231   -0.657252
  F      2.505129   -0.933263   -5.482570
  H      2.824195    0.624726   -3.208464
  H      2.058919    1.730331   -2.093112
  H      0.542252   -0.344731   -3.766662
  H     -0.174219    0.829692   -2.685182

 Total Charge           Charge          ....    0
 Multiplicity           Mult            ....    1
 Number of Electrons    NEL             ....  120
 Basis Dimension        Dim             ....  432

ORBITAL ENERGIES
----------------

  NO   OCC          E(Eh)            E(eV)
   0   2.0000     -89.313445     -2430.3424
   1   2.0000     -24.912682      -677.9085
   2   2.0000     -19.251346      -523.8557
   3   2.0000     -19.251049      -523.8477
   4   2.0000     -14.395253      -391.7147
   5   2.0000     -14.394327      -391.6896
   6   2.0000     -10.307633      -280.4850
   7   2.0000     -10.276999      -279.6514
   8   2.0000     -10.271027      -279.4889
   9   2.0000     -10.267629      -279.3964
  10   2.0000     -10.254659      -279.0435
  11   2.0000     -10.245454      -278.7930
  12   2.0000     -10.234688      -278.5000
  13   2.0000     -10.144158      -276.0366
  14   2.0000      -8.272995      -225.1196
  15   2.0000      -6.219447      -169.2398
  16   2.0000      -6.213015      -169.0647
  17   2.0000      -6.211566      -169.0253
  18   2.0000      -1.403558       -38.1928
  19   2.0000      -1.167482       -31.7688
  20   2.0000      -1.070959       -29.1423
  21   2.0000      -0.994077       -27.0502
  22   2.0000      -0.905818       -24.6485
  23   2.0000      -0.871227       -23.7073
  24   2.0000      -0.821545       -22.3554
  25   2.0000      -0.785556       -21.3761
  26   2.0000      -0.755483       -20.5577
  27   2.0000      -0.717083       -19.5128
  28   2.0000      -0.711859       -19.3707
  29   2.0000      -0.659507       -17.9461
  30   2.0000      -0.627932       -17.0869
  31   2.0000      -0.621773       -16.9193
  32   2.0000      -0.604835       -16.4584
  33   2.0000      -0.586272       -15.9533
  34   2.0000      -0.565137       -15.3781
  35   2.0000      -0.559559       -15.2264
  36   2.0000      -0.536466       -14.5980
  37   2.0000      -0.526861       -14.3366
  38   2.0000      -0.518477       -14.1085
  39   2.0000      -0.503611       -13.7039
  40   2.0000      -0.493171       -13.4199
  41   2.0000      -0.481632       -13.1059
  42   2.0000      -0.463691       -12.6177
  43   2.0000      -0.456516       -12.4224
  44   2.0000      -0.445138       -12.1128
  45   2.0000      -0.429339       -11.6829
  46   2.0000      -0.416900       -11.3444
  47   2.0000      -0.416195       -11.3252
  48   2.0000      -0.397879       -10.8268
  49   2.0000      -0.387699       -10.5498
  50   2.0000      -0.386429       -10.5153
  51   2.0000      -0.380254       -10.3472
  52   2.0000      -0.374989       -10.2040
  53   2.0000      -0.363251        -9.8846
  54   2.0000      -0.357249        -9.7212
  55   2.0000      -0.355158        -9.6644
  56   2.0000      -0.351883        -9.5752
  57   2.0000      -0.341597        -9.2953
  58   2.0000      -0.263133        -7.1602
  59   2.0000      -0.174537        -4.7494
  60   0.0000      -0.004679        -0.1273
  61   0.0000       0.017670         0.4808
  62   0.0000       0.019955         0.5430
  63   0.0000       0.024539         0.6677
  64   0.0000       0.036632         0.9968

MULLIKEN ATOMIC CHARGES
-----------------------
   0 C :    0.847494
   1 N :   -0.106292
   2 C :    0.343355
   3 C :   -0.067614
   4 H :    0.225285
   5 H :   -0.063149
   6 S :    1.641839
   7 C :    0.878862
   8 N :    0.208332
   9 C :    0.300129
  10 H :    0.063748
  11 H :   -0.573535
  12 H :   -0.732368
  13 H :   -0.275378
  14 H :   -0.195291
  15 O :   -0.727389
  16 O :   -0.747983
  17 C :    0.294394
  18 H :   -0.220978
  19 H :   -0.107730
  20 C :   -0.144640
  21 H :    0.074401
  22 H :    0.024892
  23 C :   -0.153019
  24 H :   -0.028911
  25 H :    0.017923
  26 F :   -0.559672
  27 H :    0.135577
  28 H :   -0.229816
  29 H :   -0.031102
  30 H :   -0.091363
Sum of atomic charges:   -0.0000000

LOEWDIN ATOMIC CHARGES
----------------------
   0 C :    0.069093
   1 N :   -0.003699
   2 C :   -0.032227
   3 C :   -0.039302
   4 H :    0.023332
   5 H :    0.035881
   6 S :    1.148635
   7 C :   -0.222818
   8 N :    0.201497
   9 C :    0.156870
  10 H :   -0.110310
  11 H :   -0.103325
  12 H :   -0.054570
  13 H :   -0.060715
  14 H :    0.017838
  15 O :   -0.445900
  16 O :   -0.442650
  17 C :   -0.011342
  18 H :    0.019788
  19 H :    0.020307
  20 C :   -0.029297
  21 H :    0.032277
  22 H :    0.039535
  23 C :   -0.033887
  24 H :    0.021585
  25 H :    0.024408
  26 F :   -0.302462
  27 H :    0.007525
  28 H :    0.029429
  29 H :    0.005629
  30 H :    0.038874

  Mayer bond orders larger than 0.100000
B(  0-C ,  1-N ) :   0.8614 B(  0-C , 12-H ) :  -0.3345 B(  0-C , 17-C ) :   1.0559
B(  0-C , 18-H ) :   0.9393 B(  0-C , 19-H ) :   0.7595 B(  1-N ,  7-C ) :   0.8696
B(  1-N ,  8-N ) :   0.1092 B(  1-N ,  9-C ) :   0.4618 B(  1-N , 12-H ) :   1.1031
B(  1-N , 19-H ) :   0.1557 B(  2-C ,  3-C ) :   1.2806 B(  2-C ,  4-H ) :   0.1105
B(  2-C ,  5-H ) :   0.1616 B(  2-C , 20-C ) :   1.2801 B(  2-C , 21-H ) :   0.7045
B(  2-C , 22-H ) :   0.7970 B(  3-C ,  4-H ) :   0.8568 B(  3-C ,  5-H ) :   0.8592
B(  3-C ,  6-S ) :   1.0928 B(  3-C , 21-H ) :   0.1228 B(  3-C , 22-H ) :   0.1038
B(  6-S , 15-O ) :   1.4704 B(  6-S , 16-O ) :   1.4211 B(  6-S , 26-F ) :   0.5343
B(  7-C ,  8-N ) :   0.7282 B(  7-C ,  9-C ) :   1.5600 B(  7-C , 10-H ) :   0.2873
B(  7-C , 11-H ) :   0.2240 B(  7-C , 12-H ) :  -0.3653 B(  7-C , 14-H ) :  -0.2004
B(  8-N ,  9-C ) :   0.2535 B(  8-N , 13-H ) :   1.0707 B(  8-N , 14-H ) :   1.3332
B(  9-C , 10-H ) :   0.5950 B(  9-C , 11-H ) :   0.8689 B(  9-C , 12-H ) :  -0.1097
B( 10-H , 18-H ) :   0.1446 B( 13-H , 14-H ) :  -0.1777 B( 13-H , 26-F ) :   0.2614
B( 17-C , 23-C ) :   1.2748 B( 17-C , 24-H ) :   0.8345 B( 17-C , 25-H ) :   0.8594
B( 18-H , 19-H ) :  -0.1513 B( 20-C , 21-H ) :   0.2366 B( 20-C , 23-C ) :   1.1878
B( 20-C , 28-H ) :   0.1544 B( 20-C , 29-H ) :   0.9719 B( 20-C , 30-H ) :   0.8682
B( 23-C , 24-H ) :   0.1913 B( 23-C , 25-H ) :   0.1243 B( 23-C , 27-H ) :   0.8486
B( 23-C , 28-H ) :   0.9716 B( 23-C , 30-H ) :   0.1442

Dispersion correction           -0.032584571
FINAL SINGLE POINT ENERGY     -1071.526822257924

DIPOLE MOMENT
-------------
                                X             Y             Z
Electronic contribution:     -1.05147      -2.35620     -20.31300
Nuclear contribution   :      0.52036       3.84122      20.69523
                        -----------------------------------------
Total Dipole Moment    :     -0.53111       1.48502       0.38222
                        -----------------------------------------
Magnitude (a.u.)       :      1.62279
Magnitude (Debye)      :      4.12481

Rotational constants in cm-1:     0.029184     0.014996     0.011314
Rotational constants in MHz :   874.907122   449.569665   339.178205

                             ****ORCA TERMINATED NORMALLY****
TOTAL RUN TIME: 0 days 0 hours 2 minutes 38 seconds 233 msec
