                         Program Version 5.0.0 -  RELEASE  -
|  1> !wB97X-D3 RIJCOSX def2-SVPD def2/J TightSCF
|  2> *xyz -1 1
|  3> C         -0.96015       -0.52236       -0.48987
|  4> O          0.26170       -0.58031        0.13861
|  5> H         -0.85050       -0.82220       -1.51113
|  6> H         -1.33436        0.47929       -0.45044
|  7> H         -1.64624       -1.17908        0.00297
|  8> *
|  9>
| 10> %MaxCore 64000
| 11>
| 12> %pal nprocs 18
| 13> end
| 14>
| 15> %scf
| 16>   MaxIter 150
| 17> end
| 18>
| 19>
| 20>                          ****END OF INPUT****

CARTESIAN COORDINATES (ANGSTROEM)
---------------------------------
  C     -0.960150   -0.522360   -0.489870
  O      0.261700   -0.580310    0.138610
  H     -0.850500   -0.822200   -1.511130
  H     -1.334360    0.479290   -0.450440
  H     -1.646240   -1.179080    0.002970

 Total Charge           Charge          ....   -1
 Multiplicity           Mult            ....    1
 Number of Electrons    NEL             ....   18
 Basis Dimension        Dim             ....   67

ORBITAL ENERGIES
----------------

  NO   OCC          E(Eh)            E(eV)
   0   2.0000     -18.888005      -513.9687
   1   2.0000     -10.074715      -274.1469
   2   2.0000      -0.759503       -20.6671
   3   2.0000      -0.501065       -13.6347
   4   2.0000      -0.295131        -8.0309
   5   2.0000      -0.295105        -8.0302
   6   2.0000      -0.193029        -5.2526
   7   2.0000      -0.040798        -1.1102
   8   2.0000      -0.040786        -1.1098
   9   0.0000       0.264117         7.1870
  10   0.0000       0.340280         9.2595
  11   0.0000       0.340286         9.2596
  12   0.0000       0.347890         9.4666
  13   0.0000       0.385275        10.4839

MULLIKEN ATOMIC CHARGES
-----------------------
   0 C :    0.778418
   1 O :   -1.049317
   2 H :   -0.243149
   3 H :   -0.243099
   4 H :   -0.242853
Sum of atomic charges:   -1.0000000

LOEWDIN ATOMIC CHARGES
----------------------
   0 C :   -0.111941
   1 O :   -0.663306
   2 H :   -0.074937
   3 H :   -0.074909
   4 H :   -0.074907

  Mayer bond orders larger than 0.100000
B(  0-C ,  1-O ) :   1.1982 B(  0-C ,  2-H ) :   0.9181 B(  0-C ,  3-H ) :   0.9184
B(  0-C ,  4-H ) :   0.9182

Dispersion correction           -0.000091947
FINAL SINGLE POINT ENERGY      -114.980478809096

DIPOLE MOMENT
-------------
                                X             Y             Z
Electronic contribution:      1.59443      -0.07559       0.82003
Nuclear contribution   :     -2.56864       0.12183      -1.32123
                        -----------------------------------------
Total Dipole Moment    :     -0.97420       0.04623      -0.50120
                        -----------------------------------------
Magnitude (a.u.)       :      1.09655
Magnitude (Debye)      :      2.78720

Rotational constants in cm-1:     5.477744     0.932677     0.932677
Rotational constants in MHz : 164218.635293 27960.967920 27960.945417

                             ****ORCA TERMINATED NORMALLY****
TOTAL RUN TIME: 0 days 0 hours 0 minutes 3 seconds 127 msec
