                         Program Version 5.0.0 -  RELEASE  -
|  1> !wB97X-D3 RIJCOSX def2-SVPD def2/J TightSCF
|  2> *xyz 1 1
|  3> C          4.36645       -0.13321       -1.41606
|  4> C          3.05650       -0.32080       -0.70738
|  5> N          2.38983        0.71129       -0.24391
|  6> N          2.51600       -1.50772       -0.55023
|  7> H          2.96768       -2.32291       -0.95631
|  8> H          1.54987       -1.49063       -0.24988
|  9> H          2.74307        1.64947       -0.41280
| 10> H          1.44036        0.50278        0.03703
| 11> H          4.74975       -1.08632       -1.71533
| 12> H          5.06373        0.34075       -0.75722
| 13> H          4.21960        0.47966       -2.28077
| 14> *
| 15>
| 16> %MaxCore 64000
| 17>
| 18> %pal nprocs 18
| 19> end
| 20>
| 21> %scf
| 22>   MaxIter 150
| 23> end
| 24>
| 25>
| 26>                          ****END OF INPUT****

CARTESIAN COORDINATES (ANGSTROEM)
---------------------------------
  C      4.366450   -0.133210   -1.416060
  C      3.056500   -0.320800   -0.707380
  N      2.389830    0.711290   -0.243910
  N      2.516000   -1.507720   -0.550230
  H      2.967680   -2.322910   -0.956310
  H      1.549870   -1.490630   -0.249880
  H      2.743070    1.649470   -0.412800
  H      1.440360    0.502780    0.037030
  H      4.749750   -1.086320   -1.715330
  H      5.063730    0.340750   -0.757220
  H      4.219600    0.479660   -2.280770

 Total Charge           Charge          ....    1
 Multiplicity           Mult            ....    1
 Number of Electrons    NEL             ....   32
 Basis Dimension        Dim             ....  136

ORBITAL ENERGIES
----------------

  NO   OCC          E(Eh)            E(eV)
   0   2.0000     -14.692029      -399.7904
   1   2.0000     -14.689672      -399.7263
   2   2.0000     -10.625828      -289.1435
   3   2.0000     -10.492114      -285.5049
   4   2.0000      -1.331187       -36.2234
   5   2.0000      -1.221679       -33.2436
   6   2.0000      -1.068817       -29.0840
   7   2.0000      -0.946582       -25.7578
   8   2.0000      -0.889558       -24.2061
   9   2.0000      -0.876872       -23.8609
  10   2.0000      -0.811136       -22.0721
  11   2.0000      -0.769793       -20.9471
  12   2.0000      -0.720910       -19.6170
  13   2.0000      -0.703408       -19.1407
  14   2.0000      -0.679125       -18.4799
  15   2.0000      -0.595337       -16.2000
  16   0.0000      -0.137880        -3.7519
  17   0.0000      -0.089567        -2.4373
  18   0.0000      -0.044002        -1.1974
  19   0.0000      -0.035163        -0.9568
  20   0.0000      -0.017772        -0.4836

MULLIKEN ATOMIC CHARGES
-----------------------
   0 C :    0.468845
   1 C :    0.249303
   2 N :    0.042434
   3 N :   -0.057763
   4 H :    0.064339
   5 H :   -0.009679
   6 H :    0.047663
   7 H :   -0.056430
   8 H :    0.094017
   9 H :    0.086945
  10 H :    0.070326
Sum of atomic charges:    1.0000000

LOEWDIN ATOMIC CHARGES
----------------------
   0 C :    0.234616
   1 C :   -0.058659
   2 N :    0.269125
   3 N :    0.273034
   4 H :    0.062862
   5 H :    0.046779
   6 H :    0.067060
   7 H :    0.045712
   8 H :    0.009221
   9 H :    0.024867
  10 H :    0.025383

  Mayer bond orders larger than 0.100000
B(  0-C ,  1-C ) :   1.3315 B(  0-C ,  8-H ) :   0.7833 B(  0-C ,  9-H ) :   0.7439
B(  0-C , 10-H ) :   0.8203 B(  1-C ,  2-N ) :   1.1665 B(  1-C ,  3-N ) :   1.0475
B(  1-C ,  5-H ) :  -0.1263 B(  1-C ,  8-H ) :   0.2338 B(  1-C ,  9-H ) :   0.1932
B(  1-C , 10-H ) :   0.1386 B(  2-N ,  3-N ) :   0.2004 B(  2-N ,  6-H ) :   1.0940
B(  2-N ,  7-H ) :   1.1824 B(  3-N ,  4-H ) :   1.0840 B(  3-N ,  5-H ) :   1.2002
B(  4-H ,  5-H ) :  -0.1418 B(  6-H ,  7-H ) :  -0.1321 B(  8-H ,  9-H ) :   0.1105
B(  8-H , 10-H ) :   0.1034

Dispersion correction           -0.001655572
FINAL SINGLE POINT ENERGY      -189.534772450551

DIPOLE MOMENT
-------------
                                X             Y             Z
Electronic contribution:     -1.73637      -0.26549       1.10157
Nuclear contribution   :      1.22976       0.25273      -1.15956
                        -----------------------------------------
Total Dipole Moment    :     -0.50661      -0.01276      -0.05799
                        -----------------------------------------
Magnitude (a.u.)       :      0.51008
Magnitude (Debye)      :      1.29652

Rotational constants in cm-1:     0.347067     0.291236     0.163306
Rotational constants in MHz : 10404.811357  8731.035118  4895.793931

                             ****ORCA TERMINATED NORMALLY****
TOTAL RUN TIME: 0 days 0 hours 0 minutes 6 seconds 360 msec
