                         Program Version 5.0.0 -  RELEASE  -
|  1> !wB97X-D3 RIJCOSX def2-SVPD def2/J TightSCF xyzfile
|  2>
|  3> *xyzfile 0 1 B.xyz
|  4>
|  5> %MaxCore 64000
|  6>
|  7> %pal nprocs 18
|  8> end
|  9>
| 10> %scf
| 11>   MaxIter 150
| 12> end
| 13>
| 14>
| 15>                          ****END OF INPUT****

CARTESIAN COORDINATES (ANGSTROEM)
---------------------------------
  C      4.366454   -0.133215   -1.416062
  C      4.508292   -0.931872   -2.724249
  H      4.753716   -1.972051   -2.488408
  C      3.294164   -0.918214   -3.656570
  H      5.385637   -0.536236   -3.242640
  H      2.483463   -1.477378   -3.185764
  H      3.553092   -1.478495   -4.560331
  C      2.772335    0.460100   -4.051448
  H      2.608762    1.065107   -3.155194
  C      1.465354    0.410537   -4.853644
  H      3.532940    0.988848   -4.635671
  C      0.326171   -0.375613   -4.192580
  H      1.666704   -0.022269   -5.839323
  H      1.138198    1.439246   -5.035449
  C     -0.017405    0.080588   -2.778406
  H      0.585573   -1.439385   -4.168057
  H     -0.560005   -0.311425   -4.831461
  H      0.902090    0.201296   -2.206729
  C     -0.903495   -0.873945   -1.987388
  H     -0.479549    1.074657   -2.811915
  H     -0.502554   -1.892096   -2.081204
  H     -1.917039   -0.895427   -2.406277
  C     -0.960148   -0.522365   -0.489867
  H     -1.690392   -1.208130   -0.021677
  H     -1.414490    0.486329   -0.406677
  O      0.261703   -0.580307    0.138611
  C      3.056503   -0.320797   -0.707384
  N      2.389825    0.711285   -0.243909
  N      2.515999   -1.507721   -0.550229
  H      2.967683   -2.322915   -0.956305
  H      1.549872   -1.490634   -0.249876
  H      2.743071    1.649471   -0.412802
  H      1.440364    0.502778    0.037031
  H      4.487835    0.932997   -1.611569
  H      5.169672   -0.414432   -0.729817

 Total Charge           Charge          ....    0
 Multiplicity           Mult            ....    1
 Number of Electrons    NEL             ....  104
 Basis Dimension        Dim             ....  439

ORBITAL ENERGIES
----------------

  NO   OCC          E(Eh)            E(eV)
   0   2.0000     -19.114572      -520.1339
   1   2.0000     -14.466446      -393.6520
   2   2.0000     -14.466157      -393.6441
   3   2.0000     -10.418956      -283.5142
   4   2.0000     -10.336819      -281.2791
   5   2.0000     -10.321691      -280.8675
   6   2.0000     -10.299959      -280.2761
   7   2.0000     -10.293641      -280.1042
   8   2.0000     -10.284557      -279.8570
   9   2.0000     -10.273623      -279.5595
  10   2.0000     -10.270504      -279.4746
  11   2.0000     -10.259960      -279.1877
  12   2.0000     -10.246221      -278.8138
  13   2.0000      -1.119609       -30.4661
  14   2.0000      -1.009314       -27.4648
  15   2.0000      -0.991432       -26.9782
  16   2.0000      -0.947915       -25.7941
  17   2.0000      -0.910867       -24.7860
  18   2.0000      -0.870082       -23.6761
  19   2.0000      -0.829518       -22.5723
  20   2.0000      -0.790353       -21.5066
  21   2.0000      -0.746162       -20.3041
  22   2.0000      -0.729561       -19.8524
  23   2.0000      -0.717762       -19.5313
  24   2.0000      -0.674730       -18.3603
  25   2.0000      -0.657775       -17.8990
  26   2.0000      -0.655376       -17.8337
  27   2.0000      -0.629393       -17.1266
  28   2.0000      -0.608811       -16.5666
  29   2.0000      -0.604072       -16.4376
  30   2.0000      -0.587749       -15.9935
  31   2.0000      -0.566385       -15.4121
  32   2.0000      -0.549833       -14.9617
  33   2.0000      -0.530650       -14.4397
  34   2.0000      -0.520712       -14.1693
  35   2.0000      -0.513505       -13.9732
  36   2.0000      -0.507406       -13.8072
  37   2.0000      -0.502783       -13.6814
  38   2.0000      -0.478521       -13.0212
  39   2.0000      -0.468703       -12.7541
  40   2.0000      -0.458517       -12.4769
  41   2.0000      -0.449224       -12.2240
  42   2.0000      -0.438379       -11.9289
  43   2.0000      -0.433612       -11.7992
  44   2.0000      -0.414265       -11.2727
  45   2.0000      -0.407130       -11.0786
  46   2.0000      -0.396852       -10.7989
  47   2.0000      -0.393652       -10.7118
  48   2.0000      -0.388320       -10.5667
  49   2.0000      -0.378165       -10.2904
  50   2.0000      -0.273280        -7.4363
  51   2.0000      -0.268449        -7.3049
  52   0.0000       0.052034         1.4159
  53   0.0000       0.069989         1.9045
  54   0.0000       0.085170         2.3176
  55   0.0000       0.100171         2.7258
  56   0.0000       0.107799         2.9334

MULLIKEN ATOMIC CHARGES
-----------------------
   0 C :    0.282905
   1 C :    0.366888
   2 H :    0.004635
   3 C :   -0.096378
   4 H :   -0.110758
   5 H :   -0.008145
   6 H :   -0.125398
   7 C :   -0.067098
   8 H :    0.076418
   9 C :    0.689428
  10 H :   -0.345315
  11 C :    0.070304
  12 H :   -0.013178
  13 H :    0.012556
  14 C :    0.516737
  15 H :    0.134857
  16 H :   -0.402408
  17 H :   -0.844012
  18 C :    0.079369
  19 H :    0.015852
  20 H :   -0.013198
  21 H :   -0.184090
  22 C :    0.874990
  23 H :   -0.139874
  24 H :   -0.078734
  25 O :   -1.085174
  26 C :    0.201525
  27 N :    0.346593
  28 N :    0.373107
  29 H :   -0.043297
  30 H :   -0.282780
  31 H :   -0.042038
  32 H :   -0.199224
  33 H :    0.246226
  34 H :   -0.211291
Sum of atomic charges:    0.0000000

LOEWDIN ATOMIC CHARGES
----------------------
   0 C :    0.040538
   1 C :   -0.017561
   2 H :    0.019426
   3 C :   -0.028958
   4 H :    0.027209
   5 H :   -0.007098
   6 H :    0.033028
   7 C :   -0.033177
   8 H :   -0.001870
   9 C :   -0.027792
  10 H :    0.024989
  11 C :   -0.038925
  12 H :    0.021394
  13 H :    0.023315
  14 C :   -0.036014
  15 H :    0.009685
  16 H :    0.023013
  17 H :   -0.032037
  18 C :   -0.036770
  19 H :    0.034729
  20 H :    0.018449
  21 H :    0.019692
  22 C :   -0.056298
  23 H :    0.007694
  24 H :    0.012295
  25 O :   -0.446867
  26 C :   -0.058989
  27 N :    0.280494
  28 N :    0.291629
  29 H :    0.032829
  30 H :   -0.094169
  31 H :    0.036138
  32 H :   -0.100121
  33 H :    0.022288
  34 H :    0.037812

  Mayer bond orders larger than 0.100000
B(  0-C ,  1-C ) :   1.2072 B(  0-C ,  4-H ) :   0.1563 B(  0-C , 26-C ) :   1.1797
B(  0-C , 33-H ) :   0.7264 B(  0-C , 34-H ) :   0.7260 B(  1-C ,  2-H ) :   0.7100
B(  1-C ,  3-C ) :   1.2701 B(  1-C ,  4-H ) :   0.8193 B(  1-C , 33-H ) :   0.1327
B(  1-C , 34-H ) :   0.1134 B(  2-H ,  3-C ) :   0.2383 B(  2-H ,  4-H ) :  -0.1271
B(  3-C ,  4-H ) :   0.1743 B(  3-C ,  5-H ) :   0.8560 B(  3-C ,  6-H ) :   0.8578
B(  3-C ,  7-C ) :   1.2476 B(  3-C ,  8-H ) :   0.1122 B(  3-C , 10-H ) :   0.1703
B(  5-H ,  7-C ) :   0.1329 B(  5-H , 15-H ) :   0.1723 B(  6-H ,  7-C ) :   0.1458
B(  7-C ,  8-H ) :   0.8373 B(  7-C ,  9-C ) :   1.1331 B(  7-C , 10-H ) :   1.0049
B(  7-C , 11-C ) :   0.1103 B(  7-C , 12-H ) :   0.1216 B(  7-C , 13-H ) :   0.2400
B(  8-H , 17-H ) :   0.2037 B(  9-C , 11-C ) :   1.1226 B(  9-C , 12-H ) :   0.7278
B(  9-C , 13-H ) :   0.6908 B( 11-C , 12-H ) :   0.1877 B( 11-C , 13-H ) :   0.1419
B( 11-C , 14-C ) :   1.1245 B( 11-C , 15-H ) :   0.8257 B( 11-C , 16-H ) :   1.0086
B( 11-C , 17-H ) :   0.1590 B( 11-C , 19-H ) :   0.1120 B( 12-H , 13-H ) :  -0.1061
B( 14-C , 15-H ) :   0.1329 B( 14-C , 16-H ) :   0.2240 B( 14-C , 17-H ) :   0.3327
B( 14-C , 18-C ) :   1.1612 B( 14-C , 19-H ) :   0.6686 B( 14-C , 20-H ) :   0.1333
B( 14-C , 21-H ) :   0.2370 B( 17-H , 18-C ) :   0.1715 B( 17-H , 19-H ) :   0.2343
B( 17-H , 26-C ) :   0.1215 B( 18-C , 19-H ) :   0.1046 B( 18-C , 20-H ) :   0.9009
B( 18-C , 21-H ) :   0.8762 B( 18-C , 22-C ) :   1.0329 B( 18-C , 23-H ) :   0.1984
B( 18-C , 25-O ) :   0.1070 B( 22-C , 23-H ) :   0.7729 B( 22-C , 24-H ) :   0.8282
B( 22-C , 25-O ) :   1.0316 B( 24-H , 25-O ) :   0.1600 B( 25-O , 30-H ) :   0.3467
B( 25-O , 32-H ) :   0.3129 B( 26-C , 27-N ) :   1.0929 B( 26-C , 28-N ) :   1.0808
B( 26-C , 33-H ) :   0.1798 B( 26-C , 34-H ) :   0.2981 B( 27-N , 28-N ) :   0.1878
B( 27-N , 31-H ) :   1.1163 B( 27-N , 32-H ) :   1.0366 B( 28-N , 29-H ) :   1.0860
B( 28-N , 30-H ) :   1.1056 B( 29-H , 30-H ) :  -0.2300 B( 31-H , 32-H ) :  -0.1682

Dispersion correction           -0.017913791
FINAL SINGLE POINT ENERGY      -578.512958310451

DIPOLE MOMENT
-------------
                                X             Y             Z
Electronic contribution:      2.82510      -0.26236       7.49616
Nuclear contribution   :     -0.17996       0.53390      -8.68067
                        -----------------------------------------
Total Dipole Moment    :      2.64513       0.27155      -1.18451
                        -----------------------------------------
Magnitude (a.u.)       :      2.91093
Magnitude (Debye)      :      7.39901

Rotational constants in cm-1:     0.028240     0.022734     0.014600
Rotational constants in MHz :   846.611263   681.554306   437.693928

                             ****ORCA TERMINATED NORMALLY****
TOTAL RUN TIME: 0 days 0 hours 1 minutes 30 seconds 808 msec
