                         Program Version 5.0.0 -  RELEASE  -
|  1> !wB97X-D3 RIJCOSX def2-SVPD def2/J TightSCF
|  2> *xyz 0 1
|  3> C         -0.96015       -0.52236       -0.48987
|  4> F          0.26170       -0.58031        0.13861
|  5> H         -0.85050       -0.82220       -1.51113
|  6> H         -1.33436        0.47929       -0.45044
|  7> H         -1.64624       -1.17908        0.00297
|  8> *
|  9>
| 10> %MaxCore 64000
| 11>
| 12> %pal nprocs 18
| 13> end
| 14>
| 15> %scf
| 16>   MaxIter 150
| 17> end
| 18>
| 19>
| 20>                          ****END OF INPUT****

CARTESIAN COORDINATES (ANGSTROEM)
---------------------------------
  C     -0.960150   -0.522360   -0.489870
  F      0.261700   -0.580310    0.138610
  H     -0.850500   -0.822200   -1.511130
  H     -1.334360    0.479290   -0.450440
  H     -1.646240   -1.179080    0.002970

 Total Charge           Charge          ....    0
 Multiplicity           Mult            ....    1
 Number of Electrons    NEL             ....   18
 Basis Dimension        Dim             ....   67

ORBITAL ENERGIES
----------------

  NO   OCC          E(Eh)            E(eV)
   0   2.0000     -24.785757      -674.4547
   1   2.0000     -10.361104      -281.9400
   2   2.0000      -1.295589       -35.2548
   3   2.0000      -0.815601       -22.1936
   4   2.0000      -0.598920       -16.2975
   5   2.0000      -0.594143       -16.1674
   6   2.0000      -0.594135       -16.1672
   7   2.0000      -0.451237       -12.2788
   8   2.0000      -0.451227       -12.2785
   9   0.0000       0.095777         2.6062
  10   0.0000       0.145088         3.9481
  11   0.0000       0.178705         4.8628
  12   0.0000       0.178708         4.8629
  13   0.0000       0.217123         5.9082

MULLIKEN ATOMIC CHARGES
-----------------------
   0 C :    0.771310
   1 F :   -0.499705
   2 H :   -0.090605
   3 H :   -0.090648
   4 H :   -0.090352
Sum of atomic charges:    0.0000000

LOEWDIN ATOMIC CHARGES
----------------------
   0 C :    0.271506
   1 F :   -0.259422
   2 H :   -0.004043
   3 H :   -0.004031
   4 H :   -0.004011

  Mayer bond orders larger than 0.100000
B(  0-C ,  1-F ) :   0.8266 B(  0-C ,  2-H ) :   0.9565 B(  0-C ,  3-H ) :   0.9565
B(  0-C ,  4-H ) :   0.9562

Dispersion correction           -0.000132016
FINAL SINGLE POINT ENERGY      -139.606927663147

DIPOLE MOMENT
-------------
                                X             Y             Z
Electronic contribution:      2.59303      -0.12307       1.33362
Nuclear contribution   :     -3.25854       0.15455      -1.67609
                        -----------------------------------------
Total Dipole Moment    :     -0.66551       0.03148      -0.34247
                        -----------------------------------------
Magnitude (a.u.)       :      0.74912
Magnitude (Debye)      :      1.90411

Rotational constants in cm-1:     5.477744     0.868130     0.868129
Rotational constants in MHz : 164218.635293 26025.869915 26025.850419

                             ****ORCA TERMINATED NORMALLY****
TOTAL RUN TIME: 0 days 0 hours 0 minutes 2 seconds 939 msec
