                         Program Version 5.0.0 -  RELEASE  -
|  1> !wB97X-D3 RIJCOSX def2-SVPD def2/J TightSCF
|  2> *xyz 0 1
|  3> C          4.36645       -0.13321       -1.41606
|  4> C          3.05650       -0.32080       -0.70738
|  5> C          2.38983        0.71129       -0.24391
|  6> N          2.51600       -1.50772       -0.55023
|  7> H          2.96768       -2.32291       -0.95631
|  8> H          1.54987       -1.49063       -0.24988
|  9> H          2.74307        1.64947       -0.41280
| 10> H          1.44036        0.50278        0.03703
| 11> H          4.74975       -1.08632       -1.71533
| 12> H          5.06373        0.34075       -0.75722
| 13> H          4.21960        0.47966       -2.28077
| 14> *
| 15>
| 16> %MaxCore 64000
| 17>
| 18> %pal nprocs 18
| 19> end
| 20>
| 21> %scf
| 22>   MaxIter 150
| 23> end
| 24>
| 25>
| 26>                          ****END OF INPUT****

CARTESIAN COORDINATES (ANGSTROEM)
---------------------------------
  C      4.366450   -0.133210   -1.416060
  C      3.056500   -0.320800   -0.707380
  C      2.389830    0.711290   -0.243910
  N      2.516000   -1.507720   -0.550230
  H      2.967680   -2.322910   -0.956310
  H      1.549870   -1.490630   -0.249880
  H      2.743070    1.649470   -0.412800
  H      1.440360    0.502780    0.037030
  H      4.749750   -1.086320   -1.715330
  H      5.063730    0.340750   -0.757220
  H      4.219600    0.479660   -2.280770

 Total Charge           Charge          ....    0
 Multiplicity           Mult            ....    1
 Number of Electrons    NEL             ....   32
 Basis Dimension        Dim             ....  136

ORBITAL ENERGIES
----------------

  NO   OCC          E(Eh)            E(eV)
   0   2.0000     -14.437765      -392.8716
   1   2.0000     -10.310557      -280.5645
   2   2.0000     -10.282905      -279.8121
   3   2.0000     -10.216313      -278.0000
   4   2.0000      -1.043257       -28.3885
   5   2.0000      -0.865375       -23.5480
   6   2.0000      -0.801296       -21.8044
   7   2.0000      -0.668831       -18.1998
   8   2.0000      -0.636105       -17.3093
   9   2.0000      -0.570302       -15.5187
  10   2.0000      -0.533716       -14.5232
  11   2.0000      -0.498724       -13.5710
  12   2.0000      -0.487917       -13.2769
  13   2.0000      -0.454811       -12.3760
  14   2.0000      -0.435060       -11.8386
  15   2.0000      -0.275755        -7.5037
  16   0.0000       0.090695         2.4679
  17   0.0000       0.121714         3.3120
  18   0.0000       0.127876         3.4797
  19   0.0000       0.131400         3.5756
  20   0.0000       0.164864         4.4862

MULLIKEN ATOMIC CHARGES
-----------------------
   0 C :    0.699771
   1 C :   -0.462634
   2 C :    0.393849
   3 N :    0.108683
   4 H :   -0.090122
   5 H :   -0.041339
   6 H :   -0.217686
   7 H :   -0.361282
   8 H :   -0.062503
   9 H :    0.032235
  10 H :    0.001027
Sum of atomic charges:   -0.0000000

LOEWDIN ATOMIC CHARGES
----------------------
   0 C :    0.167775
   1 C :   -0.287756
   2 C :    0.150745
   3 N :    0.152047
   4 H :    0.005425
   5 H :    0.005786
   6 H :   -0.072333
   7 H :   -0.086910
   8 H :   -0.025121
   9 H :   -0.004794
  10 H :   -0.004865

  Mayer bond orders larger than 0.100000
B(  0-C ,  1-C ) :   1.1630 B(  0-C ,  8-H ) :   0.7279 B(  0-C ,  9-H ) :   0.7394
B(  0-C , 10-H ) :   0.8106 B(  1-C ,  2-C ) :   1.8909 B(  1-C ,  3-N ) :   1.0984
B(  1-C ,  6-H ) :   0.1390 B(  1-C ,  7-H ) :   0.2210 B(  1-C ,  8-H ) :   0.2953
B(  1-C ,  9-H ) :   0.2037 B(  1-C , 10-H ) :   0.1481 B(  2-C ,  3-N ) :   0.2483
B(  2-C ,  6-H ) :   0.8580 B(  2-C ,  7-H ) :   0.8026 B(  3-N ,  4-H ) :   1.1315
B(  3-N ,  5-H ) :   1.1208 B(  4-H ,  5-H ) :  -0.1262

Dispersion correction           -0.001655156
FINAL SINGLE POINT ENERGY      -173.077257378607

DIPOLE MOMENT
-------------
                                X             Y             Z
Electronic contribution:     -1.00128      -1.15081       0.66234
Nuclear contribution   :      1.07959       0.48266      -1.05101
                        -----------------------------------------
Total Dipole Moment    :      0.07831      -0.66815      -0.38867
                        -----------------------------------------
Magnitude (a.u.)       :      0.77693
Magnitude (Debye)      :      1.97481

Rotational constants in cm-1:     0.369235     0.294626     0.169175
Rotational constants in MHz : 11069.394850  8832.653024  5071.734673

                             ****ORCA TERMINATED NORMALLY****
TOTAL RUN TIME: 0 days 0 hours 0 minutes 6 seconds 644 msec
