                         Program Version 5.0.0 -  RELEASE  -
|  1> !wB97X-D3 RIJCOSX def2-SVPD def2/J TightSCF
|  2> *xyz 0 1
|  3> C          4.36645       -0.13321       -1.41606
|  4> C          3.05650       -0.32080       -0.70738
|  5> N          2.38983        0.71129       -0.24391
|  6> C          2.51600       -1.50772       -0.55023
|  7> H          2.96768       -2.32291       -0.95631
|  8> H          1.54987       -1.49063       -0.24988
|  9> H          2.74307        1.64947       -0.41280
| 10> H          1.44036        0.50278        0.03703
| 11> H          4.74975       -1.08632       -1.71533
| 12> H          5.06373        0.34075       -0.75722
| 13> H          4.21960        0.47966       -2.28077
| 14> *
| 15>
| 16> %MaxCore 64000
| 17>
| 18> %pal nprocs 18
| 19> end
| 20>
| 21> %scf
| 22>   MaxIter 150
| 23> end
| 24>
| 25>
| 26>                          ****END OF INPUT****

CARTESIAN COORDINATES (ANGSTROEM)
---------------------------------
  C      4.366450   -0.133210   -1.416060
  C      3.056500   -0.320800   -0.707380
  N      2.389830    0.711290   -0.243910
  C      2.516000   -1.507720   -0.550230
  H      2.967680   -2.322910   -0.956310
  H      1.549870   -1.490630   -0.249880
  H      2.743070    1.649470   -0.412800
  H      1.440360    0.502780    0.037030
  H      4.749750   -1.086320   -1.715330
  H      5.063730    0.340750   -0.757220
  H      4.219600    0.479660   -2.280770

 Total Charge           Charge          ....    0
 Multiplicity           Mult            ....    1
 Number of Electrons    NEL             ....   32
 Basis Dimension        Dim             ....  136

ORBITAL ENERGIES
----------------

  NO   OCC          E(Eh)            E(eV)
   0   2.0000     -14.436422      -392.8350
   1   2.0000     -10.311273      -280.5840
   2   2.0000     -10.282573      -279.8030
   3   2.0000     -10.220368      -278.1104
   4   2.0000      -1.043376       -28.3917
   5   2.0000      -0.864520       -23.5248
   6   2.0000      -0.802813       -21.8457
   7   2.0000      -0.668969       -18.2036
   8   2.0000      -0.636302       -17.3147
   9   2.0000      -0.570523       -15.5247
  10   2.0000      -0.535579       -14.5738
  11   2.0000      -0.496745       -13.5171
  12   2.0000      -0.490355       -13.3432
  13   2.0000      -0.454918       -12.3790
  14   2.0000      -0.433586       -11.7985
  15   2.0000      -0.279184        -7.5970
  16   0.0000       0.090655         2.4669
  17   0.0000       0.124900         3.3987
  18   0.0000       0.128348         3.4925
  19   0.0000       0.132411         3.6031
  20   0.0000       0.167002         4.5443

MULLIKEN ATOMIC CHARGES
-----------------------
   0 C :    0.723812
   1 C :   -0.582618
   2 N :    0.212124
   3 C :    0.392480
   4 H :   -0.167660
   5 H :   -0.379607
   6 H :   -0.125894
   7 H :   -0.096233
   8 H :    0.059306
   9 H :   -0.011609
  10 H :   -0.024102
Sum of atomic charges:    0.0000000

LOEWDIN ATOMIC CHARGES
----------------------
   0 C :    0.166293
   1 C :   -0.295873
   2 N :    0.150168
   3 C :    0.160132
   4 H :   -0.077301
   5 H :   -0.084942
   6 H :    0.009812
   7 H :    0.004811
   8 H :   -0.012314
   9 H :   -0.011471
  10 H :   -0.009314

  Mayer bond orders larger than 0.100000
B(  0-C ,  1-C ) :   1.3340 B(  0-C ,  8-H ) :   0.7943 B(  0-C ,  9-H ) :   0.6869
B(  0-C , 10-H ) :   0.7129 B(  1-C ,  2-N ) :   1.1994 B(  1-C ,  3-C ) :   1.8434
B(  1-C ,  5-H ) :   0.2049 B(  1-C ,  8-H ) :   0.2285 B(  1-C ,  9-H ) :   0.2602
B(  1-C , 10-H ) :   0.2593 B(  2-N ,  3-C ) :   0.2389 B(  2-N ,  6-H ) :   1.1409
B(  2-N ,  7-H ) :   1.1138 B(  3-C ,  4-H ) :   0.9562 B(  3-C ,  5-H ) :   0.7811
B(  6-H ,  7-H ) :  -0.1071 B(  8-H , 10-H ) :   0.1067

Dispersion correction           -0.001666998
FINAL SINGLE POINT ENERGY      -173.080262188353

DIPOLE MOMENT
-------------
                                X             Y             Z
Electronic contribution:     -1.13328       0.76064       0.94054
Nuclear contribution   :      1.10788      -0.01499      -1.11971
                        -----------------------------------------
Total Dipole Moment    :     -0.02540       0.74564      -0.17917
                        -----------------------------------------
Magnitude (a.u.)       :      0.76729
Magnitude (Debye)      :      1.95029

Rotational constants in cm-1:     0.367851     0.295709     0.169239
Rotational constants in MHz : 11027.892768  8865.123922  5073.656136

                             ****ORCA TERMINATED NORMALLY****
TOTAL RUN TIME: 0 days 0 hours 0 minutes 6 seconds 393 msec
