                         Program Version 5.0.0 -  RELEASE  -
|  1> !wB97X-D3 RIJCOSX def2-SVPD def2/J TightSCF xyzfile
|  2>
|  3> *xyzfile 0 1 D1.xyz
|  4>
|  5> %MaxCore 64000
|  6>
|  7> %pal nprocs 18
|  8> end
|  9>
| 10> %scf
| 11>   MaxIter 150
| 12> end
| 13>
| 14>
| 15>                          ****END OF INPUT****

CARTESIAN COORDINATES (ANGSTROEM)
---------------------------------
  C      4.366454   -0.133215   -1.416062
  C      4.508292   -0.931872   -2.724249
  H      4.753716   -1.972051   -2.488408
  C      3.294164   -0.918214   -3.656570
  H      5.385637   -0.536236   -3.242640
  H      2.483463   -1.477378   -3.185764
  H      3.553092   -1.478495   -4.560331
  C      2.772335    0.460100   -4.051448
  H      2.608762    1.065107   -3.155194
  C      1.465354    0.410537   -4.853644
  H      3.532940    0.988848   -4.635671
  C      0.326171   -0.375613   -4.192580
  H      1.666704   -0.022269   -5.839323
  H      1.138198    1.439246   -5.035449
  C     -0.017405    0.080588   -2.778406
  H      0.585573   -1.439385   -4.168057
  H     -0.560005   -0.311425   -4.831461
  H      0.902090    0.201296   -2.206729
  C     -0.903495   -0.873945   -1.987388
  H     -0.479549    1.074657   -2.811915
  H     -0.502554   -1.892096   -2.081204
  H     -1.917039   -0.895427   -2.406277
  C     -0.960148   -0.522365   -0.489867
  H     -1.690392   -1.208130   -0.021677
  H     -1.414490    0.486329   -0.406677
  F      0.261703   -0.580307    0.138611
  C      3.056503   -0.320797   -0.707384
  C      2.389825    0.711285   -0.243909
  N      2.515999   -1.507721   -0.550229
  H      2.967683   -2.322915   -0.956305
  H      1.549872   -1.490634   -0.249876
  H      2.743071    1.649471   -0.412802
  H      1.440364    0.502778    0.037031
  H      4.487835    0.932997   -1.611569
  H      5.169672   -0.414432   -0.729817

 Total Charge           Charge          ....    0
 Multiplicity           Mult            ....    1
 Number of Electrons    NEL             ....  104
 Basis Dimension        Dim             ....  439

ORBITAL ENERGIES
----------------

  NO   OCC          E(Eh)            E(eV)
   0   2.0000     -24.821081      -675.4160
   1   2.0000     -14.411572      -392.1588
   2   2.0000     -10.384292      -282.5710
   3   2.0000     -10.303129      -280.3624
   4   2.0000     -10.291364      -280.0422
   5   2.0000     -10.283380      -279.8250
   6   2.0000     -10.283016      -279.8151
   7   2.0000     -10.280844      -279.7560
   8   2.0000     -10.280611      -279.7497
   9   2.0000     -10.277891      -279.6756
  10   2.0000     -10.276380      -279.6345
  11   2.0000     -10.274386      -279.5803
  12   2.0000     -10.193845      -277.3886
  13   2.0000      -1.338226       -36.4150
  14   2.0000      -1.025413       -27.9029
  15   2.0000      -0.931441       -25.3458
  16   2.0000      -0.908478       -24.7209
  17   2.0000      -0.881552       -23.9883
  18   2.0000      -0.842271       -22.9194
  19   2.0000      -0.814724       -22.1698
  20   2.0000      -0.794203       -21.6114
  21   2.0000      -0.745376       -20.2827
  22   2.0000      -0.723042       -19.6750
  23   2.0000      -0.692452       -18.8426
  24   2.0000      -0.661904       -18.0113
  25   2.0000      -0.646682       -17.5971
  26   2.0000      -0.640486       -17.4285
  27   2.0000      -0.631248       -17.1771
  28   2.0000      -0.620422       -16.8826
  29   2.0000      -0.591092       -16.0844
  30   2.0000      -0.575427       -15.6582
  31   2.0000      -0.562934       -15.3182
  32   2.0000      -0.544747       -14.8233
  33   2.0000      -0.539275       -14.6744
  34   2.0000      -0.528882       -14.3916
  35   2.0000      -0.522622       -14.2213
  36   2.0000      -0.497483       -13.5372
  37   2.0000      -0.488268       -13.2865
  38   2.0000      -0.477936       -13.0053
  39   2.0000      -0.469817       -12.7844
  40   2.0000      -0.462473       -12.5845
  41   2.0000      -0.453249       -12.3335
  42   2.0000      -0.446238       -12.1428
  43   2.0000      -0.437487       -11.9046
  44   2.0000      -0.433916       -11.8074
  45   2.0000      -0.425267       -11.5721
  46   2.0000      -0.407214       -11.0809
  47   2.0000      -0.406004       -11.0479
  48   2.0000      -0.397857       -10.8262
  49   2.0000      -0.394570       -10.7368
  50   2.0000      -0.391585       -10.6556
  51   2.0000      -0.259495        -7.0612
  52   0.0000       0.086912         2.3650
  53   0.0000       0.096313         2.6208
  54   0.0000       0.103195         2.8081
  55   0.0000       0.104982         2.8567
  56   0.0000       0.120963         3.2916

MULLIKEN ATOMIC CHARGES
-----------------------
   0 C :    0.416758
   1 C :    0.479243
   2 H :   -0.005221
   3 C :   -0.134040
   4 H :   -0.113069
   5 H :    0.008708
   6 H :   -0.186522
   7 C :   -0.103508
   8 H :    0.138693
   9 C :    0.667165
  10 H :   -0.344544
  11 C :    0.032781
  12 H :   -0.003713
  13 H :    0.008479
  14 C :    0.403555
  15 H :    0.156050
  16 H :   -0.397003
  17 H :   -0.759133
  18 C :   -0.019108
  19 H :    0.006694
  20 H :    0.015494
  21 H :   -0.138466
  22 C :    1.035139
  23 H :   -0.080261
  24 H :    0.011745
  25 F :   -0.786656
  26 C :   -0.636914
  27 C :    0.728093
  28 N :    0.456273
  29 H :   -0.087662
  30 H :   -0.327690
  31 H :   -0.299361
  32 H :   -0.235493
  33 H :    0.381310
  34 H :   -0.287818
Sum of atomic charges:   -0.0000000

LOEWDIN ATOMIC CHARGES
----------------------
   0 C :    0.019104
   1 C :   -0.025568
   2 H :    0.013574
   3 C :   -0.031577
   4 H :    0.019847
   5 H :   -0.011714
   6 H :    0.026550
   7 C :   -0.028092
   8 H :    0.004470
   9 C :   -0.027207
  10 H :    0.025034
  11 C :   -0.035835
  12 H :    0.021528
  13 H :    0.022430
  14 C :   -0.027033
  15 H :    0.011519
  16 H :    0.021197
  17 H :   -0.026067
  18 C :   -0.015455
  19 H :    0.038346
  20 H :    0.028256
  21 H :    0.034387
  22 C :    0.170202
  23 H :    0.036391
  24 H :    0.046155
  25 F :   -0.228457
  26 C :   -0.241483
  27 C :    0.179926
  28 N :    0.194967
  29 H :    0.005665
  30 H :   -0.062587
  31 H :   -0.070585
  32 H :   -0.133309
  33 H :    0.020162
  34 H :    0.025259

  Mayer bond orders larger than 0.100000
B(  0-C ,  1-C ) :   1.2072 B(  0-C ,  2-H ) :   0.1471 B(  0-C ,  4-H ) :   0.2133
B(  0-C , 26-C ) :   1.1905 B(  0-C , 31-H ) :  -0.1302 B(  0-C , 33-H ) :   0.7495
B(  0-C , 34-H ) :   0.6420 B(  1-C ,  2-H ) :   0.6417 B(  1-C ,  3-C ) :   1.2499
B(  1-C ,  4-H ) :   0.7612 B(  1-C , 26-C ) :   0.1541 B(  1-C , 33-H ) :   0.1300
B(  2-H ,  3-C ) :   0.2823 B(  2-H ,  4-H ) :  -0.1432 B(  3-C ,  4-H ) :   0.1880
B(  3-C ,  5-H ) :   0.8593 B(  3-C ,  6-H ) :   0.8900 B(  3-C ,  7-C ) :   1.2539
B(  3-C ,  8-H ) :   0.1134 B(  3-C , 10-H ) :   0.1779 B(  5-H ,  7-C ) :   0.1196
B(  5-H , 15-H ) :   0.1535 B(  6-H ,  7-C ) :   0.1398 B(  7-C ,  8-H ) :   0.8548
B(  7-C ,  9-C ) :   1.1357 B(  7-C , 10-H ) :   0.9904 B(  7-C , 11-C ) :   0.1030
B(  7-C , 12-H ) :   0.1214 B(  7-C , 13-H ) :   0.2429 B(  8-H , 17-H ) :   0.1754
B(  9-C , 11-C ) :   1.1282 B(  9-C , 12-H ) :   0.7363 B(  9-C , 13-H ) :   0.6817
B( 11-C , 12-H ) :   0.1847 B( 11-C , 13-H ) :   0.1426 B( 11-C , 14-C ) :   1.1830
B( 11-C , 15-H ) :   0.8140 B( 11-C , 16-H ) :   1.0182 B( 11-C , 17-H ) :   0.1363
B( 11-C , 19-H ) :   0.1166 B( 12-H , 13-H ) :  -0.1021 B( 14-C , 15-H ) :   0.1405
B( 14-C , 16-H ) :   0.2300 B( 14-C , 17-H ) :   0.5062 B( 14-C , 18-C ) :   1.1660
B( 14-C , 19-H ) :   0.6762 B( 14-C , 20-H ) :   0.1228 B( 14-C , 21-H ) :   0.2280
B( 14-C , 27-C ) :   0.1720 B( 17-H , 18-C ) :   0.1286 B( 17-H , 19-H ) :   0.2743
B( 17-H , 26-C ) :   0.1061 B( 17-H , 27-C ) :  -0.1387 B( 17-H , 32-H ) :   0.1396
B( 18-C , 19-H ) :   0.1065 B( 18-C , 20-H ) :   0.9185 B( 18-C , 21-H ) :   0.8653
B( 18-C , 22-C ) :   1.1275 B( 18-C , 23-H ) :   0.1961 B( 18-C , 24-H ) :   0.1130
B( 18-C , 25-F ) :   0.1407 B( 22-C , 23-H ) :   0.7672 B( 22-C , 24-H ) :   0.8143
B( 22-C , 25-F ) :   0.6339 B( 24-H , 25-F ) :   0.1425 B( 25-F , 27-C ) :  -0.1048
B( 25-F , 30-H ) :   0.1516 B( 25-F , 32-H ) :   0.1494 B( 26-C , 27-C ) :   2.1773
B( 26-C , 28-N ) :   0.9757 B( 26-C , 31-H ) :   0.1818 B( 26-C , 32-H ) :   0.5975
B( 26-C , 34-H ) :   0.3963 B( 27-C , 28-N ) :   0.3528 B( 27-C , 31-H ) :   1.0163
B( 28-N , 29-H ) :   1.0795 B( 28-N , 30-H ) :   1.0795 B( 28-N , 31-H ) :   0.1282
B( 29-H , 30-H ) :  -0.2248 B( 31-H , 32-H ) :  -0.2227

Dispersion correction           -0.017828120
FINAL SINGLE POINT ENERGY      -586.425942182539

DIPOLE MOMENT
-------------
                                X             Y             Z
Electronic contribution:     -2.72184      -1.60168      10.43544
Nuclear contribution   :      1.82572       1.04089     -11.09065
                        -----------------------------------------
Total Dipole Moment    :     -0.89612      -0.56078      -0.65520
                        -----------------------------------------
Magnitude (a.u.)       :      1.24371
Magnitude (Debye)      :      3.16125

Rotational constants in cm-1:     0.028436     0.022359     0.014416
Rotational constants in MHz :   852.496561   670.291843   432.183951

                             ****ORCA TERMINATED NORMALLY****
TOTAL RUN TIME: 0 days 0 hours 1 minutes 13 seconds 728 msec
