                         Program Version 5.0.0 -  RELEASE  -
|  1> !PBE0 D3BJ RIJCOSX def2-SVPD def2/J TightSCF
|  2> *xyz -1 1
|  3> C          3.80351        1.37472       -3.26081
|  4> C          3.93993        0.32036       -4.36773
|  5> H          4.10504       -0.65508       -3.90773
|  6> H          3.02280        0.28052       -4.95712
|  7> C          5.10585        0.66802       -5.30546
|  8> O          4.80913        1.15019       -6.41436
|  9> O          6.26737        0.56500       -4.81948
| 10> H          3.64113        2.33595       -3.70189
| 11> H          4.69995        1.39701       -2.67703
| 12> H          2.97435        1.12625       -2.63180
| 13> *
| 14>
| 15> %MaxCore 64000
| 16>
| 17> %pal nprocs 4
| 18> end
| 19>
| 20> %scf
| 21>   MaxIter 150
| 22> end
| 23>
| 24>
| 25>                          ****END OF INPUT****

CARTESIAN COORDINATES (ANGSTROEM)
---------------------------------
  C      3.803510    1.374720   -3.260810
  C      3.939930    0.320360   -4.367730
  H      4.105040   -0.655080   -3.907730
  H      3.022800    0.280520   -4.957120
  C      5.105850    0.668020   -5.305460
  O      4.809130    1.150190   -6.414360
  O      6.267370    0.565000   -4.819480
  H      3.641130    2.335950   -3.701890
  H      4.699950    1.397010   -2.677030
  H      2.974350    1.126250   -2.631800

 Total Charge           Charge          ....   -1
 Multiplicity           Mult            ....    1
 Number of Electrons    NEL             ....   40
 Basis Dimension        Dim             ....  146

ORBITAL ENERGIES
----------------

  NO   OCC          E(Eh)            E(eV)
   0   2.0000     -18.956227      -515.8251
   1   2.0000     -18.952622      -515.7271
   2   2.0000     -10.115748      -275.2635
   3   2.0000     -10.070841      -274.0415
   4   2.0000     -10.057496      -273.6784
   5   2.0000      -0.840905       -22.8822
   6   2.0000      -0.746972       -20.3261
   7   2.0000      -0.621145       -16.9022
   8   2.0000      -0.485592       -13.2136
   9   2.0000      -0.334504        -9.1023
  10   2.0000      -0.304864        -8.2958
  11   2.0000      -0.273145        -7.4326
  12   2.0000      -0.244918        -6.6646
  13   2.0000      -0.227276        -6.1845
  14   2.0000      -0.223707        -6.0874
  15   2.0000      -0.191184        -5.2024
  16   2.0000      -0.179073        -4.8728
  17   2.0000      -0.063782        -1.7356
  18   2.0000      -0.053437        -1.4541
  19   2.0000      -0.043754        -1.1906
  20   0.0000       0.163336         4.4446
  21   0.0000       0.195647         5.3238
  22   0.0000       0.209955         5.7132
  23   0.0000       0.229006         6.2316
  24   0.0000       0.247713         6.7406

MULLIKEN ATOMIC CHARGES
-----------------------
   0 C :    0.358098
   1 C :   -0.436075
   2 H :    0.035384
   3 H :    0.033285
   4 C :    0.614248
   5 O :   -0.750210
   6 O :   -0.799971
   7 H :   -0.025478
   8 H :    0.004860
   9 H :   -0.034140
Sum of atomic charges:   -1.0000000

LOEWDIN ATOMIC CHARGES
----------------------
   0 C :    0.097937
   1 C :   -0.045459
   2 H :    0.004382
   3 H :   -0.000151
   4 C :   -0.298996
   5 O :   -0.329465
   6 O :   -0.341647
   7 H :   -0.019977
   8 H :   -0.024301
   9 H :   -0.042322

  Mayer bond orders larger than 0.100000
B(  0-C ,  1-C ) :   1.3138 B(  0-C ,  7-H ) :   0.8834 B(  0-C ,  8-H ) :   0.8688
B(  0-C ,  9-H ) :   0.8812 B(  1-C ,  2-H ) :   0.9357 B(  1-C ,  3-H ) :   0.9677
B(  1-C ,  4-C ) :   1.0256 B(  1-C ,  7-H ) :   0.1565 B(  1-C ,  8-H ) :   0.1632
B(  1-C ,  9-H ) :   0.1272 B(  3-H ,  4-C ) :   0.1335 B(  4-C ,  5-O ) :   1.3895
B(  4-C ,  6-O ) :   1.3756

Dispersion correction           -0.005485757
FINAL SINGLE POINT ENERGY      -267.362081775038

DIPOLE MOMENT
-------------
                                X             Y             Z
Electronic contribution:      3.70624      -0.49229      -4.48037
Nuclear contribution   :     -5.15232       0.33441       5.87398
                        -----------------------------------------
Total Dipole Moment    :     -1.44608      -0.15788       1.39361
                        -----------------------------------------
Magnitude (a.u.)       :      2.01450
Magnitude (Debye)      :      5.12046

Rotational constants in cm-1:     0.295355     0.137164     0.110193
Rotational constants in MHz :  8854.523706  4112.077980  3303.490503

                             ****ORCA TERMINATED NORMALLY****
TOTAL RUN TIME: 0 days 0 hours 0 minutes 15 seconds 318 msec
