                         Program Version 5.0.0 -  RELEASE  -
|  1> !PBE0 D3BJ RIJCOSX def2-SVPD def2/J TightSCF
|  2> *xyz 1 1
|  3> C          3.90595        2.81985       -3.75292
|  4> N          5.29562        3.13151       -4.10533
|  5> C          3.80351        1.37472       -3.26081
|  6> C          5.70862        3.46889       -5.32419
|  7> N          6.90470        3.03895       -5.71708
|  8> N          4.98188        4.29357       -6.09746
|  9> H          5.00055        4.10131       -7.08776
| 10> H          4.08469        4.59690       -5.73965
| 11> H          5.96336        2.52611       -3.64239
| 12> H          7.04716        2.06686       -5.47360
| 13> H          7.19815        3.30799       -6.64523
| 14> H          3.28202        2.94919       -4.64026
| 15> H          3.56525        3.51457       -2.98252
| 16> H          4.14157        0.71142       -4.02935
| 17> H          2.78528        1.15146       -3.01944
| 18> H          4.41205        1.25066       -2.38949
| 19> *
| 20>
| 21> %MaxCore 64000
| 22>
| 23> %pal nprocs 4
| 24> end
| 25>
| 26> %scf
| 27>   MaxIter 150
| 28> end
| 29>
| 30>
| 31>                          ****END OF INPUT****

CARTESIAN COORDINATES (ANGSTROEM)
---------------------------------
  C      3.905950    2.819850   -3.752920
  N      5.295620    3.131510   -4.105330
  C      3.803510    1.374720   -3.260810
  C      5.708620    3.468890   -5.324190
  N      6.904700    3.038950   -5.717080
  N      4.981880    4.293570   -6.097460
  H      5.000550    4.101310   -7.087760
  H      4.084690    4.596900   -5.739650
  H      5.963360    2.526110   -3.642390
  H      7.047160    2.066860   -5.473600
  H      7.198150    3.307990   -6.645230
  H      3.282020    2.949190   -4.640260
  H      3.565250    3.514570   -2.982520
  H      4.141570    0.711420   -4.029350
  H      2.785280    1.151460   -3.019440
  H      4.412050    1.250660   -2.389490

 Total Charge           Charge          ....    1
 Multiplicity           Mult            ....    1
 Number of Electrons    NEL             ....   48
 Basis Dimension        Dim             ....  200

ORBITAL ENERGIES
----------------

  NO   OCC          E(Eh)            E(eV)
   0   2.0000     -14.625643      -397.9840
   1   2.0000     -14.624729      -397.9591
   2   2.0000     -14.623363      -397.9219
   3   2.0000     -10.570275      -287.6318
   4   2.0000     -10.444824      -284.2181
   5   2.0000     -10.377735      -282.3925
   6   2.0000      -1.242987       -33.8234
   7   2.0000      -1.128351       -30.7040
   8   2.0000      -1.119384       -30.4600
   9   2.0000      -0.953059       -25.9341
  10   2.0000      -0.851980       -23.1836
  11   2.0000      -0.826110       -22.4796
  12   2.0000      -0.795938       -21.6586
  13   2.0000      -0.763222       -20.7683
  14   2.0000      -0.718724       -19.5575
  15   2.0000      -0.705566       -19.1994
  16   2.0000      -0.668071       -18.1791
  17   2.0000      -0.644215       -17.5300
  18   2.0000      -0.611358       -16.6359
  19   2.0000      -0.575209       -15.6522
  20   2.0000      -0.550613       -14.9829
  21   2.0000      -0.535135       -14.5618
  22   2.0000      -0.504890       -13.7387
  23   2.0000      -0.474020       -12.8987
  24   0.0000      -0.189800        -5.1647
  25   0.0000      -0.148325        -4.0361
  26   0.0000      -0.114250        -3.1089
  27   0.0000      -0.101592        -2.7644
  28   0.0000      -0.084714        -2.3052

MULLIKEN ATOMIC CHARGES
-----------------------
   0 C :    0.262899
   1 N :   -0.530084
   2 C :    0.507826
   3 C :    1.159671
   4 N :   -0.117538
   5 N :   -0.117387
   6 H :    0.000243
   7 H :    0.035502
   8 H :   -0.080270
   9 H :    0.034977
  10 H :    0.034139
  11 H :   -0.034435
  12 H :   -0.179841
  13 H :   -0.008255
  14 H :   -0.003910
  15 H :    0.036462
Sum of atomic charges:    1.0000000

LOEWDIN ATOMIC CHARGES
----------------------
   0 C :    0.039265
   1 N :    0.045875
   2 C :    0.156787
   3 C :   -0.044343
   4 N :    0.266894
   5 N :    0.279255
   6 H :    0.038900
   7 H :    0.025625
   8 H :    0.046739
   9 H :    0.038987
  10 H :    0.038177
  11 H :    0.025996
  12 H :    0.039983
  13 H :   -0.004918
  14 H :    0.007595
  15 H :   -0.000816

  Mayer bond orders larger than 0.100000
B(  0-C ,  1-N ) :   0.8039 B(  0-C ,  2-C ) :   1.3232 B(  0-C , 11-H ) :   0.8474
B(  0-C , 12-H ) :   0.9450 B(  0-C , 13-H ) :   0.1898 B(  0-C , 14-H ) :   0.2039
B(  0-C , 15-H ) :   0.1210 B(  1-N ,  3-C ) :   1.0740 B(  1-N ,  4-N ) :   0.2090
B(  1-N ,  5-N ) :   0.1082 B(  1-N ,  8-H ) :   1.1656 B(  1-N , 11-H ) :   0.1134
B(  1-N , 12-H ) :   0.1652 B(  2-C , 13-H ) :   0.8370 B(  2-C , 14-H ) :   0.8316
B(  2-C , 15-H ) :   0.8490 B(  3-C ,  4-N ) :   0.9249 B(  3-C ,  5-N ) :   0.9175
B(  3-C ,  8-H ) :  -0.1716 B(  4-N ,  5-N ) :   0.1177 B(  4-N ,  9-H ) :   1.0397
B(  4-N , 10-H ) :   0.9749 B(  5-N ,  6-H ) :   1.1457 B(  5-N ,  7-H ) :   0.9521
B(  6-H ,  7-H ) :  -0.1086

Dispersion correction           -0.010307802
FINAL SINGLE POINT ENERGY      -283.882094294332

DIPOLE MOMENT
-------------
                                X             Y             Z
Electronic contribution:      3.51841       3.40953      -2.65315
Nuclear contribution   :     -3.31456      -3.64300       1.57303
                        -----------------------------------------
Total Dipole Moment    :      0.20384      -0.23347      -1.08011
                        -----------------------------------------
Magnitude (a.u.)       :      1.12370
Magnitude (Debye)      :      2.85622

Rotational constants in cm-1:     0.229487     0.071000     0.059428
Rotational constants in MHz :  6879.840828  2128.520047  1781.605314

                             ****ORCA TERMINATED NORMALLY****
TOTAL RUN TIME: 0 days 0 hours 0 minutes 28 seconds 976 msec
