                         Program Version 5.0.0 -  RELEASE  -
|  1> !PBE0 D3BJ RIJCOSX def2-SVPD def2/J TightSCF
|  2> *xyz 0 1
|  3> C          3.80351        1.37472       -3.26081
|  4> C          3.93993        0.32036       -4.36773
|  5> H          4.10504       -0.65508       -3.90773
|  6> H          3.02280        0.28052       -4.95712
|  7> C          5.10585        0.66802       -5.30546
|  8> F          4.80913        1.15019       -6.41436
|  9> O          6.26737        0.56500       -4.81948
| 10> H          3.64113        2.33595       -3.70189
| 11> H          4.69995        1.39701       -2.67703
| 12> H          2.97435        1.12625       -2.63180
| 13> *
| 14>
| 15> %MaxCore 64000
| 16>
| 17> %pal nprocs 4
| 18> end
| 19>
| 20> %scf
| 21>   MaxIter 150
| 22> end
| 23>
| 24>
| 25>                          ****END OF INPUT****

CARTESIAN COORDINATES (ANGSTROEM)
---------------------------------
  C      3.803510    1.374720   -3.260810
  C      3.939930    0.320360   -4.367730
  H      4.105040   -0.655080   -3.907730
  H      3.022800    0.280520   -4.957120
  C      5.105850    0.668020   -5.305460
  F      4.809130    1.150190   -6.414360
  O      6.267370    0.565000   -4.819480
  H      3.641130    2.335950   -3.701890
  H      4.699950    1.397010   -2.677030
  H      2.974350    1.126250   -2.631800

 Total Charge           Charge          ....    0
 Multiplicity           Mult            ....    1
 Number of Electrons    NEL             ....   40
 Basis Dimension        Dim             ....  146

ORBITAL ENERGIES
----------------

  NO   OCC          E(Eh)            E(eV)
   0   2.0000     -24.862037      -676.5304
   1   2.0000     -19.226593      -523.1822
   2   2.0000     -10.417043      -283.4622
   3   2.0000     -10.266612      -279.3687
   4   2.0000     -10.241628      -278.6889
   5   2.0000      -1.349648       -36.7258
   6   2.0000      -1.050908       -28.5967
   7   2.0000      -0.819805       -22.3080
   8   2.0000      -0.709774       -19.3139
   9   2.0000      -0.662716       -18.0334
  10   2.0000      -0.576311       -15.6822
  11   2.0000      -0.561294       -15.2736
  12   2.0000      -0.525454       -14.2983
  13   2.0000      -0.481434       -13.1005
  14   2.0000      -0.452580       -12.3153
  15   2.0000      -0.416879       -11.3439
  16   2.0000      -0.395352       -10.7581
  17   2.0000      -0.388176       -10.5628
  18   2.0000      -0.363414        -9.8890
  19   2.0000      -0.307901        -8.3784
  20   0.0000      -0.031131        -0.8471
  21   0.0000       0.020723         0.5639
  22   0.0000       0.053662         1.4602
  23   0.0000       0.064699         1.7606
  24   0.0000       0.082037         2.2324

MULLIKEN ATOMIC CHARGES
-----------------------
   0 C :    0.387667
   1 C :   -0.471725
   2 H :    0.080691
   3 H :    0.065801
   4 C :    0.896768
   5 F :   -0.395976
   6 O :   -0.581994
   7 H :   -0.009238
   8 H :    0.022520
   9 H :    0.005486
Sum of atomic charges:    0.0000000

LOEWDIN ATOMIC CHARGES
----------------------
   0 C :    0.138055
   1 C :    0.001604
   2 H :    0.038279
   3 H :    0.022886
   4 C :   -0.000364
   5 F :   -0.030552
   6 O :   -0.146623
   7 H :   -0.007474
   8 H :   -0.005365
   9 H :   -0.010445

  Mayer bond orders larger than 0.100000
B(  0-C ,  1-C ) :   1.3266 B(  0-C ,  7-H ) :   0.8775 B(  0-C ,  8-H ) :   0.8681
B(  0-C ,  9-H ) :   0.8822 B(  1-C ,  2-H ) :   0.9248 B(  1-C ,  3-H ) :   0.9509
B(  1-C ,  4-C ) :   1.0749 B(  1-C ,  7-H ) :   0.1384 B(  1-C ,  8-H ) :   0.1441
B(  1-C ,  9-H ) :   0.1157 B(  4-C ,  5-F ) :   0.6914 B(  4-C ,  6-O ) :   1.7122

Dispersion correction           -0.005190338
FINAL SINGLE POINT ENERGY      -291.878552468776

DIPOLE MOMENT
-------------
                                X             Y             Z
Electronic contribution:      3.98162      -0.01304      -7.42969
Nuclear contribution   :     -5.17129      -0.01923       7.59895
                        -----------------------------------------
Total Dipole Moment    :     -1.18967      -0.03228       0.16926
                        -----------------------------------------
Magnitude (a.u.)       :      1.20209
Magnitude (Debye)      :      3.05546

Rotational constants in cm-1:     0.282073     0.131822     0.105134
Rotational constants in MHz :  8456.328792  3951.925810  3151.840112

                             ****ORCA TERMINATED NORMALLY****
TOTAL RUN TIME: 0 days 0 hours 0 minutes 14 seconds 168 msec
