                         Program Version 5.0.0 -  RELEASE  -
|  1> !PBE0 D3BJ RIJCOSX def2-SVPD def2/J TightSCF
|  2> *xyz 0 1
|  3> C          3.90595        2.81985       -3.75292
|  4> C          5.29562        3.13151       -4.10533
|  5> C          3.80351        1.37472       -3.26081
|  6> C          5.70862        3.46889       -5.32419
|  7> N          6.90470        3.03895       -5.71708
|  8> N          4.98188        4.29357       -6.09746
|  9> H          5.00055        4.10131       -7.08776
| 10> H          4.08469        4.59690       -5.73965
| 11> H          5.96336        2.52611       -3.64239
| 12> H          7.04716        2.06686       -5.47360
| 13> H          7.19815        3.30799       -6.64523
| 14> H          3.28202        2.94919       -4.64026
| 15> H          3.56525        3.51457       -2.98252
| 16> H          4.14157        0.71142       -4.02935
| 17> H          2.78528        1.15146       -3.01944
| 18> H          4.41205        1.25066       -2.38949
| 19> *
| 20>
| 21> %MaxCore 64000
| 22>
| 23> %pal nprocs 4
| 24> end
| 25>
| 26> %scf
| 27>   MaxIter 150
| 28> end
| 29>
| 30>
| 31>                          ****END OF INPUT****

CARTESIAN COORDINATES (ANGSTROEM)
---------------------------------
  C      3.905950    2.819850   -3.752920
  C      5.295620    3.131510   -4.105330
  C      3.803510    1.374720   -3.260810
  C      5.708620    3.468890   -5.324190
  N      6.904700    3.038950   -5.717080
  N      4.981880    4.293570   -6.097460
  H      5.000550    4.101310   -7.087760
  H      4.084690    4.596900   -5.739650
  H      5.963360    2.526110   -3.642390
  H      7.047160    2.066860   -5.473600
  H      7.198150    3.307990   -6.645230
  H      3.282020    2.949190   -4.640260
  H      3.565250    3.514570   -2.982520
  H      4.141570    0.711420   -4.029350
  H      2.785280    1.151460   -3.019440
  H      4.412050    1.250660   -2.389490

 Total Charge           Charge          ....    0
 Multiplicity           Mult            ....    1
 Number of Electrons    NEL             ....   48
 Basis Dimension        Dim             ....  200

ORBITAL ENERGIES
----------------

  NO   OCC          E(Eh)            E(eV)
   0   2.0000     -14.401278      -391.8787
   1   2.0000     -14.397681      -391.7808
   2   2.0000     -10.275337      -279.6061
   3   2.0000     -10.212143      -277.8865
   4   2.0000     -10.204223      -277.6710
   5   2.0000     -10.160730      -276.4875
   6   2.0000      -0.985714       -26.8226
   7   2.0000      -0.894830       -24.3496
   8   2.0000      -0.795401       -21.6440
   9   2.0000      -0.712423       -19.3860
  10   2.0000      -0.628938       -17.1143
  11   2.0000      -0.593453       -16.1487
  12   2.0000      -0.552684       -15.0393
  13   2.0000      -0.526165       -14.3177
  14   2.0000      -0.494119       -13.4457
  15   2.0000      -0.461286       -12.5522
  16   2.0000      -0.436551       -11.8792
  17   2.0000      -0.403555       -10.9813
  18   2.0000      -0.384006       -10.4493
  19   2.0000      -0.365287        -9.9400
  20   2.0000      -0.339742        -9.2449
  21   2.0000      -0.336658        -9.1609
  22   2.0000      -0.288521        -7.8511
  23   2.0000      -0.181686        -4.9439
  24   0.0000       0.018344         0.4992
  25   0.0000       0.047366         1.2889
  26   0.0000       0.049985         1.3601
  27   0.0000       0.059614         1.6222
  28   0.0000       0.077259         2.1023

MULLIKEN ATOMIC CHARGES
-----------------------
   0 C :   -0.193717
   1 C :   -0.135909
   2 C :    0.586032
   3 C :    0.430498
   4 N :   -0.067637
   5 N :   -0.109359
   6 H :   -0.073551
   7 H :    0.021062
   8 H :   -0.154413
   9 H :    0.027028
  10 H :   -0.083701
  11 H :   -0.092473
  12 H :   -0.106939
  13 H :    0.002207
  14 H :   -0.067946
  15 H :    0.018817
Sum of atomic charges:    0.0000000

LOEWDIN ATOMIC CHARGES
----------------------
   0 C :   -0.109524
   1 C :   -0.023055
   2 C :    0.109453
   3 C :   -0.238204
   4 N :    0.181293
   5 N :    0.192965
   6 H :   -0.010766
   7 H :   -0.005258
   8 H :   -0.053389
   9 H :    0.005354
  10 H :   -0.010433
  11 H :    0.004217
  12 H :    0.010366
  13 H :   -0.015124
  14 H :   -0.022964
  15 H :   -0.014931

  Mayer bond orders larger than 0.100000
B(  0-C ,  1-C ) :   0.9670 B(  0-C ,  2-C ) :   1.2961 B(  0-C ,  8-H ) :   0.1887
B(  0-C , 11-H ) :   0.9022 B(  0-C , 12-H ) :   0.8819 B(  0-C , 13-H ) :   0.2039
B(  0-C , 14-H ) :   0.2367 B(  0-C , 15-H ) :   0.1644 B(  1-C ,  3-C ) :   1.9386
B(  1-C ,  4-N ) :   0.3076 B(  1-C ,  5-N ) :   0.1614 B(  1-C ,  8-H ) :   0.6535
B(  1-C , 12-H ) :   0.1517 B(  2-C , 13-H ) :   0.8226 B(  2-C , 14-H ) :   0.8240
B(  2-C , 15-H ) :   0.8367 B(  3-C ,  4-N ) :   0.8934 B(  3-C ,  5-N ) :   0.8947
B(  3-C ,  8-H ) :   0.2791 B(  4-N ,  9-H ) :   1.0321 B(  4-N , 10-H ) :   0.9466
B(  5-N ,  6-H ) :   1.1166 B(  5-N ,  7-H ) :   0.9567

Dispersion correction           -0.010730141
FINAL SINGLE POINT ENERGY      -267.426169499578

DIPOLE MOMENT
-------------
                                X             Y             Z
Electronic contribution:      3.17617       3.25928      -2.83034
Nuclear contribution   :     -3.27358      -3.61654       1.70633
                        -----------------------------------------
Total Dipole Moment    :     -0.09740      -0.35726      -1.12401
                        -----------------------------------------
Magnitude (a.u.)       :      1.18344
Magnitude (Debye)      :      3.00805

Rotational constants in cm-1:     0.231961     0.071249     0.059473
Rotational constants in MHz :  6954.024434  2135.976855  1782.962814

                             ****ORCA TERMINATED NORMALLY****
TOTAL RUN TIME: 0 days 0 hours 0 minutes 30 seconds 491 msec
