                         Program Version 5.0.0 -  RELEASE  -
|  1> !PBE0 D3BJ RIJCOSX def2-SVPD def2/J TightSCF
|  2> *xyz 0 1
|  3> C          3.80351        1.37472       -3.26081
|  4> C          3.93993        0.32036       -4.36773
|  5> H          4.10504       -0.65508       -3.90773
|  6> H          3.02280        0.28052       -4.95712
|  7> C          5.10585        0.66802       -5.30546
|  8> O          4.80913        1.15019       -6.41436
|  9> F          6.26737        0.56500       -4.81948
| 10> H          3.64113        2.33595       -3.70189
| 11> H          4.69995        1.39701       -2.67703
| 12> H          2.97435        1.12625       -2.63180
| 13> *
| 14>
| 15> %MaxCore 64000
| 16>
| 17> %pal nprocs 4
| 18> end
| 19>
| 20> %scf
| 21>   MaxIter 150
| 22> end
| 23>
| 24>
| 25>                          ****END OF INPUT****

CARTESIAN COORDINATES (ANGSTROEM)
---------------------------------
  C      3.803510    1.374720   -3.260810
  C      3.939930    0.320360   -4.367730
  H      4.105040   -0.655080   -3.907730
  H      3.022800    0.280520   -4.957120
  C      5.105850    0.668020   -5.305460
  O      4.809130    1.150190   -6.414360
  F      6.267370    0.565000   -4.819480
  H      3.641130    2.335950   -3.701890
  H      4.699950    1.397010   -2.677030
  H      2.974350    1.126250   -2.631800

 Total Charge           Charge          ....    0
 Multiplicity           Mult            ....    1
 Number of Electrons    NEL             ....   40
 Basis Dimension        Dim             ....  146

ORBITAL ENERGIES
----------------

  NO   OCC          E(Eh)            E(eV)
   0   2.0000     -24.855268      -676.3462
   1   2.0000     -19.229335      -523.2568
   2   2.0000     -10.415111      -283.4096
   3   2.0000     -10.266151      -279.3562
   4   2.0000     -10.244379      -278.7637
   5   2.0000      -1.335731       -36.3471
   6   2.0000      -1.062130       -28.9020
   7   2.0000      -0.821675       -22.3589
   8   2.0000      -0.703527       -19.1440
   9   2.0000      -0.661033       -17.9876
  10   2.0000      -0.570015       -15.5109
  11   2.0000      -0.556909       -15.1543
  12   2.0000      -0.522457       -14.2168
  13   2.0000      -0.481531       -13.1031
  14   2.0000      -0.453682       -12.3453
  15   2.0000      -0.420602       -11.4452
  16   2.0000      -0.400834       -10.9073
  17   2.0000      -0.388517       -10.5721
  18   2.0000      -0.372634       -10.1399
  19   2.0000      -0.308660        -8.3991
  20   0.0000      -0.027019        -0.7352
  21   0.0000       0.019864         0.5405
  22   0.0000       0.053908         1.4669
  23   0.0000       0.064667         1.7597
  24   0.0000       0.082783         2.2526

MULLIKEN ATOMIC CHARGES
-----------------------
   0 C :    0.374109
   1 C :   -0.456354
   2 H :    0.075309
   3 H :    0.056478
   4 C :    0.915445
   5 O :   -0.551044
   6 F :   -0.432273
   7 H :   -0.000180
   8 H :    0.009605
   9 H :    0.008904
Sum of atomic charges:    0.0000000

LOEWDIN ATOMIC CHARGES
----------------------
   0 C :    0.135189
   1 C :    0.003987
   2 H :    0.030342
   3 H :    0.034611
   4 C :   -0.001541
   5 O :   -0.135191
   6 F :   -0.042502
   7 H :   -0.004193
   8 H :   -0.010692
   9 H :   -0.010010

  Mayer bond orders larger than 0.100000
B(  0-C ,  1-C ) :   1.3104 B(  0-C ,  7-H ) :   0.8895 B(  0-C ,  8-H ) :   0.8618
B(  0-C ,  9-H ) :   0.8865 B(  1-C ,  2-H ) :   0.9190 B(  1-C ,  3-H ) :   0.9777
B(  1-C ,  4-C ) :   1.0453 B(  1-C ,  7-H ) :   0.1371 B(  1-C ,  8-H ) :   0.1384
B(  1-C ,  9-H ) :   0.1151 B(  4-C ,  5-O ) :   1.7281 B(  4-C ,  6-F ) :   0.6524
B(  5-O ,  6-F ) :   0.1018

Dispersion correction           -0.005174287
FINAL SINGLE POINT ENERGY      -291.883956871564

DIPOLE MOMENT
-------------
                                X             Y             Z
Electronic contribution:      6.40258      -0.99131      -4.75779
Nuclear contribution   :     -6.76123       0.61881       5.86003
                        -----------------------------------------
Total Dipole Moment    :     -0.35865      -0.37250       1.10224
                        -----------------------------------------
Magnitude (a.u.)       :      1.21751
Magnitude (Debye)      :      3.09466

Rotational constants in cm-1:     0.275298     0.134631     0.105723
Rotational constants in MHz :  8253.224169  4036.137572  3169.487264

                             ****ORCA TERMINATED NORMALLY****
TOTAL RUN TIME: 0 days 0 hours 0 minutes 15 seconds 659 msec
