                         Program Version 5.0.0 -  RELEASE  -
|  1> !PBE0 D3BJ RIJCOSX def2-SVPD def2/J TightSCF
|  2> *xyz 0 1
|  3> C          3.90595        2.81985       -3.75292
|  4> N          5.29562        3.13151       -4.10533
|  5> C          3.80351        1.37472       -3.26081
|  6> C          5.70862        3.46889       -5.32419
|  7> C          6.90470        3.03895       -5.71708
|  8> N          4.98188        4.29357       -6.09746
|  9> H          5.00055        4.10131       -7.08776
| 10> H          4.08469        4.59690       -5.73965
| 11> H          5.96336        2.52611       -3.64239
| 12> H          7.04716        2.06686       -5.47360
| 13> H          7.19815        3.30799       -6.64523
| 14> H          3.28202        2.94919       -4.64026
| 15> H          3.56525        3.51457       -2.98252
| 16> H          4.14157        0.71142       -4.02935
| 17> H          2.78528        1.15146       -3.01944
| 18> H          4.41205        1.25066       -2.38949
| 19> *
| 20>
| 21> %MaxCore 64000
| 22>
| 23> %pal nprocs 4
| 24> end
| 25>
| 26> %scf
| 27>   MaxIter 150
| 28> end
| 29>
| 30>
| 31>                          ****END OF INPUT****

CARTESIAN COORDINATES (ANGSTROEM)
---------------------------------
  C      3.905950    2.819850   -3.752920
  N      5.295620    3.131510   -4.105330
  C      3.803510    1.374720   -3.260810
  C      5.708620    3.468890   -5.324190
  C      6.904700    3.038950   -5.717080
  N      4.981880    4.293570   -6.097460
  H      5.000550    4.101310   -7.087760
  H      4.084690    4.596900   -5.739650
  H      5.963360    2.526110   -3.642390
  H      7.047160    2.066860   -5.473600
  H      7.198150    3.307990   -6.645230
  H      3.282020    2.949190   -4.640260
  H      3.565250    3.514570   -2.982520
  H      4.141570    0.711420   -4.029350
  H      2.785280    1.151460   -3.019440
  H      4.412050    1.250660   -2.389490

 Total Charge           Charge          ....    0
 Multiplicity           Mult            ....    1
 Number of Electrons    NEL             ....   48
 Basis Dimension        Dim             ....  200

ORBITAL ENERGIES
----------------

  NO   OCC          E(Eh)            E(eV)
   0   2.0000     -14.400505      -391.8577
   1   2.0000     -14.399876      -391.8406
   2   2.0000     -10.279958      -279.7319
   3   2.0000     -10.274134      -279.5734
   4   2.0000     -10.232992      -278.4539
   5   2.0000     -10.145408      -276.0706
   6   2.0000      -0.990657       -26.9571
   7   2.0000      -0.906600       -24.6699
   8   2.0000      -0.792013       -21.5518
   9   2.0000      -0.723627       -19.6909
  10   2.0000      -0.645795       -17.5730
  11   2.0000      -0.614136       -16.7115
  12   2.0000      -0.551454       -15.0058
  13   2.0000      -0.511422       -13.9165
  14   2.0000      -0.500291       -13.6136
  15   2.0000      -0.468398       -12.7458
  16   2.0000      -0.436890       -11.8884
  17   2.0000      -0.416255       -11.3269
  18   2.0000      -0.394964       -10.7475
  19   2.0000      -0.389245       -10.5919
  20   2.0000      -0.384915       -10.4741
  21   2.0000      -0.351107        -9.5541
  22   2.0000      -0.274575        -7.4716
  23   2.0000      -0.185280        -5.0417
  24   0.0000       0.018515         0.5038
  25   0.0000       0.039723         1.0809
  26   0.0000       0.052300         1.4231
  27   0.0000       0.055910         1.5214
  28   0.0000       0.075324         2.0497

MULLIKEN ATOMIC CHARGES
-----------------------
   0 C :    0.241673
   1 N :   -0.547019
   2 C :    0.510980
   3 C :    0.450620
   4 C :    0.357968
   5 N :   -0.086628
   6 H :   -0.017820
   7 H :   -0.063711
   8 H :   -0.046985
   9 H :   -0.191668
  10 H :   -0.273030
  11 H :   -0.048334
  12 H :   -0.231037
  13 H :   -0.022831
  14 H :   -0.053537
  15 H :    0.021359
Sum of atomic charges:   -0.0000000

LOEWDIN ATOMIC CHARGES
----------------------
   0 C :    0.007214
   1 N :   -0.017788
   2 C :    0.127542
   3 C :   -0.243195
   4 C :    0.138923
   5 N :    0.196718
   6 H :    0.005710
   7 H :   -0.018470
   8 H :    0.020128
   9 H :   -0.100588
  10 H :   -0.102273
  11 H :    0.012172
  12 H :    0.014672
  13 H :   -0.010357
  14 H :   -0.015848
  15 H :   -0.014560

  Mayer bond orders larger than 0.100000
B(  0-C ,  1-N ) :   0.8114 B(  0-C ,  2-C ) :   1.3037 B(  0-C , 11-H ) :   0.8424
B(  0-C , 12-H ) :   0.9369 B(  0-C , 13-H ) :   0.2075 B(  0-C , 14-H ) :   0.2102
B(  0-C , 15-H ) :   0.1288 B(  1-N ,  3-C ) :   1.0608 B(  1-N ,  4-C ) :   0.2262
B(  1-N ,  8-H ) :   1.1048 B(  1-N , 11-H ) :   0.1223 B(  1-N , 12-H ) :   0.1722
B(  2-C , 13-H ) :   0.8348 B(  2-C , 14-H ) :   0.8447 B(  2-C , 15-H ) :   0.8438
B(  3-C ,  4-C ) :   1.7751 B(  3-C ,  5-N ) :   0.8353 B(  3-C ,  8-H ) :  -0.1308
B(  3-C ,  9-H ) :   0.1823 B(  3-C , 10-H ) :   0.3122 B(  4-C ,  5-N ) :   0.2254
B(  4-C ,  9-H ) :   0.9237 B(  4-C , 10-H ) :   0.6121 B(  5-N ,  6-H ) :   1.1151
B(  5-N ,  7-H ) :   0.9373 B(  6-H ,  7-H ) :  -0.1021 B(  9-H , 10-H ) :   0.1633

Dispersion correction           -0.010644312
FINAL SINGLE POINT ENERGY      -267.413209579027

DIPOLE MOMENT
-------------
                                X             Y             Z
Electronic contribution:      1.53130       3.24177      -1.27336
Nuclear contribution   :     -2.93222      -3.63618       1.36440
                        -----------------------------------------
Total Dipole Moment    :     -1.40092      -0.39441       0.09104
                        -----------------------------------------
Magnitude (a.u.)       :      1.45822
Magnitude (Debye)      :      3.70651

Rotational constants in cm-1:     0.237993     0.072843     0.061284
Rotational constants in MHz :  7134.860770  2183.763760  1837.240960

                             ****ORCA TERMINATED NORMALLY****
TOTAL RUN TIME: 0 days 0 hours 0 minutes 28 seconds 850 msec
