                         Program Version 5.0.0 -  RELEASE  -
|  1> !PBE0 D3BJ RIJCOSX def2-SVPD def2/J TightSCF
|  2> *xyz 0 1
|  3> C          3.90595        2.81985       -3.75292
|  4> N          5.29562        3.13151       -4.10533
|  5> C          3.80351        1.37472       -3.26081
|  6> C          5.70862        3.46889       -5.32419
|  7> N          6.90470        3.03895       -5.71708
|  8> C          4.98188        4.29357       -6.09746
|  9> H          5.00055        4.10131       -7.08776
| 10> H          4.08469        4.59690       -5.73965
| 11> H          5.96336        2.52611       -3.64239
| 12> H          7.04716        2.06686       -5.47360
| 13> H          7.19815        3.30799       -6.64523
| 14> H          3.28202        2.94919       -4.64026
| 15> H          3.56525        3.51457       -2.98252
| 16> H          4.14157        0.71142       -4.02935
| 17> H          2.78528        1.15146       -3.01944
| 18> H          4.41205        1.25066       -2.38949
| 19> *
| 20>
| 21> %MaxCore 64000
| 22>
| 23> %pal nprocs 4
| 24> end
| 25>
| 26> %scf
| 27>   MaxIter 150
| 28> end
| 29>
| 30>
| 31>                          ****END OF INPUT****

CARTESIAN COORDINATES (ANGSTROEM)
---------------------------------
  C      3.905950    2.819850   -3.752920
  N      5.295620    3.131510   -4.105330
  C      3.803510    1.374720   -3.260810
  C      5.708620    3.468890   -5.324190
  N      6.904700    3.038950   -5.717080
  C      4.981880    4.293570   -6.097460
  H      5.000550    4.101310   -7.087760
  H      4.084690    4.596900   -5.739650
  H      5.963360    2.526110   -3.642390
  H      7.047160    2.066860   -5.473600
  H      7.198150    3.307990   -6.645230
  H      3.282020    2.949190   -4.640260
  H      3.565250    3.514570   -2.982520
  H      4.141570    0.711420   -4.029350
  H      2.785280    1.151460   -3.019440
  H      4.412050    1.250660   -2.389490

 Total Charge           Charge          ....    0
 Multiplicity           Mult            ....    1
 Number of Electrons    NEL             ....   48
 Basis Dimension        Dim             ....  200

ORBITAL ENERGIES
----------------

  NO   OCC          E(Eh)            E(eV)
   0   2.0000     -14.402350      -391.9079
   1   2.0000     -14.399417      -391.8281
   2   2.0000     -10.279220      -279.7118
   3   2.0000     -10.268355      -279.4161
   4   2.0000     -10.230916      -278.3974
   5   2.0000     -10.151244      -276.2294
   6   2.0000      -0.995854       -27.0986
   7   2.0000      -0.908723       -24.7276
   8   2.0000      -0.780654       -21.2427
   9   2.0000      -0.725362       -19.7381
  10   2.0000      -0.660169       -17.9641
  11   2.0000      -0.583321       -15.8730
  12   2.0000      -0.554776       -15.0962
  13   2.0000      -0.533631       -14.5208
  14   2.0000      -0.487981       -13.2786
  15   2.0000      -0.472865       -12.8673
  16   2.0000      -0.420130       -11.4323
  17   2.0000      -0.417197       -11.3525
  18   2.0000      -0.407532       -11.0895
  19   2.0000      -0.387336       -10.5400
  20   2.0000      -0.377154       -10.2629
  21   2.0000      -0.352780        -9.5996
  22   2.0000      -0.272418        -7.4129
  23   2.0000      -0.188666        -5.1339
  24   0.0000       0.017947         0.4884
  25   0.0000       0.043933         1.1955
  26   0.0000       0.054870         1.4931
  27   0.0000       0.056095         1.5264
  28   0.0000       0.073977         2.0130

MULLIKEN ATOMIC CHARGES
-----------------------
   0 C :    0.272023
   1 N :   -0.445262
   2 C :    0.535292
   3 C :    0.323209
   4 N :   -0.137259
   5 C :    0.332722
   6 H :   -0.365177
   7 H :   -0.023852
   8 H :   -0.183341
   9 H :   -0.018869
  10 H :    0.036101
  11 H :    0.000630
  12 H :   -0.256942
  13 H :   -0.032241
  14 H :   -0.035212
  15 H :   -0.001824
Sum of atomic charges:   -0.0000000

LOEWDIN ATOMIC CHARGES
----------------------
   0 C :    0.018955
   1 N :   -0.016209
   2 C :    0.124684
   3 C :   -0.254451
   4 N :    0.183228
   5 C :    0.157976
   6 H :   -0.102195
   7 H :   -0.107269
   8 H :    0.009454
   9 H :   -0.008435
  10 H :    0.004667
  11 H :    0.017587
  12 H :    0.019540
  13 H :   -0.014617
  14 H :   -0.014935
  15 H :   -0.017979

  Mayer bond orders larger than 0.100000
B(  0-C ,  1-N ) :   0.8460 B(  0-C ,  2-C ) :   1.2773 B(  0-C , 11-H ) :   0.8655
B(  0-C , 12-H ) :   0.9413 B(  0-C , 13-H ) :   0.1803 B(  0-C , 14-H ) :   0.2131
B(  0-C , 15-H ) :   0.1346 B(  1-N ,  3-C ) :   1.0288 B(  1-N ,  4-N ) :   0.1799
B(  1-N ,  5-C ) :   0.2107 B(  1-N ,  8-H ) :   1.0957 B(  1-N , 11-H ) :   0.1164
B(  1-N , 12-H ) :   0.1676 B(  2-C , 13-H ) :   0.8558 B(  2-C , 14-H ) :   0.8262
B(  2-C , 15-H ) :   0.8421 B(  3-C ,  4-N ) :   0.9300 B(  3-C ,  5-C ) :   1.8798
B(  3-C ,  6-H ) :   0.1818 B(  3-C ,  7-H ) :   0.2752 B(  3-C ,  8-H ) :  -0.1156
B(  4-N ,  5-C ) :   0.1329 B(  4-N ,  9-H ) :   0.9844 B(  4-N , 10-H ) :   0.9687
B(  5-C ,  6-H ) :   0.9257 B(  5-C ,  7-H ) :   0.5448 B(  6-H ,  7-H ) :   0.2625

Dispersion correction           -0.010669216
FINAL SINGLE POINT ENERGY      -267.417625377264

DIPOLE MOMENT
-------------
                                X             Y             Z
Electronic contribution:      3.39115       2.07656      -0.98269
Nuclear contribution   :     -3.34013      -3.37002       1.28371
                        -----------------------------------------
Total Dipole Moment    :      0.05101      -1.29346       0.30102
                        -----------------------------------------
Magnitude (a.u.)       :      1.32901
Magnitude (Debye)      :      3.37807

Rotational constants in cm-1:     0.239537     0.072280     0.060961
Rotational constants in MHz :  7181.153552  2166.902802  1827.551447

                             ****ORCA TERMINATED NORMALLY****
TOTAL RUN TIME: 0 days 0 hours 0 minutes 27 seconds 525 msec
