                         Program Version 5.0.0 -  RELEASE  -
|  1> !PBE0 D3BJ RIJCOSX def2-SVPD def2/J TightSCF xyzfile
|  2>
|  3> *xyzfile 0 1 D1.xyz
|  4>
|  5> %MaxCore 64000
|  6>
|  7> %pal nprocs 4
|  8> end
|  9>
| 10> %scf
| 11>   MaxIter 150
| 12> end
| 13>
| 14>
| 15>                          ****END OF INPUT****

CARTESIAN COORDINATES (ANGSTROEM)
---------------------------------
  C      3.905947    2.819855   -3.752920
  C      5.295615    3.131515   -4.105334
  C      3.803511    1.374716   -3.260807
  C      3.939934    0.320362   -4.367729
  H      4.105043   -0.655085   -3.907733
  H      3.022801    0.280517   -4.957117
  C      5.105846    0.668022   -5.305463
  C      5.708619    3.468885   -5.324190
  N      6.904696    3.038954   -5.717084
  N      4.981884    4.293570   -6.097457
  H      5.000546    4.101311   -7.087761
  H      4.084693    4.596899   -5.739652
  H      5.963358    2.526112   -3.642391
  H      7.047164    2.066861   -5.473604
  H      7.198145    3.307994   -6.645225
  H      3.282025    2.949187   -4.640259
  H      3.565254    3.514574   -2.982523
  H      4.574833    1.215157   -2.500443
  H      2.843514    1.260845   -2.751465
  F      4.809132    1.150187   -6.414361
  O      6.267366    0.564999   -4.819481

 Total Charge           Charge          ....    0
 Multiplicity           Mult            ....    1
 Number of Electrons    NEL             ....   78
 Basis Dimension        Dim             ....  294

ORBITAL ENERGIES
----------------

  NO   OCC          E(Eh)            E(eV)
   0   2.0000     -24.865441      -676.6230
   1   2.0000     -19.228628      -523.2376
   2   2.0000     -14.401341      -391.8804
   3   2.0000     -14.379749      -391.2929
   4   2.0000     -10.422591      -283.6131
   5   2.0000     -10.275489      -279.6103
   6   2.0000     -10.262442      -279.2552
   7   2.0000     -10.242153      -278.7031
   8   2.0000     -10.224304      -278.2175
   9   2.0000     -10.162468      -276.5348
  10   2.0000      -1.353098       -36.8197
  11   2.0000      -1.059760       -28.8375
  12   2.0000      -0.980658       -26.6851
  13   2.0000      -0.888470       -24.1765
  14   2.0000      -0.837014       -22.7763
  15   2.0000      -0.770195       -20.9581
  16   2.0000      -0.713812       -19.4238
  17   2.0000      -0.680731       -18.5236
  18   2.0000      -0.626425       -17.0459
  19   2.0000      -0.597446       -16.2573
  20   2.0000      -0.579833       -15.7781
  21   2.0000      -0.561817       -15.2878
  22   2.0000      -0.552021       -15.0213
  23   2.0000      -0.536431       -14.5970
  24   2.0000      -0.518530       -14.1099
  25   2.0000      -0.484636       -13.1876
  26   2.0000      -0.476059       -12.9542
  27   2.0000      -0.458164       -12.4673
  28   2.0000      -0.446516       -12.1503
  29   2.0000      -0.416050       -11.3213
  30   2.0000      -0.402410       -10.9501
  31   2.0000      -0.382833       -10.4174
  32   2.0000      -0.379021       -10.3137
  33   2.0000      -0.362235        -9.8569
  34   2.0000      -0.349247        -9.5035
  35   2.0000      -0.336161        -9.1474
  36   2.0000      -0.315187        -8.5767
  37   2.0000      -0.279360        -7.6018
  38   2.0000      -0.183534        -4.9942
  39   0.0000      -0.035100        -0.9551
  40   0.0000       0.017238         0.4691
  41   0.0000       0.037781         1.0281
  42   0.0000       0.046934         1.2772
  43   0.0000       0.053753         1.4627

MULLIKEN ATOMIC CHARGES
-----------------------
   0 C :    0.212785
   1 C :   -0.030427
   2 C :    0.065436
   3 C :    0.110791
   4 H :   -0.005775
   5 H :    0.064600
   6 C :    0.932677
   7 C :    0.327649
   8 N :    0.089832
   9 N :   -0.140959
  10 H :   -0.045681
  11 H :    0.024818
  12 H :   -0.147332
  13 H :   -0.061065
  14 H :   -0.033831
  15 H :   -0.078033
  16 H :   -0.171990
  17 H :    0.105681
  18 H :   -0.100383
  19 F :   -0.447011
  20 O :   -0.671781
Sum of atomic charges:   -0.0000000

LOEWDIN ATOMIC CHARGES
----------------------
   0 C :   -0.052387
   1 C :   -0.011205
   2 C :   -0.017620
   3 C :    0.062528
   4 H :    0.039025
   5 H :    0.026643
   6 C :    0.018910
   7 C :   -0.244568
   8 N :    0.216422
   9 N :    0.202993
  10 H :   -0.009344
  11 H :   -0.005139
  12 H :   -0.050408
  13 H :   -0.071500
  14 H :   -0.001547
  15 H :    0.009425
  16 H :    0.013274
  17 H :    0.035641
  18 H :    0.022964
  19 F :   -0.025511
  20 O :   -0.158598

  Mayer bond orders larger than 0.100000
B(  0-C ,  1-C ) :   1.0158 B(  0-C ,  2-C ) :   1.2147 B(  0-C , 12-H ) :   0.2015
B(  0-C , 15-H ) :   0.8136 B(  0-C , 16-H ) :   0.8868 B(  0-C , 18-H ) :   0.1896
B(  1-C ,  7-C ) :   1.7688 B(  1-C ,  8-N ) :   0.3210 B(  1-C ,  9-N ) :   0.1431
B(  1-C , 12-H ) :   0.5102 B(  1-C , 15-H ) :   0.1027 B(  1-C , 16-H ) :   0.1450
B(  2-C ,  3-C ) :   1.2174 B(  2-C ,  4-H ) :   0.1605 B(  2-C ,  5-H ) :   0.1032
B(  2-C , 17-H ) :   0.8353 B(  2-C , 18-H ) :   0.9134 B(  3-C ,  4-H ) :   0.8390
B(  3-C ,  5-H ) :   0.8862 B(  3-C ,  6-C ) :   1.1120 B(  4-H ,  6-C ) :   0.1119
B(  5-H ,  6-C ) :   0.1005 B(  6-C , 19-F ) :   0.5615 B(  6-C , 20-O ) :   1.5184
B(  7-C ,  8-N ) :   0.8299 B(  7-C ,  9-N ) :   0.8610 B(  7-C , 12-H ) :   0.2559
B(  7-C , 14-H ) :   0.1541 B(  8-N ,  9-N ) :   0.1381 B(  8-N , 13-H ) :   0.8992
B(  8-N , 14-H ) :   0.8566 B(  9-N , 10-H ) :   1.0903 B(  9-N , 11-H ) :   0.9631
B( 13-H , 20-O ) :   0.1251

Dispersion correction           -0.019655477
FINAL SINGLE POINT ENERGY      -518.880201806939

DIPOLE MOMENT
-------------
                                X             Y             Z
Electronic contribution:      3.40364      -3.59932      -6.45238
Nuclear contribution   :     -4.60158       3.22721       5.56005
                        -----------------------------------------
Total Dipole Moment    :     -1.19795      -0.37211      -0.89233
                        -----------------------------------------
Magnitude (a.u.)       :      1.53941
Magnitude (Debye)      :      3.91288

Rotational constants in cm-1:     0.061224     0.042534     0.033552
Rotational constants in MHz :  1835.464095  1275.135177  1005.856966

                             ****ORCA TERMINATED NORMALLY****
TOTAL RUN TIME: 0 days 0 hours 1 minutes 5 seconds 923 msec
