                         Program Version 5.0.0 -  RELEASE  -
|  1> !PBE0 D3BJ RIJCOSX def2-SVPD def2/J TightSCF xyzfile
|  2>
|  3> *xyzfile 0 1 D5.xyz
|  4>
|  5> %MaxCore 64000
|  6>
|  7> %pal nprocs 4
|  8> end
|  9>
| 10> %scf
| 11>   MaxIter 150
| 12> end
| 13>
| 14>
| 15>                          ****END OF INPUT****

CARTESIAN COORDINATES (ANGSTROEM)
---------------------------------
  C      3.905947    2.819855   -3.752920
  N      5.295615    3.131515   -4.105334
  C      3.803511    1.374716   -3.260807
  C      3.939934    0.320362   -4.367729
  H      4.105043   -0.655085   -3.907733
  H      3.022801    0.280517   -4.957117
  C      5.105846    0.668022   -5.305463
  C      5.708619    3.468885   -5.324190
  C      6.904696    3.038954   -5.717084
  N      4.981884    4.293570   -6.097457
  H      5.000546    4.101311   -7.087761
  H      4.084693    4.596899   -5.739652
  H      5.963358    2.526112   -3.642391
  H      7.047164    2.066861   -5.473604
  H      7.198145    3.307994   -6.645225
  H      3.282025    2.949187   -4.640259
  H      3.565254    3.514574   -2.982523
  H      4.574833    1.215157   -2.500443
  H      2.843514    1.260845   -2.751465
  O      4.809132    1.150187   -6.414361
  F      6.267366    0.564999   -4.819481

 Total Charge           Charge          ....    0
 Multiplicity           Mult            ....    1
 Number of Electrons    NEL             ....   78
 Basis Dimension        Dim             ....  294

ORBITAL ENERGIES
----------------

  NO   OCC          E(Eh)            E(eV)
   0   2.0000     -24.859382      -676.4582
   1   2.0000     -19.230257      -523.2819
   2   2.0000     -14.406029      -392.0080
   3   2.0000     -14.393862      -391.6769
   4   2.0000     -10.418280      -283.4958
   5   2.0000     -10.281987      -279.7871
   6   2.0000     -10.273847      -279.5656
   7   2.0000     -10.272806      -279.5373
   8   2.0000     -10.267656      -279.3971
   9   2.0000     -10.135043      -275.7885
  10   2.0000      -1.342569       -36.5332
  11   2.0000      -1.065215       -28.9860
  12   2.0000      -0.991986       -26.9933
  13   2.0000      -0.907326       -24.6896
  14   2.0000      -0.839178       -22.8352
  15   2.0000      -0.762459       -20.7476
  16   2.0000      -0.719629       -19.5821
  17   2.0000      -0.680723       -18.5234
  18   2.0000      -0.639902       -17.4126
  19   2.0000      -0.617601       -16.8058
  20   2.0000      -0.577605       -15.7174
  21   2.0000      -0.573983       -15.6189
  22   2.0000      -0.540933       -14.7195
  23   2.0000      -0.525032       -14.2868
  24   2.0000      -0.516000       -14.0411
  25   2.0000      -0.503746       -13.7076
  26   2.0000      -0.483440       -13.1551
  27   2.0000      -0.458074       -12.4648
  28   2.0000      -0.439111       -11.9488
  29   2.0000      -0.421012       -11.4563
  30   2.0000      -0.410293       -11.1646
  31   2.0000      -0.399165       -10.8618
  32   2.0000      -0.388798       -10.5797
  33   2.0000      -0.381055       -10.3690
  34   2.0000      -0.375125       -10.2077
  35   2.0000      -0.339336        -9.2338
  36   2.0000      -0.310365        -8.4455
  37   2.0000      -0.275701        -7.5022
  38   2.0000      -0.178328        -4.8525
  39   0.0000      -0.031365        -0.8535
  40   0.0000       0.013591         0.3698
  41   0.0000       0.032731         0.8907
  42   0.0000       0.042945         1.1686
  43   0.0000       0.049258         1.3404

MULLIKEN ATOMIC CHARGES
-----------------------
   0 C :    0.720482
   1 N :   -0.445109
   2 C :   -0.051474
   3 C :    0.115181
   4 H :   -0.004515
   5 H :    0.079011
   6 C :    0.773444
   7 C :    0.203332
   8 C :    0.672653
   9 N :   -0.104156
  10 H :   -0.007418
  11 H :    0.005361
  12 H :   -0.068260
  13 H :   -0.411013
  14 H :   -0.174357
  15 H :    0.038110
  16 H :   -0.286899
  17 H :    0.067526
  18 H :   -0.084175
  19 O :   -0.520768
  20 F :   -0.516955
Sum of atomic charges:    0.0000000

LOEWDIN ATOMIC CHARGES
----------------------
   0 C :    0.058636
   1 N :    0.004838
   2 C :   -0.014139
   3 C :    0.061971
   4 H :    0.032954
   5 H :    0.038332
   6 C :   -0.001409
   7 C :   -0.254308
   8 C :    0.158106
   9 N :    0.211212
  10 H :    0.009789
  11 H :   -0.016644
  12 H :    0.014031
  13 H :   -0.133699
  14 H :   -0.084071
  15 H :    0.022429
  16 H :    0.017974
  17 H :    0.029186
  18 H :    0.026980
  19 O :   -0.125347
  20 F :   -0.056820

  Mayer bond orders larger than 0.100000
B(  0-C ,  1-N ) :   0.7829 B(  0-C ,  2-C ) :   1.1738 B(  0-C , 15-H ) :   0.7537
B(  0-C , 16-H ) :   0.9072 B(  0-C , 18-H ) :   0.1612 B(  1-N ,  2-C ) :   0.1565
B(  1-N ,  7-C ) :   1.0496 B(  1-N ,  8-C ) :   0.1639 B(  1-N , 12-H ) :   1.0606
B(  1-N , 15-H ) :   0.1301 B(  1-N , 16-H ) :   0.1119 B(  2-C ,  3-C ) :   1.2073
B(  2-C ,  4-H ) :   0.1648 B(  2-C , 17-H ) :   0.8544 B(  2-C , 18-H ) :   0.9580
B(  3-C ,  4-H ) :   0.8406 B(  3-C ,  5-H ) :   0.8678 B(  3-C ,  6-C ) :   1.1108
B(  4-H ,  6-C ) :   0.1014 B(  5-H ,  6-C ) :   0.1724 B(  6-C , 19-O ) :   1.7048
B(  6-C , 20-F ) :   0.5266 B(  7-C ,  8-C ) :   1.8569 B(  7-C ,  9-N ) :   0.7871
B(  7-C , 11-H ) :   0.1516 B(  7-C , 12-H ) :  -0.1277 B(  7-C , 13-H ) :   0.1892
B(  7-C , 14-H ) :   0.4176 B(  8-C ,  9-N ) :   0.2955 B(  8-C , 13-H ) :   0.5988
B(  8-C , 14-H ) :   0.4027 B(  9-N , 10-H ) :   1.0624 B(  9-N , 11-H ) :   0.8548
B( 10-H , 11-H ) :  -0.1133 B( 13-H , 14-H ) :   0.1434 B( 13-H , 20-F ) :   0.1982

Dispersion correction           -0.019595787
FINAL SINGLE POINT ENERGY      -518.854458450355

DIPOLE MOMENT
-------------
                                X             Y             Z
Electronic contribution:      4.42047      -4.64223      -2.59236
Nuclear contribution   :     -6.05797       3.87976       3.55209
                        -----------------------------------------
Total Dipole Moment    :     -1.63750      -0.76247       0.95972
                        -----------------------------------------
Magnitude (a.u.)       :      2.04544
Magnitude (Debye)      :      5.19909

Rotational constants in cm-1:     0.061282     0.043164     0.033679
Rotational constants in MHz :  1837.191639  1294.028651  1009.659886

                             ****ORCA TERMINATED NORMALLY****
TOTAL RUN TIME: 0 days 0 hours 1 minutes 7 seconds 345 msec
