                         Program Version 5.0.0 -  RELEASE  -
|  1> !TPSS D3BJ RIJCOSX def2-SVPD def2/J TightSCF
|  2> *xyz -1 1
|  3> C         -0.77455        2.78833       -0.54394
|  4> C          0.69721        3.22791       -0.52513
|  5> O          1.48929        2.37470        0.19919
|  6> H          0.71600        4.26403       -0.13077
|  7> H          1.03615        3.33092       -1.58367
|  8> H         -1.34746        3.48478       -1.11982
|  9> H         -1.15078        2.75876        0.45729
| 10> H         -0.85058        1.81526       -0.98241
| 11> *
| 12>
| 13> %MaxCore 64000
| 14> %pal nprocs 4
| 15> end
| 16>
| 17> %scf
| 18>   MaxIter 150
| 19> end
| 20>
| 21>
| 22>                          ****END OF INPUT****

CARTESIAN COORDINATES (ANGSTROEM)
---------------------------------
  C     -0.774550    2.788330   -0.543940
  C      0.697210    3.227910   -0.525130
  O      1.489290    2.374700    0.199190
  H      0.716000    4.264030   -0.130770
  H      1.036150    3.330920   -1.583670
  H     -1.347460    3.484780   -1.119820
  H     -1.150780    2.758760    0.457290
  H     -0.850580    1.815260   -0.982410

 Total Charge           Charge          ....   -1
 Multiplicity           Mult            ....    1
 Number of Electrons    NEL             ....   26
 Basis Dimension        Dim             ....  103

ORBITAL ENERGIES
----------------

  NO   OCC          E(Eh)            E(eV)
   0   2.0000     -18.573497      -505.4106
   1   2.0000      -9.816357      -267.1167
   2   2.0000      -9.793944      -266.5068
   3   2.0000      -0.605779       -16.4841
   4   2.0000      -0.465028       -12.6540
   5   2.0000      -0.320368        -8.7177
   6   2.0000      -0.209226        -5.6933
   7   2.0000      -0.187724        -5.1082
   8   2.0000      -0.135437        -3.6854
   9   2.0000      -0.120163        -3.2698
  10   2.0000      -0.071328        -1.9409
  11   2.0000       0.067582         1.8390
  12   2.0000       0.069900         1.9021
  13   0.0000       0.171143         4.6570
  14   0.0000       0.200986         5.4691
  15   0.0000       0.232683         6.3316
  16   0.0000       0.245772         6.6878
  17   0.0000       0.262864         7.1529

MULLIKEN ATOMIC CHARGES
-----------------------
   0 C :    0.162009
   1 C :    0.151515
   2 O :   -0.903564
   3 H :   -0.153679
   4 H :   -0.142263
   5 H :   -0.017361
   6 H :   -0.047365
   7 H :   -0.049293
Sum of atomic charges:   -1.0000000

LOEWDIN ATOMIC CHARGES
----------------------
   0 C :    0.065536
   1 C :   -0.253051
   2 O :   -0.564640
   3 H :   -0.043650
   4 H :   -0.039959
   5 H :   -0.068907
   6 H :   -0.047348
   7 H :   -0.047982

  Mayer bond orders larger than 0.100000
B(  0-C ,  1-C ) :   1.1780 B(  0-C ,  2-O ) :   0.2842 B(  0-C ,  3-H ) :   0.1422
B(  0-C ,  4-H ) :   0.1333 B(  0-C ,  5-H ) :   0.9395 B(  0-C ,  6-H ) :   0.9274
B(  0-C ,  7-H ) :   0.9319 B(  1-C ,  2-O ) :   1.0863 B(  1-C ,  3-H ) :   0.9855
B(  1-C ,  4-H ) :   0.9929 B(  1-C ,  5-H ) :   0.1248 B(  1-C ,  6-H ) :   0.1711
B(  1-C ,  7-H ) :   0.1701

Dispersion correction           -0.004556434
FINAL SINGLE POINT ENERGY      -154.348455683702

DIPOLE MOMENT
-------------
                                X             Y             Z
Electronic contribution:      2.46520      -1.05080       1.20343
Nuclear contribution   :     -3.69910       1.55962      -1.78699
                        -----------------------------------------
Total Dipole Moment    :     -1.23390       0.50882      -0.58356
                        -----------------------------------------
Magnitude (a.u.)       :      1.45669
Magnitude (Debye)      :      3.70260

Rotational constants in cm-1:     1.268893     0.327436     0.287754
Rotational constants in MHz : 38040.440181  9816.269339  8626.646564

                             ****ORCA TERMINATED NORMALLY****
TOTAL RUN TIME: 0 days 0 hours 0 minutes 8 seconds 188 msec
