                         Program Version 5.0.0 -  RELEASE  -
|  1> !TPSS D3BJ RIJCOSX def2-SVPD def2/J TightSCF
|  2> *xyz 1 1
|  3> C          3.95643        0.50147       -0.37910
|  4> H          3.16840        0.02920        0.20738
|  5> N          3.80389        1.96157       -0.15675
|  6> C          3.84232        0.14849       -1.85406
|  7> H          4.92323        0.17798        0.00937
|  8> H          4.20643        2.24441        0.74536
|  9> H          2.80827        2.21132       -0.09610
| 10> H          4.28076        2.50155       -0.89104
| 11> H          4.62951        0.62800       -2.39748
| 12> H          2.89665        0.48102       -2.22825
| 13> H          3.92053       -0.91187       -1.97413
| 14> *
| 15>
| 16> %MaxCore 64000
| 17> %pal nprocs 4
| 18> end
| 19>
| 20> %scf
| 21>   MaxIter 150
| 22> end
| 23>
| 24>
| 25>                          ****END OF INPUT****

CARTESIAN COORDINATES (ANGSTROEM)
---------------------------------
  C      3.956430    0.501470   -0.379100
  H      3.168400    0.029200    0.207380
  N      3.803890    1.961570   -0.156750
  C      3.842320    0.148490   -1.854060
  H      4.923230    0.177980    0.009370
  H      4.206430    2.244410    0.745360
  H      2.808270    2.211320   -0.096100
  H      4.280760    2.501550   -0.891040
  H      4.629510    0.628000   -2.397480
  H      2.896650    0.481020   -2.228250
  H      3.920530   -0.911870   -1.974130

 Total Charge           Charge          ....    1
 Multiplicity           Mult            ....    1
 Number of Electrons    NEL             ....   26
 Basis Dimension        Dim             ....  124

ORBITAL ENERGIES
----------------

  NO   OCC          E(Eh)            E(eV)
   0   2.0000     -14.453954      -393.3121
   1   2.0000     -10.255447      -279.0649
   2   2.0000     -10.179589      -277.0007
   3   2.0000      -1.148615       -31.2554
   4   2.0000      -0.907058       -24.6823
   5   2.0000      -0.793541       -21.5933
   6   2.0000      -0.760247       -20.6874
   7   2.0000      -0.742355       -20.2005
   8   2.0000      -0.657456       -17.8903
   9   2.0000      -0.604962       -16.4619
  10   2.0000      -0.546468       -14.8702
  11   2.0000      -0.532981       -14.5032
  12   2.0000      -0.517413       -14.0795
  13   0.0000      -0.207982        -5.6595
  14   0.0000      -0.153598        -4.1796
  15   0.0000      -0.147832        -4.0227
  16   0.0000      -0.135944        -3.6992
  17   0.0000      -0.104072        -2.8319

MULLIKEN ATOMIC CHARGES
-----------------------
   0 C :    0.189364
   1 H :   -0.054502
   2 N :   -0.873787
   3 C :    0.524686
   4 H :   -0.033240
   5 H :    0.377722
   6 H :    0.421791
   7 H :    0.434899
   8 H :   -0.007540
   9 H :    0.027067
  10 H :   -0.006459
Sum of atomic charges:    1.0000000

LOEWDIN ATOMIC CHARGES
----------------------
   0 C :    0.060651
   1 H :    0.049937
   2 N :    0.330331
   3 C :    0.181711
   4 H :    0.051004
   5 H :    0.104489
   6 H :    0.108438
   7 H :    0.104725
   8 H :   -0.002381
   9 H :   -0.001656
  10 H :    0.012750

  Mayer bond orders larger than 0.100000
B(  0-C ,  1-H ) :   0.9233 B(  0-C ,  2-N ) :   0.7466 B(  0-C ,  3-C ) :   1.3315
B(  0-C ,  4-H ) :   0.9434 B(  0-C ,  8-H ) :   0.1507 B(  0-C ,  9-H ) :   0.1371
B(  0-C , 10-H ) :   0.1768 B(  1-H ,  2-N ) :   0.1143 B(  2-N ,  5-H ) :   0.7413
B(  2-N ,  6-H ) :   0.6802 B(  2-N ,  7-H ) :   0.6428 B(  3-C ,  8-H ) :   0.8518
B(  3-C ,  9-H ) :   0.8390 B(  3-C , 10-H ) :   0.8383

Dispersion correction           -0.007447576
FINAL SINGLE POINT ENERGY      -135.472328231574

DIPOLE MOMENT
-------------
                                X             Y             Z
Electronic contribution:     -0.01218       1.32543       1.24302
Nuclear contribution   :     -0.06214      -0.04120      -0.39947
                        -----------------------------------------
Total Dipole Moment    :     -0.07432       1.28422       0.84355
                        -----------------------------------------
Magnitude (a.u.)       :      1.53829
Magnitude (Debye)      :      3.91001

Rotational constants in cm-1:     1.011771     0.281435     0.249812
Rotational constants in MHz : 30332.138762  8437.210602  7489.166323

                             ****ORCA TERMINATED NORMALLY****
TOTAL RUN TIME: 0 days 0 hours 0 minutes 9 seconds 589 msec
