                         Program Version 5.0.0 -  RELEASE  -
|  1> !TPSS D3BJ RIJCOSX def2-SVPD def2/J TightSCF
|  2> *xyz 0 1
|  3> C         -0.77455        2.78833       -0.54394
|  4> C          0.69721        3.22791       -0.52513
|  5> F          1.48929        2.37470        0.19919
|  6> H          0.71600        4.26403       -0.13077
|  7> H          1.03615        3.33092       -1.58367
|  8> H         -1.34746        3.48478       -1.11982
|  9> H         -1.15078        2.75876        0.45729
| 10> H         -0.85058        1.81526       -0.98241
| 11> *
| 12>
| 13> %MaxCore 64000
| 14> %pal nprocs 4
| 15> end
| 16>
| 17> %scf
| 18>   MaxIter 150
| 19> end
| 20>
| 21>
| 22>                          ****END OF INPUT****

CARTESIAN COORDINATES (ANGSTROEM)
---------------------------------
  C     -0.774550    2.788330   -0.543940
  C      0.697210    3.227910   -0.525130
  F      1.489290    2.374700    0.199190
  H      0.716000    4.264030   -0.130770
  H      1.036150    3.330920   -1.583670
  H     -1.347460    3.484780   -1.119820
  H     -1.150780    2.758760    0.457290
  H     -0.850580    1.815260   -0.982410

 Total Charge           Charge          ....    0
 Multiplicity           Mult            ....    1
 Number of Electrons    NEL             ....   26
 Basis Dimension        Dim             ....  103

ORBITAL ENERGIES
----------------

  NO   OCC          E(Eh)            E(eV)
   0   2.0000     -24.416542      -664.4079
   1   2.0000     -10.081108      -274.3209
   2   2.0000      -9.999696      -272.1056
   3   2.0000      -1.106803       -30.1176
   4   2.0000      -0.703417       -19.1410
   5   2.0000      -0.576752       -15.6942
   6   2.0000      -0.462539       -12.5863
   7   2.0000      -0.447952       -12.1894
   8   2.0000      -0.409356       -11.1392
   9   2.0000      -0.363999        -9.9049
  10   2.0000      -0.361982        -9.8500
  11   2.0000      -0.293902        -7.9975
  12   2.0000      -0.291150        -7.9226
  13   0.0000       0.012606         0.3430
  14   0.0000       0.044149         1.2014
  15   0.0000       0.058862         1.6017
  16   0.0000       0.068910         1.8751
  17   0.0000       0.093040         2.5317

MULLIKEN ATOMIC CHARGES
-----------------------
   0 C :    0.256799
   1 C :    0.389555
   2 F :   -0.456255
   3 H :   -0.050214
   4 H :   -0.037212
   5 H :   -0.017412
   6 H :   -0.041344
   7 H :   -0.043917
Sum of atomic charges:   -0.0000000

LOEWDIN ATOMIC CHARGES
----------------------
   0 C :    0.143700
   1 C :    0.067143
   2 F :   -0.210068
   3 H :    0.024048
   4 H :    0.028855
   5 H :   -0.016869
   6 H :   -0.018138
   7 H :   -0.018671

  Mayer bond orders larger than 0.100000
B(  0-C ,  1-C ) :   1.3347 B(  0-C ,  5-H ) :   0.8716 B(  0-C ,  6-H ) :   0.9021
B(  0-C ,  7-H ) :   0.9059 B(  1-C ,  2-F ) :   0.7251 B(  1-C ,  3-H ) :   0.9480
B(  1-C ,  4-H ) :   0.9501 B(  1-C ,  5-H ) :   0.1121 B(  1-C ,  6-H ) :   0.1352
B(  1-C ,  7-H ) :   0.1332

Dispersion correction           -0.004202318
FINAL SINGLE POINT ENERGY      -178.961461498337

DIPOLE MOMENT
-------------
                                X             Y             Z
Electronic contribution:      4.41812      -1.66058       2.00650
Nuclear contribution   :     -4.89513       2.05627      -2.36166
                        -----------------------------------------
Total Dipole Moment    :     -0.47702       0.39569      -0.35516
                        -----------------------------------------
Magnitude (a.u.)       :      0.71432
Magnitude (Debye)      :      1.81566

Rotational constants in cm-1:     1.247826     0.304622     0.269019
Rotational constants in MHz : 37408.889506  9132.346906  8064.979146

                             ****ORCA TERMINATED NORMALLY****
TOTAL RUN TIME: 0 days 0 hours 0 minutes 8 seconds 52 msec
