                         Program Version 5.0.0 -  RELEASE  -
|  1> !TPSS D3BJ RIJCOSX def2-SVPD def2/J TightSCF
|  2> *xyz 0 1
|  3> C          3.95643        0.50147       -0.37910
|  4> H          3.16840        0.02920        0.20738
|  5> C          3.80389        1.96157       -0.15675
|  6> C          3.84232        0.14849       -1.85406
|  7> H          4.92323        0.17798        0.00937
|  8> H          4.20643        2.24441        0.74536
|  9> H          2.80827        2.21132       -0.09610
| 10> H          4.28076        2.50155       -0.89104
| 11> H          4.62951        0.62800       -2.39748
| 12> H          2.89665        0.48102       -2.22825
| 13> H          3.92053       -0.91187       -1.97413
| 14> *
| 15>
| 16> %MaxCore 64000
| 17> %pal nprocs 4
| 18> end
| 19>
| 20> %scf
| 21>   MaxIter 150
| 22> end
| 23>
| 24>
| 25>                          ****END OF INPUT****

CARTESIAN COORDINATES (ANGSTROEM)
---------------------------------
  C      3.956430    0.501470   -0.379100
  H      3.168400    0.029200    0.207380
  C      3.803890    1.961570   -0.156750
  C      3.842320    0.148490   -1.854060
  H      4.923230    0.177980    0.009370
  H      4.206430    2.244410    0.745360
  H      2.808270    2.211320   -0.096100
  H      4.280760    2.501550   -0.891040
  H      4.629510    0.628000   -2.397480
  H      2.896650    0.481020   -2.228250
  H      3.920530   -0.911870   -1.974130

 Total Charge           Charge          ....    0
 Multiplicity           Mult            ....    1
 Number of Electrons    NEL             ....   26
 Basis Dimension        Dim             ....  124

ORBITAL ENERGIES
----------------

  NO   OCC          E(Eh)            E(eV)
   0   2.0000      -9.987326      -271.7689
   1   2.0000      -9.981240      -271.6033
   2   2.0000      -9.963976      -271.1336
   3   2.0000      -0.728149       -19.8140
   4   2.0000      -0.632090       -17.2000
   5   2.0000      -0.533236       -14.5101
   6   2.0000      -0.427166       -11.6238
   7   2.0000      -0.404208       -10.9991
   8   2.0000      -0.362968        -9.8769
   9   2.0000      -0.353058        -9.6072
  10   2.0000      -0.300516        -8.1774
  11   2.0000      -0.299141        -8.1400
  12   2.0000      -0.291139        -7.9223
  13   0.0000       0.017363         0.4725
  14   0.0000       0.046672         1.2700
  15   0.0000       0.052949         1.4408
  16   0.0000       0.071180         1.9369
  17   0.0000       0.092939         2.5290

MULLIKEN ATOMIC CHARGES
-----------------------
   0 C :   -0.617569
   1 H :   -0.071379
   2 C :    0.857451
   3 C :    0.546619
   4 H :   -0.075536
   5 H :   -0.173828
   6 H :   -0.138338
   7 H :   -0.198864
   8 H :   -0.013570
   9 H :   -0.035519
  10 H :   -0.079466
Sum of atomic charges:    0.0000000

LOEWDIN ATOMIC CHARGES
----------------------
   0 C :   -0.110578
   1 H :    0.017147
   2 C :    0.121511
   3 C :    0.123250
   4 H :    0.017207
   5 H :   -0.038228
   6 H :   -0.031635
   7 H :   -0.034248
   8 H :   -0.020143
   9 H :   -0.018416
  10 H :   -0.025866

  Mayer bond orders larger than 0.100000
B(  0-C ,  1-H ) :   0.9508 B(  0-C ,  2-C ) :   1.2936 B(  0-C ,  3-C ) :   1.2721
B(  0-C ,  4-H ) :   0.9545 B(  0-C ,  5-H ) :   0.2107 B(  0-C ,  6-H ) :   0.2485
B(  0-C ,  7-H ) :   0.1963 B(  0-C ,  8-H ) :   0.1519 B(  0-C ,  9-H ) :   0.1761
B(  0-C , 10-H ) :   0.1844 B(  1-H ,  2-C ) :   0.1217 B(  2-C ,  5-H ) :   0.7205
B(  2-C ,  6-H ) :   0.7049 B(  2-C ,  7-H ) :   0.7744 B(  3-C ,  8-H ) :   0.8463
B(  3-C ,  9-H ) :   0.8506 B(  3-C , 10-H ) :   0.8422

Dispersion correction           -0.007471764
FINAL SINGLE POINT ENERGY      -119.072874275310

DIPOLE MOMENT
-------------
                                X             Y             Z
Electronic contribution:      0.08061      -0.29653       0.23180
Nuclear contribution   :     -0.08172       0.30475      -0.19303
                        -----------------------------------------
Total Dipole Moment    :     -0.00111       0.00822       0.03877
                        -----------------------------------------
Magnitude (a.u.)       :      0.03965
Magnitude (Debye)      :      0.10078

Rotational constants in cm-1:     1.020248     0.295755     0.261591
Rotational constants in MHz : 30586.266829  8866.511639  7842.297953

                             ****ORCA TERMINATED NORMALLY****
TOTAL RUN TIME: 0 days 0 hours 0 minutes 8 seconds 807 msec
