                         Program Version 5.0.0 -  RELEASE  -
|  1> !wB97X-D3 RIJCOSX def2-SVPD def2/J TightSCF
|  2> *xyz -1 1
|  3> C          1.44442        5.26658       -0.97546
|  4> O          1.56525        4.23349       -1.86489
|  5> C         -1.07389        4.84473       -0.97990
|  6> C          0.14812        5.21087       -0.13809
|  7> H          1.47425        6.26464       -1.47692
|  8> H          2.28962        5.30327       -0.26445
|  9> H          0.26183        4.45094        0.64071
| 10> H         -0.00252        6.17103        0.37148
| 11> H         -1.20745        5.57445       -1.75098
| 12> H         -1.94291        4.82190       -0.35605
| 13> H         -0.92683        3.88150       -1.42201
| 14> *
| 15> %MaxCore 64000
| 16>
| 17> %pal nprocs 18
| 18> end
| 19>
| 20> %scf
| 21>   MaxIter 150
| 22> end
| 23>
| 24>
| 25>                          ****END OF INPUT****

CARTESIAN COORDINATES (ANGSTROEM)
---------------------------------
  C      1.444420    5.266580   -0.975460
  O      1.565250    4.233490   -1.864890
  C     -1.073890    4.844730   -0.979900
  C      0.148120    5.210870   -0.138090
  H      1.474250    6.264640   -1.476920
  H      2.289620    5.303270   -0.264450
  H      0.261830    4.450940    0.640710
  H     -0.002520    6.171030    0.371480
  H     -1.207450    5.574450   -1.750980
  H     -1.942910    4.821900   -0.356050
  H     -0.926830    3.881500   -1.422010

 Total Charge           Charge          ....   -1
 Multiplicity           Mult            ....    1
 Number of Electrons    NEL             ....   34
 Basis Dimension        Dim             ....  139

ORBITAL ENERGIES
----------------

  NO   OCC          E(Eh)            E(eV)
   0   2.0000     -18.911470      -514.6073
   1   2.0000     -10.105312      -274.9795
   2   2.0000     -10.102586      -274.9053
   3   2.0000     -10.098244      -274.7872
   4   2.0000      -0.788874       -21.4663
   5   2.0000      -0.689241       -18.7552
   6   2.0000      -0.573218       -15.5980
   7   2.0000      -0.465202       -12.6588
   8   2.0000      -0.376748       -10.2518
   9   2.0000      -0.364683        -9.9235
  10   2.0000      -0.310525        -8.4498
  11   2.0000      -0.284870        -7.7517
  12   2.0000      -0.255457        -6.9513
  13   2.0000      -0.243214        -6.6182
  14   2.0000      -0.206748        -5.6259
  15   2.0000      -0.064716        -1.7610
  16   2.0000      -0.060753        -1.6532
  17   0.0000       0.234013         6.3678
  18   0.0000       0.257724         7.0130
  19   0.0000       0.276110         7.5133
  20   0.0000       0.303803         8.2669
  21   0.0000       0.325169         8.8483

MULLIKEN ATOMIC CHARGES
-----------------------
   0 C :    0.462428
   1 O :   -0.901840
   2 C :    0.596615
   3 C :   -0.497781
   4 H :   -0.120210
   5 H :   -0.181355
   6 H :   -0.066496
   7 H :   -0.097769
   8 H :   -0.075922
   9 H :   -0.102528
  10 H :   -0.015143
Sum of atomic charges:   -1.0000000

LOEWDIN ATOMIC CHARGES
----------------------
   0 C :   -0.215163
   1 O :   -0.568036
   2 C :    0.080592
   3 C :   -0.114042
   4 H :   -0.026003
   5 H :   -0.033092
   6 H :   -0.002402
   7 H :   -0.010023
   8 H :   -0.028528
   9 H :   -0.048856
  10 H :   -0.034447

  Mayer bond orders larger than 0.100000
B(  0-C ,  1-O ) :   1.1979 B(  0-C ,  3-C ) :   1.0510 B(  0-C ,  4-H ) :   0.9414
B(  0-C ,  5-H ) :   0.9546 B(  2-C ,  3-C ) :   1.2502 B(  2-C ,  8-H ) :   0.8313
B(  2-C ,  9-H ) :   0.8091 B(  2-C , 10-H ) :   0.8322 B(  3-C ,  4-H ) :   0.1342
B(  3-C ,  5-H ) :   0.1340 B(  3-C ,  6-H ) :   0.9574 B(  3-C ,  7-H ) :   0.9960
B(  3-C ,  8-H ) :   0.1920 B(  3-C ,  9-H ) :   0.1894 B(  3-C , 10-H ) :   0.1966

Dispersion correction           -0.001934484
FINAL SINGLE POINT ENERGY      -193.553700008256

DIPOLE MOMENT
-------------
                                X             Y             Z
Electronic contribution:      2.02893      -1.29142      -1.40725
Nuclear contribution   :     -3.50495       2.13585       2.58010
                        -----------------------------------------
Total Dipole Moment    :     -1.47602       0.84444       1.17285
                        -----------------------------------------
Magnitude (a.u.)       :      2.06574
Magnitude (Debye)      :      5.25070

Rotational constants in cm-1:     0.478988     0.188199     0.150738
Rotational constants in MHz : 14359.706344  5642.078771  4519.011003

                             ****ORCA TERMINATED NORMALLY****
TOTAL RUN TIME: 0 days 0 hours 2 minutes 39 seconds 819 msec
