                         Program Version 5.0.0 -  RELEASE  -
|  1> !wB97X-D3 RIJCOSX def2-SVPD def2/J TightSCF
|  2> *xyz 1 1
|  3> C         -0.70169        4.07250       -4.00392
|  4> N          0.68053        4.61482       -4.04800
|  5> H          0.69993        5.58489       -4.38827
|  6> H          1.27804        4.05598       -4.66824
|  7> H          1.08573        4.53358       -3.10652
|  8> C         -1.70347        5.09320       -3.47740
|  9> H         -0.99590        3.74039       -5.00065
| 10> H         -0.64358        3.20191       -3.35153
| 11> C         -1.31400        5.78600       -2.16927
| 12> H         -1.87706        5.85010       -4.25115
| 13> H         -2.65326        4.56448       -3.35480
| 14> H         -0.38448        6.29945       -2.30062
| 15> H         -1.21111        5.05451       -1.39516
| 16> H         -2.07413        6.48833       -1.89758
| 17> *
| 18> %MaxCore 64000
| 19>
| 20> %pal nprocs 18
| 21> end
| 22>
| 23> %scf
| 24>   MaxIter 150
| 25> end
| 26>
| 27>
| 28>                          ****END OF INPUT****

CARTESIAN COORDINATES (ANGSTROEM)
---------------------------------
  C     -0.701690    4.072500   -4.003920
  N      0.680530    4.614820   -4.048000
  H      0.699930    5.584890   -4.388270
  H      1.278040    4.055980   -4.668240
  H      1.085730    4.533580   -3.106520
  C     -1.703470    5.093200   -3.477400
  H     -0.995900    3.740390   -5.000650
  H     -0.643580    3.201910   -3.351530
  C     -1.314000    5.786000   -2.169270
  H     -1.877060    5.850100   -4.251150
  H     -2.653260    4.564480   -3.354800
  H     -0.384480    6.299450   -2.300620
  H     -1.211110    5.054510   -1.395160
  H     -2.074130    6.488330   -1.897580

 Total Charge           Charge          ....    1
 Multiplicity           Mult            ....    1
 Number of Electrons    NEL             ....   34
 Basis Dimension        Dim             ....  160

ORBITAL ENERGIES
----------------

  NO   OCC          E(Eh)            E(eV)
   0   2.0000     -14.769721      -401.9045
   1   2.0000     -10.537399      -286.7372
   2   2.0000     -10.468357      -284.8585
   3   2.0000     -10.437979      -284.0319
   4   2.0000      -1.322028       -35.9742
   5   2.0000      -1.083570       -29.4854
   6   2.0000      -0.993768       -27.0418
   7   2.0000      -0.912220       -24.8228
   8   2.0000      -0.893528       -24.3141
   9   2.0000      -0.877705       -23.8836
  10   2.0000      -0.787203       -21.4209
  11   2.0000      -0.736477       -20.0405
  12   2.0000      -0.707615       -19.2552
  13   2.0000      -0.683745       -18.6056
  14   2.0000      -0.623448       -16.9649
  15   2.0000      -0.619291       -16.8518
  16   2.0000      -0.604860       -16.4591
  17   0.0000      -0.108977        -2.9654
  18   0.0000      -0.051134        -1.3914
  19   0.0000      -0.051075        -1.3898
  20   0.0000      -0.040420        -1.0999
  21   0.0000      -0.012956        -0.3526

MULLIKEN ATOMIC CHARGES
-----------------------
   0 C :    0.493221
   1 N :   -0.745359
   2 H :    0.402687
   3 H :    0.319477
   4 H :    0.434774
   5 C :   -0.431403
   6 H :   -0.027071
   7 H :   -0.008370
   8 C :    0.648673
   9 H :   -0.010437
  10 H :    0.011330
  11 H :   -0.068434
  12 H :    0.008816
  13 H :   -0.027905
Sum of atomic charges:    1.0000000

LOEWDIN ATOMIC CHARGES
----------------------
   0 C :    0.085169
   1 N :    0.328635
   2 H :    0.108238
   3 H :    0.107475
   4 H :    0.104135
   5 C :   -0.048510
   6 H :    0.054318
   7 H :    0.054358
   8 C :    0.142181
   9 H :    0.037057
  10 H :    0.047013
  11 H :   -0.026522
  12 H :   -0.000886
  13 H :    0.007339

  Mayer bond orders larger than 0.100000
B(  0-C ,  1-N ) :   0.7893 B(  0-C ,  5-C ) :   1.1731 B(  0-C ,  6-H ) :   0.9451
B(  0-C ,  7-H ) :   0.8737 B(  0-C , 10-H ) :   0.1291 B(  1-N ,  2-H ) :   0.7229
B(  1-N ,  3-H ) :   0.8346 B(  1-N ,  4-H ) :   0.7306 B(  1-N ,  7-H ) :   0.1119
B(  5-C ,  7-H ) :   0.1065 B(  5-C ,  8-C ) :   1.2794 B(  5-C ,  9-H ) :   0.9558
B(  5-C , 10-H ) :   0.9469 B(  5-C , 11-H ) :   0.1671 B(  5-C , 12-H ) :   0.1719
B(  5-C , 13-H ) :   0.1891 B(  8-C , 11-H ) :   0.8447 B(  8-C , 12-H ) :   0.8218
B(  8-C , 13-H ) :   0.8324

Dispersion correction           -0.002864036
FINAL SINGLE POINT ENERGY      -174.688851120014

DIPOLE MOMENT
-------------
                                X             Y             Z
Electronic contribution:      1.55106      -0.91115      -1.46389
Nuclear contribution   :      0.19992       0.44181       0.60618
                        -----------------------------------------
Total Dipole Moment    :      1.75098      -0.46933      -0.85771
                        -----------------------------------------
Magnitude (a.u.)       :      2.00545
Magnitude (Debye)      :      5.09746

Rotational constants in cm-1:     0.427003     0.166237     0.135950
Rotational constants in MHz : 12801.234133  4983.663157  4075.681698

                             ****ORCA TERMINATED NORMALLY****
TOTAL RUN TIME: 0 days 0 hours 2 minutes 39 seconds 383 msec
