                         Program Version 5.0.0 -  RELEASE  -
|  1> !wB97X-D3 RIJCOSX def2-SVPD def2/J TightSCF xyzfile
|  2>
|  3> *xyzfile 0 1 B.xyz
|  4>
|  5> %MaxCore 64000
|  6>
|  7> %pal nprocs 18
|  8> end
|  9>
| 10> %scf
| 11>   MaxIter 150
| 12> end
| 13>
| 14>
| 15>                          ****END OF INPUT****

CARTESIAN COORDINATES (ANGSTROEM)
---------------------------------
  C     -0.701686    4.072499   -4.003920
  N      0.680528    4.614820   -4.048005
  C      1.444422    5.266576   -0.975463
  O      1.565248    4.233493   -1.864885
  H      0.699926    5.584890   -4.388272
  H      1.278044    4.055977   -4.668235
  H      1.085729    4.533581   -3.106524
  C     -1.703475    5.093197   -3.477396
  H     -0.995895    3.740394   -5.000654
  H     -0.643580    3.201910   -3.351533
  C     -1.313997    5.785995   -2.169271
  H     -1.877057    5.850103   -4.251154
  H     -2.653264    4.564475   -3.354796
  H     -2.097137    6.509395   -1.929558
  H     -0.416875    6.387594   -2.339097
  C     -1.073895    4.844728   -0.979904
  H     -1.968893    4.809608   -0.352568
  C      0.148120    5.210874   -0.138092
  H     -0.909754    3.827531   -1.338975
  H      1.474250    6.264638   -1.476917
  H      2.289622    5.303267   -0.264450
  H      0.261827    4.450942    0.640711
  H     -0.002516    6.171031    0.371483

 Total Charge           Charge          ....    0
 Multiplicity           Mult            ....    1
 Number of Electrons    NEL             ....   66
 Basis Dimension        Dim             ....  283

ORBITAL ENERGIES
----------------

  NO   OCC          E(Eh)            E(eV)
   0   2.0000     -19.111756      -520.0573
   1   2.0000     -14.518030      -395.0557
   2   2.0000     -10.356846      -281.8241
   3   2.0000     -10.311774      -280.5976
   4   2.0000     -10.286626      -279.9133
   5   2.0000     -10.274663      -279.5878
   6   2.0000     -10.264657      -279.3155
   7   2.0000     -10.246054      -278.8093
   8   2.0000      -1.098780       -29.8993
   9   2.0000      -0.995484       -27.0885
  10   2.0000      -0.922256       -25.0959
  11   2.0000      -0.857047       -23.3214
  12   2.0000      -0.803397       -21.8615
  13   2.0000      -0.743503       -20.2317
  14   2.0000      -0.694952       -18.9106
  15   2.0000      -0.675195       -18.3730
  16   2.0000      -0.673351       -18.3228
  17   2.0000      -0.623495       -16.9662
  18   2.0000      -0.592330       -16.1181
  19   2.0000      -0.566566       -15.4170
  20   2.0000      -0.558871       -15.2076
  21   2.0000      -0.519290       -14.1306
  22   2.0000      -0.507714       -13.8156
  23   2.0000      -0.492696       -13.4069
  24   2.0000      -0.473318       -12.8796
  25   2.0000      -0.451860       -12.2957
  26   2.0000      -0.445757       -12.1297
  27   2.0000      -0.426237       -11.5985
  28   2.0000      -0.403130       -10.9697
  29   2.0000      -0.395014       -10.7489
  30   2.0000      -0.386559       -10.5188
  31   2.0000      -0.272333        -7.4106
  32   2.0000      -0.267869        -7.2891
  33   0.0000       0.062309         1.6955
  34   0.0000       0.093501         2.5443
  35   0.0000       0.099864         2.7174
  36   0.0000       0.115664         3.1474
  37   0.0000       0.132956         3.6179

MULLIKEN ATOMIC CHARGES
-----------------------
   0 C :    0.657323
   1 N :   -0.150985
   2 C :    0.519250
   3 O :   -0.668196
   4 H :    0.368015
   5 H :    0.323390
   6 H :   -0.481521
   7 C :    0.108389
   8 H :   -0.249360
   9 H :    0.102166
  10 C :    0.101497
  11 H :    0.015815
  12 H :   -0.097608
  13 H :   -0.214724
  14 H :   -0.019977
  15 C :    0.071198
  16 H :   -0.229032
  17 C :    0.152423
  18 H :    0.076396
  19 H :    0.145218
  20 H :   -0.406261
  21 H :    0.018999
  22 H :   -0.142414
Sum of atomic charges:    0.0000000

LOEWDIN ATOMIC CHARGES
----------------------
   0 C :    0.083437
   1 N :    0.317640
   2 C :   -0.075029
   3 O :   -0.398257
   4 H :    0.086685
   5 H :    0.090048
   6 H :   -0.201081
   7 C :   -0.021769
   8 H :    0.028036
   9 H :    0.035183
  10 C :   -0.016675
  11 H :    0.022721
  12 H :    0.032341
  13 H :    0.021879
  14 H :   -0.005973
  15 C :   -0.024938
  16 H :    0.016007
  17 C :   -0.032664
  18 H :    0.000242
  19 H :   -0.002718
  20 H :    0.007576
  21 H :    0.019820
  22 H :    0.017488

  Mayer bond orders larger than 0.100000
B(  0-C ,  1-N ) :   0.8028 B(  0-C ,  7-C ) :   1.1906 B(  0-C ,  8-H ) :   0.9410
B(  0-C ,  9-H ) :   0.7473 B(  0-C , 11-H ) :   0.1150 B(  0-C , 12-H ) :   0.1374
B(  1-N ,  4-H ) :   0.7563 B(  1-N ,  5-H ) :   0.8188 B(  1-N ,  6-H ) :   1.3537
B(  1-N ,  8-H ) :   0.1038 B(  1-N ,  9-H ) :   0.1410 B(  2-C ,  3-O ) :   1.0379
B(  2-C , 17-C ) :   1.1262 B(  2-C , 19-H ) :   0.7623 B(  2-C , 20-H ) :   1.0507
B(  2-C , 21-H ) :   0.1082 B(  2-C , 22-H ) :   0.1073 B(  3-O ,  6-H ) :   0.4827
B(  7-C ,  8-H ) :   0.1069 B(  7-C ,  9-H ) :   0.1187 B(  7-C , 10-C ) :   1.2181
B(  7-C , 11-H ) :   0.7592 B(  7-C , 12-H ) :   0.9184 B(  7-C , 13-H ) :   0.1171
B(  8-H ,  9-H ) :  -0.1191 B( 10-C , 11-H ) :   0.1704 B( 10-C , 12-H ) :   0.1030
B( 10-C , 13-H ) :   0.8291 B( 10-C , 14-H ) :   0.8846 B( 10-C , 15-C ) :   1.1898
B( 10-C , 16-H ) :   0.1940 B( 13-H , 15-C ) :   0.1474 B( 14-H , 15-C ) :   0.1109
B( 15-C , 16-H ) :   0.8905 B( 15-C , 17-C ) :   1.2506 B( 15-C , 18-H ) :   0.8324
B( 15-C , 21-H ) :   0.1875 B( 15-C , 22-H ) :   0.1251 B( 17-C , 18-H ) :   0.1042
B( 17-C , 20-H ) :   0.1399 B( 17-C , 21-H ) :   0.7410 B( 17-C , 22-H ) :   0.9261

Dispersion correction           -0.009075075
FINAL SINGLE POINT ENERGY      -367.265331540968

DIPOLE MOMENT
-------------
                                X             Y             Z
Electronic contribution:      1.97494      -1.50927      -1.30965
Nuclear contribution   :     -3.16446       1.92310      -1.11926
                        -----------------------------------------
Total Dipole Moment    :     -1.18952       0.41384      -2.42890
                        -----------------------------------------
Magnitude (a.u.)       :      2.73602
Magnitude (Debye)      :      6.95441

Rotational constants in cm-1:     0.085554     0.055600     0.038553
Rotational constants in MHz :  2564.854379  1666.836664  1155.798427

                             ****ORCA TERMINATED NORMALLY****
TOTAL RUN TIME: 0 days 0 hours 0 minutes 34 seconds 823 msec
