                         Program Version 5.0.0 -  RELEASE  -
|  1> !wB97X-D3 RIJCOSX def2-SVPD def2/J TightSCF
|  2> *xyz 0 1
|  3> C          1.44442        5.26658       -0.97546
|  4> F          1.56525        4.23349       -1.86489
|  5> C         -1.07389        4.84473       -0.97990
|  6> C          0.14812        5.21087       -0.13809
|  7> H          1.47425        6.26464       -1.47692
|  8> H          2.28962        5.30327       -0.26445
|  9> H          0.26183        4.45094        0.64071
| 10> H         -0.00252        6.17103        0.37148
| 11> H         -1.20745        5.57445       -1.75098
| 12> H         -1.94291        4.82190       -0.35605
| 13> H         -0.92683        3.88150       -1.42201
| 14> *
| 15> %MaxCore 64000
| 16>
| 17> %pal nprocs 18
| 18> end
| 19>
| 20> %scf
| 21>   MaxIter 150
| 22> end
| 23>
| 24>
| 25>                          ****END OF INPUT****

CARTESIAN COORDINATES (ANGSTROEM)
---------------------------------
  C      1.444420    5.266580   -0.975460
  F      1.565250    4.233490   -1.864890
  C     -1.073890    4.844730   -0.979900
  C      0.148120    5.210870   -0.138090
  H      1.474250    6.264640   -1.476920
  H      2.289620    5.303270   -0.264450
  H      0.261830    4.450940    0.640710
  H     -0.002520    6.171030    0.371480
  H     -1.207450    5.574450   -1.750980
  H     -1.942910    4.821900   -0.356050
  H     -0.926830    3.881500   -1.422010

 Total Charge           Charge          ....    0
 Multiplicity           Mult            ....    1
 Number of Electrons    NEL             ....   34
 Basis Dimension        Dim             ....  139

ORBITAL ENERGIES
----------------

  NO   OCC          E(Eh)            E(eV)
   0   2.0000     -24.791804      -674.6193
   1   2.0000     -10.369519      -282.1690
   2   2.0000     -10.296698      -280.1874
   3   2.0000     -10.275189      -279.6021
   4   2.0000      -1.301611       -35.4186
   5   2.0000      -0.899010       -24.4633
   6   2.0000      -0.798546       -21.7295
   7   2.0000      -0.701299       -19.0833
   8   2.0000      -0.613619       -16.6974
   9   2.0000      -0.599781       -16.3209
  10   2.0000      -0.577250       -15.7078
  11   2.0000      -0.537417       -14.6239
  12   2.0000      -0.497397       -13.5348
  13   2.0000      -0.471426       -12.8282
  14   2.0000      -0.452720       -12.3191
  15   2.0000      -0.422994       -11.5103
  16   2.0000      -0.417613       -11.3638
  17   0.0000       0.092305         2.5117
  18   0.0000       0.117473         3.1966
  19   0.0000       0.128410         3.4942
  20   0.0000       0.147959         4.0262
  21   0.0000       0.169159         4.6031

MULLIKEN ATOMIC CHARGES
-----------------------
   0 C :    0.692210
   1 F :   -0.458759
   2 C :    0.549763
   3 C :   -0.537468
   4 H :   -0.003433
   5 H :   -0.059939
   6 H :   -0.032805
   7 H :   -0.046734
   8 H :   -0.046572
   9 H :   -0.055957
  10 H :   -0.000306
Sum of atomic charges:   -0.0000000

LOEWDIN ATOMIC CHARGES
----------------------
   0 C :    0.102907
   1 F :   -0.215425
   2 C :    0.115195
   3 C :   -0.066833
   4 H :    0.037261
   5 H :    0.028151
   6 H :    0.019782
   7 H :    0.026799
   8 H :   -0.013519
   9 H :   -0.017990
  10 H :   -0.016327

  Mayer bond orders larger than 0.100000
B(  0-C ,  1-F ) :   0.7214 B(  0-C ,  3-C ) :   1.1691 B(  0-C ,  4-H ) :   0.9087
B(  0-C ,  5-H ) :   0.9366 B(  2-C ,  3-C ) :   1.2729 B(  2-C ,  8-H ) :   0.8434
B(  2-C ,  9-H ) :   0.8457 B(  2-C , 10-H ) :   0.8415 B(  3-C ,  4-H ) :   0.1086
B(  3-C ,  5-H ) :   0.1011 B(  3-C ,  6-H ) :   0.9618 B(  3-C ,  7-H ) :   0.9833
B(  3-C ,  8-H ) :   0.1694 B(  3-C ,  9-H ) :   0.1725 B(  3-C , 10-H ) :   0.1605

Dispersion correction           -0.001927100
FINAL SINGLE POINT ENERGY      -218.165051509404

DIPOLE MOMENT
-------------
                                X             Y             Z
Electronic contribution:      4.60488      -2.43024      -3.13546
Nuclear contribution   :     -4.76356       2.92420       3.62609
                        -----------------------------------------
Total Dipole Moment    :     -0.15868       0.49396       0.49063
                        -----------------------------------------
Magnitude (a.u.)       :      0.71407
Magnitude (Debye)      :      1.81503

Rotational constants in cm-1:     0.464485     0.177633     0.142630
Rotational constants in MHz : 13924.923489  5325.290206  4275.938589

                             ****ORCA TERMINATED NORMALLY****
TOTAL RUN TIME: 0 days 0 hours 2 minutes 13 seconds 677 msec
