                         Program Version 5.0.0 -  RELEASE  -
|  1> !wB97X-D3 RIJCOSX def2-SVPD def2/J TightSCF
|  2> *xyz 0 1
|  3> C         -0.70169        4.07250       -4.00392
|  4> C          0.68053        4.61482       -4.04800
|  5> H          0.69993        5.58489       -4.38827
|  6> H          1.27804        4.05598       -4.66824
|  7> H          1.08573        4.53358       -3.10652
|  8> C         -1.70347        5.09320       -3.47740
|  9> H         -0.99590        3.74039       -5.00065
| 10> H         -0.64358        3.20191       -3.35153
| 11> C         -1.31400        5.78600       -2.16927
| 12> H         -1.87706        5.85010       -4.25115
| 13> H         -2.65326        4.56448       -3.35480
| 14> H         -0.38448        6.29945       -2.30062
| 15> H         -1.21111        5.05451       -1.39516
| 16> H         -2.07413        6.48833       -1.89758
| 17> *
| 18> %MaxCore 64000
| 19>
| 20> %pal nprocs 18
| 21> end
| 22>
| 23> %scf
| 24>   MaxIter 150
| 25> end
| 26>
| 27>
| 28>                          ****END OF INPUT****

CARTESIAN COORDINATES (ANGSTROEM)
---------------------------------
  C     -0.701690    4.072500   -4.003920
  C      0.680530    4.614820   -4.048000
  H      0.699930    5.584890   -4.388270
  H      1.278040    4.055980   -4.668240
  H      1.085730    4.533580   -3.106520
  C     -1.703470    5.093200   -3.477400
  H     -0.995900    3.740390   -5.000650
  H     -0.643580    3.201910   -3.351530
  C     -1.314000    5.786000   -2.169270
  H     -1.877060    5.850100   -4.251150
  H     -2.653260    4.564480   -3.354800
  H     -0.384480    6.299450   -2.300620
  H     -1.211110    5.054510   -1.395160
  H     -2.074130    6.488330   -1.897580

 Total Charge           Charge          ....    0
 Multiplicity           Mult            ....    1
 Number of Electrons    NEL             ....   34
 Basis Dimension        Dim             ....  160

ORBITAL ENERGIES
----------------

  NO   OCC          E(Eh)            E(eV)
   0   2.0000     -10.278877      -279.7025
   1   2.0000     -10.273944      -279.5682
   2   2.0000     -10.268727      -279.4263
   3   2.0000     -10.249041      -278.8906
   4   2.0000      -0.913931       -24.8693
   5   2.0000      -0.836874       -22.7725
   6   2.0000      -0.753307       -20.4985
   7   2.0000      -0.667124       -18.1534
   8   2.0000      -0.571255       -15.5446
   9   2.0000      -0.563874       -15.3438
  10   2.0000      -0.524638       -14.2761
  11   2.0000      -0.484952       -13.1962
  12   2.0000      -0.481198       -13.0941
  13   2.0000      -0.459909       -12.5147
  14   2.0000      -0.416309       -11.3283
  15   2.0000      -0.413577       -11.2540
  16   2.0000      -0.410028       -11.1574
  17   0.0000       0.095541         2.5998
  18   0.0000       0.121164         3.2970
  19   0.0000       0.122237         3.3262
  20   0.0000       0.136465         3.7134
  21   0.0000       0.168762         4.5923

MULLIKEN ATOMIC CHARGES
-----------------------
   0 C :   -0.297668
   1 C :    0.907982
   2 H :   -0.181664
   3 H :   -0.338560
   4 H :   -0.022548
   5 C :   -0.361721
   6 H :   -0.085200
   7 H :   -0.036498
   8 C :    0.596460
   9 H :    0.013814
  10 H :   -0.088558
  11 H :   -0.019288
  12 H :   -0.026280
  13 H :   -0.060273
Sum of atomic charges:   -0.0000000

LOEWDIN ATOMIC CHARGES
----------------------
   0 C :   -0.083228
   1 C :    0.109237
   2 H :   -0.025670
   3 H :   -0.033701
   4 H :   -0.027990
   5 C :   -0.084658
   6 H :    0.022380
   7 H :    0.023674
   8 C :    0.120032
   9 H :    0.022739
  10 H :    0.015221
  11 H :   -0.026095
  12 H :   -0.013427
  13 H :   -0.018513

  Mayer bond orders larger than 0.100000
B(  0-C ,  1-C ) :   1.2593 B(  0-C ,  2-H ) :   0.2288 B(  0-C ,  3-H ) :   0.2211
B(  0-C ,  4-H ) :   0.2501 B(  0-C ,  5-C ) :   1.1613 B(  0-C ,  6-H ) :   0.9425
B(  0-C ,  7-H ) :   0.8822 B(  0-C ,  9-H ) :   0.1158 B(  0-C , 10-H ) :   0.1373
B(  1-C ,  2-H ) :   0.7485 B(  1-C ,  3-H ) :   0.7681 B(  1-C ,  4-H ) :   0.7049
B(  1-C ,  7-H ) :   0.1281 B(  5-C ,  7-H ) :   0.1240 B(  5-C ,  8-C ) :   1.2944
B(  5-C ,  9-H ) :   0.9104 B(  5-C , 10-H ) :   0.9561 B(  5-C , 11-H ) :   0.1812
B(  5-C , 12-H ) :   0.1752 B(  5-C , 13-H ) :   0.2016 B(  8-C , 11-H ) :   0.8525
B(  8-C , 12-H ) :   0.8201 B(  8-C , 13-H ) :   0.7912

Dispersion correction           -0.002770710
FINAL SINGLE POINT ENERGY      -158.289994329370

DIPOLE MOMENT
-------------
                                X             Y             Z
Electronic contribution:     -0.62343      -0.37189      -0.42888
Nuclear contribution   :      0.63648       0.35464       0.41252
                        -----------------------------------------
Total Dipole Moment    :      0.01304      -0.01725      -0.01636
                        -----------------------------------------
Magnitude (a.u.)       :      0.02712
Magnitude (Debye)      :      0.06893

Rotational constants in cm-1:     0.435124     0.173315     0.141457
Rotational constants in MHz : 13044.691962  5195.845291  4240.763698

                             ****ORCA TERMINATED NORMALLY****
TOTAL RUN TIME: 0 days 0 hours 2 minutes 13 seconds 255 msec
