                         Program Version 5.0.0 -  RELEASE  -
|  1> !PBE D3BJ RIJCOSX def2-SVP def2/J TightSCF
|  2> *xyz -1 1
|  3> C         -1.10433        0.25137       -2.86006
|  4> C         -0.71189        0.84252       -4.21834
|  5> H          0.15463        1.49980       -4.13091
|  6> H         -1.53813        1.45922       -4.58267
|  7> C         -0.39762       -0.20587       -5.28802
|  8> O          0.61717       -0.00535       -5.99827
|  9> O         -1.13317       -1.22138       -5.34147
| 10> H         -1.95489       -0.38644       -2.98099
| 11> H         -1.34603        1.04362       -2.18269
| 12> H         -0.28606       -0.31581       -2.46809
| 13> *
| 14>
| 15> %MaxCore 64000
| 16>
| 17> %pal nprocs 4
| 18> end
| 19>
| 20> %scf
| 21>   MaxIter 150
| 22> end
| 23>
| 24>
| 25>                          ****END OF INPUT****

CARTESIAN COORDINATES (ANGSTROEM)
---------------------------------
  C     -1.104330    0.251370   -2.860060
  C     -0.711890    0.842520   -4.218340
  H      0.154630    1.499800   -4.130910
  H     -1.538130    1.459220   -4.582670
  C     -0.397620   -0.205870   -5.288020
  O      0.617170   -0.005350   -5.998270
  O     -1.133170   -1.221380   -5.341470
  H     -1.954890   -0.386440   -2.980990
  H     -1.346030    1.043620   -2.182690
  H     -0.286060   -0.315810   -2.468090

 Total Charge           Charge          ....   -1
 Multiplicity           Mult            ....    1
 Number of Electrons    NEL             ....   40
 Basis Dimension        Dim             ....   95

ORBITAL ENERGIES
----------------

  NO   OCC          E(Eh)            E(eV)
   0   2.0000     -18.459013      -502.2953
   1   2.0000     -18.455990      -502.2130
   2   2.0000      -9.733721      -264.8680
   3   2.0000      -9.718801      -264.4620
   4   2.0000      -9.699575      -263.9389
   5   2.0000      -0.684942       -18.6382
   6   2.0000      -0.595344       -16.2001
   7   2.0000      -0.508539       -13.8381
   8   2.0000      -0.385727       -10.4962
   9   2.0000      -0.241626        -6.5750
  10   2.0000      -0.226155        -6.1540
  11   2.0000      -0.182854        -4.9757
  12   2.0000      -0.159351        -4.3361
  13   2.0000      -0.145775        -3.9667
  14   2.0000      -0.126273        -3.4361
  15   2.0000      -0.096678        -2.6307
  16   2.0000      -0.088347        -2.4040
  17   2.0000       0.028194         0.7672
  18   2.0000       0.039644         1.0788
  19   2.0000       0.059016         1.6059
  20   0.0000       0.197572         5.3762
  21   0.0000       0.243636         6.6297
  22   0.0000       0.249326         6.7845
  23   0.0000       0.262449         7.1416
  24   0.0000       0.265551         7.2260

MULLIKEN ATOMIC CHARGES
-----------------------
   0 C :    0.021632
   1 C :   -0.010991
   2 H :   -0.060096
   3 H :   -0.040921
   4 C :   -0.047921
   5 O :   -0.385757
   6 O :   -0.385465
   7 H :   -0.017029
   8 H :   -0.057466
   9 H :   -0.015985
Sum of atomic charges:   -1.0000000

LOEWDIN ATOMIC CHARGES
----------------------
   0 C :   -0.072819
   1 C :   -0.103196
   2 H :   -0.005920
   3 H :    0.004384
   4 C :   -0.098160
   5 O :   -0.364028
   6 O :   -0.364876
   7 H :    0.005369
   8 H :   -0.009835
   9 H :    0.009081

  Mayer bond orders larger than 0.100000
B(  0-C ,  1-C ) :   1.0938 B(  0-C ,  7-H ) :   0.9486 B(  0-C ,  8-H ) :   0.9487
B(  0-C ,  9-H ) :   0.9704 B(  1-C ,  2-H ) :   0.9235 B(  1-C ,  3-H ) :   0.9227
B(  1-C ,  4-C ) :   0.9051 B(  4-C ,  5-O ) :   1.8865 B(  4-C ,  6-O ) :   1.8530
B(  5-O ,  6-O ) :   0.1390

Dispersion correction           -0.006523781
FINAL SINGLE POINT ENERGY      -267.310122934086

DIPOLE MOMENT
-------------
                                X             Y             Z
Electronic contribution:      1.64879      -2.59313      -5.54365
Nuclear contribution   :     -2.09607       3.44215       6.87744
                        -----------------------------------------
Total Dipole Moment    :     -0.44728       0.84901       1.33379
                        -----------------------------------------
Magnitude (a.u.)       :      1.64313
Magnitude (Debye)      :      4.17651

Rotational constants in cm-1:     0.324698     0.133739     0.103466
Rotational constants in MHz :  9734.203431  4009.406827  3101.846422

                             ****ORCA TERMINATED NORMALLY****
TOTAL RUN TIME: 0 days 0 hours 0 minutes 6 seconds 950 msec
