                         Program Version 5.0.0 -  RELEASE  -
|  1> !PBE D3BJ RIJCOSX def2-SVP def2/J TightSCF
|  2> *xyz 1 1
|  3> C          2.23447       -2.98975       -2.39762
|  4> N          2.75680       -2.94555       -3.76503
|  5> C          1.98721       -2.59045       -4.81898
|  6> N          0.74322       -3.01749       -4.91352
|  7> N          2.49964       -1.84860       -5.80324
|  8> H          3.30978       -1.29282       -5.55895
|  9> H          1.80103       -1.30430       -6.28913
| 10> H          3.71612       -2.62880       -3.82953
| 11> H          0.39583       -3.62775       -4.18502
| 12> H          0.03920       -2.45438       -5.37137
| 13> C          2.19120       -1.61950       -1.71549
| 14> H          2.87278       -3.66637       -1.82801
| 15> H          1.24619       -3.44744       -2.40784
| 16> H          1.56387       -0.96046       -2.27853
| 17> H          3.18033       -1.21449       -1.66568
| 18> H          1.79916       -1.72608       -0.72562
| 19> *
| 20>
| 21> %MaxCore 64000
| 22>
| 23> %pal nprocs 4
| 24> end
| 25>
| 26> %scf
| 27>   MaxIter 150
| 28> end
| 29>
| 30>
| 31>                          ****END OF INPUT****

CARTESIAN COORDINATES (ANGSTROEM)
---------------------------------
  C      2.234470   -2.989750   -2.397620
  N      2.756800   -2.945550   -3.765030
  C      1.987210   -2.590450   -4.818980
  N      0.743220   -3.017490   -4.913520
  N      2.499640   -1.848600   -5.803240
  H      3.309780   -1.292820   -5.558950
  H      1.801030   -1.304300   -6.289130
  H      3.716120   -2.628800   -3.829530
  H      0.395830   -3.627750   -4.185020
  H      0.039200   -2.454380   -5.371370
  C      2.191200   -1.619500   -1.715490
  H      2.872780   -3.666370   -1.828010
  H      1.246190   -3.447440   -2.407840
  H      1.563870   -0.960460   -2.278530
  H      3.180330   -1.214490   -1.665680
  H      1.799160   -1.726080   -0.725620

 Total Charge           Charge          ....    1
 Multiplicity           Mult            ....    1
 Number of Electrons    NEL             ....   48
 Basis Dimension        Dim             ....  134

ORBITAL ENERGIES
----------------

  NO   OCC          E(Eh)            E(eV)
   0   2.0000     -14.225429      -387.0936
   1   2.0000     -14.221533      -386.9876
   2   2.0000     -14.219366      -386.9286
   3   2.0000     -10.218592      -278.0620
   4   2.0000     -10.103188      -274.9217
   5   2.0000     -10.037869      -273.1443
   6   2.0000      -1.126601       -30.6564
   7   2.0000      -1.019954       -27.7544
   8   2.0000      -1.015118       -27.6228
   9   2.0000      -0.853921       -23.2364
  10   2.0000      -0.778233       -21.1768
  11   2.0000      -0.742055       -20.1923
  12   2.0000      -0.729741       -19.8573
  13   2.0000      -0.685409       -18.6509
  14   2.0000      -0.650624       -17.7044
  15   2.0000      -0.635767       -17.3001
  16   2.0000      -0.601849       -16.3771
  17   2.0000      -0.572371       -15.5750
  18   2.0000      -0.553904       -15.0725
  19   2.0000      -0.523521       -14.2457
  20   2.0000      -0.490373       -13.3437
  21   2.0000      -0.472201       -12.8492
  22   2.0000      -0.443284       -12.0624
  23   2.0000      -0.410614       -11.1734
  24   0.0000      -0.219187        -5.9644
  25   0.0000      -0.162962        -4.4344
  26   0.0000      -0.132824        -3.6143
  27   0.0000      -0.118822        -3.2333
  28   0.0000      -0.102365        -2.7855

MULLIKEN ATOMIC CHARGES
-----------------------
   0 C :   -0.009364
   1 N :   -0.090642
   2 C :   -0.028496
   3 N :    0.014728
   4 N :    0.031041
   5 H :    0.157552
   6 H :    0.159785
   7 H :    0.152869
   8 H :    0.162246
   9 H :    0.169489
  10 C :   -0.014551
  11 H :    0.082201
  12 H :    0.050081
  13 H :    0.033870
  14 H :    0.052088
  15 H :    0.077103
Sum of atomic charges:    1.0000000

LOEWDIN ATOMIC CHARGES
----------------------
   0 C :    0.032579
   1 N :    0.036226
   2 C :    0.103623
   3 N :    0.081208
   4 N :    0.066599
   5 H :    0.104965
   6 H :    0.107849
   7 H :    0.099831
   8 H :    0.106433
   9 H :    0.111791
  10 C :   -0.054661
  11 H :    0.051274
  12 H :    0.032483
  13 H :    0.028148
  14 H :    0.036892
  15 H :    0.054761

  Mayer bond orders larger than 0.100000
B(  0-C ,  1-N ) :   0.9677 B(  0-C , 10-C ) :   1.1051 B(  0-C , 11-H ) :   0.9398
B(  0-C , 12-H ) :   0.9437 B(  1-N ,  2-C ) :   1.3473 B(  1-N ,  7-H ) :   0.9071
B(  2-C ,  3-N ) :   1.4141 B(  2-C ,  4-N ) :   1.3828 B(  3-N ,  8-H ) :   0.9223
B(  3-N ,  9-H ) :   0.9248 B(  4-N ,  5-H ) :   0.9263 B(  4-N ,  6-H ) :   0.9276
B( 10-C , 13-H ) :   0.9633 B( 10-C , 14-H ) :   0.9649 B( 10-C , 15-H ) :   0.9529

Dispersion correction           -0.012433815
FINAL SINGLE POINT ENERGY      -283.830802312684

DIPOLE MOMENT
-------------
                                X             Y             Z
Electronic contribution:      0.17912      -1.65556      -5.25058
Nuclear contribution   :     -0.59121       2.30298       4.63196
                        -----------------------------------------
Total Dipole Moment    :     -0.41209       0.64742      -0.61862
                        -----------------------------------------
Magnitude (a.u.)       :      0.98573
Magnitude (Debye)      :      2.50552

Rotational constants in cm-1:     0.205874     0.074757     0.066901
Rotational constants in MHz :  6171.937773  2241.151057  2005.629823

                             ****ORCA TERMINATED NORMALLY****
TOTAL RUN TIME: 0 days 0 hours 0 minutes 8 seconds 926 msec
