                         Program Version 5.0.0 -  RELEASE  -
|  1> !PBE D3BJ RIJCOSX def2-SVP def2/J TightSCF
|  2> *xyz 0 1
|  3> C         -1.10433        0.25137       -2.86006
|  4> C         -0.71189        0.84252       -4.21834
|  5> H          0.15463        1.49980       -4.13091
|  6> H         -1.53813        1.45922       -4.58267
|  7> C         -0.39762       -0.20587       -5.28802
|  8> F          0.61717       -0.00535       -5.99827
|  9> O         -1.13317       -1.22138       -5.34147
| 10> H         -1.95489       -0.38644       -2.98099
| 11> H         -1.34603        1.04362       -2.18269
| 12> H         -0.28606       -0.31581       -2.46809
| 13> *
| 14>
| 15> %MaxCore 64000
| 16>
| 17> %pal nprocs 4
| 18> end
| 19>
| 20> %scf
| 21>   MaxIter 150
| 22> end
| 23>
| 24>
| 25>                          ****END OF INPUT****

CARTESIAN COORDINATES (ANGSTROEM)
---------------------------------
  C     -1.104330    0.251370   -2.860060
  C     -0.711890    0.842520   -4.218340
  H      0.154630    1.499800   -4.130910
  H     -1.538130    1.459220   -4.582670
  C     -0.397620   -0.205870   -5.288020
  F      0.617170   -0.005350   -5.998270
  O     -1.133170   -1.221380   -5.341470
  H     -1.954890   -0.386440   -2.980990
  H     -1.346030    1.043620   -2.182690
  H     -0.286060   -0.315810   -2.468090

 Total Charge           Charge          ....    0
 Multiplicity           Mult            ....    1
 Number of Electrons    NEL             ....   40
 Basis Dimension        Dim             ....   95

ORBITAL ENERGIES
----------------

  NO   OCC          E(Eh)            E(eV)
   0   2.0000     -24.325067      -661.9187
   1   2.0000     -18.754143      -510.3262
   2   2.0000     -10.051334      -273.5107
   3   2.0000      -9.920631      -269.9541
   4   2.0000      -9.895621      -269.2735
   5   2.0000      -1.190231       -32.3878
   6   2.0000      -0.925452       -25.1828
   7   2.0000      -0.714687       -19.4476
   8   2.0000      -0.611613       -16.6428
   9   2.0000      -0.562459       -15.3053
  10   2.0000      -0.480313       -13.0700
  11   2.0000      -0.465974       -12.6798
  12   2.0000      -0.436744       -11.8844
  13   2.0000      -0.408912       -11.1271
  14   2.0000      -0.374554       -10.1921
  15   2.0000      -0.346253        -9.4220
  16   2.0000      -0.325466        -8.8564
  17   2.0000      -0.320753        -8.7281
  18   2.0000      -0.298837        -8.1318
  19   2.0000      -0.233058        -6.3418
  20   0.0000      -0.055699        -1.5156
  21   0.0000       0.039597         1.0775
  22   0.0000       0.081935         2.2296
  23   0.0000       0.089029         2.4226
  24   0.0000       0.103468         2.8155

MULLIKEN ATOMIC CHARGES
-----------------------
   0 C :   -0.000674
   1 C :   -0.099291
   2 H :    0.025980
   3 H :    0.061395
   4 C :    0.168553
   5 F :   -0.032906
   6 O :   -0.220501
   7 H :    0.044716
   8 H :    0.023488
   9 H :    0.029239
Sum of atomic charges:   -0.0000000

LOEWDIN ATOMIC CHARGES
----------------------
   0 C :   -0.045703
   1 C :   -0.082549
   2 H :    0.029044
   3 H :    0.052901
   4 C :    0.059095
   5 F :    0.068912
   6 O :   -0.170895
   7 H :    0.032127
   8 H :    0.028760
   9 H :    0.028308

  Mayer bond orders larger than 0.100000
B(  0-C ,  1-C ) :   1.1092 B(  0-C ,  7-H ) :   0.9629 B(  0-C ,  8-H ) :   0.9597
B(  0-C ,  9-H ) :   0.9757 B(  1-C ,  2-H ) :   0.9294 B(  1-C ,  3-H ) :   0.9157
B(  1-C ,  4-C ) :   1.0004 B(  4-C ,  5-F ) :   1.2364 B(  4-C ,  6-O ) :   2.0804

Dispersion correction           -0.006206110
FINAL SINGLE POINT ENERGY      -291.851483310376

DIPOLE MOMENT
-------------
                                X             Y             Z
Electronic contribution:      3.60256      -2.47715      -7.82341
Nuclear contribution   :     -3.36368       3.36392       8.24820
                        -----------------------------------------
Total Dipole Moment    :      0.23888       0.88677       0.42478
                        -----------------------------------------
Magnitude (a.u.)       :      1.01186
Magnitude (Debye)      :      2.57194

Rotational constants in cm-1:     0.315013     0.126712     0.098430
Rotational constants in MHz :  9443.861322  3798.734540  2950.846388

                             ****ORCA TERMINATED NORMALLY****
TOTAL RUN TIME: 0 days 0 hours 0 minutes 6 seconds 776 msec
