                         Program Version 5.0.0 -  RELEASE  -
|  1> !PBE D3BJ RIJCOSX def2-SVP def2/J TightSCF
|  2> *xyz 0 1
|  3> C          2.23447       -2.98975       -2.39762
|  4> C          2.75680       -2.94555       -3.76503
|  5> C          1.98721       -2.59045       -4.81898
|  6> N          0.74322       -3.01749       -4.91352
|  7> N          2.49964       -1.84860       -5.80324
|  8> H          3.30978       -1.29282       -5.55895
|  9> H          1.80103       -1.30430       -6.28913
| 10> H          3.71612       -2.62880       -3.82953
| 11> H          0.39583       -3.62775       -4.18502
| 12> H          0.03920       -2.45438       -5.37137
| 13> C          2.19120       -1.61950       -1.71549
| 14> H          2.87278       -3.66637       -1.82801
| 15> H          1.24619       -3.44744       -2.40784
| 16> H          1.56387       -0.96046       -2.27853
| 17> H          3.18033       -1.21449       -1.66568
| 18> H          1.79916       -1.72608       -0.72562
| 19> *
| 20>
| 21> %MaxCore 64000
| 22>
| 23> %pal nprocs 4
| 24> end
| 25>
| 26> %scf
| 27>   MaxIter 150
| 28> end
| 29>
| 30>
| 31>                          ****END OF INPUT****

CARTESIAN COORDINATES (ANGSTROEM)
---------------------------------
  C      2.234470   -2.989750   -2.397620
  C      2.756800   -2.945550   -3.765030
  C      1.987210   -2.590450   -4.818980
  N      0.743220   -3.017490   -4.913520
  N      2.499640   -1.848600   -5.803240
  H      3.309780   -1.292820   -5.558950
  H      1.801030   -1.304300   -6.289130
  H      3.716120   -2.628800   -3.829530
  H      0.395830   -3.627750   -4.185020
  H      0.039200   -2.454380   -5.371370
  C      2.191200   -1.619500   -1.715490
  H      2.872780   -3.666370   -1.828010
  H      1.246190   -3.447440   -2.407840
  H      1.563870   -0.960460   -2.278530
  H      3.180330   -1.214490   -1.665680
  H      1.799160   -1.726080   -0.725620

 Total Charge           Charge          ....    0
 Multiplicity           Mult            ....    1
 Number of Electrons    NEL             ....   48
 Basis Dimension        Dim             ....  134

ORBITAL ENERGIES
----------------

  NO   OCC          E(Eh)            E(eV)
   0   2.0000     -13.997295      -380.8858
   1   2.0000     -13.991929      -380.7397
   2   2.0000      -9.928015      -270.1550
   3   2.0000      -9.867841      -268.5176
   4   2.0000      -9.860949      -268.3301
   5   2.0000      -9.812705      -267.0173
   6   2.0000      -0.872515       -23.7423
   7   2.0000      -0.786995       -21.4152
   8   2.0000      -0.687439       -18.7062
   9   2.0000      -0.612049       -16.6547
  10   2.0000      -0.548428       -14.9235
  11   2.0000      -0.513803       -13.9813
  12   2.0000      -0.484247       -13.1770
  13   2.0000      -0.447347       -12.1729
  14   2.0000      -0.415676       -11.3111
  15   2.0000      -0.393901       -10.7186
  16   2.0000      -0.359966        -9.7952
  17   2.0000      -0.338173        -9.2021
  18   2.0000      -0.320032        -8.7085
  19   2.0000      -0.310240        -8.4420
  20   2.0000      -0.278435        -7.5766
  21   2.0000      -0.271867        -7.3979
  22   2.0000      -0.220970        -6.0129
  23   2.0000      -0.119066        -3.2400
  24   0.0000       0.012417         0.3379
  25   0.0000       0.041484         1.1288
  26   0.0000       0.060182         1.6376
  27   0.0000       0.066254         1.8029
  28   0.0000       0.080691         2.1957

MULLIKEN ATOMIC CHARGES
-----------------------
   0 C :   -0.006225
   1 C :   -0.092545
   2 C :   -0.164676
   3 N :   -0.019987
   4 N :   -0.015869
   5 H :    0.109540
   6 H :    0.088639
   7 H :   -0.102148
   8 H :    0.109891
   9 H :    0.092995
  10 C :    0.043961
  11 H :   -0.003448
  12 H :   -0.031161
  13 H :   -0.007034
  14 H :   -0.000896
  15 H :   -0.001036
Sum of atomic charges:    0.0000000

LOEWDIN ATOMIC CHARGES
----------------------
   0 C :   -0.044482
   1 C :   -0.220371
   2 C :   -0.010330
   3 N :    0.007931
   4 N :   -0.005309
   5 H :    0.075929
   6 H :    0.061047
   7 H :   -0.013378
   8 H :    0.077629
   9 H :    0.060305
  10 C :   -0.062693
  11 H :    0.020249
  12 H :    0.006779
  13 H :    0.013436
  14 H :    0.018295
  15 H :    0.014963

  Mayer bond orders larger than 0.100000
B(  0-C ,  1-C ) :   1.1186 B(  0-C , 10-C ) :   1.0915 B(  0-C , 11-H ) :   0.9189
B(  0-C , 12-H ) :   0.9303 B(  1-C ,  2-C ) :   1.6287 B(  1-C ,  7-H ) :   0.9056
B(  2-C ,  3-N ) :   1.2878 B(  2-C ,  4-N ) :   1.2247 B(  3-N ,  8-H ) :   0.9412
B(  3-N ,  9-H ) :   0.9376 B(  4-N ,  5-H ) :   0.9408 B(  4-N ,  6-H ) :   0.9510
B( 10-C , 13-H ) :   0.9662 B( 10-C , 14-H ) :   0.9627 B( 10-C , 15-H ) :   0.9528

Dispersion correction           -0.012901354
FINAL SINGLE POINT ENERGY      -267.363787381267

DIPOLE MOMENT
-------------
                                X             Y             Z
Electronic contribution:     -0.38583      -1.37601      -5.16331
Nuclear contribution   :     -0.44240       2.20379       4.66256
                        -----------------------------------------
Total Dipole Moment    :     -0.82822       0.82778      -0.50075
                        -----------------------------------------
Magnitude (a.u.)       :      1.27355
Magnitude (Debye)      :      3.23710

Rotational constants in cm-1:     0.209447     0.075194     0.066975
Rotational constants in MHz :  6279.068019  2254.272519  2007.845458

                             ****ORCA TERMINATED NORMALLY****
TOTAL RUN TIME: 0 days 0 hours 0 minutes 9 seconds 33 msec
