                         Program Version 5.0.0 -  RELEASE  -
|  1> !PBE D3BJ RIJCOSX def2-SVP def2/J TightSCF
|  2> *xyz 0 1
|  3> C         -1.10433        0.25137       -2.86006
|  4> C         -0.71189        0.84252       -4.21834
|  5> H          0.15463        1.49980       -4.13091
|  6> H         -1.53813        1.45922       -4.58267
|  7> C         -0.39762       -0.20587       -5.28802
|  8> O          0.61717       -0.00535       -5.99827
|  9> F         -1.13317       -1.22138       -5.34147
| 10> H         -1.95489       -0.38644       -2.98099
| 11> H         -1.34603        1.04362       -2.18269
| 12> H         -0.28606       -0.31581       -2.46809
| 13> *
| 14>
| 15> %MaxCore 64000
| 16>
| 17> %pal nprocs 4
| 18> end
| 19>
| 20> %scf
| 21>   MaxIter 150
| 22> end
| 23>
| 24>
| 25>                          ****END OF INPUT****

CARTESIAN COORDINATES (ANGSTROEM)
---------------------------------
  C     -1.104330    0.251370   -2.860060
  C     -0.711890    0.842520   -4.218340
  H      0.154630    1.499800   -4.130910
  H     -1.538130    1.459220   -4.582670
  C     -0.397620   -0.205870   -5.288020
  O      0.617170   -0.005350   -5.998270
  F     -1.133170   -1.221380   -5.341470
  H     -1.954890   -0.386440   -2.980990
  H     -1.346030    1.043620   -2.182690
  H     -0.286060   -0.315810   -2.468090

 Total Charge           Charge          ....    0
 Multiplicity           Mult            ....    1
 Number of Electrons    NEL             ....   40
 Basis Dimension        Dim             ....   95

ORBITAL ENERGIES
----------------

  NO   OCC          E(Eh)            E(eV)
   0   2.0000     -24.326445      -661.9562
   1   2.0000     -18.752032      -510.2687
   2   2.0000     -10.050318      -273.4830
   3   2.0000      -9.919509      -269.9236
   4   2.0000      -9.901105      -269.4228
   5   2.0000      -1.191034       -32.4097
   6   2.0000      -0.923660       -25.1341
   7   2.0000      -0.718734       -19.5577
   8   2.0000      -0.606920       -16.5151
   9   2.0000      -0.569239       -15.4898
  10   2.0000      -0.482358       -13.1256
  11   2.0000      -0.471785       -12.8379
  12   2.0000      -0.429462       -11.6862
  13   2.0000      -0.408714       -11.1217
  14   2.0000      -0.377671       -10.2769
  15   2.0000      -0.349042        -9.4979
  16   2.0000      -0.331687        -9.0257
  17   2.0000      -0.325156        -8.8479
  18   2.0000      -0.299047        -8.1375
  19   2.0000      -0.227836        -6.1997
  20   0.0000      -0.053329        -1.4511
  21   0.0000       0.034130         0.9287
  22   0.0000       0.081155         2.2084
  23   0.0000       0.089690         2.4406
  24   0.0000       0.105442         2.8692

MULLIKEN ATOMIC CHARGES
-----------------------
   0 C :   -0.025866
   1 C :   -0.092321
   2 H :    0.051713
   3 H :    0.053861
   4 C :    0.167862
   5 O :   -0.216825
   6 F :   -0.035935
   7 H :    0.031312
   8 H :    0.030243
   9 H :    0.035955
Sum of atomic charges:    0.0000000

LOEWDIN ATOMIC CHARGES
----------------------
   0 C :   -0.057084
   1 C :   -0.078722
   2 H :    0.045523
   3 H :    0.047258
   4 C :    0.058366
   5 O :   -0.168613
   6 F :    0.067721
   7 H :    0.025383
   8 H :    0.031481
   9 H :    0.028686

  Mayer bond orders larger than 0.100000
B(  0-C ,  1-C ) :   1.0836 B(  0-C ,  7-H ) :   0.9676 B(  0-C ,  8-H ) :   0.9600
B(  0-C ,  9-H ) :   0.9756 B(  1-C ,  2-H ) :   0.9415 B(  1-C ,  3-H ) :   0.9173
B(  1-C ,  4-C ) :   1.0081 B(  4-C ,  5-O ) :   2.0958 B(  4-C ,  6-F ) :   1.2252

Dispersion correction           -0.006159165
FINAL SINGLE POINT ENERGY      -291.850253704702

DIPOLE MOMENT
-------------
                                X             Y             Z
Electronic contribution:      0.74767      -4.44922      -6.72980
Nuclear contribution   :     -1.45527       4.68977       7.53208
                        -----------------------------------------
Total Dipole Moment    :     -0.70760       0.24055       0.80227
                        -----------------------------------------
Magnitude (a.u.)       :      1.09645
Magnitude (Debye)      :      2.78696

Rotational constants in cm-1:     0.298240     0.132464     0.099915
Rotational constants in MHz :  8940.998095  3971.171647  2995.369122

                             ****ORCA TERMINATED NORMALLY****
TOTAL RUN TIME: 0 days 0 hours 0 minutes 7 seconds 723 msec
