                         Program Version 5.0.0 -  RELEASE  -
|  1> !PBE D3BJ RIJCOSX def2-SVP def2/J TightSCF
|  2> *xyz 0 1
|  3> C          2.23447       -2.98975       -2.39762
|  4> N          2.75680       -2.94555       -3.76503
|  5> C          1.98721       -2.59045       -4.81898
|  6> C          0.74322       -3.01749       -4.91352
|  7> N          2.49964       -1.84860       -5.80324
|  8> H          3.30978       -1.29282       -5.55895
|  9> H          1.80103       -1.30430       -6.28913
| 10> H          3.71612       -2.62880       -3.82953
| 11> H          0.39583       -3.62775       -4.18502
| 12> H          0.03920       -2.45438       -5.37137
| 13> C          2.19120       -1.61950       -1.71549
| 14> H          2.87278       -3.66637       -1.82801
| 15> H          1.24619       -3.44744       -2.40784
| 16> H          1.56387       -0.96046       -2.27853
| 17> H          3.18033       -1.21449       -1.66568
| 18> H          1.79916       -1.72608       -0.72562
| 19> *
| 20>
| 21> %MaxCore 64000
| 22>
| 23> %pal nprocs 4
| 24> end
| 25>
| 26> %scf
| 27>   MaxIter 150
| 28> end
| 29>
| 30>
| 31>                          ****END OF INPUT****

CARTESIAN COORDINATES (ANGSTROEM)
---------------------------------
  C      2.234470   -2.989750   -2.397620
  N      2.756800   -2.945550   -3.765030
  C      1.987210   -2.590450   -4.818980
  C      0.743220   -3.017490   -4.913520
  N      2.499640   -1.848600   -5.803240
  H      3.309780   -1.292820   -5.558950
  H      1.801030   -1.304300   -6.289130
  H      3.716120   -2.628800   -3.829530
  H      0.395830   -3.627750   -4.185020
  H      0.039200   -2.454380   -5.371370
  C      2.191200   -1.619500   -1.715490
  H      2.872780   -3.666370   -1.828010
  H      1.246190   -3.447440   -2.407840
  H      1.563870   -0.960460   -2.278530
  H      3.180330   -1.214490   -1.665680
  H      1.799160   -1.726080   -0.725620

 Total Charge           Charge          ....    0
 Multiplicity           Mult            ....    1
 Number of Electrons    NEL             ....   48
 Basis Dimension        Dim             ....  134

ORBITAL ENERGIES
----------------

  NO   OCC          E(Eh)            E(eV)
   0   2.0000     -13.994189      -380.8012
   1   2.0000     -13.990657      -380.7051
   2   2.0000      -9.925913      -270.0978
   3   2.0000      -9.923234      -270.0249
   4   2.0000      -9.883516      -268.9442
   5   2.0000      -9.807254      -266.8690
   6   2.0000      -0.870843       -23.6968
   7   2.0000      -0.796865       -21.6838
   8   2.0000      -0.675600       -18.3840
   9   2.0000      -0.632068       -17.1995
  10   2.0000      -0.570362       -15.5204
  11   2.0000      -0.497999       -13.5513
  12   2.0000      -0.485029       -13.1983
  13   2.0000      -0.453920       -12.3518
  14   2.0000      -0.409259       -11.1365
  15   2.0000      -0.393853       -10.7173
  16   2.0000      -0.365228        -9.9384
  17   2.0000      -0.345116        -9.3911
  18   2.0000      -0.341999        -9.3063
  19   2.0000      -0.321277        -8.7424
  20   2.0000      -0.306785        -8.3480
  21   2.0000      -0.298633        -8.1262
  22   2.0000      -0.201942        -5.4951
  23   2.0000      -0.134407        -3.6574
  24   0.0000       0.018558         0.5050
  25   0.0000       0.040404         1.0994
  26   0.0000       0.057822         1.5734
  27   0.0000       0.068818         1.8726
  28   0.0000       0.088899         2.4191

MULLIKEN ATOMIC CHARGES
-----------------------
   0 C :    0.053397
   1 N :   -0.133323
   2 C :   -0.080769
   3 C :   -0.079607
   4 N :   -0.026574
   5 H :    0.077280
   6 H :    0.110015
   7 H :    0.086706
   8 H :   -0.047493
   9 H :   -0.049319
  10 C :   -0.010742
  11 H :    0.013135
  12 H :    0.035411
  13 H :    0.026607
  14 H :    0.007332
  15 H :    0.017944
Sum of atomic charges:   -0.0000000

LOEWDIN ATOMIC CHARGES
----------------------
   0 C :    0.030149
   1 N :   -0.020727
   2 C :    0.001351
   3 C :   -0.226375
   4 N :   -0.009783
   5 H :    0.052175
   6 H :    0.078965
   7 H :    0.057676
   8 H :   -0.005685
   9 H :   -0.006384
  10 C :   -0.072227
  11 H :    0.020019
  12 H :    0.030683
  13 H :    0.025732
  14 H :    0.017384
  15 H :    0.027047

  Mayer bond orders larger than 0.100000
B(  0-C ,  1-N ) :   1.0309 B(  0-C , 10-C ) :   1.1087 B(  0-C , 11-H ) :   0.9467
B(  0-C , 12-H ) :   0.9396 B(  1-N ,  2-C ) :   1.1673 B(  1-N ,  7-H ) :   0.9305
B(  2-C ,  3-C ) :   1.7369 B(  2-C ,  4-N ) :   1.2308 B(  3-C ,  8-H ) :   0.9315
B(  3-C ,  9-H ) :   0.9381 B(  4-N ,  5-H ) :   0.9406 B(  4-N ,  6-H ) :   0.9426
B( 10-C , 13-H ) :   0.9640 B( 10-C , 14-H ) :   0.9655 B( 10-C , 15-H ) :   0.9550

Dispersion correction           -0.012837408
FINAL SINGLE POINT ENERGY      -267.357402412437

DIPOLE MOMENT
-------------
                                X             Y             Z
Electronic contribution:      1.57356      -1.23207      -3.92657
Nuclear contribution   :     -0.86957       2.18853       4.41892
                        -----------------------------------------
Total Dipole Moment    :      0.70399       0.95645       0.49235
                        -----------------------------------------
Magnitude (a.u.)       :      1.28562
Magnitude (Debye)      :      3.26778

Rotational constants in cm-1:     0.214718     0.075736     0.068547
Rotational constants in MHz :  6437.075121  2270.519635  2054.974198

                             ****ORCA TERMINATED NORMALLY****
TOTAL RUN TIME: 0 days 0 hours 0 minutes 8 seconds 707 msec
