                         Program Version 5.0.0 -  RELEASE  -
|  1> !PBE D3BJ RIJCOSX def2-SVP def2/J TightSCF
|  2> *xyz 0 1
|  3> C          2.23447       -2.98975       -2.39762
|  4> N          2.75680       -2.94555       -3.76503
|  5> C          1.98721       -2.59045       -4.81898
|  6> N          0.74322       -3.01749       -4.91352
|  7> C          2.49964       -1.84860       -5.80324
|  8> H          3.30978       -1.29282       -5.55895
|  9> H          1.80103       -1.30430       -6.28913
| 10> H          3.71612       -2.62880       -3.82953
| 11> H          0.39583       -3.62775       -4.18502
| 12> H          0.03920       -2.45438       -5.37137
| 13> C          2.19120       -1.61950       -1.71549
| 14> H          2.87278       -3.66637       -1.82801
| 15> H          1.24619       -3.44744       -2.40784
| 16> H          1.56387       -0.96046       -2.27853
| 17> H          3.18033       -1.21449       -1.66568
| 18> H          1.79916       -1.72608       -0.72562
| 19> *
| 20>
| 21> %MaxCore 64000
| 22>
| 23> %pal nprocs 4
| 24> end
| 25>
| 26> %scf
| 27>   MaxIter 150
| 28> end
| 29>
| 30>
| 31>                          ****END OF INPUT****

CARTESIAN COORDINATES (ANGSTROEM)
---------------------------------
  C      2.234470   -2.989750   -2.397620
  N      2.756800   -2.945550   -3.765030
  C      1.987210   -2.590450   -4.818980
  N      0.743220   -3.017490   -4.913520
  C      2.499640   -1.848600   -5.803240
  H      3.309780   -1.292820   -5.558950
  H      1.801030   -1.304300   -6.289130
  H      3.716120   -2.628800   -3.829530
  H      0.395830   -3.627750   -4.185020
  H      0.039200   -2.454380   -5.371370
  C      2.191200   -1.619500   -1.715490
  H      2.872780   -3.666370   -1.828010
  H      1.246190   -3.447440   -2.407840
  H      1.563870   -0.960460   -2.278530
  H      3.180330   -1.214490   -1.665680
  H      1.799160   -1.726080   -0.725620

 Total Charge           Charge          ....    0
 Multiplicity           Mult            ....    1
 Number of Electrons    NEL             ....   48
 Basis Dimension        Dim             ....  134

ORBITAL ENERGIES
----------------

  NO   OCC          E(Eh)            E(eV)
   0   2.0000     -13.994232      -380.8024
   1   2.0000     -13.992235      -380.7481
   2   2.0000      -9.931778      -270.2574
   3   2.0000      -9.928054      -270.1561
   4   2.0000      -9.887186      -269.0440
   5   2.0000      -9.802642      -266.7434
   6   2.0000      -0.871996       -23.7282
   7   2.0000      -0.796363       -21.6701
   8   2.0000      -0.686738       -18.6871
   9   2.0000      -0.626473       -17.0472
  10   2.0000      -0.559155       -15.2154
  11   2.0000      -0.536522       -14.5995
  12   2.0000      -0.479677       -13.0527
  13   2.0000      -0.436204       -11.8697
  14   2.0000      -0.434776       -11.8309
  15   2.0000      -0.387543       -10.5456
  16   2.0000      -0.375692       -10.2231
  17   2.0000      -0.349936        -9.5222
  18   2.0000      -0.327126        -8.9015
  19   2.0000      -0.317379        -8.6363
  20   2.0000      -0.312785        -8.5113
  21   2.0000      -0.304008        -8.2725
  22   2.0000      -0.204075        -5.5532
  23   2.0000      -0.129696        -3.5292
  24   0.0000       0.018315         0.4984
  25   0.0000       0.037825         1.0293
  26   0.0000       0.046945         1.2774
  27   0.0000       0.066915         1.8208
  28   0.0000       0.080574         2.1925

MULLIKEN ATOMIC CHARGES
-----------------------
   0 C :    0.022630
   1 N :   -0.117760
   2 C :   -0.113771
   3 N :   -0.043670
   4 C :   -0.029523
   5 H :   -0.065482
   6 H :   -0.061198
   7 H :    0.108736
   8 H :    0.091675
   9 H :    0.119974
  10 C :    0.001880
  11 H :    0.019137
  12 H :    0.005299
  13 H :    0.027263
  14 H :    0.018904
  15 H :    0.015905
Sum of atomic charges:   -0.0000000

LOEWDIN ATOMIC CHARGES
----------------------
   0 C :    0.018317
   1 N :   -0.022983
   2 C :    0.004906
   3 N :    0.007463
   4 C :   -0.248084
   5 H :   -0.012494
   6 H :   -0.007828
   7 H :    0.077468
   8 H :    0.060289
   9 H :    0.080948
  10 C :   -0.071234
  11 H :    0.022167
  12 H :    0.015517
  13 H :    0.026661
  14 H :    0.023330
  15 H :    0.025556

  Mayer bond orders larger than 0.100000
B(  0-C ,  1-N ) :   1.0484 B(  0-C , 10-C ) :   1.0910 B(  0-C , 11-H ) :   0.9465
B(  0-C , 12-H ) :   0.9418 B(  1-N ,  2-C ) :   1.1887 B(  1-N ,  7-H ) :   0.9243
B(  2-C ,  3-N ) :   1.2317 B(  2-C ,  4-C ) :   1.7397 B(  3-N ,  8-H ) :   0.9498
B(  3-N ,  9-H ) :   0.9439 B(  4-C ,  5-H ) :   0.9296 B(  4-C ,  6-H ) :   0.9358
B( 10-C , 13-H ) :   0.9656 B( 10-C , 14-H ) :   0.9661 B( 10-C , 15-H ) :   0.9542

Dispersion correction           -0.012798985
FINAL SINGLE POINT ENERGY      -267.353400069908

DIPOLE MOMENT
-------------
                                X             Y             Z
Electronic contribution:     -0.15335      -2.45127      -3.02275
Nuclear contribution   :     -0.49695       2.43650       4.23017
                        -----------------------------------------
Total Dipole Moment    :     -0.65030      -0.01477       1.20742
                        -----------------------------------------
Magnitude (a.u.)       :      1.37148
Magnitude (Debye)      :      3.48603

Rotational constants in cm-1:     0.211102     0.077011     0.069221
Rotational constants in MHz :  6328.667765  2308.731604  2075.192956

                             ****ORCA TERMINATED NORMALLY****
TOTAL RUN TIME: 0 days 0 hours 0 minutes 9 seconds 20 msec
