                         Program Version 5.0.0 -  RELEASE  -
|  1> !PBE D3BJ RIJCOSX def2-TZVP def2/J TightSCF xyzfile
|  2>
|  3> *xyzfile 0 1 D2.xyz
|  4>
|  5> %MaxCore 64000
|  6>
|  7> %pal nprocs 18
|  8> end
|  9>
| 10> %scf
| 11>   MaxIter 150
| 12> end
| 13>
| 14>
| 15>                          ****END OF INPUT****

CARTESIAN COORDINATES (ANGSTROEM)
---------------------------------
  C      2.234473   -2.989754   -2.397622
  N      2.756799   -2.945553   -3.765029
  C     -1.104325    0.251374   -2.860056
  C     -0.711893    0.842517   -4.218344
  H      0.154626    1.499800   -4.130909
  H     -1.538134    1.459222   -4.582671
  C     -0.397624   -0.205875   -5.288018
  C      1.987208   -2.590451   -4.818975
  C      0.743221   -3.017493   -4.913524
  N      2.499636   -1.848598   -5.803241
  H      3.309780   -1.292818   -5.558947
  H      1.801025   -1.304298   -6.289129
  H      3.716116   -2.628797   -3.829533
  H      0.395828   -3.627747   -4.185024
  H      0.039201   -2.454383   -5.371367
  F      0.617165   -0.005348   -5.998273
  O     -1.133173   -1.221380   -5.341465
  C      2.191199   -1.619503   -1.715492
  H      2.872783   -3.666368   -1.828014
  H      1.246188   -3.447444   -2.407842
  C      1.298729   -0.554314   -2.359773
  H      1.872917   -1.787955   -0.681310
  H      3.216809   -1.238432   -1.654428
  C     -0.196255   -0.863365   -2.325763
  H      1.612531   -0.371346   -3.393065
  H      1.480944    0.388638   -1.834444
  H     -0.404105   -1.761825   -2.909448
  H     -0.490439   -1.087880   -1.294131
  H     -1.143842    1.066711   -2.129680
  H     -2.114401   -0.156834   -2.930323

 Total Charge           Charge          ....    0
 Multiplicity           Mult            ....    1
 Number of Electrons    NEL             ....  102
 Basis Dimension        Dim             ....  505

ORBITAL ENERGIES
----------------

  NO   OCC          E(Eh)            E(eV)
   0   2.0000     -24.342101      -662.3822
   1   2.0000     -18.759571      -510.4739
   2   2.0000     -13.979536      -380.4025
   3   2.0000     -13.969469      -380.1286
   4   2.0000     -10.053933      -273.5814
   5   2.0000      -9.913755      -269.7670
   6   2.0000      -9.907661      -269.6012
   7   2.0000      -9.905994      -269.5558
   8   2.0000      -9.893846      -269.2252
   9   2.0000      -9.882635      -268.9202
  10   2.0000      -9.882416      -268.9142
  11   2.0000      -9.876086      -268.7420
  12   2.0000      -9.776771      -266.0395
  13   2.0000      -1.234062       -33.5805
  14   2.0000      -0.957097       -26.0439
  15   2.0000      -0.876503       -23.8509
  16   2.0000      -0.803897       -21.8752
  17   2.0000      -0.748591       -20.3702
  18   2.0000      -0.712944       -19.4002
  19   2.0000      -0.665698       -18.1146
  20   2.0000      -0.640351       -17.4248
  21   2.0000      -0.624548       -16.9948
  22   2.0000      -0.598688       -16.2911
  23   2.0000      -0.558007       -15.1841
  24   2.0000      -0.527394       -14.3511
  25   2.0000      -0.507551       -13.8112
  26   2.0000      -0.491403       -13.3717
  27   2.0000      -0.482260       -13.1230
  28   2.0000      -0.480535       -13.0760
  29   2.0000      -0.467784       -12.7290
  30   2.0000      -0.442986       -12.0543
  31   2.0000      -0.430343       -11.7102
  32   2.0000      -0.420341       -11.4380
  33   2.0000      -0.401425       -10.9233
  34   2.0000      -0.395006       -10.7486
  35   2.0000      -0.379792       -10.3347
  36   2.0000      -0.368477       -10.0268
  37   2.0000      -0.360827        -9.8186
  38   2.0000      -0.348429        -9.4812
  39   2.0000      -0.338726        -9.2172
  40   2.0000      -0.330975        -9.0063
  41   2.0000      -0.323553        -8.8043
  42   2.0000      -0.314887        -8.5685
  43   2.0000      -0.312407        -8.5010
  44   2.0000      -0.300655        -8.1812
  45   2.0000      -0.289894        -7.8884
  46   2.0000      -0.281331        -7.6554
  47   2.0000      -0.278916        -7.5897
  48   2.0000      -0.238690        -6.4951
  49   2.0000      -0.202399        -5.5076
  50   2.0000      -0.132488        -3.6052
  51   0.0000      -0.075422        -2.0523
  52   0.0000      -0.001777        -0.0484
  53   0.0000       0.015077         0.4103
  54   0.0000       0.024501         0.6667
  55   0.0000       0.033302         0.9062

MULLIKEN ATOMIC CHARGES
-----------------------
   0 C :   -0.138738
   1 N :   -0.217192
   2 C :   -0.156927
   3 C :   -0.201101
   4 H :    0.109284
   5 H :    0.133875
   6 C :    0.296667
   7 C :    0.125528
   8 C :   -0.472098
   9 N :   -0.350077
  10 H :    0.182531
  11 H :    0.215434
  12 H :    0.169773
  13 H :    0.067201
  14 H :    0.132948
  15 F :   -0.092314
  16 O :   -0.265522
  17 C :   -0.191153
  18 H :    0.113906
  19 H :    0.121999
  20 C :   -0.120319
  21 H :    0.081396
  22 H :    0.087643
  23 C :   -0.210422
  24 H :    0.080563
  25 H :    0.082357
  26 H :    0.128977
  27 H :    0.082223
  28 H :    0.098900
  29 H :    0.104660
Sum of atomic charges:    0.0000000

LOEWDIN ATOMIC CHARGES
----------------------
   0 C :   -0.286802
   1 N :    0.119185
   2 C :   -0.258524
   3 C :   -0.243277
   4 H :    0.143546
   5 H :    0.160363
   6 C :   -0.532307
   7 C :   -0.506838
   8 C :   -0.305083
   9 N :   -0.012226
  10 H :    0.146729
  11 H :    0.161151
  12 H :    0.170061
  13 H :    0.097643
  14 H :    0.095995
  15 F :    0.350217
  16 O :    0.121839
  17 C :   -0.274607
  18 H :    0.132760
  19 H :    0.139582
  20 C :   -0.271154
  21 H :    0.139927
  22 H :    0.134353
  23 C :   -0.270714
  24 H :    0.137395
  25 H :    0.137717
  26 H :    0.146624
  27 H :    0.138617
  28 H :    0.141023
  29 H :    0.146807

  Mayer bond orders larger than 0.100000
B(  0-C ,  1-N ) :   0.9687 B(  0-C , 17-C ) :   1.0101 B(  0-C , 18-H ) :   0.9587
B(  0-C , 19-H ) :   0.9616 B(  1-N ,  7-C ) :   1.1637 B(  1-N , 12-H ) :   0.9188
B(  2-C ,  3-C ) :   1.0045 B(  2-C , 23-C ) :   1.0183 B(  2-C , 28-H ) :   0.9428
B(  2-C , 29-H ) :   0.9403 B(  3-C ,  4-H ) :   0.9345 B(  3-C ,  5-H ) :   0.9168
B(  3-C ,  6-C ) :   1.0250 B(  6-C , 15-F ) :   1.1227 B(  6-C , 16-O ) :   2.0426
B(  7-C ,  8-C ) :   1.6193 B(  7-C ,  9-N ) :   1.2006 B(  8-C , 13-H ) :   1.0058
B(  8-C , 14-H ) :   0.9649 B(  9-N , 10-H ) :   0.9188 B(  9-N , 11-H ) :   0.9102
B( 17-C , 20-C ) :   1.0073 B( 17-C , 21-H ) :   0.9368 B( 17-C , 22-H ) :   0.9522
B( 20-C , 23-C ) :   0.9890 B( 20-C , 24-H ) :   0.9354 B( 20-C , 25-H ) :   0.9482
B( 23-C , 26-H ) :   0.9460 B( 23-C , 27-H ) :   0.9477

Dispersion correction           -0.035266291
FINAL SINGLE POINT ENERGY      -637.188135525542

DIPOLE MOMENT
-------------
                                X             Y             Z
Electronic contribution:     -1.45631       2.09056     -13.62359
Nuclear contribution   :      2.00823      -0.28769      14.57028
                        -----------------------------------------
Total Dipole Moment    :      0.55192       1.80287       0.94669
                        -----------------------------------------
Magnitude (a.u.)       :      2.10978
Magnitude (Debye)      :      5.36264

Rotational constants in cm-1:     0.033070     0.023715     0.016943
Rotational constants in MHz :   991.423248   710.957140   507.940500

                             ****ORCA TERMINATED NORMALLY****
TOTAL RUN TIME: 0 days 0 hours 0 minutes 17 seconds 446 msec
