                         Program Version 5.0.0 -  RELEASE  -
|  1> !PBE D3BJ RIJCOSX def2-TZVP def2/J TightSCF xyzfile
|  2>
|  3> *xyzfile 0 1 D3.xyz
|  4>
|  5> %MaxCore 64000
|  6>
|  7> %pal nprocs 18
|  8> end
|  9>
| 10> %scf
| 11>   MaxIter 150
| 12> end
| 13>
| 14>
| 15>                          ****END OF INPUT****

CARTESIAN COORDINATES (ANGSTROEM)
---------------------------------
  C      2.234473   -2.989754   -2.397622
  N      2.756799   -2.945553   -3.765029
  C     -1.104325    0.251374   -2.860056
  C     -0.711893    0.842517   -4.218344
  H      0.154626    1.499800   -4.130909
  H     -1.538134    1.459222   -4.582671
  C     -0.397624   -0.205875   -5.288018
  C      1.987208   -2.590451   -4.818975
  N      0.743221   -3.017493   -4.913524
  C      2.499636   -1.848598   -5.803241
  H      3.309780   -1.292818   -5.558947
  H      1.801025   -1.304298   -6.289129
  H      3.716116   -2.628797   -3.829533
  H      0.395828   -3.627747   -4.185024
  H      0.039201   -2.454383   -5.371367
  F      0.617165   -0.005348   -5.998273
  O     -1.133173   -1.221380   -5.341465
  C      2.191199   -1.619503   -1.715492
  H      2.872783   -3.666368   -1.828014
  H      1.246188   -3.447444   -2.407842
  C      1.298729   -0.554314   -2.359773
  H      1.872917   -1.787955   -0.681310
  H      3.216809   -1.238432   -1.654428
  C     -0.196255   -0.863365   -2.325763
  H      1.612531   -0.371346   -3.393065
  H      1.480944    0.388638   -1.834444
  H     -0.404105   -1.761825   -2.909448
  H     -0.490439   -1.087880   -1.294131
  H     -1.143842    1.066711   -2.129680
  H     -2.114401   -0.156834   -2.930323

 Total Charge           Charge          ....    0
 Multiplicity           Mult            ....    1
 Number of Electrons    NEL             ....  102
 Basis Dimension        Dim             ....  505

ORBITAL ENERGIES
----------------

  NO   OCC          E(Eh)            E(eV)
   0   2.0000     -24.336502      -662.2299
   1   2.0000     -18.773567      -510.8547
   2   2.0000     -13.978784      -380.3821
   3   2.0000     -13.960033      -379.8718
   4   2.0000     -10.064538      -273.8700
   5   2.0000      -9.919089      -269.9121
   6   2.0000      -9.914387      -269.7842
   7   2.0000      -9.910098      -269.6675
   8   2.0000      -9.900552      -269.4077
   9   2.0000      -9.885449      -268.9967
  10   2.0000      -9.885360      -268.9943
  11   2.0000      -9.884687      -268.9760
  12   2.0000      -9.780524      -266.1416
  13   2.0000      -1.229489       -33.4561
  14   2.0000      -0.971176       -26.4270
  15   2.0000      -0.875440       -23.8219
  16   2.0000      -0.798768       -21.7356
  17   2.0000      -0.755090       -20.5470
  18   2.0000      -0.718320       -19.5465
  19   2.0000      -0.675579       -18.3834
  20   2.0000      -0.641964       -17.4687
  21   2.0000      -0.622156       -16.9297
  22   2.0000      -0.589779       -16.0487
  23   2.0000      -0.557083       -15.1590
  24   2.0000      -0.537584       -14.6284
  25   2.0000      -0.522033       -14.2052
  26   2.0000      -0.499916       -13.6034
  27   2.0000      -0.479774       -13.0553
  28   2.0000      -0.475602       -12.9418
  29   2.0000      -0.473058       -12.8726
  30   2.0000      -0.441680       -12.0187
  31   2.0000      -0.431784       -11.7494
  32   2.0000      -0.424668       -11.5558
  33   2.0000      -0.413863       -11.2618
  34   2.0000      -0.399634       -10.8746
  35   2.0000      -0.388914       -10.5829
  36   2.0000      -0.367008        -9.9868
  37   2.0000      -0.363678        -9.8962
  38   2.0000      -0.346647        -9.4327
  39   2.0000      -0.337045        -9.1715
  40   2.0000      -0.333584        -9.0773
  41   2.0000      -0.326262        -8.8780
  42   2.0000      -0.319264        -8.6876
  43   2.0000      -0.313866        -8.5407
  44   2.0000      -0.302451        -8.2301
  45   2.0000      -0.293954        -7.9989
  46   2.0000      -0.289578        -7.8798
  47   2.0000      -0.285768        -7.7761
  48   2.0000      -0.263207        -7.1622
  49   2.0000      -0.200185        -5.4473
  50   2.0000      -0.130025        -3.5382
  51   0.0000      -0.084656        -2.3036
  52   0.0000       0.001227         0.0334
  53   0.0000       0.016511         0.4493
  54   0.0000       0.018716         0.5093
  55   0.0000       0.032378         0.8810

MULLIKEN ATOMIC CHARGES
-----------------------
   0 C :   -0.183602
   1 N :   -0.202113
   2 C :   -0.158969
   3 C :   -0.200203
   4 H :    0.119644
   5 H :    0.136132
   6 C :    0.307963
   7 C :    0.096103
   8 N :   -0.358868
   9 C :   -0.382121
  10 H :    0.056754
  11 H :    0.053501
  12 H :    0.196386
  13 H :    0.194611
  14 H :    0.229121
  15 F :   -0.046054
  16 O :   -0.312415
  17 C :   -0.163451
  18 H :    0.121594
  19 H :    0.100511
  20 C :   -0.151726
  21 H :    0.077935
  22 H :    0.094474
  23 C :   -0.210197
  24 H :    0.117979
  25 H :    0.085090
  26 H :    0.085189
  27 H :    0.087117
  28 H :    0.103267
  29 H :    0.106350
Sum of atomic charges:    0.0000000

LOEWDIN ATOMIC CHARGES
----------------------
   0 C :   -0.302165
   1 N :    0.121112
   2 C :   -0.258227
   3 C :   -0.239164
   4 H :    0.147935
   5 H :    0.161853
   6 C :   -0.522433
   7 C :   -0.502037
   8 N :    0.031178
   9 C :   -0.356128
  10 H :    0.093191
  11 H :    0.094344
  12 H :    0.186915
  13 H :    0.154632
  14 H :    0.151914
  15 F :    0.374298
  16 O :    0.095919
  17 C :   -0.273884
  18 H :    0.134092
  19 H :    0.128348
  20 C :   -0.270382
  21 H :    0.138838
  22 H :    0.138043
  23 C :   -0.274048
  24 H :    0.144047
  25 H :    0.139223
  26 H :    0.134341
  27 H :    0.139237
  28 H :    0.142720
  29 H :    0.146291

  Mayer bond orders larger than 0.100000
B(  0-C ,  1-N ) :   0.9931 B(  0-C , 17-C ) :   0.9948 B(  0-C , 18-H ) :   0.9607
B(  0-C , 19-H ) :   0.9713 B(  1-N ,  7-C ) :   1.2208 B(  1-N , 12-H ) :   0.9158
B(  2-C ,  3-C ) :   1.0002 B(  2-C , 23-C ) :   1.0197 B(  2-C , 28-H ) :   0.9426
B(  2-C , 29-H ) :   0.9425 B(  3-C ,  4-H ) :   0.9365 B(  3-C ,  5-H ) :   0.9139
B(  3-C ,  6-C ) :   1.0281 B(  6-C , 15-F ) :   1.1954 B(  6-C , 16-O ) :   1.9739
B(  7-C ,  8-N ) :   1.1925 B(  7-C ,  9-C ) :   1.6814 B(  8-N , 13-H ) :   0.9260
B(  8-N , 14-H ) :   0.8591 B(  9-C , 10-H ) :   0.9922 B(  9-C , 11-H ) :   0.9982
B( 14-H , 16-O ) :   0.1109 B( 17-C , 20-C ) :   1.0015 B( 17-C , 21-H ) :   0.9348
B( 17-C , 22-H ) :   0.9489 B( 20-C , 23-C ) :   0.9892 B( 20-C , 24-H ) :   0.9375
B( 20-C , 25-H ) :   0.9446 B( 23-C , 26-H ) :   0.9481 B( 23-C , 27-H ) :   0.9462

Dispersion correction           -0.035152445
FINAL SINGLE POINT ENERGY      -637.194110603172

DIPOLE MOMENT
-------------
                                X             Y             Z
Electronic contribution:     -2.84932       1.26594     -12.83593
Nuclear contribution   :      2.27881      -0.10762      14.43322
                        -----------------------------------------
Total Dipole Moment    :     -0.57051       1.15832       1.59729
                        -----------------------------------------
Magnitude (a.u.)       :      2.05390
Magnitude (Debye)      :      5.22060

Rotational constants in cm-1:     0.033336     0.023673     0.017062
Rotational constants in MHz :   999.388459   709.685364   511.514310

                             ****ORCA TERMINATED NORMALLY****
TOTAL RUN TIME: 0 days 0 hours 0 minutes 21 seconds 448 msec
