                         Program Version 5.0.0 -  RELEASE  -
|  1> !PBE D3BJ RIJCOSX def2-TZVP def2/J TightSCF xyzfile
|  2>
|  3> *xyzfile 0 1 D4.xyz
|  4>
|  5> %MaxCore 64000
|  6>
|  7> %pal nprocs 18
|  8> end
|  9>
| 10> %scf
| 11>   MaxIter 150
| 12> end
| 13>
| 14>
| 15>                          ****END OF INPUT****

CARTESIAN COORDINATES (ANGSTROEM)
---------------------------------
  C      2.234473   -2.989754   -2.397622
  C      2.756799   -2.945553   -3.765029
  C     -1.104325    0.251374   -2.860056
  C     -0.711893    0.842517   -4.218344
  H      0.154626    1.499800   -4.130909
  H     -1.538134    1.459222   -4.582671
  C     -0.397624   -0.205875   -5.288018
  C      1.987208   -2.590451   -4.818975
  N      0.743221   -3.017493   -4.913524
  N      2.499636   -1.848598   -5.803241
  H      3.309780   -1.292818   -5.558947
  H      1.801025   -1.304298   -6.289129
  H      3.716116   -2.628797   -3.829533
  H      0.395828   -3.627747   -4.185024
  H      0.039201   -2.454383   -5.371367
  O      0.617165   -0.005348   -5.998273
  F     -1.133173   -1.221380   -5.341465
  C      2.191199   -1.619503   -1.715492
  H      2.872783   -3.666368   -1.828014
  H      1.246188   -3.447444   -2.407842
  C      1.298729   -0.554314   -2.359773
  H      1.872917   -1.787955   -0.681310
  H      3.216809   -1.238432   -1.654428
  C     -0.196255   -0.863365   -2.325763
  H      1.612531   -0.371346   -3.393065
  H      1.480944    0.388638   -1.834444
  H     -0.404105   -1.761825   -2.909448
  H     -0.490439   -1.087880   -1.294131
  H     -1.143842    1.066711   -2.129680
  H     -2.114401   -0.156834   -2.930323

 Total Charge           Charge          ....    0
 Multiplicity           Mult            ....    1
 Number of Electrons    NEL             ....  102
 Basis Dimension        Dim             ....  505

ORBITAL ENERGIES
----------------

  NO   OCC          E(Eh)            E(eV)
   0   2.0000     -24.356417      -662.7718
   1   2.0000     -18.779515      -511.0166
   2   2.0000     -13.975206      -380.2847
   3   2.0000     -13.960876      -379.8947
   4   2.0000     -10.067604      -273.9534
   5   2.0000      -9.920442      -269.9489
   6   2.0000      -9.911229      -269.6983
   7   2.0000      -9.901948      -269.4457
   8   2.0000      -9.884530      -268.9717
   9   2.0000      -9.874571      -268.7007
  10   2.0000      -9.864625      -268.4301
  11   2.0000      -9.855502      -268.1818
  12   2.0000      -9.799941      -266.6699
  13   2.0000      -1.248985       -33.9866
  14   2.0000      -0.974953       -26.5298
  15   2.0000      -0.875269       -23.8173
  16   2.0000      -0.788670       -21.4608
  17   2.0000      -0.757608       -20.6156
  18   2.0000      -0.717305       -19.5189
  19   2.0000      -0.682006       -18.5583
  20   2.0000      -0.638361       -17.3707
  21   2.0000      -0.622465       -16.9381
  22   2.0000      -0.592289       -16.1170
  23   2.0000      -0.554106       -15.0780
  24   2.0000      -0.533756       -14.5242
  25   2.0000      -0.522904       -14.2290
  26   2.0000      -0.508896       -13.8478
  27   2.0000      -0.504235       -13.7209
  28   2.0000      -0.470578       -12.8051
  29   2.0000      -0.463393       -12.6096
  30   2.0000      -0.437753       -11.9119
  31   2.0000      -0.432588       -11.7713
  32   2.0000      -0.424498       -11.5512
  33   2.0000      -0.406115       -11.0509
  34   2.0000      -0.391998       -10.6668
  35   2.0000      -0.388323       -10.5668
  36   2.0000      -0.379707       -10.3323
  37   2.0000      -0.357273        -9.7219
  38   2.0000      -0.351695        -9.5701
  39   2.0000      -0.346587        -9.4311
  40   2.0000      -0.341124        -9.2825
  41   2.0000      -0.319793        -8.7020
  42   2.0000      -0.316434        -8.6106
  43   2.0000      -0.304097        -8.2749
  44   2.0000      -0.296458        -8.0670
  45   2.0000      -0.283883        -7.7249
  46   2.0000      -0.274123        -7.4593
  47   2.0000      -0.266764        -7.2590
  48   2.0000      -0.262465        -7.1420
  49   2.0000      -0.216756        -5.8982
  50   2.0000      -0.122509        -3.3336
  51   0.0000      -0.087796        -2.3890
  52   0.0000      -0.002773        -0.0754
  53   0.0000       0.019589         0.5330
  54   0.0000       0.027328         0.7436
  55   0.0000       0.032707         0.8900

MULLIKEN ATOMIC CHARGES
-----------------------
   0 C :   -0.203250
   1 C :   -0.265529
   2 C :   -0.188100
   3 C :   -0.186254
   4 H :    0.132178
   5 H :    0.133127
   6 C :    0.289833
   7 C :    0.050151
   8 N :   -0.354390
   9 N :   -0.318133
  10 H :    0.218320
  11 H :    0.212894
  12 H :    0.053589
  13 H :    0.219230
  14 H :    0.199095
  15 O :   -0.319651
  16 F :   -0.075880
  17 C :   -0.098366
  18 H :    0.091623
  19 H :    0.062369
  20 C :   -0.148102
  21 H :    0.068694
  22 H :    0.075405
  23 C :   -0.209910
  24 H :    0.111789
  25 H :    0.079037
  26 H :    0.065190
  27 H :    0.092647
  28 H :    0.105982
  29 H :    0.106412
Sum of atomic charges:    0.0000000

LOEWDIN ATOMIC CHARGES
----------------------
   0 C :   -0.299034
   1 C :   -0.273226
   2 C :   -0.268837
   3 C :   -0.237453
   4 H :    0.158242
   5 H :    0.158096
   6 C :   -0.539238
   7 C :   -0.495753
   8 N :    0.023358
   9 N :    0.008415
  10 H :    0.169927
  11 H :    0.147692
  12 H :    0.118157
  13 H :    0.169658
  14 H :    0.143271
  15 O :    0.092004
  16 F :    0.357743
  17 C :   -0.262100
  18 H :    0.140642
  19 H :    0.127691
  20 C :   -0.270437
  21 H :    0.132603
  22 H :    0.137457
  23 C :   -0.275028
  24 H :    0.143368
  25 H :    0.137875
  26 H :    0.129097
  27 H :    0.141082
  28 H :    0.143939
  29 H :    0.140791

  Mayer bond orders larger than 0.100000
B(  0-C ,  1-C ) :   1.0441 B(  0-C , 17-C ) :   0.9656 B(  0-C , 18-H ) :   0.9522
B(  0-C , 19-H ) :   0.9646 B(  1-C ,  7-C ) :   1.6865 B(  1-C , 12-H ) :   0.9975
B(  2-C ,  3-C ) :   0.9736 B(  2-C , 23-C ) :   0.9941 B(  2-C , 28-H ) :   0.9378
B(  2-C , 29-H ) :   0.9565 B(  3-C ,  4-H ) :   0.9431 B(  3-C ,  5-H ) :   0.9166
B(  3-C ,  6-C ) :   1.0360 B(  6-C , 15-O ) :   1.9704 B(  6-C , 16-F ) :   1.1413
B(  7-C ,  8-N ) :   1.2217 B(  7-C ,  9-N ) :   1.2246 B(  8-N , 13-H ) :   0.9184
B(  8-N , 14-H ) :   0.8957 B(  9-N , 10-H ) :   0.9227 B(  9-N , 11-H ) :   0.8898
B( 17-C , 20-C ) :   1.0286 B( 17-C , 21-H ) :   0.9321 B( 17-C , 22-H ) :   0.9418
B( 20-C , 23-C ) :   0.9842 B( 20-C , 24-H ) :   0.9334 B( 20-C , 25-H ) :   0.9463
B( 23-C , 26-H ) :   0.9556 B( 23-C , 27-H ) :   0.9491

Dispersion correction           -0.035199260
FINAL SINGLE POINT ENERGY      -637.209618858619

DIPOLE MOMENT
-------------
                                X             Y             Z
Electronic contribution:     -5.85229       0.07039     -13.50519
Nuclear contribution   :      4.38568       1.15960      13.97148
                        -----------------------------------------
Total Dipole Moment    :     -1.46661       1.23000       0.46629
                        -----------------------------------------
Magnitude (a.u.)       :      1.97009
Magnitude (Debye)      :      5.00757

Rotational constants in cm-1:     0.032892     0.023844     0.017123
Rotational constants in MHz :   986.091711   714.821905   513.334630

                             ****ORCA TERMINATED NORMALLY****
TOTAL RUN TIME: 0 days 0 hours 0 minutes 19 seconds 140 msec
