                         Program Version 5.0.0 -  RELEASE  -
|  1> !PBE D3BJ RIJCOSX def2-TZVP def2/J TightSCF xyzfile
|  2>
|  3> *xyzfile 0 1 D6.xyz
|  4>
|  5> %MaxCore 64000
|  6>
|  7> %pal nprocs 18
|  8> end
|  9>
| 10> %scf
| 11>   MaxIter 150
| 12> end
| 13>
| 14>
| 15>                          ****END OF INPUT****

CARTESIAN COORDINATES (ANGSTROEM)
---------------------------------
  C      2.234473   -2.989754   -2.397622
  N      2.756799   -2.945553   -3.765029
  C     -1.104325    0.251374   -2.860056
  C     -0.711893    0.842517   -4.218344
  H      0.154626    1.499800   -4.130909
  H     -1.538134    1.459222   -4.582671
  C     -0.397624   -0.205875   -5.288018
  C      1.987208   -2.590451   -4.818975
  N      0.743221   -3.017493   -4.913524
  C      2.499636   -1.848598   -5.803241
  H      3.309780   -1.292818   -5.558947
  H      1.801025   -1.304298   -6.289129
  H      3.716116   -2.628797   -3.829533
  H      0.395828   -3.627747   -4.185024
  H      0.039201   -2.454383   -5.371367
  O      0.617165   -0.005348   -5.998273
  F     -1.133173   -1.221380   -5.341465
  C      2.191199   -1.619503   -1.715492
  H      2.872783   -3.666368   -1.828014
  H      1.246188   -3.447444   -2.407842
  C      1.298729   -0.554314   -2.359773
  H      1.872917   -1.787955   -0.681310
  H      3.216809   -1.238432   -1.654428
  C     -0.196255   -0.863365   -2.325763
  H      1.612531   -0.371346   -3.393065
  H      1.480944    0.388638   -1.834444
  H     -0.404105   -1.761825   -2.909448
  H     -0.490439   -1.087880   -1.294131
  H     -1.143842    1.066711   -2.129680
  H     -2.114401   -0.156834   -2.930323

 Total Charge           Charge          ....    0
 Multiplicity           Mult            ....    1
 Number of Electrons    NEL             ....  102
 Basis Dimension        Dim             ....  505

ORBITAL ENERGIES
----------------

  NO   OCC          E(Eh)            E(eV)
   0   2.0000     -24.343306      -662.4150
   1   2.0000     -18.761061      -510.5144
   2   2.0000     -13.979156      -380.3922
   3   2.0000     -13.973416      -380.2360
   4   2.0000     -10.051310      -273.5101
   5   2.0000      -9.915161      -269.8053
   6   2.0000      -9.913567      -269.7619
   7   2.0000      -9.909004      -269.6377
   8   2.0000      -9.900784      -269.4140
   9   2.0000      -9.889048      -269.0947
  10   2.0000      -9.885135      -268.9882
  11   2.0000      -9.882984      -268.9297
  12   2.0000      -9.774162      -265.9685
  13   2.0000      -1.236772       -33.6543
  14   2.0000      -0.956021       -26.0147
  15   2.0000      -0.878940       -23.9172
  16   2.0000      -0.804638       -21.8953
  17   2.0000      -0.756062       -20.5735
  18   2.0000      -0.717545       -19.5254
  19   2.0000      -0.673274       -18.3207
  20   2.0000      -0.642193       -17.4750
  21   2.0000      -0.616706       -16.7814
  22   2.0000      -0.598102       -16.2752
  23   2.0000      -0.556254       -15.1365
  24   2.0000      -0.545543       -14.8450
  25   2.0000      -0.523155       -14.2358
  26   2.0000      -0.504446       -13.7267
  27   2.0000      -0.495091       -13.4721
  28   2.0000      -0.478564       -13.0224
  29   2.0000      -0.452610       -12.3161
  30   2.0000      -0.441496       -12.0137
  31   2.0000      -0.431327       -11.7370
  32   2.0000      -0.422202       -11.4887
  33   2.0000      -0.412210       -11.2168
  34   2.0000      -0.397313       -10.8114
  35   2.0000      -0.389955       -10.6112
  36   2.0000      -0.367183        -9.9916
  37   2.0000      -0.361360        -9.8331
  38   2.0000      -0.343356        -9.3432
  39   2.0000      -0.339400        -9.2355
  40   2.0000      -0.336151        -9.1471
  41   2.0000      -0.328186        -8.9304
  42   2.0000      -0.322918        -8.7871
  43   2.0000      -0.314235        -8.5508
  44   2.0000      -0.293749        -7.9933
  45   2.0000      -0.292804        -7.9676
  46   2.0000      -0.291844        -7.9415
  47   2.0000      -0.285108        -7.7582
  48   2.0000      -0.238998        -6.5035
  49   2.0000      -0.205305        -5.5866
  50   2.0000      -0.127961        -3.4820
  51   0.0000      -0.073082        -1.9887
  52   0.0000      -0.002730        -0.0743
  53   0.0000       0.013303         0.3620
  54   0.0000       0.016253         0.4423
  55   0.0000       0.033679         0.9165

MULLIKEN ATOMIC CHARGES
-----------------------
   0 C :   -0.183577
   1 N :   -0.201484
   2 C :   -0.189051
   3 C :   -0.192644
   4 H :    0.131576
   5 H :    0.129224
   6 C :    0.281844
   7 C :    0.093865
   8 N :   -0.374087
   9 C :   -0.350909
  10 H :    0.048045
  11 H :    0.088771
  12 H :    0.199087
  13 H :    0.200463
  14 H :    0.218564
  15 O :   -0.272961
  16 F :   -0.088256
  17 C :   -0.162734
  18 H :    0.122409
  19 H :    0.096172
  20 C :   -0.164239
  21 H :    0.076568
  22 H :    0.096094
  23 C :   -0.194576
  24 H :    0.145389
  25 H :    0.085810
  26 H :    0.061645
  27 H :    0.088746
  28 H :    0.104914
  29 H :    0.105335
Sum of atomic charges:    0.0000000

LOEWDIN ATOMIC CHARGES
----------------------
   0 C :   -0.303382
   1 N :    0.121193
   2 C :   -0.269342
   3 C :   -0.239454
   4 H :    0.158185
   5 H :    0.156560
   6 C :   -0.545018
   7 C :   -0.499659
   8 N :    0.026296
   9 C :   -0.331415
  10 H :    0.094466
  11 H :    0.100175
  12 H :    0.188149
  13 H :    0.155021
  14 H :    0.156616
  15 O :    0.123536
  16 F :    0.349164
  17 C :   -0.274290
  18 H :    0.134136
  19 H :    0.126728
  20 C :   -0.269358
  21 H :    0.138157
  22 H :    0.138798
  23 C :   -0.277143
  24 H :    0.150900
  25 H :    0.140007
  26 H :    0.127853
  27 H :    0.139122
  28 H :    0.142983
  29 H :    0.141016

  Mayer bond orders larger than 0.100000
B(  0-C ,  1-N ) :   0.9968 B(  0-C , 17-C ) :   0.9914 B(  0-C , 18-H ) :   0.9611
B(  0-C , 19-H ) :   0.9727 B(  1-N ,  7-C ) :   1.2205 B(  1-N , 12-H ) :   0.9154
B(  2-C ,  3-C ) :   0.9714 B(  2-C , 23-C ) :   1.0020 B(  2-C , 28-H ) :   0.9393
B(  2-C , 29-H ) :   0.9558 B(  3-C ,  4-H ) :   0.9450 B(  3-C ,  5-H ) :   0.9189
B(  3-C ,  6-C ) :   1.0370 B(  6-C , 15-O ) :   2.0280 B(  6-C , 16-F ) :   1.1193
B(  7-C ,  8-N ) :   1.1623 B(  7-C ,  9-C ) :   1.6931 B(  8-N , 13-H ) :   0.9240
B(  8-N , 14-H ) :   0.8942 B(  9-C , 10-H ) :   0.9804 B(  9-C , 11-H ) :   0.9827
B( 17-C , 20-C ) :   0.9986 B( 17-C , 21-H ) :   0.9350 B( 17-C , 22-H ) :   0.9487
B( 20-C , 23-C ) :   0.9836 B( 20-C , 24-H ) :   0.9364 B( 20-C , 25-H ) :   0.9445
B( 23-C , 26-H ) :   0.9542 B( 23-C , 27-H ) :   0.9457

Dispersion correction           -0.035139198
FINAL SINGLE POINT ENERGY      -637.184497152194

DIPOLE MOMENT
-------------
                                X             Y             Z
Electronic contribution:     -5.58670      -0.82707     -11.80468
Nuclear contribution   :      4.34606       1.32859      13.65749
                        -----------------------------------------
Total Dipole Moment    :     -1.24063       0.50153       1.85280
                        -----------------------------------------
Magnitude (a.u.)       :      2.28551
Magnitude (Debye)      :      5.80931

Rotational constants in cm-1:     0.033551     0.023540     0.017085
Rotational constants in MHz :  1005.818710   705.725032   512.192443

                             ****ORCA TERMINATED NORMALLY****
TOTAL RUN TIME: 0 days 0 hours 0 minutes 21 seconds 103 msec
