                         Program Version 5.0.0 -  RELEASE  -
|  1> !B3LYP D3BJ RIJCOSX def2-TZVPD def2/J TightSCF
|  2> *xyz -1 1
|  3> C         -0.05517        1.61942       -3.78858
|  4> C          1.22302        2.46987       -3.75691
|  5> H          1.11470        3.25807       -4.53300
|  6> H          1.23773        3.01124       -2.79216
|  7> O          2.35381        1.71203       -3.93448
|  8> H         -0.10198        1.08015       -4.71156
|  9> H         -0.91014        2.25726       -3.70441
| 10> H         -0.04403        0.92826       -2.97183
| 11> *
| 12>
| 13> %MaxCore 64000
| 14>
| 15> %pal nprocs 4
| 16> end
| 17>
| 18> %scf
| 19>   MaxIter 150
| 20> end
| 21>
| 22>
| 23>                          ****END OF INPUT****

CARTESIAN COORDINATES (ANGSTROEM)
---------------------------------
  C     -0.055170    1.619420   -3.788580
  C      1.223020    2.469870   -3.756910
  H      1.114700    3.258070   -4.533000
  H      1.237730    3.011240   -2.792160
  O      2.353810    1.712030   -3.934480
  H     -0.101980    1.080150   -4.711560
  H     -0.910140    2.257260   -3.704410
  H     -0.044030    0.928260   -2.971830

 Total Charge           Charge          ....   -1
 Multiplicity           Mult            ....    1
 Number of Electrons    NEL             ....   26
 Basis Dimension        Dim             ....  159

ORBITAL ENERGIES
----------------

  NO   OCC          E(Eh)            E(eV)
   0   2.0000     -18.797609      -511.5089
   1   2.0000      -9.983484      -271.6644
   2   2.0000      -9.958922      -270.9960
   3   2.0000      -0.681909       -18.5557
   4   2.0000      -0.526398       -14.3240
   5   2.0000      -0.374223       -10.1831
   6   2.0000      -0.251347        -6.8395
   7   2.0000      -0.228342        -6.2135
   8   2.0000      -0.174662        -4.7528
   9   2.0000      -0.158946        -4.3252
  10   2.0000      -0.114805        -3.1240
  11   2.0000       0.026900         0.7320
  12   2.0000       0.028564         0.7773
  13   0.0000       0.154146         4.1945
  14   0.0000       0.177753         4.8369
  15   0.0000       0.203671         5.5422
  16   0.0000       0.208067         5.6618
  17   0.0000       0.228807         6.2262

MULLIKEN ATOMIC CHARGES
-----------------------
   0 C :   -0.964619
   1 C :   -0.204786
   2 H :    0.165644
   3 H :    0.164657
   4 O :   -0.937914
   5 H :    0.221953
   6 H :    0.333825
   7 H :    0.221239
Sum of atomic charges:   -1.0000000

LOEWDIN ATOMIC CHARGES
----------------------
   0 C :   -0.170779
   1 C :   -0.613381
   2 H :    0.051934
   3 H :    0.050863
   4 O :   -0.412978
   5 H :    0.036619
   6 H :    0.022073
   7 H :    0.035648

  Mayer bond orders larger than 0.100000
B(  0-C ,  1-C ) :   0.7704 B(  0-C ,  4-O ) :   0.4079 B(  0-C ,  5-H ) :   1.0098
B(  0-C ,  6-H ) :   0.9525 B(  0-C ,  7-H ) :   1.0054 B(  1-C ,  2-H ) :   1.0589
B(  1-C ,  3-H ) :   1.0622 B(  1-C ,  4-O ) :   0.8832

Dispersion correction           -0.006240015
FINAL SINGLE POINT ENERGY      -154.406508783518

DIPOLE MOMENT
-------------
                                X             Y             Z
Electronic contribution:      2.85959      -0.52988      -0.25754
Nuclear contribution   :     -4.28298       0.81046       0.39340
                        -----------------------------------------
Total Dipole Moment    :     -1.42339       0.28059       0.13586
                        -----------------------------------------
Magnitude (a.u.)       :      1.45713
Magnitude (Debye)      :      3.70372

Rotational constants in cm-1:     1.266793     0.328147     0.288309
Rotational constants in MHz : 37977.512300  9837.594308  8643.275638

                             ****ORCA TERMINATED NORMALLY****
TOTAL RUN TIME: 0 days 0 hours 0 minutes 16 seconds 139 msec
