                         Program Version 5.0.0 -  RELEASE  -
|  1> !B3LYP D3BJ RIJCOSX def2-TZVPD def2/J TightSCF
|  2> *xyz 1 1
|  3> C          1.63556       -1.67040       -5.29211
|  4> C          0.33848       -1.50091       -4.50540
|  5> N          2.48451       -0.50741       -5.14039
|  6> H          1.39834       -1.82924       -6.35259
|  7> H          2.15586       -2.56540       -4.93209
|  8> C          3.45115       -0.14953       -5.95259
|  9> N          3.92267        1.08956       -5.85071
| 10> N          3.96616       -1.00618       -6.86788
| 11> H          3.52139       -1.90647       -6.99527
| 12> H          4.44482       -0.62347       -7.67035
| 13> H          2.25200        0.24080       -4.49879
| 14> H          3.46428        1.64078       -5.13639
| 15> H          4.83447        1.31375       -6.22465
| 16> H         -0.17658       -0.62881       -4.85045
| 17> H          0.56384       -1.39374       -3.46490
| 18> H         -0.28102       -2.36136       -4.64938
| 19> *
| 20>
| 21> %MaxCore 64000
| 22>
| 23> %pal nprocs 4
| 24> end
| 25>
| 26> %scf
| 27>   MaxIter 150
| 28> end
| 29>
| 30>
| 31>                          ****END OF INPUT****

CARTESIAN COORDINATES (ANGSTROEM)
---------------------------------
  C      1.635560   -1.670400   -5.292110
  C      0.338480   -1.500910   -4.505400
  N      2.484510   -0.507410   -5.140390
  H      1.398340   -1.829240   -6.352590
  H      2.155860   -2.565400   -4.932090
  C      3.451150   -0.149530   -5.952590
  N      3.922670    1.089560   -5.850710
  N      3.966160   -1.006180   -6.867880
  H      3.521390   -1.906470   -6.995270
  H      4.444820   -0.623470   -7.670350
  H      2.252000    0.240800   -4.498790
  H      3.464280    1.640780   -5.136390
  H      4.834470    1.313750   -6.224650
  H     -0.176580   -0.628810   -4.850450
  H      0.563840   -1.393740   -3.464900
  H     -0.281020   -2.361360   -4.649380

 Total Charge           Charge          ....    1
 Multiplicity           Mult            ....    1
 Number of Electrons    NEL             ....   48
 Basis Dimension        Dim             ....  312

ORBITAL ENERGIES
----------------

  NO   OCC          E(Eh)            E(eV)
   0   2.0000     -14.542234      -395.7143
   1   2.0000     -14.537671      -395.5901
   2   2.0000     -14.536121      -395.5480
   3   2.0000     -10.500617      -285.7363
   4   2.0000     -10.378779      -282.4209
   5   2.0000     -10.306961      -280.4667
   6   2.0000      -1.218304       -33.1518
   7   2.0000      -1.106469       -30.1086
   8   2.0000      -1.093144       -29.7460
   9   2.0000      -0.935617       -25.4594
  10   2.0000      -0.832152       -22.6440
  11   2.0000      -0.813804       -22.1447
  12   2.0000      -0.775897       -21.1132
  13   2.0000      -0.745879       -20.2964
  14   2.0000      -0.690513       -18.7898
  15   2.0000      -0.685035       -18.6408
  16   2.0000      -0.661094       -17.9893
  17   2.0000      -0.642344       -17.4791
  18   2.0000      -0.601914       -16.3789
  19   2.0000      -0.548013       -14.9122
  20   2.0000      -0.531998       -14.4764
  21   2.0000      -0.522387       -14.2149
  22   2.0000      -0.478480       -13.0201
  23   2.0000      -0.454899       -12.3784
  24   0.0000      -0.173370        -4.7176
  25   0.0000      -0.165594        -4.5061
  26   0.0000      -0.135259        -3.6806
  27   0.0000      -0.119758        -3.2588
  28   0.0000      -0.102225        -2.7817

MULLIKEN ATOMIC CHARGES
-----------------------
   0 C :   -0.306976
   1 C :   -1.369357
   2 N :   -0.067279
   3 H :    0.342153
   4 H :    0.324868
   5 C :    0.588441
   6 N :   -0.279092
   7 N :   -0.327824
   8 H :    0.235166
   9 H :    0.214440
  10 H :    0.163181
  11 H :    0.190311
  12 H :    0.221349
  13 H :    0.380236
  14 H :    0.355120
  15 H :    0.335262
Sum of atomic charges:    1.0000000

LOEWDIN ATOMIC CHARGES
----------------------
   0 C :   -0.212850
   1 C :   -0.053683
   2 N :    0.084807
   3 H :    0.127723
   4 H :    0.131057
   5 C :   -0.434546
   6 N :    0.207793
   7 N :    0.218453
   8 H :    0.119299
   9 H :    0.134124
  10 H :    0.162986
  11 H :    0.134461
  12 H :    0.140977
  13 H :    0.077919
  14 H :    0.078195
  15 H :    0.083287

  Mayer bond orders larger than 0.100000
B(  0-C ,  1-C ) :   0.6510 B(  0-C ,  2-N ) :   0.9173 B(  0-C ,  3-H ) :   0.8238
B(  0-C ,  4-H ) :   0.8515 B(  1-C , 13-H ) :   0.9207 B(  1-C , 14-H ) :   0.9357
B(  1-C , 15-H ) :   0.9671 B(  2-N ,  5-C ) :   1.2387 B(  2-N , 10-H ) :   0.9739
B(  5-C ,  6-N ) :   1.1384 B(  5-C ,  7-N ) :   1.1734 B(  6-N , 11-H ) :   0.9674
B(  6-N , 12-H ) :   0.9650 B(  7-N ,  8-H ) :   0.9320 B(  7-N ,  9-H ) :   0.9741

Dispersion correction           -0.019755220
FINAL SINGLE POINT ENERGY      -284.352543958086

DIPOLE MOMENT
-------------
                                X             Y             Z
Electronic contribution:      4.69373       2.46710      -1.69979
Nuclear contribution   :     -3.96322      -1.85512       1.24891
                        -----------------------------------------
Total Dipole Moment    :      0.73051       0.61199      -0.45089
                        -----------------------------------------
Magnitude (a.u.)       :      1.05427
Magnitude (Debye)      :      2.67973

Rotational constants in cm-1:     0.261404     0.067000     0.054949
Rotational constants in MHz :  7836.702504  2008.609425  1647.329138

                             ****ORCA TERMINATED NORMALLY****
TOTAL RUN TIME: 0 days 0 hours 0 minutes 51 seconds 55 msec
