                         Program Version 5.0.0 -  RELEASE  -
|  1> !B3LYP D3BJ RIJCOSX def2-TZVPD def2/J TightSCF xyzfile
|  2>
|  3> *xyzfile 0 1 B.xyz
|  4>
|  5> %MaxCore 64000
|  6>
|  7> %pal nprocs 4
|  8> end
|  9>
| 10> %scf
| 11>   MaxIter 150
| 12> end
| 13>
| 14>
| 15>                          ****END OF INPUT****

CARTESIAN COORDINATES (ANGSTROEM)
---------------------------------
  C      1.635557   -1.670396   -5.292109
  C      0.338484   -1.500907   -4.505398
  N      2.484511   -0.507410   -5.140392
  C     -0.684873   -0.528026   -5.099889
  C     -0.290406    0.951335   -5.153423
  H      0.607991    1.070692   -5.764412
  C     -0.055168    1.619420   -3.788577
  H     -1.080912    1.483775   -5.689436
  H      0.045006    0.862302   -3.003015
  H     -0.922936    2.230329   -3.517028
  C      1.223022    2.469865   -3.756911
  H      1.114701    3.258074   -4.532999
  H      1.237732    3.011242   -2.792157
  O      2.353815    1.712032   -3.934477
  H      1.398337   -1.829239   -6.352591
  H      2.155864   -2.565398   -4.932091
  C      3.451149   -0.149530   -5.952589
  N      3.922667    1.089559   -5.850711
  N      3.966162   -1.006183   -6.867880
  H      3.521391   -1.906467   -6.995270
  H      4.444824   -0.623472   -7.670348
  H      2.251995    0.240804   -4.498792
  H      3.464277    1.640782   -5.136392
  H      4.834470    1.313745   -6.224653
  H     -0.937999   -0.869056   -6.110838
  H     -1.604638   -0.622496   -4.513132
  H      0.594887   -1.211578   -3.482312
  H     -0.126530   -2.487656   -4.434176

 Total Charge           Charge          ....    0
 Multiplicity           Mult            ....    1
 Number of Electrons    NEL             ....   88
 Basis Dimension        Dim             ....  563

ORBITAL ENERGIES
----------------

  NO   OCC          E(Eh)            E(eV)
   0   2.0000     -18.992724      -516.8183
   1   2.0000     -14.372775      -391.1031
   2   2.0000     -14.331550      -389.9813
   3   2.0000     -14.329307      -389.9203
   4   2.0000     -10.312765      -280.6246
   5   2.0000     -10.220788      -278.1218
   6   2.0000     -10.171532      -276.7815
   7   2.0000     -10.158484      -276.4264
   8   2.0000     -10.146303      -276.0949
   9   2.0000     -10.140045      -275.9246
  10   2.0000     -10.122102      -275.4364
  11   2.0000      -1.030669       -28.0459
  12   2.0000      -0.927414       -25.2362
  13   2.0000      -0.907267       -24.6880
  14   2.0000      -0.882545       -24.0153
  15   2.0000      -0.798911       -21.7395
  16   2.0000      -0.745688       -20.2912
  17   2.0000      -0.690034       -18.7768
  18   2.0000      -0.652978       -17.7684
  19   2.0000      -0.625984       -17.0339
  20   2.0000      -0.597459       -16.2577
  21   2.0000      -0.578359       -15.7379
  22   2.0000      -0.561983       -15.2923
  23   2.0000      -0.526950       -14.3390
  24   2.0000      -0.509719       -13.8702
  25   2.0000      -0.496233       -13.5032
  26   2.0000      -0.487800       -13.2737
  27   2.0000      -0.477074       -12.9819
  28   2.0000      -0.438635       -11.9359
  29   2.0000      -0.425664       -11.5829
  30   2.0000      -0.414858       -11.2889
  31   2.0000      -0.410876       -11.1805
  32   2.0000      -0.384169       -10.4538
  33   2.0000      -0.366266        -9.9666
  34   2.0000      -0.358730        -9.7615
  35   2.0000      -0.337625        -9.1873
  36   2.0000      -0.321103        -8.7377
  37   2.0000      -0.311251        -8.4696
  38   2.0000      -0.304381        -8.2826
  39   2.0000      -0.296947        -8.0803
  40   2.0000      -0.291232        -7.9248
  41   2.0000      -0.263985        -7.1834
  42   2.0000      -0.178856        -4.8669
  43   2.0000      -0.171782        -4.6744
  44   0.0000      -0.024701        -0.6721
  45   0.0000       0.003134         0.0853
  46   0.0000       0.004847         0.1319
  47   0.0000       0.019385         0.5275
  48   0.0000       0.027551         0.7497

MULLIKEN ATOMIC CHARGES
-----------------------
   0 C :   -0.732741
   1 C :   -0.572677
   2 N :   -0.123192
   3 C :   -0.458105
   4 C :   -0.467168
   5 H :    0.240103
   6 C :   -0.412939
   7 H :    0.270887
   8 H :    0.160991
   9 H :    0.276800
  10 C :   -0.384811
  11 H :    0.212765
  12 H :    0.210871
  13 O :   -1.048303
  14 H :    0.347172
  15 H :    0.329750
  16 C :    0.433306
  17 N :   -0.273386
  18 N :   -0.352981
  19 H :    0.209941
  20 H :    0.180378
  21 H :    0.515962
  22 H :    0.381812
  23 H :    0.136821
  24 H :    0.242409
  25 H :    0.182695
  26 H :    0.269810
  27 H :    0.223831
Sum of atomic charges:    0.0000000

LOEWDIN ATOMIC CHARGES
----------------------
   0 C :   -0.177704
   1 C :   -0.185496
   2 N :    0.088531
   3 C :   -0.204500
   4 C :   -0.208879
   5 H :    0.098350
   6 C :   -0.195653
   7 H :    0.103982
   8 H :    0.097503
   9 H :    0.100893
  10 C :   -0.401073
  11 H :    0.099556
  12 H :    0.092854
  13 O :   -0.321244
  14 H :    0.117962
  15 H :    0.118141
  16 C :   -0.452907
  17 N :    0.187237
  18 N :    0.176372
  19 H :    0.098588
  20 H :    0.111307
  21 H :    0.057841
  22 H :    0.049809
  23 H :    0.117587
  24 H :    0.103812
  25 H :    0.108553
  26 H :    0.110305
  27 H :    0.108275

  Mayer bond orders larger than 0.100000
B(  0-C ,  1-C ) :   0.9542 B(  0-C ,  2-N ) :   0.9845 B(  0-C , 14-H ) :   0.8587
B(  0-C , 15-H ) :   0.8560 B(  0-C , 16-C ) :  -0.1823 B(  1-C ,  3-C ) :   0.8590
B(  1-C , 26-H ) :   0.9258 B(  1-C , 27-H ) :   1.0199 B(  2-N , 16-C ) :   1.3557
B(  2-N , 21-H ) :   0.6507 B(  3-C ,  4-C ) :   0.8107 B(  3-C ,  6-C ) :   0.1666
B(  3-C , 24-H ) :   0.9617 B(  3-C , 25-H ) :   1.0195 B(  4-C ,  5-H ) :   1.0521
B(  4-C ,  6-C ) :   0.7019 B(  4-C ,  7-H ) :   0.9389 B(  4-C , 10-C ) :   0.1875
B(  6-C ,  8-H ) :   0.9901 B(  6-C ,  9-H ) :   1.0036 B(  6-C , 10-C ) :   0.8033
B( 10-C , 11-H ) :   1.0324 B( 10-C , 12-H ) :   0.9796 B( 10-C , 13-O ) :   0.9155
B( 13-O , 22-H ) :   0.1561 B( 16-C , 17-N ) :   1.2780 B( 16-C , 18-N ) :   1.0989
B( 17-N , 22-H ) :   0.7134 B( 17-N , 23-H ) :   1.0181 B( 18-N , 19-H ) :   0.9529
B( 18-N , 20-H ) :   0.9942

Dispersion correction           -0.047244951
FINAL SINGLE POINT ENERGY      -516.374050568452

DIPOLE MOMENT
-------------
                                X             Y             Z
Electronic contribution:      8.35863      -0.91435      -2.21915
Nuclear contribution   :     -7.46499      -1.05836       0.01518
                        -----------------------------------------
Total Dipole Moment    :      0.89364      -1.97271      -2.20397
                        -----------------------------------------
Magnitude (a.u.)       :      3.08993
Magnitude (Debye)      :      7.85399

Rotational constants in cm-1:     0.044680     0.028958     0.019773
Rotational constants in MHz :  1339.486245   868.136755   592.791310

                             ****ORCA TERMINATED NORMALLY****
TOTAL RUN TIME: 0 days 0 hours 4 minutes 15 seconds 512 msec
