                         Program Version 5.0.0 -  RELEASE  -
|  1> !B3LYP D3BJ RIJCOSX def2-TZVPD def2/J TightSCF
|  2> *xyz 0 1
|  3> C         -0.05517        1.61942       -3.78858
|  4> C          1.22302        2.46987       -3.75691
|  5> H          1.11470        3.25807       -4.53300
|  6> H          1.23773        3.01124       -2.79216
|  7> F          2.35381        1.71203       -3.93448
|  8> H         -0.10198        1.08015       -4.71156
|  9> H         -0.91014        2.25726       -3.70441
| 10> H         -0.04403        0.92826       -2.97183
| 11> *
| 12>
| 13> %MaxCore 64000
| 14>
| 15> %pal nprocs 4
| 16> end
| 17>
| 18> %scf
| 19>   MaxIter 150
| 20> end
| 21>
| 22>
| 23>                          ****END OF INPUT****

CARTESIAN COORDINATES (ANGSTROEM)
---------------------------------
  C     -0.055170    1.619420   -3.788580
  C      1.223020    2.469870   -3.756910
  H      1.114700    3.258070   -4.533000
  H      1.237730    3.011240   -2.792160
  F      2.353810    1.712030   -3.934480
  H     -0.101980    1.080150   -4.711560
  H     -0.910140    2.257260   -3.704410
  H     -0.044030    0.928260   -2.971830

 Total Charge           Charge          ....    0
 Multiplicity           Mult            ....    1
 Number of Electrons    NEL             ....   26
 Basis Dimension        Dim             ....  159

ORBITAL ENERGIES
----------------

  NO   OCC          E(Eh)            E(eV)
   0   2.0000     -24.668986      -671.2772
   1   2.0000     -10.247655      -278.8529
   2   2.0000     -10.163024      -276.5500
   3   2.0000      -1.198328       -32.6082
   4   2.0000      -0.764910       -20.8143
   5   2.0000      -0.632224       -17.2037
   6   2.0000      -0.508597       -13.8396
   7   2.0000      -0.496050       -13.4982
   8   2.0000      -0.458209       -12.4685
   9   2.0000      -0.406098       -11.0505
  10   2.0000      -0.402275       -10.9464
  11   2.0000      -0.337840        -9.1931
  12   2.0000      -0.333702        -9.0805
  13   0.0000       0.008705         0.2369
  14   0.0000       0.035278         0.9600
  15   0.0000       0.052396         1.4258
  16   0.0000       0.055714         1.5160
  17   0.0000       0.082386         2.2418

MULLIKEN ATOMIC CHARGES
-----------------------
   0 C :   -0.871507
   1 C :   -0.043557
   2 H :    0.202486
   3 H :    0.201668
   4 F :   -0.306745
   5 H :    0.260787
   6 H :    0.300169
   7 H :    0.256698
Sum of atomic charges:   -0.0000000

LOEWDIN ATOMIC CHARGES
----------------------
   0 C :   -0.079527
   1 C :   -0.284017
   2 H :    0.110822
   3 H :    0.108855
   4 F :   -0.047190
   5 H :    0.063423
   6 H :    0.065012
   7 H :    0.062622

  Mayer bond orders larger than 0.100000
B(  0-C ,  1-C ) :   0.7790 B(  0-C ,  5-H ) :   0.9689 B(  0-C ,  6-H ) :   0.9404
B(  0-C ,  7-H ) :   0.9689 B(  1-C ,  2-H ) :   0.9800 B(  1-C ,  3-H ) :   0.9832
B(  1-C ,  4-F ) :   0.8043

Dispersion correction           -0.005745158
FINAL SINGLE POINT ENERGY      -179.049963261356

DIPOLE MOMENT
-------------
                                X             Y             Z
Electronic contribution:      5.02515      -0.73844      -0.43236
Nuclear contribution   :     -5.66833       1.07099       0.52006
                        -----------------------------------------
Total Dipole Moment    :     -0.64318       0.33255       0.08770
                        -----------------------------------------
Magnitude (a.u.)       :      0.72936
Magnitude (Debye)      :      1.85388

Rotational constants in cm-1:     1.245689     0.305293     0.269541
Rotational constants in MHz : 37344.801915  9152.442838  8080.640229

                             ****ORCA TERMINATED NORMALLY****
TOTAL RUN TIME: 0 days 0 hours 0 minutes 14 seconds 977 msec
