                         Program Version 5.0.0 -  RELEASE  -
|  1> !B3LYP D3BJ RIJCOSX def2-TZVPD def2/J TightSCF
|  2> *xyz 0 1
|  3> C          1.63556       -1.67040       -5.29211
|  4> C          0.33848       -1.50091       -4.50540
|  5> C          2.48451       -0.50741       -5.14039
|  6> H          1.39834       -1.82924       -6.35259
|  7> H          2.15586       -2.56540       -4.93209
|  8> C          3.45115       -0.14953       -5.95259
|  9> N          3.92267        1.08956       -5.85071
| 10> N          3.96616       -1.00618       -6.86788
| 11> H          3.52139       -1.90647       -6.99527
| 12> H          4.44482       -0.62347       -7.67035
| 13> H          2.25200        0.24080       -4.49879
| 14> H          3.46428        1.64078       -5.13639
| 15> H          4.83447        1.31375       -6.22465
| 16> H         -0.17658       -0.62881       -4.85045
| 17> H          0.56384       -1.39374       -3.46490
| 18> H         -0.28102       -2.36136       -4.64938
| 19> *
| 20>
| 21> %MaxCore 64000
| 22>
| 23> %pal nprocs 4
| 24> end
| 25>
| 26> %scf
| 27>   MaxIter 150
| 28> end
| 29>
| 30>
| 31>                          ****END OF INPUT****

CARTESIAN COORDINATES (ANGSTROEM)
---------------------------------
  C      1.635560   -1.670400   -5.292110
  C      0.338480   -1.500910   -4.505400
  C      2.484510   -0.507410   -5.140390
  H      1.398340   -1.829240   -6.352590
  H      2.155860   -2.565400   -4.932090
  C      3.451150   -0.149530   -5.952590
  N      3.922670    1.089560   -5.850710
  N      3.966160   -1.006180   -6.867880
  H      3.521390   -1.906470   -6.995270
  H      4.444820   -0.623470   -7.670350
  H      2.252000    0.240800   -4.498790
  H      3.464280    1.640780   -5.136390
  H      4.834470    1.313750   -6.224650
  H     -0.176580   -0.628810   -4.850450
  H      0.563840   -1.393740   -3.464900
  H     -0.281020   -2.361360   -4.649380

 Total Charge           Charge          ....    0
 Multiplicity           Mult            ....    1
 Number of Electrons    NEL             ....   48
 Basis Dimension        Dim             ....  312

ORBITAL ENERGIES
----------------

  NO   OCC          E(Eh)            E(eV)
   0   2.0000     -14.316481      -389.5712
   1   2.0000     -14.311447      -389.4343
   2   2.0000     -10.206927      -277.7446
   3   2.0000     -10.145655      -276.0773
   4   2.0000     -10.135573      -275.8030
   5   2.0000     -10.091726      -274.6098
   6   2.0000      -0.957481       -26.0544
   7   2.0000      -0.870806       -23.6958
   8   2.0000      -0.775750       -21.1092
   9   2.0000      -0.697972       -18.9928
  10   2.0000      -0.611556       -16.6413
  11   2.0000      -0.579977       -15.7820
  12   2.0000      -0.533781       -14.5249
  13   2.0000      -0.513256       -13.9664
  14   2.0000      -0.467661       -12.7257
  15   2.0000      -0.440327       -11.9819
  16   2.0000      -0.428606       -11.6630
  17   2.0000      -0.395192       -10.7537
  18   2.0000      -0.378165       -10.2904
  19   2.0000      -0.342358        -9.3160
  20   2.0000      -0.332248        -9.0409
  21   2.0000      -0.331006        -9.0071
  22   2.0000      -0.264498        -7.1974
  23   2.0000      -0.164332        -4.4717
  24   0.0000      -0.001520        -0.0414
  25   0.0000       0.021925         0.5966
  26   0.0000       0.027261         0.7418
  27   0.0000       0.048243         1.3128
  28   0.0000       0.054086         1.4718

MULLIKEN ATOMIC CHARGES
-----------------------
   0 C :   -0.082647
   1 C :   -1.369743
   2 C :   -0.427138
   3 H :    0.231627
   4 H :    0.206838
   5 C :    0.249028
   6 N :   -0.338032
   7 N :   -0.379345
   8 H :    0.185088
   9 H :    0.154004
  10 H :    0.282051
  11 H :    0.160240
  12 H :    0.151874
  13 H :    0.345273
  14 H :    0.310824
  15 H :    0.320059
Sum of atomic charges:    0.0000000

LOEWDIN ATOMIC CHARGES
----------------------
   0 C :   -0.290354
   1 C :   -0.108076
   2 C :   -0.147243
   3 H :    0.104703
   4 H :    0.105542
   5 C :   -0.543368
   6 N :    0.105103
   7 N :    0.132403
   8 H :    0.091439
   9 H :    0.092668
  10 H :    0.066757
  11 H :    0.105400
  12 H :    0.096954
  13 H :    0.065469
  14 H :    0.064832
  15 H :    0.057769

  Mayer bond orders larger than 0.100000
B(  0-C ,  1-C ) :   0.5475 B(  0-C ,  2-C ) :   0.6529 B(  0-C ,  3-H ) :   0.8715
B(  0-C ,  4-H ) :   0.9509 B(  0-C ,  5-C ) :   0.2002 B(  1-C ,  2-C ) :   0.1660
B(  1-C , 13-H ) :   0.9550 B(  1-C , 14-H ) :   0.9884 B(  1-C , 15-H ) :   0.9616
B(  2-C ,  5-C ) :   1.1720 B(  2-C , 10-H ) :   1.0028 B(  5-C ,  6-N ) :   1.1310
B(  5-C ,  7-N ) :   0.9830 B(  5-C , 10-H ) :  -0.2398 B(  6-N , 11-H ) :   0.9753
B(  6-N , 12-H ) :   1.0375 B(  7-N ,  8-H ) :   0.9530 B(  7-N ,  9-H ) :   1.0273

Dispersion correction           -0.020679637
FINAL SINGLE POINT ENERGY      -267.870755977983

DIPOLE MOMENT
-------------
                                X             Y             Z
Electronic contribution:      4.51044       2.15470      -1.88842
Nuclear contribution   :     -3.99655      -1.83277       1.34879
                        -----------------------------------------
Total Dipole Moment    :      0.51390       0.32193      -0.53963
                        -----------------------------------------
Magnitude (a.u.)       :      0.81174
Magnitude (Debye)      :      2.06328

Rotational constants in cm-1:     0.262971     0.067064     0.055026
Rotational constants in MHz :  7883.664566  2010.513309  1649.636654

                             ****ORCA TERMINATED NORMALLY****
TOTAL RUN TIME: 0 days 0 hours 0 minutes 54 seconds 868 msec
