                         Program Version 5.0.0 -  RELEASE  -
|  1> !B3LYP D3BJ RIJCOSX def2-TZVPD def2/J TightSCF
|  2> *xyz 0 1
|  3> C          1.63556       -1.67040       -5.29211
|  4> C          0.33848       -1.50091       -4.50540
|  5> N          2.48451       -0.50741       -5.14039
|  6> H          1.39834       -1.82924       -6.35259
|  7> H          2.15586       -2.56540       -4.93209
|  8> C          3.45115       -0.14953       -5.95259
|  9> C          3.92267        1.08956       -5.85071
| 10> N          3.96616       -1.00618       -6.86788
| 11> H          3.52139       -1.90647       -6.99527
| 12> H          4.44482       -0.62347       -7.67035
| 13> H          2.25200        0.24080       -4.49879
| 14> H          3.46428        1.64078       -5.13639
| 15> H          4.83447        1.31375       -6.22465
| 16> H         -0.17658       -0.62881       -4.85045
| 17> H          0.56384       -1.39374       -3.46490
| 18> H         -0.28102       -2.36136       -4.64938
| 19> *
| 20>
| 21> %MaxCore 64000
| 22>
| 23> %pal nprocs 4
| 24> end
| 25>
| 26> %scf
| 27>   MaxIter 150
| 28> end
| 29>
| 30>
| 31>                          ****END OF INPUT****

CARTESIAN COORDINATES (ANGSTROEM)
---------------------------------
  C      1.635560   -1.670400   -5.292110
  C      0.338480   -1.500910   -4.505400
  N      2.484510   -0.507410   -5.140390
  H      1.398340   -1.829240   -6.352590
  H      2.155860   -2.565400   -4.932090
  C      3.451150   -0.149530   -5.952590
  C      3.922670    1.089560   -5.850710
  N      3.966160   -1.006180   -6.867880
  H      3.521390   -1.906470   -6.995270
  H      4.444820   -0.623470   -7.670350
  H      2.252000    0.240800   -4.498790
  H      3.464280    1.640780   -5.136390
  H      4.834470    1.313750   -6.224650
  H     -0.176580   -0.628810   -4.850450
  H      0.563840   -1.393740   -3.464900
  H     -0.281020   -2.361360   -4.649380

 Total Charge           Charge          ....    0
 Multiplicity           Mult            ....    1
 Number of Electrons    NEL             ....   48
 Basis Dimension        Dim             ....  312

ORBITAL ENERGIES
----------------

  NO   OCC          E(Eh)            E(eV)
   0   2.0000     -14.315835      -389.5537
   1   2.0000     -14.314602      -389.5201
   2   2.0000     -10.211321      -277.8642
   3   2.0000     -10.211158      -277.8597
   4   2.0000     -10.167713      -276.6775
   5   2.0000     -10.077695      -274.2280
   6   2.0000      -0.969688       -26.3865
   7   2.0000      -0.883544       -24.0425
   8   2.0000      -0.778133       -21.1741
   9   2.0000      -0.702739       -19.1225
  10   2.0000      -0.629275       -17.1234
  11   2.0000      -0.596524       -16.2322
  12   2.0000      -0.534493       -14.5443
  13   2.0000      -0.497512       -13.5380
  14   2.0000      -0.480561       -13.0767
  15   2.0000      -0.464144       -12.6300
  16   2.0000      -0.419935       -11.4270
  17   2.0000      -0.396642       -10.7932
  18   2.0000      -0.381672       -10.3858
  19   2.0000      -0.377451       -10.2710
  20   2.0000      -0.376425       -10.2430
  21   2.0000      -0.349557        -9.5119
  22   2.0000      -0.258688        -7.0393
  23   2.0000      -0.161595        -4.3972
  24   0.0000      -0.001946        -0.0530
  25   0.0000       0.016128         0.4389
  26   0.0000       0.025109         0.6832
  27   0.0000       0.047903         1.3035
  28   0.0000       0.057383         1.5615

MULLIKEN ATOMIC CHARGES
-----------------------
   0 C :   -0.234611
   1 C :   -1.318102
   2 N :   -0.102352
   3 H :    0.305050
   4 H :    0.249262
   5 C :    0.629952
   6 C :   -1.181273
   7 N :   -0.370407
   8 H :    0.176534
   9 H :    0.190902
  10 H :    0.121407
  11 H :    0.270340
  12 H :    0.283861
  13 H :    0.341933
  14 H :    0.317461
  15 H :    0.320042
Sum of atomic charges:   -0.0000000

LOEWDIN ATOMIC CHARGES
----------------------
   0 C :   -0.250724
   1 C :   -0.082921
   2 N :    0.013817
   3 H :    0.111889
   4 H :    0.111147
   5 C :   -0.561176
   6 C :   -0.003373
   7 N :    0.125908
   8 H :    0.082978
   9 H :    0.104883
  10 H :    0.140504
  11 H :    0.003086
  12 H :    0.004439
  13 H :    0.068385
  14 H :    0.066321
  15 H :    0.064838

  Mayer bond orders larger than 0.100000
B(  0-C ,  1-C ) :   0.6038 B(  0-C ,  2-N ) :   0.8754 B(  0-C ,  3-H ) :   0.8673
B(  0-C ,  4-H ) :   0.9188 B(  1-C , 13-H ) :   0.9671 B(  1-C , 14-H ) :   0.9648
B(  1-C , 15-H ) :   0.9677 B(  2-N ,  5-C ) :   1.1003 B(  2-N , 10-H ) :   0.9436
B(  5-C ,  6-C ) :   1.1231 B(  5-C ,  7-N ) :   1.0483 B(  6-C , 11-H ) :   0.9942
B(  6-C , 12-H ) :   1.0406 B(  7-N ,  8-H ) :   0.9841 B(  7-N ,  9-H ) :   0.9788

Dispersion correction           -0.020426333
FINAL SINGLE POINT ENERGY      -267.860232304170

DIPOLE MOMENT
-------------
                                X             Y             Z
Electronic contribution:      2.96119       0.55416      -1.27700
Nuclear contribution   :     -3.69145      -1.49398       1.19810
                        -----------------------------------------
Total Dipole Moment    :     -0.73026      -0.93982      -0.07890
                        -----------------------------------------
Magnitude (a.u.)       :      1.19280
Magnitude (Debye)      :      3.03185

Rotational constants in cm-1:     0.270790     0.068966     0.056679
Rotational constants in MHz :  8118.084803  2067.559423  1699.196934

                             ****ORCA TERMINATED NORMALLY****
TOTAL RUN TIME: 0 days 0 hours 0 minutes 54 seconds 479 msec
