                         Program Version 5.0.0 -  RELEASE  -
|  1> !B3LYP D3BJ RIJCOSX def2-TZVPD def2/J TightSCF
|  2> *xyz 0 1
|  3> C          1.63556       -1.67040       -5.29211
|  4> C          0.33848       -1.50091       -4.50540
|  5> N          2.48451       -0.50741       -5.14039
|  6> H          1.39834       -1.82924       -6.35259
|  7> H          2.15586       -2.56540       -4.93209
|  8> C          3.45115       -0.14953       -5.95259
|  9> N          3.92267        1.08956       -5.85071
| 10> C          3.96616       -1.00618       -6.86788
| 11> H          3.52139       -1.90647       -6.99527
| 12> H          4.44482       -0.62347       -7.67035
| 13> H          2.25200        0.24080       -4.49879
| 14> H          3.46428        1.64078       -5.13639
| 15> H          4.83447        1.31375       -6.22465
| 16> H         -0.17658       -0.62881       -4.85045
| 17> H          0.56384       -1.39374       -3.46490
| 18> H         -0.28102       -2.36136       -4.64938
| 19> *
| 20>
| 21> %MaxCore 64000
| 22>
| 23> %pal nprocs 4
| 24> end
| 25>
| 26> %scf
| 27>   MaxIter 150
| 28> end
| 29>
| 30>
| 31>                          ****END OF INPUT****

CARTESIAN COORDINATES (ANGSTROEM)
---------------------------------
  C      1.635560   -1.670400   -5.292110
  C      0.338480   -1.500910   -4.505400
  N      2.484510   -0.507410   -5.140390
  H      1.398340   -1.829240   -6.352590
  H      2.155860   -2.565400   -4.932090
  C      3.451150   -0.149530   -5.952590
  N      3.922670    1.089560   -5.850710
  C      3.966160   -1.006180   -6.867880
  H      3.521390   -1.906470   -6.995270
  H      4.444820   -0.623470   -7.670350
  H      2.252000    0.240800   -4.498790
  H      3.464280    1.640780   -5.136390
  H      4.834470    1.313750   -6.224650
  H     -0.176580   -0.628810   -4.850450
  H      0.563840   -1.393740   -3.464900
  H     -0.281020   -2.361360   -4.649380

 Total Charge           Charge          ....    0
 Multiplicity           Mult            ....    1
 Number of Electrons    NEL             ....   48
 Basis Dimension        Dim             ....  312

ORBITAL ENERGIES
----------------

  NO   OCC          E(Eh)            E(eV)
   0   2.0000     -14.322404      -389.7324
   1   2.0000     -14.316894      -389.5825
   2   2.0000     -10.212839      -277.9055
   3   2.0000     -10.204836      -277.6877
   4   2.0000     -10.163947      -276.5751
   5   2.0000     -10.080102      -274.2935
   6   2.0000      -0.978291       -26.6206
   7   2.0000      -0.888575       -24.1794
   8   2.0000      -0.764629       -20.8066
   9   2.0000      -0.703604       -19.1460
  10   2.0000      -0.645683       -17.5699
  11   2.0000      -0.568865       -15.4796
  12   2.0000      -0.536414       -14.5966
  13   2.0000      -0.525486       -14.2992
  14   2.0000      -0.474887       -12.9223
  15   2.0000      -0.467315       -12.7163
  16   2.0000      -0.401941       -10.9374
  17   2.0000      -0.397033       -10.8038
  18   2.0000      -0.393529       -10.7085
  19   2.0000      -0.372447       -10.1348
  20   2.0000      -0.363573        -9.8933
  21   2.0000      -0.351074        -9.5532
  22   2.0000      -0.253001        -6.8845
  23   2.0000      -0.166378        -4.5274
  24   0.0000      -0.003716        -0.1011
  25   0.0000       0.013420         0.3652
  26   0.0000       0.028429         0.7736
  27   0.0000       0.047220         1.2849
  28   0.0000       0.054364         1.4793

MULLIKEN ATOMIC CHARGES
-----------------------
   0 C :   -0.308411
   1 C :   -1.265443
   2 N :   -0.125316
   3 H :    0.299791
   4 H :    0.298238
   5 C :    0.610181
   6 N :   -0.327539
   7 C :   -1.181070
   8 H :    0.340869
   9 H :    0.244761
  10 H :    0.130524
  11 H :    0.126279
  12 H :    0.184789
  13 H :    0.338352
  14 H :    0.315102
  15 H :    0.318892
Sum of atomic charges:    0.0000000

LOEWDIN ATOMIC CHARGES
----------------------
   0 C :   -0.242541
   1 C :   -0.084834
   2 N :    0.013837
   3 H :    0.117229
   4 H :    0.117726
   5 C :   -0.571386
   6 N :    0.116758
   7 C :    0.010508
   8 H :   -0.012098
   9 H :   -0.000522
  10 H :    0.133822
  11 H :    0.095098
  12 H :    0.111649
  13 H :    0.065683
  14 H :    0.063718
  15 H :    0.065355

  Mayer bond orders larger than 0.100000
B(  0-C ,  1-C ) :   0.5570 B(  0-C ,  2-N ) :   0.9308 B(  0-C ,  3-H ) :   0.9043
B(  0-C ,  4-H ) :   0.8914 B(  0-C ,  7-C ) :   0.1203 B(  1-C , 13-H ) :   0.9695
B(  1-C , 14-H ) :   0.9636 B(  1-C , 15-H ) :   0.9691 B(  2-N ,  5-C ) :   1.0364
B(  2-N , 10-H ) :   1.0021 B(  5-C ,  6-N ) :   1.0052 B(  5-C ,  7-C ) :   1.3244
B(  6-N , 11-H ) :   1.0311 B(  6-N , 12-H ) :   0.9879 B(  7-C ,  8-H ) :   0.8910
B(  7-C ,  9-H ) :   1.1181

Dispersion correction           -0.020518407
FINAL SINGLE POINT ENERGY      -267.861078657460

DIPOLE MOMENT
-------------
                                X             Y             Z
Electronic contribution:      3.02238       2.60563      -0.21828
Nuclear contribution   :     -3.68222      -1.93858       0.98231
                        -----------------------------------------
Total Dipole Moment    :     -0.65984       0.66705       0.76403
                        -----------------------------------------
Magnitude (a.u.)       :      1.21000
Magnitude (Debye)      :      3.07556

Rotational constants in cm-1:     0.275407     0.068040     0.056255
Rotational constants in MHz :  8256.498401  2039.796466  1686.484500

                             ****ORCA TERMINATED NORMALLY****
TOTAL RUN TIME: 0 days 0 hours 0 minutes 53 seconds 800 msec
