                         Program Version 5.0.0 -  RELEASE  -
|  1> !B3LYP D3BJ RIJCOSX def2-TZVPD def2/J TightSCF xyzfile
|  2>
|  3> *xyzfile 0 1 D1.xyz
|  4>
|  5> %MaxCore 64000
|  6>
|  7> %pal nprocs 4
|  8> end
|  9>
| 10> %scf
| 11>   MaxIter 150
| 12> end
| 13>
| 14>
| 15>                          ****END OF INPUT****

CARTESIAN COORDINATES (ANGSTROEM)
---------------------------------
  C      1.635557   -1.670396   -5.292109
  C      0.338484   -1.500907   -4.505398
  C      2.484511   -0.507410   -5.140392
  C     -0.684873   -0.528026   -5.099889
  C     -0.290406    0.951335   -5.153423
  H      0.607991    1.070692   -5.764412
  C     -0.055168    1.619420   -3.788577
  H     -1.080912    1.483775   -5.689436
  H      0.045006    0.862302   -3.003015
  H     -0.922936    2.230329   -3.517028
  C      1.223022    2.469865   -3.756911
  H      1.114701    3.258074   -4.532999
  H      1.237732    3.011242   -2.792157
  F      2.353815    1.712032   -3.934477
  H      1.398337   -1.829239   -6.352591
  H      2.155864   -2.565398   -4.932091
  C      3.451149   -0.149530   -5.952589
  N      3.922667    1.089559   -5.850711
  N      3.966162   -1.006183   -6.867880
  H      3.521391   -1.906467   -6.995270
  H      4.444824   -0.623472   -7.670348
  H      2.251995    0.240804   -4.498792
  H      3.464277    1.640782   -5.136392
  H      4.834470    1.313745   -6.224653
  H     -0.937999   -0.869056   -6.110838
  H     -1.604638   -0.622496   -4.513132
  H      0.594887   -1.211578   -3.482312
  H     -0.126530   -2.487656   -4.434176

 Total Charge           Charge          ....    0
 Multiplicity           Mult            ....    1
 Number of Electrons    NEL             ....   88
 Basis Dimension        Dim             ....  563

ORBITAL ENERGIES
----------------

  NO   OCC          E(Eh)            E(eV)
   0   2.0000     -24.695444      -671.9972
   1   2.0000     -14.301912      -389.1748
   2   2.0000     -14.286244      -388.7485
   3   2.0000     -10.257040      -279.1082
   4   2.0000     -10.188312      -277.2381
   5   2.0000     -10.174657      -276.8665
   6   2.0000     -10.157203      -276.3915
   7   2.0000     -10.154390      -276.3150
   8   2.0000     -10.144700      -276.0513
   9   2.0000     -10.134745      -275.7804
  10   2.0000     -10.063978      -273.8548
  11   2.0000      -1.235672       -33.6243
  12   2.0000      -0.939756       -25.5721
  13   2.0000      -0.854045       -23.2397
  14   2.0000      -0.807760       -21.9803
  15   2.0000      -0.774973       -21.0881
  16   2.0000      -0.726288       -19.7633
  17   2.0000      -0.691298       -18.8112
  18   2.0000      -0.640598       -17.4316
  19   2.0000      -0.607119       -16.5205
  20   2.0000      -0.577617       -15.7178
  21   2.0000      -0.554353       -15.0847
  22   2.0000      -0.535963       -14.5843
  23   2.0000      -0.521931       -14.2025
  24   2.0000      -0.505614       -13.7585
  25   2.0000      -0.503615       -13.7041
  26   2.0000      -0.484235       -13.1767
  27   2.0000      -0.456818       -12.4306
  28   2.0000      -0.439302       -11.9540
  29   2.0000      -0.438940       -11.9442
  30   2.0000      -0.416813       -11.3421
  31   2.0000      -0.401814       -10.9339
  32   2.0000      -0.390822       -10.6348
  33   2.0000      -0.377353       -10.2683
  34   2.0000      -0.362136        -9.8542
  35   2.0000      -0.358040        -9.7428
  36   2.0000      -0.350042        -9.5251
  37   2.0000      -0.337277        -9.1778
  38   2.0000      -0.320016        -8.7081
  39   2.0000      -0.309648        -8.4259
  40   2.0000      -0.303425        -8.2566
  41   2.0000      -0.292366        -7.9557
  42   2.0000      -0.247704        -6.7404
  43   2.0000      -0.146279        -3.9804
  44   0.0000       0.003504         0.0953
  45   0.0000       0.010764         0.2929
  46   0.0000       0.019612         0.5337
  47   0.0000       0.027497         0.7482
  48   0.0000       0.036314         0.9882

MULLIKEN ATOMIC CHARGES
-----------------------
   0 C :   -0.320955
   1 C :   -0.622832
   2 C :   -0.685123
   3 C :   -0.552047
   4 C :   -0.470376
   5 H :    0.391419
   6 C :   -0.492496
   7 H :    0.275003
   8 H :    0.237276
   9 H :    0.287266
  10 C :   -0.275282
  11 H :    0.244104
  12 H :    0.236526
  13 F :   -0.449148
  14 H :    0.241597
  15 H :    0.275652
  16 C :   -0.757791
  17 N :   -0.364788
  18 N :   -0.378312
  19 H :    0.187567
  20 H :    0.148610
  21 H :    1.549863
  22 H :    0.358187
  23 H :    0.073280
  24 H :    0.252353
  25 H :    0.180523
  26 H :    0.191708
  27 H :    0.238216
Sum of atomic charges:   -0.0000000

LOEWDIN ATOMIC CHARGES
----------------------
   0 C :   -0.225578
   1 C :   -0.209083
   2 C :   -0.138699
   3 C :   -0.199243
   4 C :   -0.203473
   5 H :    0.103377
   6 C :   -0.167962
   7 H :    0.105195
   8 H :    0.106542
   9 H :    0.114079
  10 C :   -0.190019
  11 H :    0.128864
  12 H :    0.118908
  13 F :   -0.077999
  14 H :    0.108973
  15 H :    0.107363
  16 C :   -0.528134
  17 N :    0.116698
  18 N :    0.130933
  19 H :    0.088540
  20 H :    0.088913
  21 H :    0.034076
  22 H :    0.070756
  23 H :    0.097097
  24 H :    0.108611
  25 H :    0.105530
  26 H :    0.103089
  27 H :    0.102647

  Mayer bond orders larger than 0.100000
B(  0-C ,  1-C ) :   0.9712 B(  0-C , 14-H ) :   0.8689 B(  0-C , 15-H ) :   1.0457
B(  1-C ,  2-C ) :   0.2494 B(  1-C ,  3-C ) :   0.8913 B(  1-C , 26-H ) :   0.9574
B(  1-C , 27-H ) :   1.0214 B(  2-C ,  6-C ) :   0.1018 B(  2-C , 13-F ) :   0.3135
B(  2-C , 14-H ) :  -0.2087 B(  2-C , 15-H ) :  -0.1699 B(  2-C , 16-C ) :   2.2192
B(  2-C , 17-N ) :  -0.1441 B(  2-C , 21-H ) :  -0.4532 B(  3-C ,  4-C ) :   0.8468
B(  3-C ,  6-C ) :   0.2190 B(  3-C , 24-H ) :   0.9601 B(  3-C , 25-H ) :   1.0285
B(  4-C ,  5-H ) :   0.9613 B(  4-C ,  6-C ) :   0.6162 B(  4-C ,  7-H ) :   0.9281
B(  4-C , 10-C ) :   0.1939 B(  6-C ,  8-H ) :   0.9890 B(  6-C ,  9-H ) :   0.9682
B(  6-C , 10-C ) :   0.8103 B( 10-C , 11-H ) :   0.9867 B( 10-C , 12-H ) :   0.9560
B( 10-C , 13-F ) :   0.7871 B( 13-F , 16-C ) :   0.1360 B( 13-F , 21-H ) :  -0.5705
B( 16-C , 17-N ) :   1.2006 B( 16-C , 18-N ) :   0.9633 B( 16-C , 21-H ) :  -0.9499
B( 17-N , 22-H ) :   0.8021 B( 17-N , 23-H ) :   1.1030 B( 18-N , 19-H ) :   0.9625
B( 18-N , 20-H ) :   1.0258

Dispersion correction           -0.047298686
FINAL SINGLE POINT ENERGY      -524.300213577638

DIPOLE MOMENT
-------------
                                X             Y             Z
Electronic contribution:      7.82567       3.83093       1.16712
Nuclear contribution   :     -8.11591      -2.99033      -1.35383
                        -----------------------------------------
Total Dipole Moment    :     -0.29023       0.84060      -0.18672
                        -----------------------------------------
Magnitude (a.u.)       :      0.90869
Magnitude (Debye)      :      2.30970

Rotational constants in cm-1:     0.043530     0.028984     0.019589
Rotational constants in MHz :  1305.007140   868.923804   587.262638

                             ****ORCA TERMINATED NORMALLY****
TOTAL RUN TIME: 0 days 0 hours 4 minutes 15 seconds 859 msec
