                         Program Version 5.0.0 -  RELEASE  -
|  1> !B3LYP D3BJ RIJCOSX def2-TZVPD def2/J TightSCF xyzfile
|  2>
|  3> *xyzfile 0 1 D2.xyz
|  4>
|  5> %MaxCore 64000
|  6>
|  7> %pal nprocs 4
|  8> end
|  9>
| 10> %scf
| 11>   MaxIter 150
| 12> end
| 13>
| 14>
| 15>                          ****END OF INPUT****

CARTESIAN COORDINATES (ANGSTROEM)
---------------------------------
  C      1.635557   -1.670396   -5.292109
  C      0.338484   -1.500907   -4.505398
  N      2.484511   -0.507410   -5.140392
  C     -0.684873   -0.528026   -5.099889
  C     -0.290406    0.951335   -5.153423
  H      0.607991    1.070692   -5.764412
  C     -0.055168    1.619420   -3.788577
  H     -1.080912    1.483775   -5.689436
  H      0.045006    0.862302   -3.003015
  H     -0.922936    2.230329   -3.517028
  C      1.223022    2.469865   -3.756911
  H      1.114701    3.258074   -4.532999
  H      1.237732    3.011242   -2.792157
  F      2.353815    1.712032   -3.934477
  H      1.398337   -1.829239   -6.352591
  H      2.155864   -2.565398   -4.932091
  C      3.451149   -0.149530   -5.952589
  C      3.922667    1.089559   -5.850711
  N      3.966162   -1.006183   -6.867880
  H      3.521391   -1.906467   -6.995270
  H      4.444824   -0.623472   -7.670348
  H      2.251995    0.240804   -4.498792
  H      3.464277    1.640782   -5.136392
  H      4.834470    1.313745   -6.224653
  H     -0.937999   -0.869056   -6.110838
  H     -1.604638   -0.622496   -4.513132
  H      0.594887   -1.211578   -3.482312
  H     -0.126530   -2.487656   -4.434176

 Total Charge           Charge          ....    0
 Multiplicity           Mult            ....    1
 Number of Electrons    NEL             ....   88
 Basis Dimension        Dim             ....  563

ORBITAL ENERGIES
----------------

  NO   OCC          E(Eh)            E(eV)
   0   2.0000     -24.696653      -672.0301
   1   2.0000     -14.299882      -389.1196
   2   2.0000     -14.288459      -388.8087
   3   2.0000     -10.258612      -279.1510
   4   2.0000     -10.197693      -277.4933
   5   2.0000     -10.193017      -277.3661
   6   2.0000     -10.183112      -277.0966
   7   2.0000     -10.171952      -276.7929
   8   2.0000     -10.171604      -276.7834
   9   2.0000     -10.169596      -276.7288
  10   2.0000     -10.052592      -273.5449
  11   2.0000      -1.236352       -33.6429
  12   2.0000      -0.952162       -25.9096
  13   2.0000      -0.869088       -23.6491
  14   2.0000      -0.817886       -22.2558
  15   2.0000      -0.776559       -21.1313
  16   2.0000      -0.736892       -20.0518
  17   2.0000      -0.685252       -18.6466
  18   2.0000      -0.651693       -17.7335
  19   2.0000      -0.622238       -16.9319
  20   2.0000      -0.584323       -15.9002
  21   2.0000      -0.568510       -15.4699
  22   2.0000      -0.543386       -14.7863
  23   2.0000      -0.517257       -14.0753
  24   2.0000      -0.510207       -13.8834
  25   2.0000      -0.502856       -13.6834
  26   2.0000      -0.485849       -13.2206
  27   2.0000      -0.471718       -12.8361
  28   2.0000      -0.450731       -12.2650
  29   2.0000      -0.441835       -12.0229
  30   2.0000      -0.423340       -11.5197
  31   2.0000      -0.410712       -11.1760
  32   2.0000      -0.400552       -10.8996
  33   2.0000      -0.381522       -10.3817
  34   2.0000      -0.371106       -10.0983
  35   2.0000      -0.364228        -9.9112
  36   2.0000      -0.352501        -9.5920
  37   2.0000      -0.349368        -9.5068
  38   2.0000      -0.333966        -9.0877
  39   2.0000      -0.324994        -8.8435
  40   2.0000      -0.324042        -8.8176
  41   2.0000      -0.319471        -8.6933
  42   2.0000      -0.240671        -6.5490
  43   2.0000      -0.144088        -3.9208
  44   0.0000      -0.000379        -0.0103
  45   0.0000       0.008914         0.2426
  46   0.0000       0.017519         0.4767
  47   0.0000       0.020519         0.5583
  48   0.0000       0.036512         0.9936

MULLIKEN ATOMIC CHARGES
-----------------------
   0 C :   -0.649702
   1 C :   -0.616803
   2 N :   -0.229286
   3 C :   -0.421666
   4 C :   -0.603192
   5 H :    0.376313
   6 C :   -0.464001
   7 H :    0.264021
   8 H :    0.231702
   9 H :    0.276122
  10 C :   -0.279313
  11 H :    0.244977
  12 H :    0.238555
  13 F :   -0.464409
  14 H :    0.342769
  15 H :    0.307316
  16 C :    0.548538
  17 C :   -1.403288
  18 N :   -0.400995
  19 H :    0.179065
  20 H :    0.184769
  21 H :    0.482073
  22 H :    0.680089
  23 H :    0.283188
  24 H :    0.261611
  25 H :    0.179919
  26 H :    0.241196
  27 H :    0.210431
Sum of atomic charges:   -0.0000000

LOEWDIN ATOMIC CHARGES
----------------------
   0 C :   -0.193571
   1 C :   -0.191092
   2 N :    0.029423
   3 C :   -0.199953
   4 C :   -0.201789
   5 H :    0.104151
   6 C :   -0.169130
   7 H :    0.108272
   8 H :    0.104728
   9 H :    0.115134
  10 C :   -0.188589
  11 H :    0.131818
  12 H :    0.120410
  13 F :   -0.076548
  14 H :    0.115808
  15 H :    0.112558
  16 C :   -0.545721
  17 C :    0.008335
  18 N :    0.124565
  19 H :    0.080346
  20 H :    0.101780
  21 H :    0.087564
  22 H :   -0.014944
  23 H :    0.007087
  24 H :    0.109512
  25 H :    0.107914
  26 H :    0.104188
  27 H :    0.107744

  Mayer bond orders larger than 0.100000
B(  0-C ,  1-C ) :   0.9373 B(  0-C ,  2-N ) :   1.0096 B(  0-C , 14-H ) :   0.8507
B(  0-C , 15-H ) :   0.8669 B(  0-C , 16-C ) :  -0.1651 B(  1-C ,  3-C ) :   0.8528
B(  1-C , 26-H ) :   0.9351 B(  1-C , 27-H ) :   1.0395 B(  2-N , 16-C ) :   1.0615
B(  2-N , 21-H ) :   0.6916 B(  3-C ,  4-C ) :   0.8404 B(  3-C ,  6-C ) :   0.1698
B(  3-C , 24-H ) :   0.9504 B(  3-C , 25-H ) :   1.0232 B(  4-C ,  5-H ) :   0.9433
B(  4-C ,  6-C ) :   0.6484 B(  4-C ,  7-H ) :   0.9548 B(  4-C , 10-C ) :   0.1873
B(  6-C ,  8-H ) :   0.9993 B(  6-C ,  9-H ) :   0.9768 B(  6-C , 10-C ) :   0.8193
B( 10-C , 11-H ) :   0.9878 B( 10-C , 12-H ) :   0.9543 B( 10-C , 13-F ) :   0.7736
B( 13-F , 17-C ) :   0.1279 B( 13-F , 22-H ) :  -0.1271 B( 16-C , 17-C ) :   1.3220
B( 16-C , 18-N ) :   0.9905 B( 16-C , 22-H ) :  -0.1011 B( 16-C , 23-H ) :  -0.1055
B( 17-C , 22-H ) :   0.5992 B( 17-C , 23-H ) :   1.1037 B( 18-N , 19-H ) :   0.9887
B( 18-N , 20-H ) :   0.9865

Dispersion correction           -0.046866651
FINAL SINGLE POINT ENERGY      -524.292026451642

DIPOLE MOMENT
-------------
                                X             Y             Z
Electronic contribution:      6.35782       2.44379       1.72842
Nuclear contribution   :     -7.85451      -2.70006      -1.48294
                        -----------------------------------------
Total Dipole Moment    :     -1.49669      -0.25627       0.24548
                        -----------------------------------------
Magnitude (a.u.)       :      1.53818
Magnitude (Debye)      :      3.90975

Rotational constants in cm-1:     0.044065     0.029250     0.019826
Rotational constants in MHz :  1321.026981   876.903192   594.367265

                             ****ORCA TERMINATED NORMALLY****
TOTAL RUN TIME: 0 days 0 hours 3 minutes 40 seconds 782 msec
