                         Program Version 5.0.0 -  RELEASE  -
|  1> !B3LYP D3BJ RIJCOSX def2-TZVPD def2/J TightSCF xyzfile
|  2>
|  3> *xyzfile 0 1 D3.xyz
|  4>
|  5> %MaxCore 64000
|  6>
|  7> %pal nprocs 4
|  8> end
|  9>
| 10> %scf
| 11>   MaxIter 150
| 12> end
| 13>
| 14>
| 15>                          ****END OF INPUT****

CARTESIAN COORDINATES (ANGSTROEM)
---------------------------------
  C      1.635557   -1.670396   -5.292109
  C      0.338484   -1.500907   -4.505398
  N      2.484511   -0.507410   -5.140392
  C     -0.684873   -0.528026   -5.099889
  C     -0.290406    0.951335   -5.153423
  H      0.607991    1.070692   -5.764412
  C     -0.055168    1.619420   -3.788577
  H     -1.080912    1.483775   -5.689436
  H      0.045006    0.862302   -3.003015
  H     -0.922936    2.230329   -3.517028
  C      1.223022    2.469865   -3.756911
  H      1.114701    3.258074   -4.532999
  H      1.237732    3.011242   -2.792157
  F      2.353815    1.712032   -3.934477
  H      1.398337   -1.829239   -6.352591
  H      2.155864   -2.565398   -4.932091
  C      3.451149   -0.149530   -5.952589
  N      3.922667    1.089559   -5.850711
  C      3.966162   -1.006183   -6.867880
  H      3.521391   -1.906467   -6.995270
  H      4.444824   -0.623472   -7.670348
  H      2.251995    0.240804   -4.498792
  H      3.464277    1.640782   -5.136392
  H      4.834470    1.313745   -6.224653
  H     -0.937999   -0.869056   -6.110838
  H     -1.604638   -0.622496   -4.513132
  H      0.594887   -1.211578   -3.482312
  H     -0.126530   -2.487656   -4.434176

 Total Charge           Charge          ....    0
 Multiplicity           Mult            ....    1
 Number of Electrons    NEL             ....   88
 Basis Dimension        Dim             ....  563

ORBITAL ENERGIES
----------------

  NO   OCC          E(Eh)            E(eV)
   0   2.0000     -24.724600      -672.7906
   1   2.0000     -14.292115      -388.9082
   2   2.0000     -14.288643      -388.8137
   3   2.0000     -10.275742      -279.6172
   4   2.0000     -10.193692      -277.3845
   5   2.0000     -10.192923      -277.3635
   6   2.0000     -10.190720      -277.3036
   7   2.0000     -10.175712      -276.8952
   8   2.0000     -10.172709      -276.8135
   9   2.0000     -10.169560      -276.7278
  10   2.0000     -10.062790      -273.8224
  11   2.0000      -1.263322       -34.3767
  12   2.0000      -0.957148       -26.0453
  13   2.0000      -0.869381       -23.6570
  14   2.0000      -0.823017       -22.3954
  15   2.0000      -0.780183       -21.2299
  16   2.0000      -0.729511       -19.8510
  17   2.0000      -0.693948       -18.8833
  18   2.0000      -0.660780       -17.9807
  19   2.0000      -0.634690       -17.2708
  20   2.0000      -0.579391       -15.7660
  21   2.0000      -0.570201       -15.5160
  22   2.0000      -0.559078       -15.2133
  23   2.0000      -0.533256       -14.5106
  24   2.0000      -0.529107       -14.3977
  25   2.0000      -0.497768       -13.5450
  26   2.0000      -0.490196       -13.3389
  27   2.0000      -0.474023       -12.8988
  28   2.0000      -0.462915       -12.5966
  29   2.0000      -0.436718       -11.8837
  30   2.0000      -0.428407       -11.6575
  31   2.0000      -0.419409       -11.4127
  32   2.0000      -0.402016       -10.9394
  33   2.0000      -0.378962       -10.3121
  34   2.0000      -0.376983       -10.2582
  35   2.0000      -0.364956        -9.9310
  36   2.0000      -0.360431        -9.8078
  37   2.0000      -0.355490        -9.6734
  38   2.0000      -0.344176        -9.3655
  39   2.0000      -0.334226        -9.0947
  40   2.0000      -0.325822        -8.8661
  41   2.0000      -0.321927        -8.7601
  42   2.0000      -0.230780        -6.2798
  43   2.0000      -0.148599        -4.0436
  44   0.0000      -0.005550        -0.1510
  45   0.0000       0.009694         0.2638
  46   0.0000       0.014799         0.4027
  47   0.0000       0.019466         0.5297
  48   0.0000       0.030677         0.8348

MULLIKEN ATOMIC CHARGES
-----------------------
   0 C :   -0.761902
   1 C :   -0.585190
   2 N :   -0.194419
   3 C :   -0.438810
   4 C :   -0.567262
   5 H :    0.346179
   6 C :   -0.470175
   7 H :    0.262061
   8 H :    0.234816
   9 H :    0.284048
  10 C :   -0.253885
  11 H :    0.254503
  12 H :    0.237908
  13 F :   -0.478554
  14 H :    0.339963
  15 H :    0.367535
  16 C :    0.400435
  17 N :   -0.335359
  18 C :   -1.249476
  19 H :    0.398755
  20 H :    0.257137
  21 H :    0.554265
  22 H :    0.362053
  23 H :    0.123300
  24 H :    0.270363
  25 H :    0.181426
  26 H :    0.248509
  27 H :    0.211777
Sum of atomic charges:    0.0000000

LOEWDIN ATOMIC CHARGES
----------------------
   0 C :   -0.186320
   1 C :   -0.190745
   2 N :    0.029149
   3 C :   -0.198790
   4 C :   -0.202465
   5 H :    0.104202
   6 C :   -0.167842
   7 H :    0.108549
   8 H :    0.106139
   9 H :    0.116989
  10 C :   -0.185401
  11 H :    0.132313
  12 H :    0.122428
  13 F :   -0.067259
  14 H :    0.120343
  15 H :    0.118904
  16 C :   -0.561213
  17 N :    0.124814
  18 C :    0.007522
  19 H :   -0.015989
  20 H :   -0.005099
  21 H :    0.084036
  22 H :    0.063873
  23 H :    0.111620
  24 H :    0.111317
  25 H :    0.107905
  26 H :    0.102242
  27 H :    0.108780

  Mayer bond orders larger than 0.100000
B(  0-C ,  1-C ) :   0.8724 B(  0-C ,  2-N ) :   1.0919 B(  0-C , 14-H ) :   0.9044
B(  0-C , 15-H ) :   0.8255 B(  0-C , 18-C ) :   0.2241 B(  1-C ,  3-C ) :   0.8409
B(  1-C , 26-H ) :   0.9328 B(  1-C , 27-H ) :   1.0460 B(  2-N , 16-C ) :   1.1230
B(  2-N , 21-H ) :   0.6412 B(  3-C ,  4-C ) :   0.8558 B(  3-C ,  6-C ) :   0.1667
B(  3-C , 24-H ) :   0.9446 B(  3-C , 25-H ) :   1.0253 B(  4-C ,  5-H ) :   0.9769
B(  4-C ,  6-C ) :   0.6403 B(  4-C ,  7-H ) :   0.9596 B(  4-C , 10-C ) :   0.1958
B(  6-C ,  8-H ) :   1.0026 B(  6-C ,  9-H ) :   0.9718 B(  6-C , 10-C ) :   0.8226
B( 10-C , 11-H ) :   0.9789 B( 10-C , 12-H ) :   0.9510 B( 10-C , 13-F ) :   0.7510
B( 16-C , 17-N ) :   1.0941 B( 16-C , 18-C ) :   1.3043 B( 16-C , 20-H ) :  -0.1275
B( 17-N , 22-H ) :   0.8154 B( 17-N , 23-H ) :   1.0305 B( 18-C , 19-H ) :   0.8462
B( 18-C , 20-H ) :   1.1488

Dispersion correction           -0.046791358
FINAL SINGLE POINT ENERGY      -524.303496021904

DIPOLE MOMENT
-------------
                                X             Y             Z
Electronic contribution:      6.25757       4.44309       2.81201
Nuclear contribution   :     -7.84660      -3.08098      -1.66782
                        -----------------------------------------
Total Dipole Moment    :     -1.58904       1.36210       1.14419
                        -----------------------------------------
Magnitude (a.u.)       :      2.38528
Magnitude (Debye)      :      6.06289

Rotational constants in cm-1:     0.043547     0.029898     0.020008
Rotational constants in MHz :  1305.520367   896.323854   599.829375

                             ****ORCA TERMINATED NORMALLY****
TOTAL RUN TIME: 0 days 0 hours 4 minutes 8 seconds 450 msec
