                         Program Version 5.0.0 -  RELEASE  -
|  1> !B3LYP D3BJ RIJCOSX def2-SVPD def2/J TightSCF
|  2> *xyz -1 1
|  3> C         -0.72184       -0.99951       -3.43931
|  4> C          0.28725       -1.71177       -2.52740
|  5> H          1.13178       -2.06738       -3.15940
|  6> H         -0.20414       -2.63733       -2.17048
|  7> O          0.71050       -0.92751       -1.48177
|  8> H         -1.01315       -1.65739       -4.23129
|  9> H         -0.27123       -0.12142       -3.85259
| 10> H         -1.58442       -0.72333       -2.86958
| 11> *
| 12> %MaxCore 64000
| 13>
| 14> %pal nprocs 4
| 15> end
| 16>
| 17> %scf
| 18>   MaxIter 150
| 19> end
| 20>
| 21>
| 22>                          ****END OF INPUT****

CARTESIAN COORDINATES (ANGSTROEM)
---------------------------------
  C     -0.721840   -0.999510   -3.439310
  C      0.287250   -1.711770   -2.527400
  H      1.131780   -2.067380   -3.159400
  H     -0.204140   -2.637330   -2.170480
  O      0.710500   -0.927510   -1.481770
  H     -1.013150   -1.657390   -4.231290
  H     -0.271230   -0.121420   -3.852590
  H     -1.584420   -0.723330   -2.869580

 Total Charge           Charge          ....   -1
 Multiplicity           Mult            ....    1
 Number of Electrons    NEL             ....   26
 Basis Dimension        Dim             ....  103

ORBITAL ENERGIES
----------------

  NO   OCC          E(Eh)            E(eV)
   0   2.0000     -18.809059      -511.8205
   1   2.0000      -9.998352      -272.0690
   2   2.0000      -9.976017      -271.4612
   3   2.0000      -0.668334       -18.1863
   4   2.0000      -0.519418       -14.1341
   5   2.0000      -0.367124        -9.9900
   6   2.0000      -0.250572        -6.8184
   7   2.0000      -0.228131        -6.2078
   8   2.0000      -0.175209        -4.7677
   9   2.0000      -0.157614        -4.2889
  10   2.0000      -0.112191        -3.0529
  11   2.0000       0.029239         0.7956
  12   2.0000       0.031747         0.8639
  13   0.0000       0.177912         4.8412
  14   0.0000       0.208404         5.6710
  15   0.0000       0.241607         6.5745
  16   0.0000       0.254145         6.9156
  17   0.0000       0.273559         7.4439

MULLIKEN ATOMIC CHARGES
-----------------------
   0 C :    0.490813
   1 C :    0.295227
   2 H :   -0.227538
   3 H :   -0.235398
   4 O :   -0.893016
   5 H :   -0.121831
   6 H :   -0.157182
   7 H :   -0.151075
Sum of atomic charges:   -1.0000000

LOEWDIN ATOMIC CHARGES
----------------------
   0 C :    0.069385
   1 C :   -0.254419
   2 H :   -0.037059
   3 H :   -0.040586
   4 O :   -0.578271
   5 H :   -0.065728
   6 H :   -0.047116
   7 H :   -0.046207

  Mayer bond orders larger than 0.100000
B(  0-C ,  1-C ) :   1.1697 B(  0-C ,  2-H ) :   0.1412 B(  0-C ,  3-H ) :   0.1524
B(  0-C ,  4-O ) :   0.2012 B(  0-C ,  5-H ) :   0.8812 B(  0-C ,  6-H ) :   0.8749
B(  0-C ,  7-H ) :   0.8693 B(  1-C ,  2-H ) :   0.9520 B(  1-C ,  3-H ) :   0.9424
B(  1-C ,  4-O ) :   1.1282 B(  1-C ,  5-H ) :   0.1483 B(  1-C ,  6-H ) :   0.2000
B(  1-C ,  7-H ) :   0.2000

Dispersion correction           -0.006234616
FINAL SINGLE POINT ENERGY      -154.236495833997

DIPOLE MOMENT
-------------
                                X             Y             Z
Electronic contribution:      1.44779       0.68338       2.33180
Nuclear contribution   :     -2.24828      -1.06600      -3.62481
                        -----------------------------------------
Total Dipole Moment    :     -0.80049      -0.38262      -1.29301
                        -----------------------------------------
Magnitude (a.u.)       :      1.56813
Magnitude (Debye)      :      3.98588

Rotational constants in cm-1:     1.278116     0.325414     0.286672
Rotational constants in MHz : 38316.964654  9755.653004  8594.216906

                             ****ORCA TERMINATED NORMALLY****
TOTAL RUN TIME: 0 days 0 hours 0 minutes 10 seconds 994 msec
