                         Program Version 5.0.0 -  RELEASE  -
|  1> !B3LYP D3BJ RIJCOSX def2-SVPD def2/J TightSCF
|  2> *xyz 1 1
|  3> C          3.48828        1.60092       -1.52204
|  4> C          4.34297        1.31342       -2.75683
|  5> N          2.81029        0.42878       -1.01420
|  6> H          2.71455        2.33145       -1.76030
|  7> H          4.09099        2.06315       -0.73338
|  8> C          3.29098       -0.41802       -0.12908
|  9> N          2.51754       -1.43202        0.23936
| 10> N          4.53549       -0.28441        0.39580
| 11> H          5.04363        0.57189        0.22290
| 12> H          4.72335       -0.73327        1.28180
| 13> H          1.93479        0.10230       -1.40379
| 14> H          1.67464       -1.50562       -0.31610
| 15> H          2.92850       -2.21850        0.72549
| 16> H          3.73575        0.86277       -3.51385
| 17> H          5.13754        0.64699       -2.49333
| 18> H          4.75374        2.22930       -3.12740
| 19> *
| 20> %MaxCore 64000
| 21>
| 22> %pal nprocs 4
| 23> end
| 24>
| 25> %scf
| 26>   MaxIter 150
| 27> end
| 28>
| 29>
| 30>                          ****END OF INPUT****

CARTESIAN COORDINATES (ANGSTROEM)
---------------------------------
  C      3.488280    1.600920   -1.522040
  C      4.342970    1.313420   -2.756830
  N      2.810290    0.428780   -1.014200
  H      2.714550    2.331450   -1.760300
  H      4.090990    2.063150   -0.733380
  C      3.290980   -0.418020   -0.129080
  N      2.517540   -1.432020    0.239360
  N      4.535490   -0.284410    0.395800
  H      5.043630    0.571890    0.222900
  H      4.723350   -0.733270    1.281800
  H      1.934790    0.102300   -1.403790
  H      1.674640   -1.505620   -0.316100
  H      2.928500   -2.218500    0.725490
  H      3.735750    0.862770   -3.513850
  H      5.137540    0.646990   -2.493330
  H      4.753740    2.229300   -3.127400

 Total Charge           Charge          ....    1
 Multiplicity           Mult            ....    1
 Number of Electrons    NEL             ....   48
 Basis Dimension        Dim             ....  200

ORBITAL ENERGIES
----------------

  NO   OCC          E(Eh)            E(eV)
   0   2.0000     -14.559227      -396.1767
   1   2.0000     -14.555001      -396.0617
   2   2.0000     -14.552969      -396.0064
   3   2.0000     -10.517808      -286.2041
   4   2.0000     -10.394591      -282.8512
   5   2.0000     -10.321285      -280.8565
   6   2.0000      -1.212423       -32.9917
   7   2.0000      -1.100707       -29.9518
   8   2.0000      -1.086996       -29.5787
   9   2.0000      -0.929110       -25.2824
  10   2.0000      -0.835948       -22.7473
  11   2.0000      -0.806827       -21.9549
  12   2.0000      -0.782417       -21.2907
  13   2.0000      -0.747913       -20.3517
  14   2.0000      -0.695793       -18.9335
  15   2.0000      -0.686123       -18.6704
  16   2.0000      -0.656663       -17.8687
  17   2.0000      -0.640149       -17.4193
  18   2.0000      -0.604560       -16.4509
  19   2.0000      -0.563369       -15.3300
  20   2.0000      -0.534859       -14.5542
  21   2.0000      -0.515795       -14.0355
  22   2.0000      -0.480898       -13.0859
  23   2.0000      -0.455152       -12.3853
  24   0.0000      -0.175267        -4.7693
  25   0.0000      -0.159739        -4.3467
  26   0.0000      -0.128333        -3.4921
  27   0.0000      -0.113924        -3.1000
  28   0.0000      -0.086870        -2.3638

MULLIKEN ATOMIC CHARGES
-----------------------
   0 C :    0.455504
   1 C :    0.885428
   2 N :   -0.320307
   3 H :   -0.362773
   4 H :   -0.149148
   5 C :    1.174935
   6 N :    0.120674
   7 N :    0.104595
   8 H :   -0.069893
   9 H :   -0.168433
  10 H :   -0.263966
  11 H :   -0.013166
  12 H :   -0.107833
  13 H :   -0.119519
  14 H :   -0.127292
  15 H :   -0.038808
Sum of atomic charges:    1.0000000

LOEWDIN ATOMIC CHARGES
----------------------
   0 C :    0.046824
   1 C :    0.171990
   2 N :    0.045932
   3 H :    0.039939
   4 H :    0.026386
   5 C :   -0.037004
   6 N :    0.269805
   7 N :    0.288608
   8 H :    0.006998
   9 H :    0.033065
  10 H :    0.057312
  11 H :    0.031347
  12 H :    0.043722
  13 H :   -0.008022
  14 H :   -0.017456
  15 H :    0.000555

  Mayer bond orders larger than 0.100000
B(  0-C ,  1-C ) :   1.2503 B(  0-C ,  2-N ) :   0.9837 B(  0-C ,  3-H ) :   0.8490
B(  0-C ,  4-H ) :   0.8241 B(  0-C , 10-H ) :  -0.2117 B(  0-C , 13-H ) :   0.2684
B(  0-C , 14-H ) :   0.2170 B(  0-C , 15-H ) :   0.1787 B(  1-C , 13-H ) :   0.7497
B(  1-C , 14-H ) :   0.7834 B(  1-C , 15-H ) :   0.7729 B(  2-N ,  3-H ) :   0.1909
B(  2-N ,  4-H ) :   0.1565 B(  2-N ,  5-C ) :   1.0395 B(  2-N ,  6-N ) :   0.2505
B(  2-N ,  7-N ) :   0.1962 B(  2-N , 10-H ) :   1.3112 B(  5-C ,  6-N ) :   0.9666
B(  5-C ,  7-N ) :   0.9587 B(  5-C ,  8-H ) :  -0.1113 B(  5-C ,  9-H ) :  -0.1391
B(  5-C , 10-H ) :  -0.2749 B(  6-N ,  7-N ) :   0.1427 B(  6-N , 11-H ) :   1.0687
B(  6-N , 12-H ) :   1.1856 B(  7-N ,  8-H ) :   1.0458 B(  7-N ,  9-H ) :   1.2515
B(  8-H ,  9-H ) :  -0.1681 B( 11-H , 12-H ) :  -0.1448

Dispersion correction           -0.020255788
FINAL SINGLE POINT ENERGY      -284.053414399879

DIPOLE MOMENT
-------------
                                X             Y             Z
Electronic contribution:     -1.92671      -2.99875       3.73324
Nuclear contribution   :      1.59382       2.33278      -3.02574
                        -----------------------------------------
Total Dipole Moment    :     -0.33289      -0.66598       0.70750
                        -----------------------------------------
Magnitude (a.u.)       :      1.02709
Magnitude (Debye)      :      2.61064

Rotational constants in cm-1:     0.232230     0.073139     0.063030
Rotational constants in MHz :  6962.079716  2192.649203  1889.578947

                             ****ORCA TERMINATED NORMALLY****
TOTAL RUN TIME: 0 days 0 hours 0 minutes 27 seconds 869 msec
