                         Program Version 5.0.0 -  RELEASE  -
|  1> !B3LYP D3BJ RIJCOSX def2-SVPD def2/J TightSCF
|  2> *xyz 0 1
|  3> C         -0.72184       -0.99951       -3.43931
|  4> C          0.28725       -1.71177       -2.52740
|  5> H          1.13178       -2.06738       -3.15940
|  6> H         -0.20414       -2.63733       -2.17048
|  7> F          0.71050       -0.92751       -1.48177
|  8> H         -1.01315       -1.65739       -4.23129
|  9> H         -0.27123       -0.12142       -3.85259
| 10> H         -1.58442       -0.72333       -2.86958
| 11> *
| 12> %MaxCore 64000
| 13>
| 14> %pal nprocs 4
| 15> end
| 16>
| 17> %scf
| 18>   MaxIter 150
| 19> end
| 20>
| 21>
| 22>                          ****END OF INPUT****

CARTESIAN COORDINATES (ANGSTROEM)
---------------------------------
  C     -0.721840   -0.999510   -3.439310
  C      0.287250   -1.711770   -2.527400
  H      1.131780   -2.067380   -3.159400
  H     -0.204140   -2.637330   -2.170480
  F      0.710500   -0.927510   -1.481770
  H     -1.013150   -1.657390   -4.231290
  H     -0.271230   -0.121420   -3.852590
  H     -1.584420   -0.723330   -2.869580

 Total Charge           Charge          ....    0
 Multiplicity           Mult            ....    1
 Number of Electrons    NEL             ....   26
 Basis Dimension        Dim             ....  103

ORBITAL ENERGIES
----------------

  NO   OCC          E(Eh)            E(eV)
   0   2.0000     -24.685862      -671.7365
   1   2.0000     -10.265447      -279.3370
   2   2.0000     -10.181845      -277.0621
   3   2.0000      -1.182781       -32.1851
   4   2.0000      -0.759516       -20.6675
   5   2.0000      -0.627615       -17.0783
   6   2.0000      -0.511207       -13.9107
   7   2.0000      -0.497275       -13.5316
   8   2.0000      -0.460724       -12.5369
   9   2.0000      -0.407690       -11.0938
  10   2.0000      -0.403804       -10.9881
  11   2.0000      -0.341034        -9.2800
  12   2.0000      -0.334448        -9.1008
  13   0.0000       0.020697         0.5632
  14   0.0000       0.052209         1.4207
  15   0.0000       0.072498         1.9728
  16   0.0000       0.079133         2.1533
  17   0.0000       0.104505         2.8437

MULLIKEN ATOMIC CHARGES
-----------------------
   0 C :    0.555454
   1 C :    0.561339
   2 H :   -0.135783
   3 H :   -0.146148
   4 F :   -0.447404
   5 H :   -0.113292
   6 H :   -0.140549
   7 H :   -0.133617
Sum of atomic charges:    0.0000000

LOEWDIN ATOMIC CHARGES
----------------------
   0 C :    0.144532
   1 C :    0.068026
   2 H :    0.029937
   3 H :    0.025485
   4 F :   -0.217111
   5 H :   -0.015977
   6 H :   -0.017784
   7 H :   -0.017107

  Mayer bond orders larger than 0.100000
B(  0-C ,  1-C ) :   1.3290 B(  0-C ,  5-H ) :   0.8244 B(  0-C ,  6-H ) :   0.8543
B(  0-C ,  7-H ) :   0.8502 B(  1-C ,  2-H ) :   0.9130 B(  1-C ,  3-H ) :   0.9081
B(  1-C ,  4-F ) :   0.7487 B(  1-C ,  5-H ) :   0.1377 B(  1-C ,  6-H ) :   0.1578
B(  1-C ,  7-H ) :   0.1595

Dispersion correction           -0.005741004
FINAL SINGLE POINT ENERGY      -178.848414847207

DIPOLE MOMENT
-------------
                                X             Y             Z
Electronic contribution:      2.69175       1.03541       4.20289
Nuclear contribution   :     -2.97459      -1.40206      -4.79987
                        -----------------------------------------
Total Dipole Moment    :     -0.28284      -0.36665      -0.59698
                        -----------------------------------------
Magnitude (a.u.)       :      0.75552
Magnitude (Debye)      :      1.92038

Rotational constants in cm-1:     1.257024     0.302702     0.267953
Rotational constants in MHz : 37684.643733  9074.792567  8033.038070

                             ****ORCA TERMINATED NORMALLY****
TOTAL RUN TIME: 0 days 0 hours 0 minutes 10 seconds 341 msec
