                         Program Version 5.0.0 -  RELEASE  -
|  1> !B3LYP D3BJ RIJCOSX def2-SVPD def2/J TightSCF
|  2> *xyz 0 1
|  3> C          3.48828        1.60092       -1.52204
|  4> C          4.34297        1.31342       -2.75683
|  5> C          2.81029        0.42878       -1.01420
|  6> H          2.71455        2.33145       -1.76030
|  7> H          4.09099        2.06315       -0.73338
|  8> C          3.29098       -0.41802       -0.12908
|  9> N          2.51754       -1.43202        0.23936
| 10> N          4.53549       -0.28441        0.39580
| 11> H          5.04363        0.57189        0.22290
| 12> H          4.72335       -0.73327        1.28180
| 13> H          1.93479        0.10230       -1.40379
| 14> H          1.67464       -1.50562       -0.31610
| 15> H          2.92850       -2.21850        0.72549
| 16> H          3.73575        0.86277       -3.51385
| 17> H          5.13754        0.64699       -2.49333
| 18> H          4.75374        2.22930       -3.12740
| 19> *
| 20> %MaxCore 64000
| 21>
| 22> %pal nprocs 4
| 23> end
| 24>
| 25> %scf
| 26>   MaxIter 150
| 27> end
| 28>
| 29>
| 30>                          ****END OF INPUT****

CARTESIAN COORDINATES (ANGSTROEM)
---------------------------------
  C      3.488280    1.600920   -1.522040
  C      4.342970    1.313420   -2.756830
  C      2.810290    0.428780   -1.014200
  H      2.714550    2.331450   -1.760300
  H      4.090990    2.063150   -0.733380
  C      3.290980   -0.418020   -0.129080
  N      2.517540   -1.432020    0.239360
  N      4.535490   -0.284410    0.395800
  H      5.043630    0.571890    0.222900
  H      4.723350   -0.733270    1.281800
  H      1.934790    0.102300   -1.403790
  H      1.674640   -1.505620   -0.316100
  H      2.928500   -2.218500    0.725490
  H      3.735750    0.862770   -3.513850
  H      5.137540    0.646990   -2.493330
  H      4.753740    2.229300   -3.127400

 Total Charge           Charge          ....    0
 Multiplicity           Mult            ....    1
 Number of Electrons    NEL             ....   48
 Basis Dimension        Dim             ....  200

ORBITAL ENERGIES
----------------

  NO   OCC          E(Eh)            E(eV)
   0   2.0000     -14.331586      -389.9823
   1   2.0000     -14.326950      -389.8561
   2   2.0000     -10.222567      -278.1702
   3   2.0000     -10.160606      -276.4842
   4   2.0000     -10.149846      -276.1913
   5   2.0000     -10.107954      -275.0514
   6   2.0000      -0.950673       -25.8691
   7   2.0000      -0.862795       -23.4778
   8   2.0000      -0.768674       -20.9167
   9   2.0000      -0.690050       -18.7772
  10   2.0000      -0.610250       -16.6057
  11   2.0000      -0.579113       -15.7585
  12   2.0000      -0.538050       -14.6411
  13   2.0000      -0.509436       -13.8625
  14   2.0000      -0.468692       -12.7538
  15   2.0000      -0.440165       -11.9775
  16   2.0000      -0.418628       -11.3914
  17   2.0000      -0.396817       -10.7979
  18   2.0000      -0.383074       -10.4240
  19   2.0000      -0.353940        -9.6312
  20   2.0000      -0.334773        -9.1096
  21   2.0000      -0.322448        -8.7743
  22   2.0000      -0.266421        -7.2497
  23   2.0000      -0.164075        -4.4647
  24   0.0000       0.012946         0.3523
  25   0.0000       0.038996         1.0611
  26   0.0000       0.046026         1.2524
  27   0.0000       0.059071         1.6074
  28   0.0000       0.075737         2.0609

MULLIKEN ATOMIC CHARGES
-----------------------
   0 C :    0.028227
   1 C :    0.848612
   2 C :   -0.228343
   3 H :   -0.139384
   4 H :   -0.138880
   5 C :    0.638515
   6 N :    0.107273
   7 N :    0.079557
   8 H :   -0.053257
   9 H :   -0.277360
  10 H :   -0.336882
  11 H :    0.036485
  12 H :   -0.231272
  13 H :   -0.118038
  14 H :   -0.135148
  15 H :   -0.080105
Sum of atomic charges:   -0.0000000

LOEWDIN ATOMIC CHARGES
----------------------
   0 C :   -0.092481
   1 C :    0.128837
   2 C :   -0.032924
   3 H :    0.011181
   4 H :    0.002629
   5 C :   -0.223681
   6 N :    0.179741
   7 N :    0.209137
   8 H :   -0.023506
   9 H :   -0.017462
  10 H :   -0.051006
  11 H :   -0.001383
  12 H :   -0.009221
  13 H :   -0.021914
  14 H :   -0.027595
  15 H :   -0.030352

  Mayer bond orders larger than 0.100000
B(  0-C ,  1-C ) :   1.2069 B(  0-C ,  2-C ) :   1.2315 B(  0-C ,  3-H ) :   0.7923
B(  0-C ,  4-H ) :   0.7833 B(  0-C , 10-H ) :   0.2543 B(  0-C , 13-H ) :   0.2542
B(  0-C , 14-H ) :   0.2255 B(  0-C , 15-H ) :   0.1792 B(  1-C , 13-H ) :   0.7812
B(  1-C , 14-H ) :   0.7906 B(  1-C , 15-H ) :   0.7823 B(  2-C ,  3-H ) :   0.2552
B(  2-C ,  4-H ) :   0.2936 B(  2-C ,  5-C ) :   1.5991 B(  2-C ,  6-N ) :   0.3227
B(  2-C ,  7-N ) :   0.1854 B(  2-C ,  8-H ) :  -0.1156 B(  2-C , 10-H ) :   0.8483
B(  5-C ,  6-N ) :   0.9111 B(  5-C ,  7-N ) :   0.9455 B(  5-C , 10-H ) :   0.2622
B(  6-N ,  7-N ) :   0.1093 B(  6-N , 11-H ) :   1.0335 B(  6-N , 12-H ) :   1.1907
B(  7-N ,  8-H ) :   1.0154 B(  7-N ,  9-H ) :   1.2480 B(  8-H ,  9-H ) :  -0.1437
B( 11-H , 12-H ) :  -0.1408

Dispersion correction           -0.021183990
FINAL SINGLE POINT ENERGY      -267.587519776187

DIPOLE MOMENT
-------------
                                X             Y             Z
Electronic contribution:     -1.28155      -2.91939       3.64420
Nuclear contribution   :      1.44676       2.38443      -3.07370
                        -----------------------------------------
Total Dipole Moment    :      0.16521      -0.53497       0.57050
                        -----------------------------------------
Magnitude (a.u.)       :      0.79935
Magnitude (Debye)      :      2.03178

Rotational constants in cm-1:     0.235977     0.073199     0.063283
Rotational constants in MHz :  7074.404583  2194.453291  1897.179599

                             ****ORCA TERMINATED NORMALLY****
TOTAL RUN TIME: 0 days 0 hours 0 minutes 27 seconds 973 msec
