                         Program Version 5.0.0 -  RELEASE  -
|  1> !B3LYP D3BJ RIJCOSX def2-SVPD def2/J TightSCF
|  2> *xyz 0 1
|  3> C          3.48828        1.60092       -1.52204
|  4> C          4.34297        1.31342       -2.75683
|  5> N          2.81029        0.42878       -1.01420
|  6> H          2.71455        2.33145       -1.76030
|  7> H          4.09099        2.06315       -0.73338
|  8> C          3.29098       -0.41802       -0.12908
|  9> C          2.51754       -1.43202        0.23936
| 10> N          4.53549       -0.28441        0.39580
| 11> H          5.04363        0.57189        0.22290
| 12> H          4.72335       -0.73327        1.28180
| 13> H          1.93479        0.10230       -1.40379
| 14> H          1.67464       -1.50562       -0.31610
| 15> H          2.92850       -2.21850        0.72549
| 16> H          3.73575        0.86277       -3.51385
| 17> H          5.13754        0.64699       -2.49333
| 18> H          4.75374        2.22930       -3.12740
| 19> *
| 20> %MaxCore 64000
| 21>
| 22> %pal nprocs 4
| 23> end
| 24>
| 25> %scf
| 26>   MaxIter 150
| 27> end
| 28>
| 29>
| 30>                          ****END OF INPUT****

CARTESIAN COORDINATES (ANGSTROEM)
---------------------------------
  C      3.488280    1.600920   -1.522040
  C      4.342970    1.313420   -2.756830
  N      2.810290    0.428780   -1.014200
  H      2.714550    2.331450   -1.760300
  H      4.090990    2.063150   -0.733380
  C      3.290980   -0.418020   -0.129080
  C      2.517540   -1.432020    0.239360
  N      4.535490   -0.284410    0.395800
  H      5.043630    0.571890    0.222900
  H      4.723350   -0.733270    1.281800
  H      1.934790    0.102300   -1.403790
  H      1.674640   -1.505620   -0.316100
  H      2.928500   -2.218500    0.725490
  H      3.735750    0.862770   -3.513850
  H      5.137540    0.646990   -2.493330
  H      4.753740    2.229300   -3.127400

 Total Charge           Charge          ....    0
 Multiplicity           Mult            ....    1
 Number of Electrons    NEL             ....   48
 Basis Dimension        Dim             ....  200

ORBITAL ENERGIES
----------------

  NO   OCC          E(Eh)            E(eV)
   0   2.0000     -14.330816      -389.9613
   1   2.0000     -14.330596      -389.9553
   2   2.0000     -10.226584      -278.2795
   3   2.0000     -10.226150      -278.2677
   4   2.0000     -10.175300      -276.8840
   5   2.0000     -10.093122      -274.6478
   6   2.0000      -0.961419       -26.1615
   7   2.0000      -0.875591       -23.8261
   8   2.0000      -0.769752       -20.9460
   9   2.0000      -0.696304       -18.9474
  10   2.0000      -0.625580       -17.0229
  11   2.0000      -0.596960       -16.2441
  12   2.0000      -0.536360       -14.5951
  13   2.0000      -0.499619       -13.5953
  14   2.0000      -0.480370       -13.0715
  15   2.0000      -0.441629       -12.0173
  16   2.0000      -0.430461       -11.7134
  17   2.0000      -0.405217       -11.0265
  18   2.0000      -0.379703       -10.3322
  19   2.0000      -0.374558       -10.1922
  20   2.0000      -0.363938        -9.9033
  21   2.0000      -0.358317        -9.7503
  22   2.0000      -0.259031        -7.0486
  23   2.0000      -0.162054        -4.4097
  24   0.0000       0.009465         0.2576
  25   0.0000       0.038191         1.0392
  26   0.0000       0.041305         1.1240
  27   0.0000       0.050722         1.3802
  28   0.0000       0.072818         1.9815

MULLIKEN ATOMIC CHARGES
-----------------------
   0 C :    0.479372
   1 C :    0.883114
   2 N :   -0.176893
   3 H :   -0.432489
   4 H :   -0.187585
   5 C :    0.562465
   6 C :    0.601987
   7 N :    0.165183
   8 H :   -0.198798
   9 H :   -0.173989
  10 H :   -0.321061
  11 H :   -0.304056
  12 H :   -0.522521
  13 H :   -0.149269
  14 H :   -0.139774
  15 H :   -0.085686
Sum of atomic charges:    0.0000000

LOEWDIN ATOMIC CHARGES
----------------------
   0 C :    0.016766
   1 C :    0.142683
   2 N :   -0.016105
   3 H :    0.015080
   4 H :    0.008352
   5 C :   -0.231769
   6 C :    0.142969
   7 N :    0.207797
   8 H :   -0.037376
   9 H :    0.000992
  10 H :    0.031216
  11 H :   -0.108673
  12 H :   -0.101651
  13 H :   -0.020978
  14 H :   -0.025405
  15 H :   -0.023898

  Mayer bond orders larger than 0.100000
B(  0-C ,  1-C ) :   1.2242 B(  0-C ,  2-N ) :   0.9612 B(  0-C ,  3-H ) :   0.8389
B(  0-C ,  4-H ) :   0.8273 B(  0-C , 10-H ) :  -0.2298 B(  0-C , 13-H ) :   0.2836
B(  0-C , 14-H ) :   0.2270 B(  0-C , 15-H ) :   0.1927 B(  1-C , 13-H ) :   0.7454
B(  1-C , 14-H ) :   0.7831 B(  1-C , 15-H ) :   0.7812 B(  2-N ,  3-H ) :   0.1945
B(  2-N ,  4-H ) :   0.1611 B(  2-N ,  5-C ) :   1.0900 B(  2-N ,  6-C ) :   0.2437
B(  2-N ,  7-N ) :   0.1110 B(  2-N , 10-H ) :   1.2476 B(  5-C ,  6-C ) :   1.6168
B(  5-C ,  7-N ) :   0.8905 B(  5-C ,  9-H ) :  -0.1205 B(  5-C , 10-H ) :  -0.2016
B(  5-C , 11-H ) :   0.2718 B(  5-C , 12-H ) :   0.2261 B(  6-C ,  7-N ) :   0.2273
B(  6-C , 11-H ) :   0.7443 B(  6-C , 12-H ) :   0.6446 B(  7-N ,  8-H ) :   1.0293
B(  7-N ,  9-H ) :   1.2136 B(  8-H ,  9-H ) :  -0.1558

Dispersion correction           -0.020932358
FINAL SINGLE POINT ENERGY      -267.575306574044

DIPOLE MOMENT
-------------
                                X             Y             Z
Electronic contribution:     -0.88066      -1.06033       2.42667
Nuclear contribution   :      1.38466       1.98967      -2.80776
                        -----------------------------------------
Total Dipole Moment    :      0.50399       0.92934      -0.38110
                        -----------------------------------------
Magnitude (a.u.)       :      1.12379
Magnitude (Debye)      :      2.85646

Rotational constants in cm-1:     0.235618     0.075969     0.065309
Rotational constants in MHz :  7063.646698  2277.495424  1957.925383

                             ****ORCA TERMINATED NORMALLY****
TOTAL RUN TIME: 0 days 0 hours 0 minutes 27 seconds 613 msec
