                         Program Version 5.0.0 -  RELEASE  -
|  1> !B3LYP D3BJ RIJCOSX def2-SVPD def2/J TightSCF
|  2> *xyz 0 1
|  3> C          3.48828        1.60092       -1.52204
|  4> C          4.34297        1.31342       -2.75683
|  5> N          2.81029        0.42878       -1.01420
|  6> H          2.71455        2.33145       -1.76030
|  7> H          4.09099        2.06315       -0.73338
|  8> C          3.29098       -0.41802       -0.12908
|  9> N          2.51754       -1.43202        0.23936
| 10> C          4.53549       -0.28441        0.39580
| 11> H          5.04363        0.57189        0.22290
| 12> H          4.72335       -0.73327        1.28180
| 13> H          1.93479        0.10230       -1.40379
| 14> H          1.67464       -1.50562       -0.31610
| 15> H          2.92850       -2.21850        0.72549
| 16> H          3.73575        0.86277       -3.51385
| 17> H          5.13754        0.64699       -2.49333
| 18> H          4.75374        2.22930       -3.12740
| 19> *
| 20> %MaxCore 64000
| 21>
| 22> %pal nprocs 4
| 23> end
| 24>
| 25> %scf
| 26>   MaxIter 150
| 27> end
| 28>
| 29>
| 30>                          ****END OF INPUT****

CARTESIAN COORDINATES (ANGSTROEM)
---------------------------------
  C      3.488280    1.600920   -1.522040
  C      4.342970    1.313420   -2.756830
  N      2.810290    0.428780   -1.014200
  H      2.714550    2.331450   -1.760300
  H      4.090990    2.063150   -0.733380
  C      3.290980   -0.418020   -0.129080
  N      2.517540   -1.432020    0.239360
  C      4.535490   -0.284410    0.395800
  H      5.043630    0.571890    0.222900
  H      4.723350   -0.733270    1.281800
  H      1.934790    0.102300   -1.403790
  H      1.674640   -1.505620   -0.316100
  H      2.928500   -2.218500    0.725490
  H      3.735750    0.862770   -3.513850
  H      5.137540    0.646990   -2.493330
  H      4.753740    2.229300   -3.127400

 Total Charge           Charge          ....    0
 Multiplicity           Mult            ....    1
 Number of Electrons    NEL             ....   48
 Basis Dimension        Dim             ....  200

ORBITAL ENERGIES
----------------

  NO   OCC          E(Eh)            E(eV)
   0   2.0000     -14.336825      -390.1248
   1   2.0000     -14.332986      -390.0204
   2   2.0000     -10.229047      -278.3465
   3   2.0000     -10.218930      -278.0712
   4   2.0000     -10.167637      -276.6755
   5   2.0000     -10.095025      -274.6996
   6   2.0000      -0.970610       -26.4116
   7   2.0000      -0.881065       -23.9750
   8   2.0000      -0.750225       -20.4147
   9   2.0000      -0.700656       -19.0658
  10   2.0000      -0.640581       -17.4311
  11   2.0000      -0.561470       -15.2784
  12   2.0000      -0.544031       -14.8038
  13   2.0000      -0.528792       -14.3892
  14   2.0000      -0.469975       -12.7887
  15   2.0000      -0.441215       -12.0061
  16   2.0000      -0.426597       -11.6083
  17   2.0000      -0.396576       -10.7914
  18   2.0000      -0.380545       -10.3552
  19   2.0000      -0.369991       -10.0680
  20   2.0000      -0.360511        -9.8100
  21   2.0000      -0.349471        -9.5096
  22   2.0000      -0.253576        -6.9002
  23   2.0000      -0.165566        -4.5053
  24   0.0000       0.007704         0.2096
  25   0.0000       0.034352         0.9348
  26   0.0000       0.046041         1.2528
  27   0.0000       0.052759         1.4357
  28   0.0000       0.077737         2.1153

MULLIKEN ATOMIC CHARGES
-----------------------
   0 C :    0.467919
   1 C :    0.891768
   2 N :   -0.315065
   3 H :   -0.420973
   4 H :   -0.055937
   5 C :    0.588062
   6 N :    0.167735
   7 C :    0.591583
   8 H :   -0.262114
   9 H :   -0.595416
  10 H :   -0.388345
  11 H :   -0.162319
  12 H :   -0.106079
  13 H :   -0.157052
  14 H :   -0.157144
  15 H :   -0.086622
Sum of atomic charges:   -0.0000000

LOEWDIN ATOMIC CHARGES
----------------------
   0 C :    0.024627
   1 C :    0.146815
   2 N :   -0.018316
   3 H :    0.014853
   4 H :    0.016463
   5 C :   -0.239153
   6 N :    0.191722
   7 C :    0.164627
   8 H :   -0.131224
   9 H :   -0.112676
  10 H :    0.017904
  11 H :   -0.016569
  12 H :    0.011624
  13 H :   -0.024758
  14 H :   -0.023275
  15 H :   -0.022664

  Mayer bond orders larger than 0.100000
B(  0-C ,  1-C ) :   1.2092 B(  0-C ,  2-N ) :   0.9738 B(  0-C ,  3-H ) :   0.8703
B(  0-C ,  4-H ) :   0.8155 B(  0-C , 10-H ) :  -0.2094 B(  0-C , 13-H ) :   0.2506
B(  0-C , 14-H ) :   0.2260 B(  0-C , 15-H ) :   0.1876 B(  1-C , 13-H ) :   0.7597
B(  1-C , 14-H ) :   0.7921 B(  1-C , 15-H ) :   0.7847 B(  2-N ,  3-H ) :   0.1726
B(  2-N ,  4-H ) :   0.1446 B(  2-N ,  5-C ) :   0.9398 B(  2-N ,  6-N ) :   0.1609
B(  2-N ,  7-C ) :   0.3923 B(  2-N , 10-H ) :   1.3542 B(  5-C ,  6-N ) :   0.8992
B(  5-C ,  7-C ) :   1.6807 B(  5-C ,  8-H ) :   0.3222 B(  5-C ,  9-H ) :   0.2012
B(  5-C , 10-H ) :  -0.2820 B(  6-N ,  7-C ) :   0.2917 B(  6-N , 11-H ) :   1.0711
B(  6-N , 12-H ) :   1.1735 B(  7-C ,  8-H ) :   0.6224 B(  7-C ,  9-H ) :   0.6846
B(  8-H ,  9-H ) :   0.1413 B( 11-H , 12-H ) :  -0.1347

Dispersion correction           -0.021084015
FINAL SINGLE POINT ENERGY      -267.575768095212

DIPOLE MOMENT
-------------
                                X             Y             Z
Electronic contribution:     -2.80128      -2.28988       2.20115
Nuclear contribution   :      1.81275       2.23313      -2.77458
                        -----------------------------------------
Total Dipole Moment    :     -0.98853      -0.05675      -0.57342
                        -----------------------------------------
Magnitude (a.u.)       :      1.14421
Magnitude (Debye)      :      2.90836

Rotational constants in cm-1:     0.245202     0.073668     0.064348
Rotational constants in MHz :  7350.977980  2208.513334  1929.108541

                             ****ORCA TERMINATED NORMALLY****
TOTAL RUN TIME: 0 days 0 hours 0 minutes 28 seconds 936 msec
