                         Program Version 5.0.0 -  RELEASE  -
|  1> !wB97X-D3 RIJCOSX def2-TZVPD def2/J TightSCF
|  2> *xyz -1 1
|  3> C         -0.05915        1.50352        3.41058
|  4> C          1.08303        0.74964        4.08571
|  5> O          2.22817        1.26348        4.01983
|  6> O          0.81003       -0.34541        4.63627
|  7> H          0.31461        2.41205        2.98658
|  8> H         -0.81316        1.73160        4.13470
|  9> H         -0.47977        0.89552        2.63708
| 10> *
| 11>
| 12> %MaxCore 64000
| 13>
| 14> %pal nprocs 18
| 15> end
| 16>
| 17> %scf
| 18>   MaxIter 150
| 19> end
| 20>
| 21>
| 22>                          ****END OF INPUT****

CARTESIAN COORDINATES (ANGSTROEM)
---------------------------------
  C     -0.059150    1.503520    3.410580
  C      1.083030    0.749640    4.085710
  O      2.228170    1.263480    4.019830
  O      0.810030   -0.345410    4.636270
  H      0.314610    2.412050    2.986580
  H     -0.813160    1.731600    4.134700
  H     -0.479770    0.895520    2.637080

 Total Charge           Charge          ....   -1
 Multiplicity           Mult            ....    1
 Number of Electrons    NEL             ....   32
 Basis Dimension        Dim             ....  181

ORBITAL ENERGIES
----------------

  NO   OCC          E(Eh)            E(eV)
   0   2.0000     -18.960019      -515.9284
   1   2.0000     -18.959312      -515.9091
   2   2.0000     -10.156392      -276.3695
   3   2.0000     -10.083776      -274.3935
   4   2.0000      -0.931520       -25.3480
   5   2.0000      -0.836506       -22.7625
   6   2.0000      -0.658394       -17.9158
   7   2.0000      -0.409453       -11.1418
   8   2.0000      -0.359747        -9.7892
   9   2.0000      -0.345322        -9.3967
  10   2.0000      -0.324946        -8.8422
  11   2.0000      -0.280353        -7.6288
  12   2.0000      -0.260585        -7.0909
  13   2.0000      -0.137016        -3.7284
  14   2.0000      -0.132726        -3.6117
  15   2.0000      -0.118673        -3.2292
  16   0.0000       0.203215         5.5298
  17   0.0000       0.223779         6.0893
  18   0.0000       0.235958         6.4208
  19   0.0000       0.253898         6.9089
  20   0.0000       0.275169         7.4877

MULLIKEN ATOMIC CHARGES
-----------------------
   0 C :   -0.700406
   1 C :    0.541521
   2 O :   -0.749341
   3 O :   -0.760129
   4 H :    0.240718
   5 H :    0.215822
   6 H :    0.211816
Sum of atomic charges:   -1.0000000

LOEWDIN ATOMIC CHARGES
----------------------
   0 C :   -0.072047
   1 C :   -0.809043
   2 O :   -0.128875
   3 O :   -0.130110
   4 H :    0.043600
   5 H :    0.047900
   6 H :    0.048574

  Mayer bond orders larger than 0.100000
B(  0-C ,  1-C ) :   0.8951 B(  0-C ,  4-H ) :   0.9891 B(  0-C ,  5-H ) :   0.9436
B(  0-C ,  6-H ) :   0.9404 B(  1-C ,  2-O ) :   1.4692 B(  1-C ,  3-O ) :   1.4732

Dispersion correction           -0.000903992
FINAL SINGLE POINT ENERGY      -228.553649466280

DIPOLE MOMENT
-------------
                                X             Y             Z
Electronic contribution:      2.68656      -1.76753       1.57595
Nuclear contribution   :     -3.75920       2.48542      -2.19871
                        -----------------------------------------
Total Dipole Moment    :     -1.07264       0.71789      -0.62276
                        -----------------------------------------
Magnitude (a.u.)       :      1.43309
Magnitude (Debye)      :      3.64263

Rotational constants in cm-1:     0.392838     0.334689     0.186890
Rotational constants in MHz : 11776.984954 10033.729666  5602.815156

                             ****ORCA TERMINATED NORMALLY****
TOTAL RUN TIME: 0 days 0 hours 0 minutes 7 seconds 921 msec
