                         Program Version 5.0.0 -  RELEASE  -
|  1> !wB97X-D3 RIJCOSX def2-TZVPD def2/J TightSCF
|  2> *xyz 1 1
|  3> C          4.60295       -2.44010        2.63478
|  4> C          3.86085       -1.59157        3.62289
|  5> N          2.75650       -2.04616        4.16633
|  6> N          4.25433       -0.36291        3.86046
|  7> H          3.56526        0.31099        4.16898
|  8> H          5.05429       -0.01606        3.33784
|  9> H          2.43970       -2.97389        3.89740
| 10> H          2.06687       -1.41253        4.54981
| 11> H          5.47239       -1.91604        2.29664
| 12> H          3.96816       -2.65362        1.80030
| 13> H          4.89801       -3.35632        3.10209
| 14> *
| 15>
| 16> %MaxCore 64000
| 17>
| 18> %pal nprocs 18
| 19> end
| 20>
| 21> %scf
| 22>   MaxIter 150
| 23> end
| 24>
| 25>
| 26>                          ****END OF INPUT****

CARTESIAN COORDINATES (ANGSTROEM)
---------------------------------
  C      4.602950   -2.440100    2.634780
  C      3.860850   -1.591570    3.622890
  N      2.756500   -2.046160    4.166330
  N      4.254330   -0.362910    3.860460
  H      3.565260    0.310990    4.168980
  H      5.054290   -0.016060    3.337840
  H      2.439700   -2.973890    3.897400
  H      2.066870   -1.412530    4.549810
  H      5.472390   -1.916040    2.296640
  H      3.968160   -2.653620    1.800300
  H      4.898010   -3.356320    3.102090

 Total Charge           Charge          ....    1
 Multiplicity           Mult            ....    1
 Number of Electrons    NEL             ....   32
 Basis Dimension        Dim             ....  211

ORBITAL ENERGIES
----------------

  NO   OCC          E(Eh)            E(eV)
   0   2.0000     -14.672910      -399.2702
   1   2.0000     -14.672076      -399.2475
   2   2.0000     -10.611209      -288.7457
   3   2.0000     -10.475019      -285.0398
   4   2.0000      -1.333179       -36.2776
   5   2.0000      -1.232618       -33.5412
   6   2.0000      -1.072675       -29.1890
   7   2.0000      -0.951684       -25.8966
   8   2.0000      -0.880955       -23.9720
   9   2.0000      -0.877372       -23.8745
  10   2.0000      -0.801309       -21.8047
  11   2.0000      -0.769421       -20.9370
  12   2.0000      -0.718124       -19.5411
  13   2.0000      -0.703949       -19.1554
  14   2.0000      -0.673348       -18.3227
  15   2.0000      -0.595498       -16.2043
  16   0.0000      -0.141942        -3.8624
  17   0.0000      -0.097386        -2.6500
  18   0.0000      -0.054767        -1.4903
  19   0.0000      -0.053946        -1.4679
  20   0.0000      -0.030384        -0.8268

MULLIKEN ATOMIC CHARGES
-----------------------
   0 C :   -1.137335
   1 C :    0.830734
   2 N :   -0.409544
   3 N :   -0.396000
   4 H :    0.250489
   5 H :    0.263263
   6 H :    0.266445
   7 H :    0.236625
   8 H :    0.356541
   9 H :    0.367197
  10 H :    0.371585
Sum of atomic charges:    1.0000000

LOEWDIN ATOMIC CHARGES
----------------------
   0 C :    0.035637
   1 C :   -0.379056
   2 N :    0.214131
   3 N :    0.216930
   4 H :    0.150587
   5 H :    0.150865
   6 H :    0.154988
   7 H :    0.150478
   8 H :    0.092458
   9 H :    0.108219
  10 H :    0.104762

  Mayer bond orders larger than 0.100000
B(  0-C ,  1-C ) :   0.7229 B(  0-C ,  8-H ) :   0.8854 B(  0-C ,  9-H ) :   0.8732
B(  0-C , 10-H ) :   0.9251 B(  1-C ,  2-N ) :   1.2599 B(  1-C ,  3-N ) :   1.2533
B(  2-N ,  6-H ) :   0.9343 B(  2-N ,  7-H ) :   0.9884 B(  3-N ,  4-H ) :   0.9675
B(  3-N ,  5-H ) :   0.9274

Dispersion correction           -0.001674059
FINAL SINGLE POINT ENERGY      -189.733918778530

DIPOLE MOMENT
-------------
                                X             Y             Z
Electronic contribution:     -0.94868       1.14037       1.60136
Nuclear contribution   :      0.47466      -0.79212      -1.71537
                        -----------------------------------------
Total Dipole Moment    :     -0.47402       0.34825      -0.11401
                        -----------------------------------------
Magnitude (a.u.)       :      0.59915
Magnitude (Debye)      :      1.52291

Rotational constants in cm-1:     0.335502     0.299428     0.163704
Rotational constants in MHz : 10058.111638  8976.630214  4907.722182

                             ****ORCA TERMINATED NORMALLY****
TOTAL RUN TIME: 0 days 0 hours 0 minutes 11 seconds 476 msec
