                         Program Version 5.0.0 -  RELEASE  -
|  1> !wB97X-D3 RIJCOSX def2-TZVPD def2/J TightSCF xyzfile
|  2>
|  3> *xyzfile 0 1 B.xyz
|  4>
|  5> %MaxCore 64000
|  6>
|  7> %pal nprocs 18
|  8> end
|  9>
| 10> %scf
| 11>   MaxIter 150
| 12> end
| 13>
| 14>
| 15>                          ****END OF INPUT****

CARTESIAN COORDINATES (ANGSTROEM)
---------------------------------
  C      4.602954   -2.440100    2.634780
  C     -0.914947    0.615112    2.505538
  C     -0.059146    1.503524    3.410578
  H      0.365364    2.344315    2.861161
  H     -0.692261    1.920207    4.198985
  C      1.083027    0.749640    4.085705
  C      3.860851   -1.591565    3.622893
  N      2.756502   -2.046159    4.166333
  N      4.254325   -0.362905    3.860455
  H      3.565256    0.310994    4.168983
  H      5.054292   -0.016059    3.337838
  H      2.439696   -2.973894    3.897395
  H      2.066869   -1.412532    4.549813
  O      2.228167    1.263475    4.019826
  O      0.810034   -0.345411    4.636269
  C      3.744685   -2.580557    1.361882
  C      0.772139    0.636882    0.562129
  C     -0.130740   -0.193985    1.470763
  H     -0.840563   -0.760165    0.856377
  H      0.466691   -0.938942    2.006959
  H     -1.647961    1.245963    1.991076
  H     -1.478180   -0.081046    3.130424
  C      3.203721   -1.256004    0.826211
  H      2.898939   -3.239289    1.583074
  H      4.334962   -3.095523    0.600188
  C      2.107815   -1.442385   -0.216865
  H      2.786775   -0.672760    1.650711
  H      4.021008   -0.652993    0.414046
  C      1.390662   -0.145912   -0.602422
  H      1.372179   -2.152184    0.176151
  H      2.523302   -1.906787   -1.117115
  H      1.561361    1.100094    1.161831
  H      0.195516    1.468325    0.142758
  H      0.602893   -0.398214   -1.319716
  H      2.087247    0.508272   -1.137335
  H      5.561557   -1.971347    2.407084
  H      4.810498   -3.422552    3.063099

 Total Charge           Charge          ....    0
 Multiplicity           Mult            ....    1
 Number of Electrons    NEL             ....  118
 Basis Dimension        Dim             ....  759

ORBITAL ENERGIES
----------------

  NO   OCC          E(Eh)            E(eV)
   0   2.0000     -19.151929      -521.1505
   1   2.0000     -19.149883      -521.0948
   2   2.0000     -14.463479      -393.5713
   3   2.0000     -14.463267      -393.5655
   4   2.0000     -10.415976      -283.4331
   5   2.0000     -10.338822      -281.3336
   6   2.0000     -10.327763      -281.0327
   7   2.0000     -10.308702      -280.5140
   8   2.0000     -10.284391      -279.8525
   9   2.0000     -10.275388      -279.6075
  10   2.0000     -10.267313      -279.3878
  11   2.0000     -10.256521      -279.0941
  12   2.0000     -10.253300      -279.0065
  13   2.0000     -10.249220      -278.8954
  14   2.0000     -10.240144      -278.6485
  15   2.0000      -1.139713       -31.0132
  16   2.0000      -1.123794       -30.5800
  17   2.0000      -1.041290       -28.3349
  18   2.0000      -1.024958       -27.8905
  19   2.0000      -0.956585       -26.0300
  20   2.0000      -0.921720       -25.0813
  21   2.0000      -0.890894       -24.2425
  22   2.0000      -0.849752       -23.1229
  23   2.0000      -0.810210       -22.0469
  24   2.0000      -0.770618       -20.9696
  25   2.0000      -0.753175       -20.4949
  26   2.0000      -0.729234       -19.8435
  27   2.0000      -0.695277       -18.9195
  28   2.0000      -0.684537       -18.6272
  29   2.0000      -0.676019       -18.3954
  30   2.0000      -0.654243       -17.8029
  31   2.0000      -0.616563       -16.7775
  32   2.0000      -0.607322       -16.5261
  33   2.0000      -0.587586       -15.9890
  34   2.0000      -0.578475       -15.7411
  35   2.0000      -0.565720       -15.3940
  36   2.0000      -0.558148       -15.1880
  37   2.0000      -0.543079       -14.7779
  38   2.0000      -0.532258       -14.4835
  39   2.0000      -0.518974       -14.1220
  40   2.0000      -0.513300       -13.9676
  41   2.0000      -0.504004       -13.7146
  42   2.0000      -0.499823       -13.6009
  43   2.0000      -0.493846       -13.4382
  44   2.0000      -0.471855       -12.8398
  45   2.0000      -0.468434       -12.7467
  46   2.0000      -0.462261       -12.5788
  47   2.0000      -0.457138       -12.4394
  48   2.0000      -0.445557       -12.1242
  49   2.0000      -0.428202       -11.6520
  50   2.0000      -0.424482       -11.5508
  51   2.0000      -0.416255       -11.3269
  52   2.0000      -0.401045       -10.9130
  53   2.0000      -0.395806       -10.7704
  54   2.0000      -0.393459       -10.7066
  55   2.0000      -0.386250       -10.5104
  56   2.0000      -0.329185        -8.9576
  57   2.0000      -0.317982        -8.6527
  58   2.0000      -0.315207        -8.5772
  59   0.0000       0.039044         1.0624
  60   0.0000       0.053473         1.4551
  61   0.0000       0.063063         1.7160
  62   0.0000       0.071534         1.9465
  63   0.0000       0.078318         2.1311

MULLIKEN ATOMIC CHARGES
-----------------------
   0 C :   -0.637292
   1 C :   -0.643090
   2 C :   -0.475456
   3 H :    0.274481
   4 H :    0.300675
   5 C :    0.645490
   6 C :    0.205864
   7 N :   -0.233695
   8 N :   -0.254972
   9 H :    0.324979
  10 H :    0.243687
  11 H :    0.246245
  12 H :    0.295444
  13 O :   -0.878396
  14 O :   -0.908074
  15 C :   -0.666237
  16 C :   -0.330118
  17 C :   -0.484457
  18 H :    0.389517
  19 H :    0.136286
  20 H :    0.276585
  21 H :    0.294238
  22 C :    0.381943
  23 H :    0.258911
  24 H :    0.324370
  25 C :   -0.551345
  26 H :   -0.417329
  27 H :    0.249480
  28 C :   -0.858994
  29 H :    0.302345
  30 H :    0.339176
  31 H :    0.284318
  32 H :    0.346894
  33 H :    0.312922
  34 H :    0.297866
  35 H :    0.320511
  36 H :    0.287226
Sum of atomic charges:    0.0000000

LOEWDIN ATOMIC CHARGES
----------------------
   0 C :   -0.111838
   1 C :   -0.205195
   2 C :   -0.126994
   3 H :    0.107244
   4 H :    0.118491
   5 C :   -0.652277
   6 C :   -0.388986
   7 N :    0.230151
   8 N :    0.215932
   9 H :    0.055293
  10 H :    0.137921
  11 H :    0.139747
  12 H :    0.054536
  13 O :   -0.057143
  14 O :   -0.053580
  15 C :   -0.188219
  16 C :   -0.213658
  17 C :   -0.214171
  18 H :    0.117208
  19 H :    0.099010
  20 H :    0.109213
  21 H :    0.109099
  22 C :   -0.211774
  23 H :    0.110419
  24 H :    0.119216
  25 C :   -0.217097
  26 H :    0.089570
  27 H :    0.129261
  28 C :   -0.209694
  29 H :    0.108530
  30 H :    0.114278
  31 H :    0.104869
  32 H :    0.117690
  33 H :    0.109673
  34 H :    0.109768
  35 H :    0.119257
  36 H :    0.124252

  Mayer bond orders larger than 0.100000
B(  0-C ,  6-C ) :   0.7953 B(  0-C , 15-C ) :   0.7901 B(  0-C , 35-H ) :   0.8998
B(  0-C , 36-H ) :   0.9961 B(  1-C ,  2-C ) :   0.8905 B(  1-C ,  5-C ) :   0.1376
B(  1-C , 16-C ) :   0.2631 B(  1-C , 17-C ) :   1.0162 B(  1-C , 20-H ) :   0.9344
B(  1-C , 21-H ) :   0.8910 B(  2-C ,  3-H ) :   0.9768 B(  2-C ,  4-H ) :   0.8443
B(  2-C ,  5-C ) :   1.0147 B(  2-C , 16-C ) :   0.1708 B(  5-C , 13-O ) :   1.2592
B(  5-C , 14-O ) :   1.2459 B(  5-C , 17-C ) :   0.1104 B(  6-C ,  7-N ) :   1.3788
B(  6-C ,  8-N ) :   1.4750 B(  7-N , 11-H ) :   0.9084 B(  7-N , 12-H ) :   0.7518
B(  7-N , 14-O ) :  -0.1025 B(  8-N ,  9-H ) :   0.7717 B(  8-N , 10-H ) :   0.8989
B( 12-H , 14-O ) :   0.1085 B( 13-O , 14-O ) :   0.1356 B( 15-C , 22-C ) :   0.5222
B( 15-C , 23-H ) :   0.9224 B( 15-C , 24-H ) :   0.9258 B( 15-C , 25-C ) :   0.5184
B( 15-C , 26-H ) :   0.1306 B( 15-C , 27-H ) :  -0.1504 B( 16-C , 17-C ) :   0.4330
B( 16-C , 19-H ) :  -0.1575 B( 16-C , 26-H ) :   0.1062 B( 16-C , 28-C ) :   0.8257
B( 16-C , 31-H ) :   1.0486 B( 16-C , 32-H ) :   0.7956 B( 17-C , 18-H ) :   0.7342
B( 17-C , 19-H ) :   1.2457 B( 17-C , 25-C ) :   0.1576 B( 17-C , 28-C ) :   0.3617
B( 17-C , 31-H ) :  -0.1058 B( 22-C , 25-C ) :   0.4357 B( 22-C , 26-H ) :   1.4369
B( 22-C , 27-H ) :   0.8809 B( 22-C , 28-C ) :   0.3140 B( 25-C , 27-H ) :  -0.1198
B( 25-C , 28-C ) :   0.9496 B( 25-C , 29-H ) :   0.9142 B( 25-C , 30-H ) :   0.8783
B( 28-C , 33-H ) :   0.9135 B( 28-C , 34-H ) :   0.9403

Dispersion correction           -0.019998660
FINAL SINGLE POINT ENERGY      -692.513697010600

DIPOLE MOMENT
-------------
                                X             Y             Z
Electronic contribution:      3.45615       1.59156      12.98106
Nuclear contribution   :     -1.50655      -3.48027     -14.35034
                        -----------------------------------------
Total Dipole Moment    :      1.94960      -1.88872      -1.36928
                        -----------------------------------------
Magnitude (a.u.)       :      3.04025
Magnitude (Debye)      :      7.72770

Rotational constants in cm-1:     0.021781     0.017296     0.011403
Rotational constants in MHz :   652.971749   518.510612   341.853154

                             ****ORCA TERMINATED NORMALLY****
TOTAL RUN TIME: 0 days 0 hours 4 minutes 38 seconds 389 msec
