                         Program Version 5.0.0 -  RELEASE  -
|  1> !wB97X-D3 RIJCOSX def2-TZVPD def2/J TightSCF
|  2> *xyz 0 1
|  3> C         -0.05915        1.50352        3.41058
|  4> C          1.08303        0.74964        4.08571
|  5> F          2.22817        1.26348        4.01983
|  6> O          0.81003       -0.34541        4.63627
|  7> H          0.31461        2.41205        2.98658
|  8> H         -0.81316        1.73160        4.13470
|  9> H         -0.47977        0.89552        2.63708
| 10> *
| 11>
| 12> %MaxCore 64000
| 13>
| 14> %pal nprocs 18
| 15> end
| 16>
| 17> %scf
| 18>   MaxIter 150
| 19> end
| 20>
| 21>
| 22>                          ****END OF INPUT****

CARTESIAN COORDINATES (ANGSTROEM)
---------------------------------
  C     -0.059150    1.503520    3.410580
  C      1.083030    0.749640    4.085710
  F      2.228170    1.263480    4.019830
  O      0.810030   -0.345410    4.636270
  H      0.314610    2.412050    2.986580
  H     -0.813160    1.731600    4.134700
  H     -0.479770    0.895520    2.637080

 Total Charge           Charge          ....    0
 Multiplicity           Mult            ....    1
 Number of Electrons    NEL             ....   32
 Basis Dimension        Dim             ....  181

ORBITAL ENERGIES
----------------

  NO   OCC          E(Eh)            E(eV)
   0   2.0000     -24.858124      -676.4240
   1   2.0000     -19.237914      -523.4903
   2   2.0000     -10.460983      -284.6578
   3   2.0000     -10.300226      -280.2834
   4   2.0000      -1.437909       -39.1275
   5   2.0000      -1.150585       -31.3090
   6   2.0000      -0.890003       -24.2182
   7   2.0000      -0.768848       -20.9214
   8   2.0000      -0.654464       -17.8089
   9   2.0000      -0.651113       -17.7177
  10   2.0000      -0.610283       -16.6067
  11   2.0000      -0.546306       -14.8657
  12   2.0000      -0.532913       -14.5013
  13   2.0000      -0.501473       -13.6458
  14   2.0000      -0.449634       -12.2352
  15   2.0000      -0.392913       -10.6917
  16   0.0000       0.053566         1.4576
  17   0.0000       0.061181         1.6648
  18   0.0000       0.093474         2.5436
  19   0.0000       0.107241         2.9182
  20   0.0000       0.117455         3.1961

MULLIKEN ATOMIC CHARGES
-----------------------
   0 C :   -0.778408
   1 C :    0.701606
   2 F :   -0.212614
   3 O :   -0.552452
   4 H :    0.304819
   5 H :    0.269753
   6 H :    0.267296
Sum of atomic charges:   -0.0000000

LOEWDIN ATOMIC CHARGES
----------------------
   0 C :    0.008390
   1 C :   -0.507442
   2 F :    0.196807
   3 O :    0.063613
   4 H :    0.070647
   5 H :    0.083790
   6 H :    0.084194

  Mayer bond orders larger than 0.100000
B(  0-C ,  1-C ) :   0.8860 B(  0-C ,  4-H ) :   0.9354 B(  0-C ,  5-H ) :   0.9288
B(  0-C ,  6-H ) :   0.9256 B(  1-C ,  2-F ) :   0.9966 B(  1-C ,  3-O ) :   1.7056

Dispersion correction           -0.000908877
FINAL SINGLE POINT ENERGY      -253.121848106133

DIPOLE MOMENT
-------------
                                X             Y             Z
Electronic contribution:      4.68685      -1.02223       1.56653
Nuclear contribution   :     -5.01294       1.99942      -2.18092
                        -----------------------------------------
Total Dipole Moment    :     -0.32609       0.97720      -0.61439
                        -----------------------------------------
Magnitude (a.u.)       :      1.19947
Magnitude (Debye)      :      3.04880

Rotational constants in cm-1:     0.368501     0.321908     0.177384
Rotational constants in MHz : 11047.396090  9650.552559  5317.833075

                             ****ORCA TERMINATED NORMALLY****
TOTAL RUN TIME: 0 days 0 hours 0 minutes 11 seconds 463 msec
