                         Program Version 5.0.0 -  RELEASE  -
|  1> !wB97X-D3 RIJCOSX def2-TZVPD def2/J TightSCF
|  2> *xyz 0 1
|  3> C          4.60295       -2.44010        2.63478
|  4> C          3.86085       -1.59157        3.62289
|  5> C          2.75650       -2.04616        4.16633
|  6> N          4.25433       -0.36291        3.86046
|  7> H          3.56526        0.31099        4.16898
|  8> H          5.05429       -0.01606        3.33784
|  9> H          2.43970       -2.97389        3.89740
| 10> H          2.06687       -1.41253        4.54981
| 11> H          5.47239       -1.91604        2.29664
| 12> H          3.96816       -2.65362        1.80030
| 13> H          4.89801       -3.35632        3.10209
| 14> *
| 15>
| 16> %MaxCore 64000
| 17>
| 18> %pal nprocs 18
| 19> end
| 20>
| 21> %scf
| 22>   MaxIter 150
| 23> end
| 24>
| 25>
| 26>                          ****END OF INPUT****

CARTESIAN COORDINATES (ANGSTROEM)
---------------------------------
  C      4.602950   -2.440100    2.634780
  C      3.860850   -1.591570    3.622890
  C      2.756500   -2.046160    4.166330
  N      4.254330   -0.362910    3.860460
  H      3.565260    0.310990    4.168980
  H      5.054290   -0.016060    3.337840
  H      2.439700   -2.973890    3.897400
  H      2.066870   -1.412530    4.549810
  H      5.472390   -1.916040    2.296640
  H      3.968160   -2.653620    1.800300
  H      4.898010   -3.356320    3.102090

 Total Charge           Charge          ....    0
 Multiplicity           Mult            ....    1
 Number of Electrons    NEL             ....   32
 Basis Dimension        Dim             ....  211

ORBITAL ENERGIES
----------------

  NO   OCC          E(Eh)            E(eV)
   0   2.0000     -14.422405      -392.4536
   1   2.0000     -10.297063      -280.1973
   2   2.0000     -10.265545      -279.3397
   3   2.0000     -10.200178      -277.5609
   4   2.0000      -1.051223       -28.6052
   5   2.0000      -0.874382       -23.7932
   6   2.0000      -0.804486       -21.8912
   7   2.0000      -0.676122       -18.3982
   8   2.0000      -0.628613       -17.1054
   9   2.0000      -0.575089       -15.6490
  10   2.0000      -0.534352       -14.5405
  11   2.0000      -0.496805       -13.5187
  12   2.0000      -0.484837       -13.1931
  13   2.0000      -0.457821       -12.4579
  14   2.0000      -0.427135       -11.6229
  15   2.0000      -0.278456        -7.5772
  16   0.0000       0.068109         1.8533
  17   0.0000       0.097449         2.6517
  18   0.0000       0.100913         2.7460
  19   0.0000       0.109289         2.9739
  20   0.0000       0.133914         3.6440

MULLIKEN ATOMIC CHARGES
-----------------------
   0 C :   -1.079336
   1 C :    0.939478
   2 C :   -1.438568
   3 N :   -0.451187
   4 H :    0.203870
   5 H :    0.210582
   6 H :    0.345659
   7 H :    0.344002
   8 H :    0.349095
   9 H :    0.275952
  10 H :    0.300453
Sum of atomic charges:   -0.0000000

LOEWDIN ATOMIC CHARGES
----------------------
   0 C :   -0.037801
   1 C :   -0.533048
   2 C :   -0.005717
   3 N :    0.084598
   4 H :    0.113734
   5 H :    0.105194
   6 H :    0.026528
   7 H :    0.022340
   8 H :    0.064139
   9 H :    0.080661
  10 H :    0.079372

  Mayer bond orders larger than 0.100000
B(  0-C ,  1-C ) :   0.6178 B(  0-C ,  8-H ) :   0.9311 B(  0-C ,  9-H ) :   0.9425
B(  0-C , 10-H ) :   0.9716 B(  1-C ,  2-C ) :   1.1729 B(  1-C ,  3-N ) :   1.0844
B(  2-C ,  3-N ) :   0.1216 B(  2-C ,  6-H ) :   0.9491 B(  2-C ,  7-H ) :   0.9506
B(  3-N ,  4-H ) :   0.9703 B(  3-N ,  5-H ) :   0.9778

Dispersion correction           -0.001671841
FINAL SINGLE POINT ENERGY      -173.262043323768

DIPOLE MOMENT
-------------
                                X             Y             Z
Electronic contribution:      0.13352       1.45021       1.05466
Nuclear contribution   :      0.22927      -0.89318      -1.58153
                        -----------------------------------------
Total Dipole Moment    :      0.36279       0.55702      -0.52686
                        -----------------------------------------
Magnitude (a.u.)       :      0.84822
Magnitude (Debye)      :      2.15600

Rotational constants in cm-1:     0.356805     0.302813     0.169682
Rotational constants in MHz : 10696.748191  9078.116910  5086.926242

                             ****ORCA TERMINATED NORMALLY****
TOTAL RUN TIME: 0 days 0 hours 0 minutes 15 seconds 300 msec
