                         Program Version 5.0.0 -  RELEASE  -
|  1> !wB97X-D3 RIJCOSX def2-TZVPD def2/J TightSCF
|  2> *xyz 0 1
|  3> C         -0.05915        1.50352        3.41058
|  4> C          1.08303        0.74964        4.08571
|  5> O          2.22817        1.26348        4.01983
|  6> F          0.81003       -0.34541        4.63627
|  7> H          0.31461        2.41205        2.98658
|  8> H         -0.81316        1.73160        4.13470
|  9> H         -0.47977        0.89552        2.63708
| 10> *
| 11>
| 12> %MaxCore 64000
| 13>
| 14> %pal nprocs 18
| 15> end
| 16>
| 17> %scf
| 18>   MaxIter 150
| 19> end
| 20>
| 21>
| 22>                          ****END OF INPUT****

CARTESIAN COORDINATES (ANGSTROEM)
---------------------------------
  C     -0.059150    1.503520    3.410580
  C      1.083030    0.749640    4.085710
  O      2.228170    1.263480    4.019830
  F      0.810030   -0.345410    4.636270
  H      0.314610    2.412050    2.986580
  H     -0.813160    1.731600    4.134700
  H     -0.479770    0.895520    2.637080

 Total Charge           Charge          ....    0
 Multiplicity           Mult            ....    1
 Number of Electrons    NEL             ....   32
 Basis Dimension        Dim             ....  181

ORBITAL ENERGIES
----------------

  NO   OCC          E(Eh)            E(eV)
   0   2.0000     -24.858736      -676.4406
   1   2.0000     -19.237915      -523.4903
   2   2.0000     -10.460804      -284.6530
   3   2.0000     -10.300027      -280.2780
   4   2.0000      -1.438758       -39.1506
   5   2.0000      -1.150076       -31.2952
   6   2.0000      -0.889852       -24.2141
   7   2.0000      -0.769242       -20.9321
   8   2.0000      -0.655678       -17.8419
   9   2.0000      -0.651104       -17.7174
  10   2.0000      -0.609695       -16.5906
  11   2.0000      -0.545469       -14.8430
  12   2.0000      -0.533529       -14.5180
  13   2.0000      -0.501078       -13.6350
  14   2.0000      -0.451782       -12.2936
  15   2.0000      -0.391059       -10.6412
  16   0.0000       0.056820         1.5462
  17   0.0000       0.061145         1.6639
  18   0.0000       0.093472         2.5435
  19   0.0000       0.107071         2.9135
  20   0.0000       0.115844         3.1523

MULLIKEN ATOMIC CHARGES
-----------------------
   0 C :   -0.803600
   1 C :    0.722765
   2 O :   -0.549083
   3 F :   -0.220937
   4 H :    0.269705
   5 H :    0.292421
   6 H :    0.288730
Sum of atomic charges:   -0.0000000

LOEWDIN ATOMIC CHARGES
----------------------
   0 C :    0.007840
   1 C :   -0.508746
   2 O :    0.063094
   3 F :    0.198882
   4 H :    0.080716
   5 H :    0.078714
   6 H :    0.079499

  Mayer bond orders larger than 0.100000
B(  0-C ,  1-C ) :   0.8775 B(  0-C ,  4-H ) :   0.9801 B(  0-C ,  5-H ) :   0.9141
B(  0-C ,  6-H ) :   0.9115 B(  1-C ,  2-O ) :   1.6958 B(  1-C ,  3-F ) :   0.9807

Dispersion correction           -0.000897369
FINAL SINGLE POINT ENERGY      -253.121794572703

DIPOLE MOMENT
-------------
                                X             Y             Z
Electronic contribution:      2.36387      -3.65724       2.57581
Nuclear contribution   :     -3.54758       3.66189      -2.81789
                        -----------------------------------------
Total Dipole Moment    :     -1.18371       0.00464      -0.24208
                        -----------------------------------------
Magnitude (a.u.)       :      1.20822
Magnitude (Debye)      :      3.07104

Rotational constants in cm-1:     0.369278     0.321254     0.177365
Rotational constants in MHz : 11070.686557  9630.951649  5317.254673

                             ****ORCA TERMINATED NORMALLY****
TOTAL RUN TIME: 0 days 0 hours 0 minutes 9 seconds 157 msec
