                         Program Version 5.0.0 -  RELEASE  -
|  1> !wB97X-D3 RIJCOSX def2-TZVPD def2/J TightSCF
|  2> *xyz 0 1
|  3> C          4.60295       -2.44010        2.63478
|  4> C          3.86085       -1.59157        3.62289
|  5> N          2.75650       -2.04616        4.16633
|  6> C          4.25433       -0.36291        3.86046
|  7> H          3.56526        0.31099        4.16898
|  8> H          5.05429       -0.01606        3.33784
|  9> H          2.43970       -2.97389        3.89740
| 10> H          2.06687       -1.41253        4.54981
| 11> H          5.47239       -1.91604        2.29664
| 12> H          3.96816       -2.65362        1.80030
| 13> H          4.89801       -3.35632        3.10209
| 14> *
| 15>
| 16> %MaxCore 64000
| 17>
| 18> %pal nprocs 18
| 19> end
| 20>
| 21> %scf
| 22>   MaxIter 150
| 23> end
| 24>
| 25>
| 26>                          ****END OF INPUT****

CARTESIAN COORDINATES (ANGSTROEM)
---------------------------------
  C      4.602950   -2.440100    2.634780
  C      3.860850   -1.591570    3.622890
  N      2.756500   -2.046160    4.166330
  C      4.254330   -0.362910    3.860460
  H      3.565260    0.310990    4.168980
  H      5.054290   -0.016060    3.337840
  H      2.439700   -2.973890    3.897400
  H      2.066870   -1.412530    4.549810
  H      5.472390   -1.916040    2.296640
  H      3.968160   -2.653620    1.800300
  H      4.898010   -3.356320    3.102090

 Total Charge           Charge          ....    0
 Multiplicity           Mult            ....    1
 Number of Electrons    NEL             ....   32
 Basis Dimension        Dim             ....  211

ORBITAL ENERGIES
----------------

  NO   OCC          E(Eh)            E(eV)
   0   2.0000     -14.422441      -392.4546
   1   2.0000     -10.298395      -280.2336
   2   2.0000     -10.265380      -279.3352
   3   2.0000     -10.202264      -277.6177
   4   2.0000      -1.050475       -28.5849
   5   2.0000      -0.875027       -23.8107
   6   2.0000      -0.805625       -21.9222
   7   2.0000      -0.679137       -18.4803
   8   2.0000      -0.627117       -17.0647
   9   2.0000      -0.574452       -15.6316
  10   2.0000      -0.536149       -14.5894
  11   2.0000      -0.496007       -13.4970
  12   2.0000      -0.486637       -13.2421
  13   2.0000      -0.456217       -12.4143
  14   2.0000      -0.425220       -11.5708
  15   2.0000      -0.281201        -7.6519
  16   0.0000       0.067850         1.8463
  17   0.0000       0.097521         2.6537
  18   0.0000       0.102200         2.7810
  19   0.0000       0.111164         3.0249
  20   0.0000       0.132447         3.6041

MULLIKEN ATOMIC CHARGES
-----------------------
   0 C :   -1.194042
   1 C :    0.956021
   2 N :   -0.480958
   3 C :   -1.302485
   4 H :    0.338475
   5 H :    0.313616
   6 H :    0.210587
   7 H :    0.186074
   8 H :    0.290080
   9 H :    0.348258
  10 H :    0.334374
Sum of atomic charges:   -0.0000000

LOEWDIN ATOMIC CHARGES
----------------------
   0 C :   -0.041279
   1 C :   -0.536151
   2 N :    0.084071
   3 C :    0.000308
   4 H :    0.024128
   5 H :    0.021333
   6 H :    0.109590
   7 H :    0.113686
   8 H :    0.072576
   9 H :    0.078869
  10 H :    0.072870

  Mayer bond orders larger than 0.100000
B(  0-C ,  1-C ) :   0.5493 B(  0-C ,  8-H ) :   0.9642 B(  0-C ,  9-H ) :   0.9151
B(  0-C , 10-H ) :   0.9456 B(  1-C ,  2-N ) :   1.1025 B(  1-C ,  3-C ) :   1.2662
B(  2-N ,  3-C ) :   0.1333 B(  2-N ,  6-H ) :   0.9838 B(  2-N ,  7-H ) :   0.9991
B(  3-C ,  4-H ) :   0.9515 B(  3-C ,  5-H ) :   0.9785

Dispersion correction           -0.001684059
FINAL SINGLE POINT ENERGY      -173.262926315943

DIPOLE MOMENT
-------------
                                X             Y             Z
Electronic contribution:     -1.18739      -0.02120       1.35528
Nuclear contribution   :      0.56519      -0.51568      -1.65012
                        -----------------------------------------
Total Dipole Moment    :     -0.62220      -0.53689      -0.29485
                        -----------------------------------------
Magnitude (a.u.)       :      0.87311
Magnitude (Debye)      :      2.21927

Rotational constants in cm-1:     0.356673     0.303029     0.169717
Rotational constants in MHz : 10692.789749  9084.577259  5087.998414

                             ****ORCA TERMINATED NORMALLY****
TOTAL RUN TIME: 0 days 0 hours 0 minutes 11 seconds 708 msec
