                         Program Version 5.0.0 -  RELEASE  -
|  1> !wB97X-D3 RIJCOSX def2-TZVPD def2/J TightSCF xyzfile
|  2>
|  3> *xyzfile 0 1 D1.xyz
|  4>
|  5> %MaxCore 64000
|  6>
|  7> %pal nprocs 18
|  8> end
|  9>
| 10> %scf
| 11>   MaxIter 150
| 12> end
| 13>
| 14>
| 15>                          ****END OF INPUT****

CARTESIAN COORDINATES (ANGSTROEM)
---------------------------------
  C      4.602954   -2.440100    2.634780
  C     -0.914947    0.615112    2.505538
  C     -0.059146    1.503524    3.410578
  H      0.365364    2.344315    2.861161
  H     -0.692261    1.920207    4.198985
  C      1.083027    0.749640    4.085705
  C      3.860851   -1.591565    3.622893
  C      2.756502   -2.046159    4.166333
  N      4.254325   -0.362905    3.860455
  H      3.565256    0.310994    4.168983
  H      5.054292   -0.016059    3.337838
  H      2.439696   -2.973894    3.897395
  H      2.066869   -1.412532    4.549813
  F      2.228167    1.263475    4.019826
  O      0.810034   -0.345411    4.636269
  C      3.744685   -2.580557    1.361882
  C      0.772139    0.636882    0.562129
  C     -0.130740   -0.193985    1.470763
  H     -0.840563   -0.760165    0.856377
  H      0.466691   -0.938942    2.006959
  H     -1.647961    1.245963    1.991076
  H     -1.478180   -0.081046    3.130424
  C      3.203721   -1.256004    0.826211
  H      2.898939   -3.239289    1.583074
  H      4.334962   -3.095523    0.600188
  C      2.107815   -1.442385   -0.216865
  H      2.786775   -0.672760    1.650711
  H      4.021008   -0.652993    0.414046
  C      1.390662   -0.145912   -0.602422
  H      1.372179   -2.152184    0.176151
  H      2.523302   -1.906787   -1.117115
  H      1.561361    1.100094    1.161831
  H      0.195516    1.468325    0.142758
  H      0.602893   -0.398214   -1.319716
  H      2.087247    0.508272   -1.137335
  H      5.561557   -1.971347    2.407084
  H      4.810498   -3.422552    3.063099

 Total Charge           Charge          ....    0
 Multiplicity           Mult            ....    1
 Number of Electrons    NEL             ....  118
 Basis Dimension        Dim             ....  759

ORBITAL ENERGIES
----------------

  NO   OCC          E(Eh)            E(eV)
   0   2.0000     -24.881685      -677.0651
   1   2.0000     -19.249166      -523.7964
   2   2.0000     -14.398046      -391.7908
   3   2.0000     -10.471291      -284.9383
   4   2.0000     -10.313385      -280.6415
   5   2.0000     -10.291483      -280.0455
   6   2.0000     -10.275987      -279.6238
   7   2.0000     -10.275691      -279.6158
   8   2.0000     -10.272812      -279.5374
   9   2.0000     -10.270953      -279.4868
  10   2.0000     -10.264567      -279.3131
  11   2.0000     -10.263000      -279.2704
  12   2.0000     -10.262700      -279.2623
  13   2.0000     -10.260680      -279.2073
  14   2.0000     -10.168175      -276.6901
  15   2.0000      -1.464628       -39.8545
  16   2.0000      -1.168960       -31.8090
  17   2.0000      -1.033354       -28.1190
  18   2.0000      -0.949790       -25.8451
  19   2.0000      -0.924160       -25.1477
  20   2.0000      -0.898433       -24.4476
  21   2.0000      -0.860454       -23.4141
  22   2.0000      -0.834630       -22.7114
  23   2.0000      -0.804370       -21.8880
  24   2.0000      -0.789257       -21.4768
  25   2.0000      -0.760098       -20.6833
  26   2.0000      -0.723512       -19.6878
  27   2.0000      -0.700843       -19.0709
  28   2.0000      -0.682241       -18.5647
  29   2.0000      -0.674359       -18.3502
  30   2.0000      -0.661470       -17.9995
  31   2.0000      -0.644793       -17.5457
  32   2.0000      -0.631220       -17.1764
  33   2.0000      -0.600772       -16.3478
  34   2.0000      -0.585818       -15.9409
  35   2.0000      -0.582335       -15.8461
  36   2.0000      -0.572341       -15.5742
  37   2.0000      -0.552969       -15.0470
  38   2.0000      -0.545098       -14.8329
  39   2.0000      -0.527432       -14.3522
  40   2.0000      -0.524193       -14.2640
  41   2.0000      -0.507255       -13.8031
  42   2.0000      -0.502240       -13.6666
  43   2.0000      -0.488114       -13.2823
  44   2.0000      -0.483914       -13.1680
  45   2.0000      -0.469155       -12.7664
  46   2.0000      -0.465295       -12.6613
  47   2.0000      -0.456682       -12.4269
  48   2.0000      -0.447392       -12.1742
  49   2.0000      -0.438680       -11.9371
  50   2.0000      -0.436556       -11.8793
  51   2.0000      -0.428210       -11.6522
  52   2.0000      -0.417576       -11.3628
  53   2.0000      -0.413165       -11.2428
  54   2.0000      -0.404423       -11.0049
  55   2.0000      -0.401488       -10.9250
  56   2.0000      -0.394900       -10.7458
  57   2.0000      -0.369003       -10.0411
  58   2.0000      -0.256909        -6.9909
  59   0.0000       0.036034         0.9805
  60   0.0000       0.059459         1.6180
  61   0.0000       0.072348         1.9687
  62   0.0000       0.074893         2.0379
  63   0.0000       0.078103         2.1253

MULLIKEN ATOMIC CHARGES
-----------------------
   0 C :   -0.844871
   1 C :   -0.656645
   2 C :   -0.562098
   3 H :    0.344840
   4 H :    0.314460
   5 C :    0.725275
   6 C :    0.352709
   7 C :   -1.590756
   8 N :   -0.289422
   9 H :    0.324494
  10 H :    0.260042
  11 H :    0.426225
  12 H :    0.654365
  13 F :   -0.344720
  14 O :   -0.639125
  15 C :   -0.666490
  16 C :   -0.292725
  17 C :   -0.538587
  18 H :    0.400573
  19 H :    0.191456
  20 H :    0.292554
  21 H :    0.326057
  22 C :    0.421871
  23 H :    0.287969
  24 H :    0.322362
  25 C :   -0.543948
  26 H :   -0.479624
  27 H :    0.254874
  28 C :   -0.888458
  29 H :    0.267433
  30 H :    0.353445
  31 H :    0.265133
  32 H :    0.332836
  33 H :    0.307396
  34 H :    0.301857
  35 H :    0.348029
  36 H :    0.261212
Sum of atomic charges:   -0.0000000

LOEWDIN ATOMIC CHARGES
----------------------
   0 C :   -0.141693
   1 C :   -0.192159
   2 C :   -0.099263
   3 H :    0.114350
   4 H :    0.129728
   5 C :   -0.431224
   6 C :   -0.498290
   7 C :    0.025430
   8 N :    0.112181
   9 H :    0.070086
  10 H :    0.111981
  11 H :    0.040514
  12 H :   -0.022259
  13 F :    0.189394
  14 O :    0.076049
  15 C :   -0.195333
  16 C :   -0.217016
  17 C :   -0.207815
  18 H :    0.123577
  19 H :    0.106863
  20 H :    0.117244
  21 H :    0.116194
  22 C :   -0.216018
  23 H :    0.109710
  24 H :    0.110892
  25 C :   -0.217679
  26 H :    0.083230
  27 H :    0.124869
  28 C :   -0.209440
  29 H :    0.109050
  30 H :    0.114624
  31 H :    0.100968
  32 H :    0.116408
  33 H :    0.109680
  34 H :    0.110359
  35 H :    0.107426
  36 H :    0.117385

  Mayer bond orders larger than 0.100000
B(  0-C ,  6-C ) :   0.8151 B(  0-C , 15-C ) :   0.8550 B(  0-C , 22-C ) :   0.1754
B(  0-C , 35-H ) :   0.9075 B(  0-C , 36-H ) :   0.9859 B(  1-C ,  2-C ) :   0.8755
B(  1-C ,  5-C ) :   0.1460 B(  1-C , 16-C ) :   0.2434 B(  1-C , 17-C ) :   0.9902
B(  1-C , 20-H ) :   0.9342 B(  1-C , 21-H ) :   0.8836 B(  2-C ,  3-H ) :   0.9364
B(  2-C ,  4-H ) :   0.8423 B(  2-C ,  5-C ) :   0.9512 B(  2-C , 16-C ) :   0.1897
B(  5-C , 13-F ) :   0.7505 B(  5-C , 14-O ) :   1.6555 B(  5-C , 17-C ) :   0.1147
B(  6-C ,  7-C ) :   1.3155 B(  6-C ,  8-N ) :   1.2357 B(  6-C , 35-H ) :  -0.1003
B(  7-C , 11-H ) :   0.9825 B(  7-C , 12-H ) :   0.6585 B(  8-N ,  9-H ) :   0.7494
B(  8-N , 10-H ) :   0.8340 B( 12-H , 14-O ) :  -0.1907 B( 15-C , 22-C ) :   0.5531
B( 15-C , 23-H ) :   0.8815 B( 15-C , 24-H ) :   0.9115 B( 15-C , 25-C ) :   0.5490
B( 15-C , 26-H ) :   0.1609 B( 15-C , 27-H ) :  -0.1598 B( 16-C , 17-C ) :   0.4065
B( 16-C , 19-H ) :  -0.1619 B( 16-C , 22-C ) :   0.1283 B( 16-C , 28-C ) :   0.9002
B( 16-C , 31-H ) :   1.0472 B( 16-C , 32-H ) :   0.8073 B( 17-C , 18-H ) :   0.7203
B( 17-C , 19-H ) :   1.2810 B( 17-C , 25-C ) :   0.1588 B( 17-C , 28-C ) :   0.3579
B( 17-C , 29-H ) :   0.1050 B( 17-C , 31-H ) :  -0.1255 B( 22-C , 25-C ) :   0.4000
B( 22-C , 26-H ) :   1.5031 B( 22-C , 27-H ) :   0.8781 B( 22-C , 28-C ) :   0.2911
B( 23-H , 25-C ) :   0.1218 B( 25-C , 27-H ) :  -0.1228 B( 25-C , 28-C ) :   0.9292
B( 25-C , 29-H ) :   0.9434 B( 25-C , 30-H ) :   0.8637 B( 28-C , 33-H ) :   0.9176
B( 28-C , 34-H ) :   0.9399

Dispersion correction           -0.019722795
FINAL SINGLE POINT ENERGY      -700.379854356206

DIPOLE MOMENT
-------------
                                X             Y             Z
Electronic contribution:      1.17959       7.39130      14.93994
Nuclear contribution   :     -1.66567      -5.90236     -15.95042
                        -----------------------------------------
Total Dipole Moment    :     -0.48608       1.48893      -1.01048
                        -----------------------------------------
Magnitude (a.u.)       :      1.86394
Magnitude (Debye)      :      4.73775

Rotational constants in cm-1:     0.021600     0.017292     0.011381
Rotational constants in MHz :   647.565282   518.410024   341.193038

                             ****ORCA TERMINATED NORMALLY****
TOTAL RUN TIME: 0 days 0 hours 3 minutes 34 seconds 752 msec
