                         Program Version 5.0.0 -  RELEASE  -
|  1> !LC-BLYP RIJCOSX def2-SVP def2/J TightSCF
|  2> *xyz -1 1
|  3> C          4.93020       -7.37532       -2.64962
|  4> C          3.84189       -6.95161       -3.63283
|  5> H          3.45814       -5.95442       -3.40712
|  6> H          2.98848       -7.64361       -3.56708
|  7> S          4.31812       -6.91593       -5.36869
|  8> O          5.40615       -5.89948       -5.51297
|  9> O          3.11191       -6.44508       -6.04379
| 10> O          4.76340       -8.23942       -5.69863
| 11> H          5.27901       -8.35440       -2.90385
| 12> H          4.53000       -7.38577       -1.65734
| 13> H          5.74437       -6.68276       -2.69856
| 14> *
| 15>
| 16> %MaxCore 64000
| 17>
| 18> %pal nprocs 4
| 19> end
| 20>
| 21> %scf
| 22>   MaxIter 150
| 23> end
| 24>
| 25>
| 26>                          ****END OF INPUT****

CARTESIAN COORDINATES (ANGSTROEM)
---------------------------------
  C      4.930200   -7.375320   -2.649620
  C      3.841890   -6.951610   -3.632830
  H      3.458140   -5.954420   -3.407120
  H      2.988480   -7.643610   -3.567080
  S      4.318120   -6.915930   -5.368690
  O      5.406150   -5.899480   -5.512970
  O      3.111910   -6.445080   -6.043790
  O      4.763400   -8.239420   -5.698630
  H      5.279010   -8.354400   -2.903850
  H      4.530000   -7.385770   -1.657340
  H      5.744370   -6.682760   -2.698560

 Total Charge           Charge          ....   -1
 Multiplicity           Mult            ....    1
 Number of Electrons    NEL             ....   58
 Basis Dimension        Dim             ....  113

ORBITAL ENERGIES
----------------

  NO   OCC          E(Eh)            E(eV)
   0   2.0000     -88.262506     -2401.7449
   1   2.0000     -18.699469      -508.8384
   2   2.0000     -18.688221      -508.5323
   3   2.0000     -18.679314      -508.2900
   4   2.0000      -9.937146      -270.4035
   5   2.0000      -9.932413      -270.2747
   6   2.0000      -7.818415      -212.7499
   7   2.0000      -5.852387      -159.2515
   8   2.0000      -5.852050      -159.2424
   9   2.0000      -5.851971      -159.2402
  10   2.0000      -0.992214       -26.9995
  11   2.0000      -0.847696       -23.0670
  12   2.0000      -0.816335       -22.2136
  13   2.0000      -0.727553       -19.7977
  14   2.0000      -0.599739       -16.3197
  15   2.0000      -0.465709       -12.6726
  16   2.0000      -0.414200       -11.2710
  17   2.0000      -0.395871       -10.7722
  18   2.0000      -0.362330        -9.8595
  19   2.0000      -0.338089        -9.1999
  20   2.0000      -0.334953        -9.1145
  21   2.0000      -0.313369        -8.5272
  22   2.0000      -0.296184        -8.0596
  23   2.0000      -0.215546        -5.8653
  24   2.0000      -0.213124        -5.7994
  25   2.0000      -0.180922        -4.9232
  26   2.0000      -0.172394        -4.6911
  27   2.0000      -0.161147        -4.3850
  28   2.0000      -0.122739        -3.3399
  29   0.0000       0.271602         7.3907
  30   0.0000       0.325631         8.8609
  31   0.0000       0.334110         9.0916
  32   0.0000       0.340591         9.2679
  33   0.0000       0.368441        10.0258

MULLIKEN ATOMIC CHARGES
-----------------------
   0 C :    0.038215
   1 C :   -0.097871
   2 H :   -0.003464
   3 H :   -0.007103
   4 S :    0.747638
   5 O :   -0.579411
   6 O :   -0.546393
   7 O :   -0.517701
   8 H :    0.000691
   9 H :   -0.035715
  10 H :    0.001114
Sum of atomic charges:   -1.0000000

LOEWDIN ATOMIC CHARGES
----------------------
   0 C :   -0.087524
   1 C :   -0.198936
   2 H :    0.012170
   3 H :    0.011307
   4 S :    1.075975
   5 O :   -0.651510
   6 O :   -0.617102
   7 O :   -0.589555
   8 H :    0.019294
   9 H :    0.006456
  10 H :    0.019427

  Mayer bond orders larger than 0.100000
B(  0-C ,  1-C ) :   1.0583 B(  0-C ,  8-H ) :   0.9638 B(  0-C ,  9-H ) :   0.9612
B(  0-C , 10-H ) :   0.9636 B(  1-C ,  2-H ) :   0.9434 B(  1-C ,  3-H ) :   0.9404
B(  1-C ,  4-S ) :   0.8903 B(  4-S ,  5-O ) :   1.6090 B(  4-S ,  6-O ) :   1.6484
B(  4-S ,  7-O ) :   1.6699

FINAL SINGLE POINT ENERGY      -701.870018463701

DIPOLE MOMENT
-------------
                                X             Y             Z
Electronic contribution:     -0.35365       0.82087      -7.95872
Nuclear contribution   :      0.07504      -1.14369       9.75001
                        -----------------------------------------
Total Dipole Moment    :     -0.27861      -0.32282       1.79129
                        -----------------------------------------
Magnitude (a.u.)       :      1.84135
Magnitude (Debye)      :      4.68033

Rotational constants in cm-1:     0.160553     0.082191     0.080550
Rotational constants in MHz :  4813.250478  2464.013016  2414.833054

                             ****ORCA TERMINATED NORMALLY****
TOTAL RUN TIME: 0 days 0 hours 0 minutes 16 seconds 182 msec
