                         Program Version 5.0.0 -  RELEASE  -
|  1> !LC-BLYP RIJCOSX def2-SVP def2/J TightSCF
|  2> *xyz 1 1
|  3> C          5.55821       -1.99291       -6.21505
|  4> C          4.18188       -2.58967       -6.29891
|  5> N          3.14587       -1.76843       -6.48675
|  6> N          4.01910       -3.86431       -6.22743
|  7> H          4.76849       -4.59115       -5.99077
|  8> H          3.12241       -4.33339       -6.31462
|  9> H          3.28164       -0.77779       -6.56655
| 10> H          2.21255       -2.13419       -6.56225
| 11> C          6.41926       -2.54294       -5.07763
| 12> H          6.03683       -2.19819       -7.17685
| 13> H          5.46761       -0.90737       -6.12797
| 14> H          6.50056       -3.60553       -5.17358
| 15> H          5.96544       -2.30329       -4.13874
| 16> H          7.39438       -2.10494       -5.12457
| 17> *
| 18>
| 19> %MaxCore 64000
| 20>
| 21> %pal nprocs 4
| 22> end
| 23>
| 24> %scf
| 25>   MaxIter 150
| 26> end
| 27>
| 28>
| 29>                          ****END OF INPUT****

CARTESIAN COORDINATES (ANGSTROEM)
---------------------------------
  C      5.558210   -1.992910   -6.215050
  C      4.181880   -2.589670   -6.298910
  N      3.145870   -1.768430   -6.486750
  N      4.019100   -3.864310   -6.227430
  H      4.768490   -4.591150   -5.990770
  H      3.122410   -4.333390   -6.314620
  H      3.281640   -0.777790   -6.566550
  H      2.212550   -2.134190   -6.562250
  C      6.419260   -2.542940   -5.077630
  H      6.036830   -2.198190   -7.176850
  H      5.467610   -0.907370   -6.127970
  H      6.500560   -3.605530   -5.173580
  H      5.965440   -2.303290   -4.138740
  H      7.394380   -2.104940   -5.124570

 Total Charge           Charge          ....    1
 Multiplicity           Mult            ....    1
 Number of Electrons    NEL             ....   40
 Basis Dimension        Dim             ....  115

ORBITAL ENERGIES
----------------

  NO   OCC          E(Eh)            E(eV)
   0   2.0000     -14.437893      -392.8751
   1   2.0000     -14.425815      -392.5464
   2   2.0000     -10.408589      -283.2321
   3   2.0000     -10.280619      -279.7499
   4   2.0000     -10.239268      -278.6247
   5   2.0000      -1.294543       -35.2263
   6   2.0000      -1.194912       -32.5152
   7   2.0000      -1.069945       -29.1147
   8   2.0000      -0.965659       -26.2769
   9   2.0000      -0.917714       -24.9723
  10   2.0000      -0.876671       -23.8554
  11   2.0000      -0.846544       -23.0356
  12   2.0000      -0.796295       -21.6683
  13   2.0000      -0.761888       -20.7320
  14   2.0000      -0.723301       -19.6820
  15   2.0000      -0.704970       -19.1832
  16   2.0000      -0.647376       -17.6160
  17   2.0000      -0.635853       -17.3024
  18   2.0000      -0.618742       -16.8368
  19   2.0000      -0.587393       -15.9838
  20   0.0000      -0.114349        -3.1116
  21   0.0000      -0.071626        -1.9491
  22   0.0000      -0.034979        -0.9518
  23   0.0000      -0.023987        -0.6527
  24   0.0000       0.001734         0.0472

MULLIKEN ATOMIC CHARGES
-----------------------
   0 C :    0.009326
   1 C :   -0.150132
   2 N :    0.054506
   3 N :    0.049430
   4 H :    0.210275
   5 H :    0.175429
   6 H :    0.178266
   7 H :    0.165517
   8 C :   -0.002545
   9 H :    0.101046
  10 H :    0.049727
  11 H :    0.027237
  12 H :    0.056355
  13 H :    0.075563
Sum of atomic charges:    1.0000000

LOEWDIN ATOMIC CHARGES
----------------------
   0 C :   -0.041182
   1 C :    0.139622
   2 N :    0.093406
   3 N :    0.090641
   4 H :    0.152012
   5 H :    0.117227
   6 H :    0.116862
   7 H :    0.108929
   8 C :   -0.042254
   9 H :    0.075589
  10 H :    0.056254
  11 H :    0.029333
  12 H :    0.044897
  13 H :    0.058662

  Mayer bond orders larger than 0.100000
B(  0-C ,  1-C ) :   1.0301 B(  0-C ,  8-C ) :   1.0928 B(  0-C ,  9-H ) :   0.9107
B(  0-C , 10-H ) :   0.9201 B(  1-C ,  2-N ) :   1.5124 B(  1-C ,  3-N ) :   1.5433
B(  2-N ,  6-H ) :   0.9195 B(  2-N ,  7-H ) :   0.9313 B(  3-N ,  4-H ) :   0.9094
B(  3-N ,  5-H ) :   0.9269 B(  8-C , 11-H ) :   0.9680 B(  8-C , 12-H ) :   0.9745
B(  8-C , 13-H ) :   0.9547

FINAL SINGLE POINT ENERGY      -228.243491791465

DIPOLE MOMENT
-------------
                                X             Y             Z
Electronic contribution:     -3.84294      -0.50423      -1.59193
Nuclear contribution   :      2.76041       0.12669       1.26265
                        -----------------------------------------
Total Dipole Moment    :     -1.08253      -0.37754      -0.32928
                        -----------------------------------------
Magnitude (a.u.)       :      1.19283
Magnitude (Debye)      :      3.03192

Rotational constants in cm-1:     0.280918     0.124524     0.094121
Rotational constants in MHz :  8421.697738  3733.133254  2821.684112

                             ****ORCA TERMINATED NORMALLY****
TOTAL RUN TIME: 0 days 0 hours 0 minutes 15 seconds 202 msec
