                         Program Version 5.0.0 -  RELEASE  -
|  1> !LC-BLYP RIJCOSX def2-TZVP def2/J TightSCF xyzfile
|  2>
|  3> *xyzfile 0 1 B.xyz
|  4>
|  5> %MaxCore 64000
|  6>
|  7> %pal nprocs 18
|  8> end
|  9>
| 10> %scf
| 11>   MaxIter 150
| 12> end
| 13>
| 14>
| 15>                          ****END OF INPUT****

CARTESIAN COORDINATES (ANGSTROEM)
---------------------------------
  C      5.558206   -1.992914   -6.215054
  C      4.930199   -7.375319   -2.649623
  C      3.841892   -6.951611   -3.632829
  H      3.458144   -5.954425   -3.407121
  H      2.988484   -7.643606   -3.567078
  S      4.318115   -6.915930   -5.368692
  C      4.181880   -2.589671   -6.298911
  N      3.145873   -1.768431   -6.486753
  N      4.019102   -3.864307   -6.227427
  H      4.768490   -4.591153   -5.990773
  H      3.122405   -4.333392   -6.314620
  H      3.281635   -0.777786   -6.566549
  H      2.212549   -2.134193   -6.562246
  O      5.406154   -5.899480   -5.512972
  O      3.111910   -6.445079   -6.043792
  C      6.419260   -2.542944   -5.077630
  C      5.872267   -5.002756   -2.427819
  C      6.173994   -6.485522   -2.606315
  H      6.734852   -6.613767   -3.534015
  H      6.821463   -6.831018   -1.793617
  H      4.469612   -7.406168   -1.655876
  H      5.230134   -8.398678   -2.885906
  C      5.896512   -2.169314   -3.694552
  H      7.428880   -2.143665   -5.208078
  H      6.505894   -3.627541   -5.175502
  C      6.807804   -2.623428   -2.551019
  H      4.894708   -2.589732   -3.557501
  H      5.778823   -1.081255   -3.635790
  C      7.111544   -4.122463   -2.520363
  H      7.751615   -2.071393   -2.614406
  H      6.345837   -2.326401   -1.604086
  H      5.362882   -4.828697   -1.471335
  H      5.174429   -4.702577   -3.211298
  H      7.778329   -4.329347   -1.677651
  H      7.673189   -4.402845   -3.417586
  O      4.763396   -8.239424   -5.698629
  H      6.036826   -2.198189   -7.176852
  H      5.467610   -0.907371   -6.127968

 Total Charge           Charge          ....    0
 Multiplicity           Mult            ....    1
 Number of Electrons    NEL             ....  136
 Basis Dimension        Dim             ....  634

ORBITAL ENERGIES
----------------

  NO   OCC          E(Eh)            E(eV)
   0   2.0000     -88.412571     -2405.8284
   1   2.0000     -18.880908      -513.7756
   2   2.0000     -18.869131      -513.4552
   3   2.0000     -18.862608      -513.2777
   4   2.0000     -14.259521      -388.0213
   5   2.0000     -14.221264      -386.9803
   6   2.0000     -10.230042      -278.3736
   7   2.0000     -10.126621      -275.5594
   8   2.0000     -10.093003      -274.6446
   9   2.0000     -10.081197      -274.3233
  10   2.0000     -10.069706      -274.0106
  11   2.0000     -10.062563      -273.8163
  12   2.0000     -10.057194      -273.6702
  13   2.0000     -10.050202      -273.4799
  14   2.0000     -10.048798      -273.4417
  15   2.0000     -10.041310      -273.2379
  16   2.0000      -7.954873      -216.4631
  17   2.0000      -5.983110      -162.8087
  18   2.0000      -5.982107      -162.7814
  19   2.0000      -5.981177      -162.7561
  20   2.0000      -1.177090       -32.0302
  21   2.0000      -1.140862       -31.0444
  22   2.0000      -1.045935       -28.4613
  23   2.0000      -1.033802       -28.1312
  24   2.0000      -1.029921       -28.0256
  25   2.0000      -0.952377       -25.9155
  26   2.0000      -0.916779       -24.9468
  27   2.0000      -0.892994       -24.2996
  28   2.0000      -0.852374       -23.1943
  29   2.0000      -0.817152       -22.2358
  30   2.0000      -0.784157       -21.3380
  31   2.0000      -0.763557       -20.7774
  32   2.0000      -0.737114       -20.0579
  33   2.0000      -0.713904       -19.4263
  34   2.0000      -0.704228       -19.1630
  35   2.0000      -0.683918       -18.6104
  36   2.0000      -0.669224       -18.2105
  37   2.0000      -0.645976       -17.5779
  38   2.0000      -0.618616       -16.8334
  39   2.0000      -0.613508       -16.6944
  40   2.0000      -0.595538       -16.2054
  41   2.0000      -0.580292       -15.7906
  42   2.0000      -0.572644       -15.5824
  43   2.0000      -0.557968       -15.1831
  44   2.0000      -0.551690       -15.0122
  45   2.0000      -0.543422       -14.7873
  46   2.0000      -0.534565       -14.5462
  47   2.0000      -0.526967       -14.3395
  48   2.0000      -0.511927       -13.9302
  49   2.0000      -0.500672       -13.6240
  50   2.0000      -0.496893       -13.5212
  51   2.0000      -0.494202       -13.4479
  52   2.0000      -0.474518       -12.9123
  53   2.0000      -0.466776       -12.7016
  54   2.0000      -0.461352       -12.5540
  55   2.0000      -0.442060       -12.0291
  56   2.0000      -0.433385       -11.7930
  57   2.0000      -0.427732       -11.6392
  58   2.0000      -0.425329       -11.5738
  59   2.0000      -0.415415       -11.3040
  60   2.0000      -0.410599       -11.1730
  61   2.0000      -0.407715       -11.0945
  62   2.0000      -0.399174       -10.8621
  63   2.0000      -0.396500       -10.7893
  64   2.0000      -0.364411        -9.9161
  65   2.0000      -0.361527        -9.8377
  66   2.0000      -0.349770        -9.5177
  67   2.0000      -0.326732        -8.8908
  68   0.0000       0.033694         0.9169
  69   0.0000       0.042875         1.1667
  70   0.0000       0.080641         2.1943
  71   0.0000       0.092486         2.5167
  72   0.0000       0.105445         2.8693

MULLIKEN ATOMIC CHARGES
-----------------------
   0 C :   -0.272451
   1 C :   -0.227874
   2 C :   -0.345630
   3 H :    0.132465
   4 H :    0.160056
   5 S :    0.763915
   6 C :    0.235493
   7 N :   -0.381144
   8 N :   -0.274679
   9 H :    0.323623
  10 H :    0.262509
  11 H :    0.258964
  12 H :    0.259853
  13 O :   -0.558874
  14 O :   -0.537400
  15 C :   -0.342201
  16 C :   -0.205853
  17 C :   -0.278695
  18 H :    0.172616
  19 H :    0.115886
  20 H :    0.119291
  21 H :    0.153194
  22 C :   -0.282746
  23 H :    0.146783
  24 H :    0.209946
  25 C :   -0.228250
  26 H :    0.151846
  27 H :    0.123824
  28 C :   -0.307471
  29 H :    0.133293
  30 H :    0.132503
  31 H :    0.115674
  32 H :    0.087922
  33 H :    0.130959
  34 H :    0.154745
  35 O :   -0.426941
  36 H :    0.186314
  37 H :    0.138534
Sum of atomic charges:   -0.0000000

LOEWDIN ATOMIC CHARGES
----------------------
   0 C :   -0.215872
   1 C :   -0.297693
   2 C :   -0.400476
   3 H :    0.127280
   4 H :    0.143918
   5 S :    0.446612
   6 C :   -0.331508
   7 N :    0.054718
   8 N :    0.121380
   9 H :    0.167408
  10 H :    0.185620
  11 H :    0.183397
  12 H :    0.183653
  13 O :   -0.363189
  14 O :   -0.366622
  15 C :   -0.261940
  16 C :   -0.280972
  17 C :   -0.282963
  18 H :    0.147351
  19 H :    0.137743
  20 H :    0.140569
  21 H :    0.148660
  22 C :   -0.280362
  23 H :    0.150238
  24 H :    0.155639
  25 C :   -0.275507
  26 H :    0.140370
  27 H :    0.138756
  28 C :   -0.277298
  29 H :    0.141001
  30 H :    0.142175
  31 H :    0.136642
  32 H :    0.133926
  33 H :    0.141281
  34 H :    0.144048
  35 O :   -0.300266
  36 H :    0.171355
  37 H :    0.150926

  Mayer bond orders larger than 0.100000
B(  0-C ,  6-C ) :   0.9278 B(  0-C , 15-C ) :   0.9396 B(  0-C , 36-H ) :   0.9506
B(  0-C , 37-H ) :   0.9910 B(  1-C ,  2-C ) :   0.9028 B(  1-C , 17-C ) :   0.9435
B(  1-C , 20-H ) :   0.9716 B(  1-C , 21-H ) :   0.9765 B(  2-C ,  3-H ) :   0.9549
B(  2-C ,  4-H ) :   0.9630 B(  2-C ,  5-S ) :   0.9131 B(  5-S , 13-O ) :   1.4851
B(  5-S , 14-O ) :   1.7257 B(  5-S , 35-O ) :   1.9738 B(  6-C ,  7-N ) :   1.3085
B(  6-C ,  8-N ) :   1.6025 B(  7-N , 11-H ) :   0.9129 B(  7-N , 12-H ) :   0.9100
B(  8-N ,  9-H ) :   0.7077 B(  8-N , 10-H ) :   0.8785 B(  9-H , 13-O ) :   0.2413
B( 15-C , 22-C ) :   0.8585 B( 15-C , 23-H ) :   0.9730 B( 15-C , 24-H ) :   0.9647
B( 16-C , 17-C ) :   0.8979 B( 16-C , 28-C ) :   0.8978 B( 16-C , 31-H ) :   0.9676
B( 16-C , 32-H ) :   0.9768 B( 17-C , 18-H ) :   0.9771 B( 17-C , 19-H ) :   0.9809
B( 22-C , 25-C ) :   0.9401 B( 22-C , 26-H ) :   0.9808 B( 22-C , 27-H ) :   0.9776
B( 25-C , 28-C ) :   0.9207 B( 25-C , 29-H ) :   0.9917 B( 25-C , 30-H ) :   0.9910
B( 28-C , 33-H ) :   0.9834 B( 28-C , 34-H ) :   0.9951

FINAL SINGLE POINT ENERGY     -1126.020098238441

DIPOLE MOMENT
-------------
                                X             Y             Z
Electronic contribution:     -9.23272     -11.42216     -14.20955
Nuclear contribution   :      8.53517      16.50844      14.36520
                        -----------------------------------------
Total Dipole Moment    :     -0.69756       5.08628       0.15565
                        -----------------------------------------
Magnitude (a.u.)       :      5.13625
Magnitude (Debye)      :     13.05531

Rotational constants in cm-1:     0.017951     0.012436     0.008288
Rotational constants in MHz :   538.163255   372.824050   248.467077

                             ****ORCA TERMINATED NORMALLY****
TOTAL RUN TIME: 0 days 0 hours 1 minutes 53 seconds 335 msec
