                         Program Version 5.0.0 -  RELEASE  -
|  1> !LC-BLYP RIJCOSX def2-SVP def2/J TightSCF
|  2> *xyz 0 1
|  3> C          4.93020       -7.37532       -2.64962
|  4> C          3.84189       -6.95161       -3.63283
|  5> H          3.45814       -5.95442       -3.40712
|  6> H          2.98848       -7.64361       -3.56708
|  7> S          4.31812       -6.91593       -5.36869
|  8> F          5.40615       -5.89948       -5.51297
|  9> O          3.11191       -6.44508       -6.04379
| 10> O          4.76340       -8.23942       -5.69863
| 11> H          5.27901       -8.35440       -2.90385
| 12> H          4.53000       -7.38577       -1.65734
| 13> H          5.74437       -6.68276       -2.69856
| 14> *
| 15>
| 16> %MaxCore 64000
| 17>
| 18> %pal nprocs 4
| 19> end
| 20>
| 21> %scf
| 22>   MaxIter 150
| 23> end
| 24>
| 25>
| 26>                          ****END OF INPUT****

CARTESIAN COORDINATES (ANGSTROEM)
---------------------------------
  C      4.930200   -7.375320   -2.649620
  C      3.841890   -6.951610   -3.632830
  H      3.458140   -5.954420   -3.407120
  H      2.988480   -7.643610   -3.567080
  S      4.318120   -6.915930   -5.368690
  F      5.406150   -5.899480   -5.512970
  O      3.111910   -6.445080   -6.043790
  O      4.763400   -8.239420   -5.698630
  H      5.279010   -8.354400   -2.903850
  H      4.530000   -7.385770   -1.657340
  H      5.744370   -6.682760   -2.698560

 Total Charge           Charge          ....    0
 Multiplicity           Mult            ....    1
 Number of Electrons    NEL             ....   58
 Basis Dimension        Dim             ....  113

ORBITAL ENERGIES
----------------

  NO   OCC          E(Eh)            E(eV)
   0   2.0000     -88.534616     -2409.1494
   1   2.0000     -24.548301      -667.9932
   2   2.0000     -18.952763      -515.7309
   3   2.0000     -18.941442      -515.4228
   4   2.0000     -10.143542      -276.0198
   5   2.0000     -10.107351      -275.0350
   6   2.0000      -8.092805      -220.2164
   7   2.0000      -6.130874      -166.8296
   8   2.0000      -6.124321      -166.6512
   9   2.0000      -6.123276      -166.6228
  10   2.0000      -1.402416       -38.1617
  11   2.0000      -1.195964       -32.5438
  12   2.0000      -1.096122       -29.8270
  13   2.0000      -0.926748       -25.2181
  14   2.0000      -0.814420       -22.1615
  15   2.0000      -0.768269       -20.9057
  16   2.0000      -0.676500       -18.4085
  17   2.0000      -0.647945       -17.6315
  18   2.0000      -0.633831       -17.2474
  19   2.0000      -0.594530       -16.1780
  20   2.0000      -0.572903       -15.5895
  21   2.0000      -0.547075       -14.8867
  22   2.0000      -0.526153       -14.3173
  23   2.0000      -0.505009       -13.7420
  24   2.0000      -0.498474       -13.5642
  25   2.0000      -0.470028       -12.7901
  26   2.0000      -0.424815       -11.5598
  27   2.0000      -0.413402       -11.2492
  28   2.0000      -0.400657       -10.9024
  29   0.0000       0.098901         2.6912
  30   0.0000       0.136513         3.7147
  31   0.0000       0.166698         4.5361
  32   0.0000       0.168857         4.5948
  33   0.0000       0.174440         4.7467

MULLIKEN ATOMIC CHARGES
-----------------------
   0 C :    0.009878
   1 C :   -0.144968
   2 H :    0.066368
   3 H :    0.094774
   4 S :    0.840266
   5 F :   -0.183346
   6 O :   -0.411433
   7 O :   -0.384798
   8 H :    0.046453
   9 H :    0.039265
  10 H :    0.027541
Sum of atomic charges:   -0.0000000

LOEWDIN ATOMIC CHARGES
----------------------
   0 C :   -0.075302
   1 C :   -0.162001
   2 H :    0.040317
   3 H :    0.059774
   4 S :    1.137966
   5 F :   -0.155924
   6 O :   -0.490400
   7 O :   -0.463223
   8 H :    0.037079
   9 H :    0.041184
  10 H :    0.030530

  Mayer bond orders larger than 0.100000
B(  0-C ,  1-C ) :   1.0550 B(  0-C ,  8-H ) :   0.9674 B(  0-C ,  9-H ) :   0.9606
B(  0-C , 10-H ) :   0.9723 B(  1-C ,  2-H ) :   0.9362 B(  1-C ,  3-H ) :   0.9357
B(  1-C ,  4-S ) :   0.9203 B(  4-S ,  5-F ) :   1.0026 B(  4-S ,  6-O ) :   1.8006
B(  4-S ,  7-O ) :   1.8248

FINAL SINGLE POINT ENERGY      -726.383095208458

DIPOLE MOMENT
-------------
                                X             Y             Z
Electronic contribution:      1.30387       2.64033      -8.83191
Nuclear contribution   :     -0.98922      -2.24849      10.35711
                        -----------------------------------------
Total Dipole Moment    :      0.31465       0.39183       1.52520
                        -----------------------------------------
Magnitude (a.u.)       :      1.60586
Magnitude (Debye)      :      4.08176

Rotational constants in cm-1:     0.151436     0.080885     0.078670
Rotational constants in MHz :  4539.936009  2424.868817  2358.476812

                             ****ORCA TERMINATED NORMALLY****
TOTAL RUN TIME: 0 days 0 hours 0 minutes 17 seconds 569 msec
