                         Program Version 5.0.0 -  RELEASE  -
|  1> !LC-BLYP RIJCOSX def2-SVP def2/J TightSCF
|  2> *xyz 0 1
|  3> C          5.55821       -1.99291       -6.21505
|  4> C          4.18188       -2.58967       -6.29891
|  5> C          3.14587       -1.76843       -6.48675
|  6> N          4.01910       -3.86431       -6.22743
|  7> H          4.76849       -4.59115       -5.99077
|  8> H          3.12241       -4.33339       -6.31462
|  9> H          3.28164       -0.77779       -6.56655
| 10> H          2.21255       -2.13419       -6.56225
| 11> C          6.41926       -2.54294       -5.07763
| 12> H          6.03683       -2.19819       -7.17685
| 13> H          5.46761       -0.90737       -6.12797
| 14> H          6.50056       -3.60553       -5.17358
| 15> H          5.96544       -2.30329       -4.13874
| 16> H          7.39438       -2.10494       -5.12457
| 17> *
| 18>
| 19> %MaxCore 64000
| 20>
| 21> %pal nprocs 4
| 22> end
| 23>
| 24> %scf
| 25>   MaxIter 150
| 26> end
| 27>
| 28>
| 29>                          ****END OF INPUT****

CARTESIAN COORDINATES (ANGSTROEM)
---------------------------------
  C      5.558210   -1.992910   -6.215050
  C      4.181880   -2.589670   -6.298910
  C      3.145870   -1.768430   -6.486750
  N      4.019100   -3.864310   -6.227430
  H      4.768490   -4.591150   -5.990770
  H      3.122410   -4.333390   -6.314620
  H      3.281640   -0.777790   -6.566550
  H      2.212550   -2.134190   -6.562250
  C      6.419260   -2.542940   -5.077630
  H      6.036830   -2.198190   -7.176850
  H      5.467610   -0.907370   -6.127970
  H      6.500560   -3.605530   -5.173580
  H      5.965440   -2.303290   -4.138740
  H      7.394380   -2.104940   -5.124570

 Total Charge           Charge          ....    0
 Multiplicity           Mult            ....    1
 Number of Electrons    NEL             ....   40
 Basis Dimension        Dim             ....  115

ORBITAL ENERGIES
----------------

  NO   OCC          E(Eh)            E(eV)
   0   2.0000     -14.187034      -386.0488
   1   2.0000     -10.101093      -274.8647
   2   2.0000     -10.079477      -274.2765
   3   2.0000     -10.072977      -274.0996
   4   2.0000     -10.007233      -272.3107
   5   2.0000      -1.018479       -27.7142
   6   2.0000      -0.875339       -23.8192
   7   2.0000      -0.811680       -22.0869
   8   2.0000      -0.727819       -19.8050
   9   2.0000      -0.678425       -18.4609
  10   2.0000      -0.615243       -16.7416
  11   2.0000      -0.571315       -15.5463
  12   2.0000      -0.542102       -14.7513
  13   2.0000      -0.520808       -14.1719
  14   2.0000      -0.486325       -13.2336
  15   2.0000      -0.477230       -12.9861
  16   2.0000      -0.452945       -12.3253
  17   2.0000      -0.428443       -11.6585
  18   2.0000      -0.421002       -11.4560
  19   2.0000      -0.269987        -7.3467
  20   0.0000       0.114730         3.1220
  21   0.0000       0.144941         3.9441
  22   0.0000       0.164583         4.4785
  23   0.0000       0.170759         4.6466
  24   0.0000       0.194927         5.3042

MULLIKEN ATOMIC CHARGES
-----------------------
   0 C :    0.054753
   1 C :   -0.141778
   2 C :   -0.034315
   3 N :   -0.024222
   4 H :    0.117266
   5 H :    0.111076
   6 H :   -0.059723
   7 H :   -0.073051
   8 C :    0.009663
   9 H :    0.014901
  10 H :    0.002569
  11 H :   -0.008130
  12 H :    0.018984
  13 H :    0.012008
Sum of atomic charges:    0.0000000

LOEWDIN ATOMIC CHARGES
----------------------
   0 C :   -0.035444
   1 C :   -0.000570
   2 C :   -0.191684
   3 N :   -0.007459
   4 H :    0.090965
   5 H :    0.078987
   6 H :   -0.003949
   7 H :   -0.010235
   8 C :   -0.064667
   9 H :    0.033202
  10 H :    0.037200
  11 H :    0.015498
  12 H :    0.029298
  13 H :    0.028857

  Mayer bond orders larger than 0.100000
B(  0-C ,  1-C ) :   1.0412 B(  0-C ,  8-C ) :   1.0937 B(  0-C ,  9-H ) :   0.9295
B(  0-C , 10-H ) :   0.9290 B(  1-C ,  2-C ) :   1.8686 B(  1-C ,  3-N ) :   1.2807
B(  2-C ,  6-H ) :   0.9313 B(  2-C ,  7-H ) :   0.9394 B(  3-N ,  4-H ) :   0.9467
B(  3-N ,  5-H ) :   0.9480 B(  8-C , 11-H ) :   0.9682 B(  8-C , 12-H ) :   0.9723
B(  8-C , 13-H ) :   0.9629

FINAL SINGLE POINT ENERGY      -211.782219147247

DIPOLE MOMENT
-------------
                                X             Y             Z
Electronic contribution:     -2.00547      -1.15545      -1.02007
Nuclear contribution   :      2.41345       0.31141       1.16343
                        -----------------------------------------
Total Dipole Moment    :      0.40798      -0.84404       0.14336
                        -----------------------------------------
Magnitude (a.u.)       :      0.94837
Magnitude (Debye)      :      2.41056

Rotational constants in cm-1:     0.287957     0.129204     0.097498
Rotational constants in MHz :  8632.737925  3873.424745  2922.919500

                             ****ORCA TERMINATED NORMALLY****
TOTAL RUN TIME: 0 days 0 hours 0 minutes 17 seconds 909 msec
