                         Program Version 5.0.0 -  RELEASE  -
|  1> !LC-BLYP RIJCOSX def2-SVP def2/J TightSCF
|  2> *xyz 0 1
|  3> C          4.93020       -7.37532       -2.64962
|  4> C          3.84189       -6.95161       -3.63283
|  5> H          3.45814       -5.95442       -3.40712
|  6> H          2.98848       -7.64361       -3.56708
|  7> S          4.31812       -6.91593       -5.36869
|  8> O          5.40615       -5.89948       -5.51297
|  9> F          3.11191       -6.44508       -6.04379
| 10> O          4.76340       -8.23942       -5.69863
| 11> H          5.27901       -8.35440       -2.90385
| 12> H          4.53000       -7.38577       -1.65734
| 13> H          5.74437       -6.68276       -2.69856
| 14> *
| 15>
| 16> %MaxCore 64000
| 17>
| 18> %pal nprocs 4
| 19> end
| 20>
| 21> %scf
| 22>   MaxIter 150
| 23> end
| 24>
| 25>
| 26>                          ****END OF INPUT****

CARTESIAN COORDINATES (ANGSTROEM)
---------------------------------
  C      4.930200   -7.375320   -2.649620
  C      3.841890   -6.951610   -3.632830
  H      3.458140   -5.954420   -3.407120
  H      2.988480   -7.643610   -3.567080
  S      4.318120   -6.915930   -5.368690
  O      5.406150   -5.899480   -5.512970
  F      3.111910   -6.445080   -6.043790
  O      4.763400   -8.239420   -5.698630
  H      5.279010   -8.354400   -2.903850
  H      4.530000   -7.385770   -1.657340
  H      5.744370   -6.682760   -2.698560

 Total Charge           Charge          ....    0
 Multiplicity           Mult            ....    1
 Number of Electrons    NEL             ....   58
 Basis Dimension        Dim             ....  113

ORBITAL ENERGIES
----------------

  NO   OCC          E(Eh)            E(eV)
   0   2.0000     -88.535846     -2409.1829
   1   2.0000     -24.563912      -668.4180
   2   2.0000     -18.951332      -515.6920
   3   2.0000     -18.932211      -515.1717
   4   2.0000     -10.144667      -276.0504
   5   2.0000     -10.105270      -274.9784
   6   2.0000      -8.094133      -220.2525
   7   2.0000      -6.132323      -166.8690
   8   2.0000      -6.125561      -166.6850
   9   2.0000      -6.124377      -166.6528
  10   2.0000      -1.430346       -38.9217
  11   2.0000      -1.189635       -32.3716
  12   2.0000      -1.076602       -29.2958
  13   2.0000      -0.926105       -25.2006
  14   2.0000      -0.827900       -22.5283
  15   2.0000      -0.768871       -20.9220
  16   2.0000      -0.678926       -18.4745
  17   2.0000      -0.668553       -18.1922
  18   2.0000      -0.643724       -17.5166
  19   2.0000      -0.597678       -16.2637
  20   2.0000      -0.574725       -15.6391
  21   2.0000      -0.530683       -14.4406
  22   2.0000      -0.524646       -14.2763
  23   2.0000      -0.509282       -13.8583
  24   2.0000      -0.484617       -13.1871
  25   2.0000      -0.474090       -12.9006
  26   2.0000      -0.420384       -11.4392
  27   2.0000      -0.404378       -11.0037
  28   2.0000      -0.386254       -10.5105
  29   0.0000       0.115087         3.1317
  30   0.0000       0.126426         3.4402
  31   0.0000       0.160455         4.3662
  32   0.0000       0.166012         4.5174
  33   0.0000       0.176158         4.7935

MULLIKEN ATOMIC CHARGES
-----------------------
   0 C :    0.020741
   1 C :   -0.137912
   2 H :    0.062908
   3 H :    0.063195
   4 S :    0.834522
   5 O :   -0.442655
   6 F :   -0.150846
   7 O :   -0.382650
   8 H :    0.046095
   9 H :    0.038554
  10 H :    0.048048
Sum of atomic charges:    0.0000000

LOEWDIN ATOMIC CHARGES
----------------------
   0 C :   -0.061134
   1 C :   -0.166074
   2 H :    0.038909
   3 H :    0.040511
   4 S :    1.134035
   5 O :   -0.523119
   6 F :   -0.121215
   7 O :   -0.461994
   8 H :    0.038985
   9 H :    0.041353
  10 H :    0.039742

  Mayer bond orders larger than 0.100000
B(  0-C ,  1-C ) :   1.0795 B(  0-C ,  8-H ) :   0.9680 B(  0-C ,  9-H ) :   0.9623
B(  0-C , 10-H ) :   0.9687 B(  1-C ,  2-H ) :   0.9316 B(  1-C ,  3-H ) :   0.9295
B(  1-C ,  4-S ) :   0.9167 B(  4-S ,  5-O ) :   1.7625 B(  4-S ,  6-F ) :   1.0404
B(  4-S ,  7-O ) :   1.8211

FINAL SINGLE POINT ENERGY      -726.370618789817

DIPOLE MOMENT
-------------
                                X             Y             Z
Electronic contribution:     -2.60419       1.71181      -9.74606
Nuclear contribution   :      1.40145      -1.67996      10.91024
                        -----------------------------------------
Total Dipole Moment    :     -1.20274       0.03185       1.16417
                        -----------------------------------------
Magnitude (a.u.)       :      1.67419
Magnitude (Debye)      :      4.25545

Rotational constants in cm-1:     0.155875     0.079864     0.077188
Rotational constants in MHz :  4673.017506  2394.277415  2314.027118

                             ****ORCA TERMINATED NORMALLY****
TOTAL RUN TIME: 0 days 0 hours 0 minutes 14 seconds 863 msec
