                         Program Version 5.0.0 -  RELEASE  -
|  1> !LC-BLYP RIJCOSX def2-SVP def2/J TightSCF
|  2> *xyz 0 1
|  3> C          5.55821       -1.99291       -6.21505
|  4> C          4.18188       -2.58967       -6.29891
|  5> N          3.14587       -1.76843       -6.48675
|  6> C          4.01910       -3.86431       -6.22743
|  7> H          4.76849       -4.59115       -5.99077
|  8> H          3.12241       -4.33339       -6.31462
|  9> H          3.28164       -0.77779       -6.56655
| 10> H          2.21255       -2.13419       -6.56225
| 11> C          6.41926       -2.54294       -5.07763
| 12> H          6.03683       -2.19819       -7.17685
| 13> H          5.46761       -0.90737       -6.12797
| 14> H          6.50056       -3.60553       -5.17358
| 15> H          5.96544       -2.30329       -4.13874
| 16> H          7.39438       -2.10494       -5.12457
| 17> *
| 18>
| 19> %MaxCore 64000
| 20>
| 21> %pal nprocs 4
| 22> end
| 23>
| 24> %scf
| 25>   MaxIter 150
| 26> end
| 27>
| 28>
| 29>                          ****END OF INPUT****

CARTESIAN COORDINATES (ANGSTROEM)
---------------------------------
  C      5.558210   -1.992910   -6.215050
  C      4.181880   -2.589670   -6.298910
  N      3.145870   -1.768430   -6.486750
  C      4.019100   -3.864310   -6.227430
  H      4.768490   -4.591150   -5.990770
  H      3.122410   -4.333390   -6.314620
  H      3.281640   -0.777790   -6.566550
  H      2.212550   -2.134190   -6.562250
  C      6.419260   -2.542940   -5.077630
  H      6.036830   -2.198190   -7.176850
  H      5.467610   -0.907370   -6.127970
  H      6.500560   -3.605530   -5.173580
  H      5.965440   -2.303290   -4.138740
  H      7.394380   -2.104940   -5.124570

 Total Charge           Charge          ....    0
 Multiplicity           Mult            ....    1
 Number of Electrons    NEL             ....   40
 Basis Dimension        Dim             ....  115

ORBITAL ENERGIES
----------------

  NO   OCC          E(Eh)            E(eV)
   0   2.0000     -14.175080      -385.7235
   1   2.0000     -10.098792      -274.8021
   2   2.0000     -10.080706      -274.3100
   3   2.0000     -10.065942      -273.9082
   4   2.0000     -10.015126      -272.5254
   5   2.0000      -1.007803       -27.4237
   6   2.0000      -0.878017       -23.8920
   7   2.0000      -0.806405       -21.9434
   8   2.0000      -0.739403       -20.1202
   9   2.0000      -0.652267       -17.7491
  10   2.0000      -0.618206       -16.8222
  11   2.0000      -0.584408       -15.9025
  12   2.0000      -0.548872       -14.9356
  13   2.0000      -0.514621       -14.0036
  14   2.0000      -0.483033       -13.1440
  15   2.0000      -0.465566       -12.6687
  16   2.0000      -0.445009       -12.1093
  17   2.0000      -0.427905       -11.6439
  18   2.0000      -0.419302       -11.4098
  19   2.0000      -0.278570        -7.5803
  20   0.0000       0.128222         3.4891
  21   0.0000       0.143839         3.9141
  22   0.0000       0.169712         4.6181
  23   0.0000       0.174006         4.7349
  24   0.0000       0.198359         5.3976

MULLIKEN ATOMIC CHARGES
-----------------------
   0 C :    0.052906
   1 C :   -0.078314
   2 N :   -0.035243
   3 C :   -0.113354
   4 H :   -0.023882
   5 H :   -0.061260
   6 H :    0.096743
   7 H :    0.102648
   8 C :    0.018299
   9 H :    0.027735
  10 H :   -0.023629
  11 H :    0.019618
  12 H :    0.013927
  13 H :    0.003805
Sum of atomic charges:   -0.0000000

LOEWDIN ATOMIC CHARGES
----------------------
   0 C :   -0.038176
   1 C :    0.006009
   2 N :   -0.010608
   3 C :   -0.189705
   4 H :    0.014334
   5 H :   -0.004437
   6 H :    0.064756
   7 H :    0.073674
   8 C :   -0.054702
   9 H :    0.040600
  10 H :    0.018974
  11 H :    0.027358
  12 H :    0.027671
  13 H :    0.024253

  Mayer bond orders larger than 0.100000
B(  0-C ,  1-C ) :   1.0057 B(  0-C ,  8-C ) :   1.1156 B(  0-C ,  9-H ) :   0.9307
B(  0-C , 10-H ) :   0.9277 B(  1-C ,  2-N ) :   1.2664 B(  1-C ,  3-C ) :   1.8985
B(  2-N ,  6-H ) :   0.9525 B(  2-N ,  7-H ) :   0.9515 B(  3-C ,  4-H ) :   0.9528
B(  3-C ,  5-H ) :   0.9406 B(  8-C , 11-H ) :   0.9695 B(  8-C , 12-H ) :   0.9733
B(  8-C , 13-H ) :   0.9623

FINAL SINGLE POINT ENERGY      -211.792088383133

DIPOLE MOMENT
-------------
                                X             Y             Z
Electronic contribution:     -2.83806       0.86772      -1.30916
Nuclear contribution   :      2.61570      -0.17401       1.22349
                        -----------------------------------------
Total Dipole Moment    :     -0.22236       0.69371      -0.08566
                        -----------------------------------------
Magnitude (a.u.)       :      0.73349
Magnitude (Debye)      :      1.86438

Rotational constants in cm-1:     0.298189     0.125314     0.096441
Rotational constants in MHz :  8939.495008  3756.825352  2891.223400

                             ****ORCA TERMINATED NORMALLY****
TOTAL RUN TIME: 0 days 0 hours 0 minutes 15 seconds 724 msec
