                         Program Version 5.0.0 -  RELEASE  -
|  1> !LC-BLYP RIJCOSX def2-SVP def2/J TightSCF
|  2> *xyz 0 1
|  3> C          4.93020       -7.37532       -2.64962
|  4> C          3.84189       -6.95161       -3.63283
|  5> H          3.45814       -5.95442       -3.40712
|  6> H          2.98848       -7.64361       -3.56708
|  7> S          4.31812       -6.91593       -5.36869
|  8> O          5.40615       -5.89948       -5.51297
|  9> O          3.11191       -6.44508       -6.04379
| 10> F          4.76340       -8.23942       -5.69863
| 11> H          5.27901       -8.35440       -2.90385
| 12> H          4.53000       -7.38577       -1.65734
| 13> H          5.74437       -6.68276       -2.69856
| 14> *
| 15>
| 16> %MaxCore 64000
| 17>
| 18> %pal nprocs 4
| 19> end
| 20>
| 21> %scf
| 22>   MaxIter 150
| 23> end
| 24>
| 25>
| 26>                          ****END OF INPUT****

CARTESIAN COORDINATES (ANGSTROEM)
---------------------------------
  C      4.930200   -7.375320   -2.649620
  C      3.841890   -6.951610   -3.632830
  H      3.458140   -5.954420   -3.407120
  H      2.988480   -7.643610   -3.567080
  S      4.318120   -6.915930   -5.368690
  O      5.406150   -5.899480   -5.512970
  O      3.111910   -6.445080   -6.043790
  F      4.763400   -8.239420   -5.698630
  H      5.279010   -8.354400   -2.903850
  H      4.530000   -7.385770   -1.657340
  H      5.744370   -6.682760   -2.698560

 Total Charge           Charge          ....    0
 Multiplicity           Mult            ....    1
 Number of Electrons    NEL             ....   58
 Basis Dimension        Dim             ....  113

ORBITAL ENERGIES
----------------

  NO   OCC          E(Eh)            E(eV)
   0   2.0000     -88.536571     -2409.2026
   1   2.0000     -24.577433      -668.7859
   2   2.0000     -18.941023      -515.4114
   3   2.0000     -18.933217      -515.1990
   4   2.0000     -10.144498      -276.0458
   5   2.0000     -10.108329      -275.0616
   6   2.0000      -8.094956      -220.2750
   7   2.0000      -6.133416      -166.8987
   8   2.0000      -6.126106      -166.6998
   9   2.0000      -6.125060      -166.6713
  10   2.0000      -1.452257       -39.5179
  11   2.0000      -1.178657       -32.0729
  12   2.0000      -1.068700       -29.0808
  13   2.0000      -0.928768       -25.2731
  14   2.0000      -0.829073       -22.5602
  15   2.0000      -0.781235       -21.2585
  16   2.0000      -0.698059       -18.9952
  17   2.0000      -0.682576       -18.5738
  18   2.0000      -0.639151       -17.3922
  19   2.0000      -0.595671       -16.2090
  20   2.0000      -0.572061       -15.5666
  21   2.0000      -0.545534       -14.8447
  22   2.0000      -0.518739       -14.1156
  23   2.0000      -0.505804       -13.7636
  24   2.0000      -0.492324       -13.3968
  25   2.0000      -0.463020       -12.5994
  26   2.0000      -0.411304       -11.1922
  27   2.0000      -0.403447       -10.9784
  28   2.0000      -0.380351       -10.3499
  29   0.0000       0.102427         2.7872
  30   0.0000       0.137130         3.7315
  31   0.0000       0.163930         4.4608
  32   0.0000       0.167584         4.5602
  33   0.0000       0.170111         4.6290

MULLIKEN ATOMIC CHARGES
-----------------------
   0 C :    0.009865
   1 C :   -0.143024
   2 H :    0.094069
   3 H :    0.066428
   4 S :    0.828615
   5 O :   -0.438472
   6 O :   -0.405169
   7 F :   -0.125108
   8 H :    0.023889
   9 H :    0.040051
  10 H :    0.048856
Sum of atomic charges:    0.0000000

LOEWDIN ATOMIC CHARGES
----------------------
   0 C :   -0.075538
   1 C :   -0.161881
   2 H :    0.058084
   3 H :    0.041544
   4 S :    1.130039
   5 O :   -0.519135
   6 O :   -0.485263
   7 F :   -0.096371
   8 H :    0.029005
   9 H :    0.041470
  10 H :    0.038046

  Mayer bond orders larger than 0.100000
B(  0-C ,  1-C ) :   1.0540 B(  0-C ,  8-H ) :   0.9714 B(  0-C ,  9-H ) :   0.9605
B(  0-C , 10-H ) :   0.9678 B(  1-C ,  2-H ) :   0.9365 B(  1-C ,  3-H ) :   0.9338
B(  1-C ,  4-S ) :   0.9171 B(  4-S ,  5-O ) :   1.7601 B(  4-S ,  6-O ) :   1.7948
B(  4-S ,  7-F ) :   1.0654

FINAL SINGLE POINT ENERGY      -726.358448616302

DIPOLE MOMENT
-------------
                                X             Y             Z
Electronic contribution:      0.20593      -1.32494      -9.15480
Nuclear contribution   :     -0.31946       0.18980      10.55057
                        -----------------------------------------
Total Dipole Moment    :     -0.11353      -1.13514       1.39577
                        -----------------------------------------
Magnitude (a.u.)       :      1.80267
Magnitude (Debye)      :      4.58202

Rotational constants in cm-1:     0.151421     0.081183     0.078684
Rotational constants in MHz :  4539.489207  2433.790160  2358.892966

                             ****ORCA TERMINATED NORMALLY****
TOTAL RUN TIME: 0 days 0 hours 0 minutes 15 seconds 387 msec
