                         Program Version 5.0.0 -  RELEASE  -
|  1> !LC-BLYP RIJCOSX def2-TZVP def2/J TightSCF xyzfile
|  2>
|  3> *xyzfile 0 1 D4.xyz
|  4>
|  5> %MaxCore 64000
|  6>
|  7> %pal nprocs 18
|  8> end
|  9>
| 10> %scf
| 11>   MaxIter 150
| 12> end
| 13>
| 14>
| 15>                          ****END OF INPUT****

CARTESIAN COORDINATES (ANGSTROEM)
---------------------------------
  C      5.558206   -1.992914   -6.215054
  C      4.930199   -7.375319   -2.649623
  C      3.841892   -6.951611   -3.632829
  H      3.458144   -5.954425   -3.407121
  H      2.988484   -7.643606   -3.567078
  S      4.318115   -6.915930   -5.368692
  C      4.181880   -2.589671   -6.298911
  N      3.145873   -1.768431   -6.486753
  C      4.019102   -3.864307   -6.227427
  H      4.768490   -4.591153   -5.990773
  H      3.122405   -4.333392   -6.314620
  H      3.281635   -0.777786   -6.566549
  H      2.212549   -2.134193   -6.562246
  O      5.406154   -5.899480   -5.512972
  F      3.111910   -6.445079   -6.043792
  C      6.419260   -2.542944   -5.077630
  C      5.872267   -5.002756   -2.427819
  C      6.173994   -6.485522   -2.606315
  H      6.734852   -6.613767   -3.534015
  H      6.821463   -6.831018   -1.793617
  H      4.469612   -7.406168   -1.655876
  H      5.230134   -8.398678   -2.885906
  C      5.896512   -2.169314   -3.694552
  H      7.428880   -2.143665   -5.208078
  H      6.505894   -3.627541   -5.175502
  C      6.807804   -2.623428   -2.551019
  H      4.894708   -2.589732   -3.557501
  H      5.778823   -1.081255   -3.635790
  C      7.111544   -4.122463   -2.520363
  H      7.751615   -2.071393   -2.614406
  H      6.345837   -2.326401   -1.604086
  H      5.362882   -4.828697   -1.471335
  H      5.174429   -4.702577   -3.211298
  H      7.778329   -4.329347   -1.677651
  H      7.673189   -4.402845   -3.417586
  O      4.763396   -8.239424   -5.698629
  H      6.036826   -2.198189   -7.176852
  H      5.467610   -0.907371   -6.127968

 Total Charge           Charge          ....    0
 Multiplicity           Mult            ....    1
 Number of Electrons    NEL             ....  136
 Basis Dimension        Dim             ....  634

ORBITAL ENERGIES
----------------

  NO   OCC          E(Eh)            E(eV)
   0   2.0000     -88.522182     -2408.8110
   1   2.0000     -24.566708      -668.4941
   2   2.0000     -18.957094      -515.8488
   3   2.0000     -18.940231      -515.3899
   4   2.0000     -14.153026      -385.1234
   5   2.0000     -10.131045      -275.6797
   6   2.0000     -10.094408      -274.6828
   7   2.0000     -10.073454      -274.1126
   8   2.0000     -10.065671      -273.9008
   9   2.0000     -10.057781      -273.6861
  10   2.0000     -10.055105      -273.6133
  11   2.0000     -10.054726      -273.6030
  12   2.0000     -10.053984      -273.5828
  13   2.0000     -10.049217      -273.4531
  14   2.0000     -10.049068      -273.4490
  15   2.0000      -9.969512      -271.2842
  16   2.0000      -8.064564      -219.4479
  17   2.0000      -6.096149      -165.8846
  18   2.0000      -6.089503      -165.7038
  19   2.0000      -6.089299      -165.6983
  20   2.0000      -1.452269       -39.5183
  21   2.0000      -1.206456       -32.8293
  22   2.0000      -1.107031       -30.1238
  23   2.0000      -1.013021       -27.5657
  24   2.0000      -0.948077       -25.7985
  25   2.0000      -0.918133       -24.9837
  26   2.0000      -0.889685       -24.2096
  27   2.0000      -0.864469       -23.5234
  28   2.0000      -0.829886       -22.5823
  29   2.0000      -0.811842       -22.0913
  30   2.0000      -0.787119       -21.4186
  31   2.0000      -0.760337       -20.6898
  32   2.0000      -0.725921       -19.7533
  33   2.0000      -0.708153       -19.2698
  34   2.0000      -0.689993       -18.7757
  35   2.0000      -0.673272       -18.3207
  36   2.0000      -0.669745       -18.2247
  37   2.0000      -0.657972       -17.9043
  38   2.0000      -0.642679       -17.4882
  39   2.0000      -0.618272       -16.8240
  40   2.0000      -0.603486       -16.4217
  41   2.0000      -0.597983       -16.2719
  42   2.0000      -0.584433       -15.9032
  43   2.0000      -0.571544       -15.5525
  44   2.0000      -0.560663       -15.2564
  45   2.0000      -0.551568       -15.0089
  46   2.0000      -0.548367       -14.9218
  47   2.0000      -0.530679       -14.4405
  48   2.0000      -0.516112       -14.0441
  49   2.0000      -0.512036       -13.9332
  50   2.0000      -0.507949       -13.8220
  51   2.0000      -0.494043       -13.4436
  52   2.0000      -0.488548       -13.2941
  53   2.0000      -0.470213       -12.7952
  54   2.0000      -0.464671       -12.6443
  55   2.0000      -0.456242       -12.4150
  56   2.0000      -0.449505       -12.2317
  57   2.0000      -0.442308       -12.0358
  58   2.0000      -0.437212       -11.8972
  59   2.0000      -0.433862       -11.8060
  60   2.0000      -0.420481       -11.4419
  61   2.0000      -0.419160       -11.4059
  62   2.0000      -0.417113       -11.3502
  63   2.0000      -0.403327       -10.9751
  64   2.0000      -0.397780       -10.8241
  65   2.0000      -0.394661       -10.7393
  66   2.0000      -0.365071        -9.9341
  67   2.0000      -0.272702        -7.4206
  68   0.0000       0.085890         2.3372
  69   0.0000       0.097980         2.6662
  70   0.0000       0.102440         2.7875
  71   0.0000       0.106736         2.9044
  72   0.0000       0.112036         3.0486

MULLIKEN ATOMIC CHARGES
-----------------------
   0 C :   -0.246508
   1 C :   -0.244980
   2 C :   -0.366601
   3 H :    0.196555
   4 H :    0.186235
   5 S :    0.799089
   6 C :    0.136203
   7 N :   -0.433154
   8 C :   -0.429569
   9 H :    0.149891
  10 H :    0.083225
  11 H :    0.213796
  12 H :    0.215477
  13 O :   -0.419041
  14 F :   -0.081272
  15 C :   -0.286196
  16 C :   -0.233952
  17 C :   -0.302045
  18 H :    0.177236
  19 H :    0.131322
  20 H :    0.148853
  21 H :    0.167276
  22 C :   -0.281970
  23 H :    0.120754
  24 H :    0.160892
  25 C :   -0.220373
  26 H :    0.152804
  27 H :    0.118045
  28 C :   -0.302288
  29 H :    0.128641
  30 H :    0.123793
  31 H :    0.119897
  32 H :    0.132882
  33 H :    0.126210
  34 H :    0.153175
  35 O :   -0.347590
  36 H :    0.143682
  37 H :    0.109606
Sum of atomic charges:    0.0000000

LOEWDIN ATOMIC CHARGES
----------------------
   0 C :   -0.221297
   1 C :   -0.285599
   2 C :   -0.380910
   3 H :    0.146993
   4 H :    0.149175
   5 S :    0.552012
   6 C :   -0.374936
   7 N :   -0.014434
   8 C :   -0.326776
   9 H :    0.100419
  10 H :    0.089728
  11 H :    0.158530
  12 H :    0.164980
  13 O :   -0.264486
  14 F :    0.107662
  15 C :   -0.264439
  16 C :   -0.279896
  17 C :   -0.281189
  18 H :    0.147360
  19 H :    0.142909
  20 H :    0.152447
  21 H :    0.151471
  22 C :   -0.277259
  23 H :    0.140022
  24 H :    0.147253
  25 C :   -0.278292
  26 H :    0.141832
  27 H :    0.138571
  28 C :   -0.277222
  29 H :    0.140118
  30 H :    0.138636
  31 H :    0.137743
  32 H :    0.140390
  33 H :    0.139077
  34 H :    0.144162
  35 O :   -0.238132
  36 H :    0.155531
  37 H :    0.137847

  Mayer bond orders larger than 0.100000
B(  0-C ,  6-C ) :   0.9157 B(  0-C , 15-C ) :   0.9616 B(  0-C , 36-H ) :   0.9692
B(  0-C , 37-H ) :   1.0025 B(  1-C ,  2-C ) :   0.9074 B(  1-C , 17-C ) :   0.9358
B(  1-C , 20-H ) :   0.9660 B(  1-C , 21-H ) :   0.9776 B(  2-C ,  3-H ) :   0.9350
B(  2-C ,  4-H ) :   0.9449 B(  2-C ,  5-S ) :   0.9237 B(  5-S , 13-O ) :   1.7626
B(  5-S , 14-F ) :   1.1560 B(  5-S , 35-O ) :   2.0291 B(  6-C ,  7-N ) :   1.1307
B(  6-C ,  8-C ) :   1.7986 B(  7-N , 11-H ) :   0.9347 B(  7-N , 12-H ) :   0.9343
B(  8-C ,  9-H ) :   0.9787 B(  8-C , 10-H ) :   0.9581 B( 15-C , 22-C ) :   0.8743
B( 15-C , 23-H ) :   0.9782 B( 15-C , 24-H ) :   0.9759 B( 16-C , 17-C ) :   0.8765
B( 16-C , 28-C ) :   0.9081 B( 16-C , 31-H ) :   0.9683 B( 16-C , 32-H ) :   0.9770
B( 17-C , 18-H ) :   0.9804 B( 17-C , 19-H ) :   0.9825 B( 22-C , 25-C ) :   0.9286
B( 22-C , 26-H ) :   0.9884 B( 22-C , 27-H ) :   0.9821 B( 25-C , 28-C ) :   0.9298
B( 25-C , 29-H ) :   0.9900 B( 25-C , 30-H ) :   0.9949 B( 28-C , 33-H ) :   0.9844
B( 28-C , 34-H ) :   0.9914

FINAL SINGLE POINT ENERGY     -1133.873012521181

DIPOLE MOMENT
-------------
                                X             Y             Z
Electronic contribution:    -11.74408     -18.14040     -14.65926
Nuclear contribution   :     10.61624      18.49702      15.75668
                        -----------------------------------------
Total Dipole Moment    :     -1.12784       0.35662       1.09742
                        -----------------------------------------
Magnitude (a.u.)       :      1.61354
Magnitude (Debye)      :      4.10130

Rotational constants in cm-1:     0.017796     0.012372     0.008231
Rotational constants in MHz :   533.524905   370.895973   246.762347

                             ****ORCA TERMINATED NORMALLY****
TOTAL RUN TIME: 0 days 0 hours 1 minutes 47 seconds 103 msec
