                         Program Version 5.0.0 -  RELEASE  -
|  1> !LC-BLYP RIJCOSX def2-TZVP def2/J TightSCF xyzfile
|  2>
|  3> *xyzfile 0 1 D6.xyz
|  4>
|  5> %MaxCore 64000
|  6>
|  7> %pal nprocs 18
|  8> end
|  9>
| 10> %scf
| 11>   MaxIter 150
| 12> end
| 13>
| 14>
| 15>                          ****END OF INPUT****

CARTESIAN COORDINATES (ANGSTROEM)
---------------------------------
  C      5.558206   -1.992914   -6.215054
  C      4.930199   -7.375319   -2.649623
  C      3.841892   -6.951611   -3.632829
  H      3.458144   -5.954425   -3.407121
  H      2.988484   -7.643606   -3.567078
  S      4.318115   -6.915930   -5.368692
  C      4.181880   -2.589671   -6.298911
  N      3.145873   -1.768431   -6.486753
  C      4.019102   -3.864307   -6.227427
  H      4.768490   -4.591153   -5.990773
  H      3.122405   -4.333392   -6.314620
  H      3.281635   -0.777786   -6.566549
  H      2.212549   -2.134193   -6.562246
  O      5.406154   -5.899480   -5.512972
  O      3.111910   -6.445079   -6.043792
  C      6.419260   -2.542944   -5.077630
  C      5.872267   -5.002756   -2.427819
  C      6.173994   -6.485522   -2.606315
  H      6.734852   -6.613767   -3.534015
  H      6.821463   -6.831018   -1.793617
  H      4.469612   -7.406168   -1.655876
  H      5.230134   -8.398678   -2.885906
  C      5.896512   -2.169314   -3.694552
  H      7.428880   -2.143665   -5.208078
  H      6.505894   -3.627541   -5.175502
  C      6.807804   -2.623428   -2.551019
  H      4.894708   -2.589732   -3.557501
  H      5.778823   -1.081255   -3.635790
  C      7.111544   -4.122463   -2.520363
  H      7.751615   -2.071393   -2.614406
  H      6.345837   -2.326401   -1.604086
  H      5.362882   -4.828697   -1.471335
  H      5.174429   -4.702577   -3.211298
  H      7.778329   -4.329347   -1.677651
  H      7.673189   -4.402845   -3.417586
  F      4.763396   -8.239424   -5.698629
  H      6.036826   -2.198189   -7.176852
  H      5.467610   -0.907371   -6.127968

 Total Charge           Charge          ....    0
 Multiplicity           Mult            ....    1
 Number of Electrons    NEL             ....  136
 Basis Dimension        Dim             ....  634

ORBITAL ENERGIES
----------------

  NO   OCC          E(Eh)            E(eV)
   0   2.0000     -88.524509     -2408.8743
   1   2.0000     -24.582508      -668.9241
   2   2.0000     -18.948537      -515.6159
   3   2.0000     -18.944063      -515.4942
   4   2.0000     -14.140502      -384.7826
   5   2.0000     -10.131875      -275.7023
   6   2.0000     -10.097147      -274.7573
   7   2.0000     -10.069513      -274.0054
   8   2.0000     -10.058726      -273.7118
   9   2.0000     -10.058454      -273.7045
  10   2.0000     -10.054655      -273.6011
  11   2.0000     -10.052088      -273.5312
  12   2.0000     -10.046785      -273.3869
  13   2.0000     -10.045018      -273.3388
  14   2.0000     -10.044132      -273.3147
  15   2.0000      -9.953644      -270.8524
  16   2.0000      -8.066886      -219.5111
  17   2.0000      -6.098706      -165.9542
  18   2.0000      -6.091754      -165.7651
  19   2.0000      -6.091390      -165.7552
  20   2.0000      -1.474689       -40.1283
  21   2.0000      -1.199617       -32.6432
  22   2.0000      -1.099371       -29.9154
  23   2.0000      -1.000445       -27.2235
  24   2.0000      -0.951723       -25.8977
  25   2.0000      -0.916314       -24.9342
  26   2.0000      -0.886744       -24.1295
  27   2.0000      -0.862011       -23.4565
  28   2.0000      -0.831472       -22.6255
  29   2.0000      -0.810809       -22.0632
  30   2.0000      -0.785358       -21.3707
  31   2.0000      -0.756796       -20.5935
  32   2.0000      -0.725046       -19.7295
  33   2.0000      -0.712254       -19.3814
  34   2.0000      -0.701863       -19.0987
  35   2.0000      -0.689376       -18.7589
  36   2.0000      -0.663332       -18.0502
  37   2.0000      -0.652702       -17.7609
  38   2.0000      -0.634011       -17.2523
  39   2.0000      -0.609658       -16.5896
  40   2.0000      -0.603678       -16.4269
  41   2.0000      -0.595379       -16.2011
  42   2.0000      -0.578812       -15.7503
  43   2.0000      -0.569860       -15.5067
  44   2.0000      -0.562401       -15.3037
  45   2.0000      -0.553030       -15.0487
  46   2.0000      -0.548071       -14.9138
  47   2.0000      -0.525549       -14.3009
  48   2.0000      -0.518269       -14.1028
  49   2.0000      -0.513763       -13.9802
  50   2.0000      -0.512575       -13.9479
  51   2.0000      -0.492179       -13.3929
  52   2.0000      -0.473426       -12.8826
  53   2.0000      -0.467620       -12.7246
  54   2.0000      -0.455073       -12.3832
  55   2.0000      -0.447465       -12.1761
  56   2.0000      -0.445277       -12.1166
  57   2.0000      -0.439034       -11.9467
  58   2.0000      -0.430074       -11.7029
  59   2.0000      -0.424544       -11.5524
  60   2.0000      -0.418423       -11.3859
  61   2.0000      -0.415533       -11.3072
  62   2.0000      -0.411888       -11.2080
  63   2.0000      -0.401168       -10.9163
  64   2.0000      -0.394657       -10.7392
  65   2.0000      -0.389631       -10.6024
  66   2.0000      -0.362606        -9.8670
  67   2.0000      -0.258411        -7.0317
  68   0.0000       0.076620         2.0849
  69   0.0000       0.103969         2.8292
  70   0.0000       0.106749         2.9048
  71   0.0000       0.111276         3.0280
  72   0.0000       0.114846         3.1251

MULLIKEN ATOMIC CHARGES
-----------------------
   0 C :   -0.242486
   1 C :   -0.262497
   2 C :   -0.372356
   3 H :    0.214203
   4 H :    0.190555
   5 S :    0.797067
   6 C :    0.163804
   7 N :   -0.437897
   8 C :   -0.451293
   9 H :    0.140824
  10 H :    0.121084
  11 H :    0.209252
  12 H :    0.216321
  13 O :   -0.416398
  14 O :   -0.378286
  15 C :   -0.286560
  16 C :   -0.231348
  17 C :   -0.286100
  18 H :    0.162102
  19 H :    0.132142
  20 H :    0.150681
  21 H :    0.156061
  22 C :   -0.281222
  23 H :    0.116990
  24 H :    0.154933
  25 C :   -0.219931
  26 H :    0.155756
  27 H :    0.117479
  28 C :   -0.302472
  29 H :    0.127654
  30 H :    0.123344
  31 H :    0.121777
  32 H :    0.134611
  33 H :    0.125241
  34 H :    0.151859
  35 F :   -0.060020
  36 H :    0.139007
  37 H :    0.106122
Sum of atomic charges:   -0.0000000

LOEWDIN ATOMIC CHARGES
----------------------
   0 C :   -0.223693
   1 C :   -0.297973
   2 C :   -0.375879
   3 H :    0.159071
   4 H :    0.150571
   5 S :    0.545439
   6 C :   -0.381302
   7 N :   -0.019571
   8 C :   -0.309372
   9 H :    0.102767
  10 H :    0.100994
  11 H :    0.156215
  12 H :    0.165155
  13 O :   -0.266125
  14 O :   -0.245859
  15 C :   -0.265706
  16 C :   -0.278756
  17 C :   -0.285148
  18 H :    0.142592
  19 H :    0.142560
  20 H :    0.152014
  21 H :    0.143314
  22 C :   -0.276946
  23 H :    0.138607
  24 H :    0.145676
  25 C :   -0.278586
  26 H :    0.142684
  27 H :    0.138649
  28 C :   -0.277536
  29 H :    0.139881
  30 H :    0.138421
  31 H :    0.138436
  32 H :    0.142352
  33 H :    0.138515
  34 H :    0.143745
  35 F :    0.124383
  36 H :    0.153840
  37 H :    0.136572

  Mayer bond orders larger than 0.100000
B(  0-C ,  6-C ) :   0.9124 B(  0-C , 15-C ) :   0.9646 B(  0-C , 36-H ) :   0.9703
B(  0-C , 37-H ) :   1.0026 B(  1-C ,  2-C ) :   0.8898 B(  1-C , 17-C ) :   0.9096
B(  1-C , 20-H ) :   0.9671 B(  1-C , 21-H ) :   0.9897 B(  2-C ,  3-H ) :   0.9352
B(  2-C ,  4-H ) :   0.9540 B(  2-C ,  5-S ) :   0.9186 B(  5-S , 13-O ) :   1.7840
B(  5-S , 14-O ) :   1.9379 B(  5-S , 35-F ) :   1.1923 B(  6-C ,  7-N ) :   1.1216
B(  6-C ,  8-C ) :   1.7691 B(  7-N , 11-H ) :   0.9371 B(  7-N , 12-H ) :   0.9329
B(  8-C ,  9-H ) :   1.0024 B(  8-C , 10-H ) :   0.9725 B( 15-C , 22-C ) :   0.8756
B( 15-C , 23-H ) :   0.9786 B( 15-C , 24-H ) :   0.9768 B( 16-C , 17-C ) :   0.8717
B( 16-C , 28-C ) :   0.9068 B( 16-C , 31-H ) :   0.9688 B( 16-C , 32-H ) :   0.9762
B( 17-C , 18-H ) :   0.9855 B( 17-C , 19-H ) :   0.9808 B( 22-C , 25-C ) :   0.9265
B( 22-C , 26-H ) :   0.9887 B( 22-C , 27-H ) :   0.9822 B( 25-C , 28-C ) :   0.9321
B( 25-C , 29-H ) :   0.9898 B( 25-C , 30-H ) :   0.9952 B( 28-C , 33-H ) :   0.9845
B( 28-C , 34-H ) :   0.9911

FINAL SINGLE POINT ENERGY     -1133.860349916449

DIPOLE MOMENT
-------------
                                X             Y             Z
Electronic contribution:     -8.86864     -21.49775     -14.05744
Nuclear contribution   :      8.67311      20.60825      15.35056
                        -----------------------------------------
Total Dipole Moment    :     -0.19553      -0.88951       1.29312
                        -----------------------------------------
Magnitude (a.u.)       :      1.58165
Magnitude (Debye)      :      4.02024

Rotational constants in cm-1:     0.017976     0.012151     0.008188
Rotational constants in MHz :   538.898457   364.286417   245.482451

                             ****ORCA TERMINATED NORMALLY****
TOTAL RUN TIME: 0 days 0 hours 1 minutes 40 seconds 278 msec
