                         Program Version 5.0.0 -  RELEASE  -
|  1> !M062X D3Zero RIJCOSX def2-TZVPD def2/J TightSCF
|  2> *xyz -1 1
|  3> C         -2.79070       -0.78527        5.70281
|  4> C         -2.45380        0.05510        6.94145
|  5> C         -2.07842        1.48042        6.56410
|  6> H         -1.62558       -0.38216        7.49891
|  7> H         -3.32527        0.08775        7.59917
|  8> O         -0.90125        1.85816        6.82810
|  9> O         -2.93658        2.17731        5.96415
| 10> H         -1.94052       -0.82114        5.05412
| 11> H         -3.61590       -0.34261        5.18514
| 12> H         -3.05063       -1.77815        6.00536
| 13> *
| 14> %MaxCore 64000
| 15>
| 16> %pal nprocs 4
| 17> end
| 18>
| 19> %scf
| 20>   MaxIter 150
| 21> end
| 22>
| 23>
| 24>                          ****END OF INPUT****

CARTESIAN COORDINATES (ANGSTROEM)
---------------------------------
  C     -2.790700   -0.785270    5.702810
  C     -2.453800    0.055100    6.941450
  C     -2.078420    1.480420    6.564100
  H     -1.625580   -0.382160    7.498910
  H     -3.325270    0.087750    7.599170
  O     -0.901250    1.858160    6.828100
  O     -2.936580    2.177310    5.964150
  H     -1.940520   -0.821140    5.054120
  H     -3.615900   -0.342610    5.185140
  H     -3.050630   -1.778150    6.005360

 Total Charge           Charge          ....   -1
 Multiplicity           Mult            ....    1
 Number of Electrons    NEL             ....   40
 Basis Dimension        Dim             ....  236

ORBITAL ENERGIES
----------------

  NO   OCC          E(Eh)            E(eV)
   0   2.0000     -19.360420      -526.8238
   1   2.0000     -19.359315      -526.7938
   2   2.0000     -10.421468      -283.5826
   3   2.0000     -10.371289      -282.2171
   4   2.0000     -10.359928      -281.9080
   5   2.0000      -0.940207       -25.5843
   6   2.0000      -0.841287       -22.8926
   7   2.0000      -0.703585       -19.1455
   8   2.0000      -0.563754       -15.3405
   9   2.0000      -0.400799       -10.9063
  10   2.0000      -0.363082        -9.8800
  11   2.0000      -0.337323        -9.1790
  12   2.0000      -0.301139        -8.1944
  13   2.0000      -0.285179        -7.7601
  14   2.0000      -0.279594        -7.6081
  15   2.0000      -0.244520        -6.6537
  16   2.0000      -0.229931        -6.2567
  17   2.0000      -0.112354        -3.0573
  18   2.0000      -0.111531        -3.0349
  19   2.0000      -0.103526        -2.8171
  20   0.0000       0.141492         3.8502
  21   0.0000       0.164162         4.4671
  22   0.0000       0.171956         4.6792
  23   0.0000       0.184993         5.0339
  24   0.0000       0.211319         5.7503

MULLIKEN ATOMIC CHARGES
-----------------------
   0 C :   -1.072802
   1 C :   -0.301918
   2 C :    0.607808
   3 H :    0.254202
   4 H :    0.265382
   5 O :   -0.797953
   6 O :   -0.801987
   7 H :    0.308857
   8 H :    0.252868
   9 H :    0.285543
Sum of atomic charges:   -1.0000000

LOEWDIN ATOMIC CHARGES
----------------------
   0 C :   -0.129126
   1 C :   -0.213251
   2 C :   -0.771122
   3 H :    0.090449
   4 H :    0.096561
   5 O :   -0.124850
   6 O :   -0.113561
   7 H :    0.063837
   8 H :    0.057336
   9 H :    0.043726

  Mayer bond orders larger than 0.100000
B(  0-C ,  1-C ) :   0.4668 B(  0-C ,  7-H ) :   0.9635 B(  0-C ,  8-H ) :   1.0448
B(  0-C ,  9-H ) :   0.9526 B(  1-C ,  2-C ) :   0.9239 B(  1-C ,  3-H ) :   1.0021
B(  1-C ,  4-H ) :   0.9667 B(  2-C ,  5-O ) :   1.3271 B(  2-C ,  6-O ) :   1.3465

Dispersion correction           -0.000086182
FINAL SINGLE POINT ENERGY      -267.831189856246

DIPOLE MOMENT
-------------
                                X             Y             Z
Electronic contribution:      1.62356       5.51784       0.68306
Nuclear contribution   :     -2.24498      -7.51881      -0.57245
                        -----------------------------------------
Total Dipole Moment    :     -0.62142      -2.00097       0.11061
                        -----------------------------------------
Magnitude (a.u.)       :      2.09816
Magnitude (Debye)      :      5.33311

Rotational constants in cm-1:     0.305589     0.135336     0.107479
Rotational constants in MHz :  9161.317320  4057.276612  3222.126231

                             ****ORCA TERMINATED NORMALLY****
TOTAL RUN TIME: 0 days 0 hours 0 minutes 32 seconds 355 msec
