                         Program Version 5.0.0 -  RELEASE  -
|  1> !M062X D3Zero RIJCOSX def2-TZVPD def2/J TightSCF
|  2> *xyz 1 1
|  3> C         -0.69912        3.48945        3.75516
|  4> H         -0.96672        4.34901        3.14049
|  5> N         -1.08067        3.79296        5.15686
|  6> C          0.77696        3.13839        3.61741
|  7> H         -1.33146        2.65651        3.44632
|  8> H         -0.87449        4.76274        5.42734
|  9> H         -0.68079        3.13476        5.83900
| 10> H         -2.05755        3.53169        5.34620
| 11> H          0.99957        2.92898        2.59199
| 12> H          0.99576        2.27685        4.21303
| 13> H          1.37223        3.96279        3.95046
| 14> *
| 15> %MaxCore 64000
| 16>
| 17> %pal nprocs 4
| 18> end
| 19>
| 20> %scf
| 21>   MaxIter 150
| 22> end
| 23>
| 24>
| 25>                          ****END OF INPUT****

CARTESIAN COORDINATES (ANGSTROEM)
---------------------------------
  C     -0.699120    3.489450    3.755160
  H     -0.966720    4.349010    3.140490
  N     -1.080670    3.792960    5.156860
  C      0.776960    3.138390    3.617410
  H     -1.331460    2.656510    3.446320
  H     -0.874490    4.762740    5.427340
  H     -0.680790    3.134760    5.839000
  H     -2.057550    3.531690    5.346200
  H      0.999570    2.928980    2.591990
  H      0.995760    2.276850    4.213030
  H      1.372230    3.962790    3.950460

 Total Charge           Charge          ....    1
 Multiplicity           Mult            ....    1
 Number of Electrons    NEL             ....   26
 Basis Dimension        Dim             ....  183

ORBITAL ENERGIES
----------------

  NO   OCC          E(Eh)            E(eV)
   0   2.0000     -15.081336      -410.3840
   1   2.0000     -10.790702      -293.6299
   2   2.0000     -10.708106      -291.3824
   3   2.0000      -1.326586       -36.0982
   4   2.0000      -1.063130       -28.9292
   5   2.0000      -0.932449       -25.3732
   6   2.0000      -0.890278       -24.2257
   7   2.0000      -0.840821       -22.8799
   8   2.0000      -0.768891       -20.9226
   9   2.0000      -0.712390       -19.3851
  10   2.0000      -0.645612       -17.5680
  11   2.0000      -0.630398       -17.1540
  12   2.0000      -0.614100       -16.7105
  13   0.0000      -0.178691        -4.8624
  14   0.0000      -0.122487        -3.3331
  15   0.0000      -0.121116        -3.2957
  16   0.0000      -0.113412        -3.0861
  17   0.0000      -0.084778        -2.3069

MULLIKEN ATOMIC CHARGES
-----------------------
   0 C :   -0.285623
   1 H :    0.337876
   2 N :   -0.490898
   3 C :   -1.163124
   4 H :    0.331206
   5 H :    0.393941
   6 H :    0.395822
   7 H :    0.401533
   8 H :    0.331462
   9 H :    0.376829
  10 H :    0.370975
Sum of atomic charges:    1.0000000

LOEWDIN ATOMIC CHARGES
----------------------
   0 C :   -0.199957
   1 H :    0.137914
   2 N :    0.170202
   3 C :   -0.054989
   4 H :    0.135471
   5 H :    0.188099
   6 H :    0.181381
   7 H :    0.182525
   8 H :    0.092462
   9 H :    0.082942
  10 H :    0.083950

  Mayer bond orders larger than 0.100000
B(  0-C ,  1-H ) :   0.9292 B(  0-C ,  2-N ) :   0.8292 B(  0-C ,  3-C ) :   0.5496
B(  0-C ,  4-H ) :   0.8980 B(  2-N ,  5-H ) :   0.8405 B(  2-N ,  6-H ) :   0.8373
B(  2-N ,  7-H ) :   0.8429 B(  3-C ,  8-H ) :   0.9740 B(  3-C ,  9-H ) :   0.8998
B(  3-C , 10-H ) :   0.9382

Dispersion correction           -0.000055245
FINAL SINGLE POINT ENERGY      -135.503937839955

DIPOLE MOMENT
-------------
                                X             Y             Z
Electronic contribution:     -1.31490       0.56733       1.08023
Nuclear contribution   :      0.33986      -0.24565       0.10678
                        -----------------------------------------
Total Dipole Moment    :     -0.97504       0.32168       1.18701
                        -----------------------------------------
Magnitude (a.u.)       :      1.56945
Magnitude (Debye)      :      3.98923

Rotational constants in cm-1:     1.016237     0.277523     0.247812
Rotational constants in MHz : 30466.024354  8319.937961  7429.230177

                             ****ORCA TERMINATED NORMALLY****
TOTAL RUN TIME: 0 days 0 hours 0 minutes 19 seconds 419 msec
