                         Program Version 5.0.0 -  RELEASE  -
|  1> !M062X D3Zero RIJCOSX def2-TZVPD def2/J TightSCF xyzfile
|  2>
|  3> *xyzfile 0 1 B.xyz
|  4>
|  5> %MaxCore 64000
|  6>
|  7> %pal nprocs 4
|  8> end
|  9>
| 10> %scf
| 11>   MaxIter 150
| 12> end
| 13>
| 14>
| 15>                          ****END OF INPUT****

CARTESIAN COORDINATES (ANGSTROEM)
---------------------------------
  C     -0.699123    3.489451    3.755163
  H     -0.966716    4.349013    3.140491
  N     -1.080669    3.792957    5.156857
  C      0.776956    3.138391    3.617408
  H     -1.331455    2.656510    3.446323
  H      1.371398    3.888342    4.149744
  H      1.046926    3.232057    2.561331
  C      1.118917    1.731170    4.115155
  H      2.200573    1.654226    4.254882
  C      0.659466    0.635182    3.153306
  H      0.677024    1.576674    5.103150
  H      1.312288    0.638870    2.274207
  H     -0.339563    0.868049    2.772876
  C      0.639957   -0.771175    3.755619
  C     -0.341821   -0.965537    4.915046
  H      1.648266   -1.028665    4.097015
  H      0.398568   -1.482386    2.958453
  H     -0.279892   -2.005646    5.252547
  C     -1.789164   -0.639231    4.557496
  H     -0.032380   -0.352918    5.765118
  H     -2.107151   -1.270102    3.719619
  H     -1.856352    0.391636    4.197604
  C     -2.790700   -0.785275    5.702812
  H     -2.867308   -1.835651    6.001675
  H     -3.774554   -0.486577    5.334807
  C     -2.453797    0.055101    6.941445
  C     -2.078419    1.480421    6.564098
  H     -1.625584   -0.382163    7.498914
  H     -3.325274    0.087746    7.599175
  H     -0.874488    4.762737    5.427344
  H     -0.680793    3.134762    5.839000
  H     -2.057550    3.531691    5.346197
  O     -0.901252    1.858156    6.828104
  O     -2.936582    2.177309    5.964151

 Total Charge           Charge          ....    0
 Multiplicity           Mult            ....    1
 Number of Electrons    NEL             ....  104
 Basis Dimension        Dim             ....  676

ORBITAL ENERGIES
----------------

  NO   OCC          E(Eh)            E(eV)
   0   2.0000     -19.561975      -532.3084
   1   2.0000     -19.559916      -532.2524
   2   2.0000     -14.826845      -403.4590
   3   2.0000     -10.614984      -288.8484
   4   2.0000     -10.606410      -288.6151
   5   2.0000     -10.557896      -287.2950
   6   2.0000     -10.533441      -286.6295
   7   2.0000     -10.529855      -286.5319
   8   2.0000     -10.523381      -286.3558
   9   2.0000     -10.514588      -286.1165
  10   2.0000     -10.514101      -286.1032
  11   2.0000     -10.512882      -286.0701
  12   2.0000     -10.506903      -285.9074
  13   2.0000      -1.152654       -31.3653
  14   2.0000      -1.092003       -29.7149
  15   2.0000      -1.048668       -28.5357
  16   2.0000      -0.922752       -25.1094
  17   2.0000      -0.893440       -24.3117
  18   2.0000      -0.863313       -23.4919
  19   2.0000      -0.813568       -22.1383
  20   2.0000      -0.779220       -21.2037
  21   2.0000      -0.737173       -20.0595
  22   2.0000      -0.695894       -18.9362
  23   2.0000      -0.675168       -18.3723
  24   2.0000      -0.656680       -17.8692
  25   2.0000      -0.629713       -17.1354
  26   2.0000      -0.622325       -16.9343
  27   2.0000      -0.573426       -15.6037
  28   2.0000      -0.565132       -15.3780
  29   2.0000      -0.544720       -14.8226
  30   2.0000      -0.543339       -14.7850
  31   2.0000      -0.520513       -14.1639
  32   2.0000      -0.516693       -14.0599
  33   2.0000      -0.501031       -13.6338
  34   2.0000      -0.491753       -13.3813
  35   2.0000      -0.476293       -12.9606
  36   2.0000      -0.472827       -12.8663
  37   2.0000      -0.468304       -12.7432
  38   2.0000      -0.451300       -12.2805
  39   2.0000      -0.447118       -12.1667
  40   2.0000      -0.425535       -11.5794
  41   2.0000      -0.420467       -11.4415
  42   2.0000      -0.413781       -11.2595
  43   2.0000      -0.397162       -10.8073
  44   2.0000      -0.386113       -10.5067
  45   2.0000      -0.381527       -10.3819
  46   2.0000      -0.365800        -9.9539
  47   2.0000      -0.360308        -9.8045
  48   2.0000      -0.354384        -9.6433
  49   2.0000      -0.316364        -8.6087
  50   2.0000      -0.310732        -8.4555
  51   2.0000      -0.303481        -8.2581
  52   0.0000      -0.005213        -0.1418
  53   0.0000       0.017908         0.4873
  54   0.0000       0.021802         0.5933
  55   0.0000       0.027936         0.7602
  56   0.0000       0.040455         1.1008

MULLIKEN ATOMIC CHARGES
-----------------------
   0 C :   -0.417766
   1 H :    0.345247
   2 N :   -0.470072
   3 C :   -0.992527
   4 H :    0.268601
   5 H :    0.360863
   6 H :    0.401626
   7 C :   -0.099254
   8 H :    0.363826
   9 C :   -0.502675
  10 H :    0.136241
  11 H :    0.341402
  12 H :    0.279404
  13 C :   -1.176003
  14 C :   -0.389731
  15 H :    0.373140
  16 H :    0.374483
  17 H :    0.357500
  18 C :   -0.036302
  19 H :    0.223490
  20 H :    0.463590
  21 H :   -0.206873
  22 C :   -0.944733
  23 H :    0.374645
  24 H :    0.313334
  25 C :   -0.821578
  26 C :    1.150954
  27 H :    0.305996
  28 H :    0.427188
  29 H :    0.335098
  30 H :    0.326404
  31 H :    0.474414
  32 O :   -0.954811
  33 O :   -0.985122
Sum of atomic charges:   -0.0000000

LOEWDIN ATOMIC CHARGES
----------------------
   0 C :   -0.160968
   1 H :    0.124090
   2 N :    0.139525
   3 C :   -0.189237
   4 H :    0.119084
   5 H :    0.115870
   6 H :    0.118364
   7 C :   -0.199826
   8 H :    0.120599
   9 C :   -0.219383
  10 H :    0.092788
  11 H :    0.114983
  12 H :    0.097671
  13 C :   -0.210017
  14 C :   -0.210329
  15 H :    0.113138
  16 H :    0.111335
  17 H :    0.119116
  18 C :   -0.212148
  19 H :    0.098293
  20 H :    0.120642
  21 H :    0.092711
  22 C :   -0.199476
  23 H :    0.111548
  24 H :    0.111920
  25 C :   -0.121609
  26 C :   -0.649491
  27 H :    0.111719
  28 H :    0.118932
  29 H :    0.170800
  30 H :    0.073493
  31 H :    0.101673
  32 O :   -0.073135
  33 O :   -0.052677

  Mayer bond orders larger than 0.100000
B(  0-C ,  1-H ) :   0.9412 B(  0-C ,  2-N ) :   0.7754 B(  0-C ,  3-C ) :   0.7483
B(  0-C ,  4-H ) :   0.9217 B(  2-N , 29-H ) :   0.8931 B(  2-N , 30-H ) :   0.7407
B(  2-N , 31-H ) :   0.7031 B(  3-C ,  5-H ) :   0.9462 B(  3-C ,  6-H ) :   0.8957
B(  3-C ,  7-C ) :   0.6391 B(  3-C ,  9-C ) :   0.2127 B(  7-C ,  8-H ) :   0.9307
B(  7-C ,  9-C ) :   0.3058 B(  7-C , 10-H ) :   0.9829 B(  7-C , 12-H ) :  -0.1404
B(  7-C , 13-C ) :   0.1694 B(  9-C , 11-H ) :   0.9543 B(  9-C , 12-H ) :   1.0263
B(  9-C , 13-C ) :   0.6854 B( 13-C , 14-C ) :   0.5547 B( 13-C , 15-H ) :   0.9587
B( 13-C , 16-H ) :   0.9755 B( 13-C , 18-C ) :   0.1835 B( 14-C , 17-H ) :   0.8887
B( 14-C , 18-C ) :   0.2878 B( 14-C , 19-H ) :   1.0720 B( 14-C , 21-H ) :  -0.2058
B( 14-C , 22-C ) :   0.1302 B( 14-C , 25-C ) :   0.1419 B( 18-C , 19-H ) :  -0.1236
B( 18-C , 20-H ) :   0.8056 B( 18-C , 21-H ) :   1.1897 B( 18-C , 22-C ) :   0.5631
B( 18-C , 25-C ) :  -0.1508 B( 21-H , 22-C ) :   0.1864 B( 22-C , 23-H ) :   0.9376
B( 22-C , 24-H ) :   0.9782 B( 22-C , 25-C ) :   0.6688 B( 25-C , 26-C ) :   0.9511
B( 25-C , 27-H ) :   1.0345 B( 25-C , 28-H ) :   0.8551 B( 26-C , 32-O ) :   0.9442
B( 26-C , 33-O ) :   0.7914 B( 30-H , 32-O ) :   0.1523 B( 32-O , 33-O ) :   0.1016

Dispersion correction           -0.002087310
FINAL SINGLE POINT ENERGY      -598.896785279950

DIPOLE MOMENT
-------------
                                X             Y             Z
Electronic contribution:     -4.65127       4.82410       6.68557
Nuclear contribution   :      5.60885      -3.40606      -8.06960
                        -----------------------------------------
Total Dipole Moment    :      0.95757       1.41804      -1.38403
                        -----------------------------------------
Magnitude (a.u.)       :      2.20075
Magnitude (Debye)      :      5.59386

Rotational constants in cm-1:     0.028465     0.023505     0.015110
Rotational constants in MHz :   853.363165   704.655786   452.976312

                             ****ORCA TERMINATED NORMALLY****
TOTAL RUN TIME: 0 days 0 hours 6 minutes 53 seconds 129 msec
