                         Program Version 5.0.0 -  RELEASE  -
|  1> !M062X D3Zero RIJCOSX def2-TZVPD def2/J TightSCF
|  2> *xyz 0 1
|  3> C         -2.79070       -0.78527        5.70281
|  4> C         -2.45380        0.05510        6.94145
|  5> C         -2.07842        1.48042        6.56410
|  6> H         -1.62558       -0.38216        7.49891
|  7> H         -3.32527        0.08775        7.59917
|  8> F         -0.90125        1.85816        6.82810
|  9> O         -2.93658        2.17731        5.96415
| 10> H         -1.94052       -0.82114        5.05412
| 11> H         -3.61590       -0.34261        5.18514
| 12> H         -3.05063       -1.77815        6.00536
| 13> *
| 14> %MaxCore 64000
| 15>
| 16> %pal nprocs 4
| 17> end
| 18>
| 19> %scf
| 20>   MaxIter 150
| 21> end
| 22>
| 23>
| 24>                          ****END OF INPUT****

CARTESIAN COORDINATES (ANGSTROEM)
---------------------------------
  C     -2.790700   -0.785270    5.702810
  C     -2.453800    0.055100    6.941450
  C     -2.078420    1.480420    6.564100
  H     -1.625580   -0.382160    7.498910
  H     -3.325270    0.087750    7.599170
  F     -0.901250    1.858160    6.828100
  O     -2.936580    2.177310    5.964150
  H     -1.940520   -0.821140    5.054120
  H     -3.615900   -0.342610    5.185140
  H     -3.050630   -1.778150    6.005360

 Total Charge           Charge          ....    0
 Multiplicity           Mult            ....    1
 Number of Electrons    NEL             ....   40
 Basis Dimension        Dim             ....  236

ORBITAL ENERGIES
----------------

  NO   OCC          E(Eh)            E(eV)
   0   2.0000     -25.313187      -688.8068
   1   2.0000     -19.635752      -534.3160
   2   2.0000     -10.721146      -291.7372
   3   2.0000     -10.568895      -287.5943
   4   2.0000     -10.541502      -286.8489
   5   2.0000      -1.459271       -39.7088
   6   2.0000      -1.155977       -31.4557
   7   2.0000      -0.903020       -24.5724
   8   2.0000      -0.787407       -21.4264
   9   2.0000      -0.730688       -19.8830
  10   2.0000      -0.641053       -17.4440
  11   2.0000      -0.628872       -17.1125
  12   2.0000      -0.595322       -16.1995
  13   2.0000      -0.538854       -14.6630
  14   2.0000      -0.511992       -13.9320
  15   2.0000      -0.468883       -12.7589
  16   2.0000      -0.450521       -12.2593
  17   2.0000      -0.441084       -12.0025
  18   2.0000      -0.414846       -11.2885
  19   2.0000      -0.372674       -10.1410
  20   0.0000       0.003951         0.1075
  21   0.0000       0.016303         0.4436
  22   0.0000       0.035330         0.9614
  23   0.0000       0.042532         1.1574
  24   0.0000       0.052431         1.4267

MULLIKEN ATOMIC CHARGES
-----------------------
   0 C :   -1.101860
   1 C :   -0.338254
   2 C :    0.724050
   3 H :    0.301668
   4 H :    0.288101
   5 F :   -0.240267
   6 O :   -0.581349
   7 H :    0.338607
   8 H :    0.303040
   9 H :    0.306264
Sum of atomic charges:   -0.0000000

LOEWDIN ATOMIC CHARGES
----------------------
   0 C :   -0.085149
   1 C :   -0.155866
   2 C :   -0.471867
   3 H :    0.110444
   4 H :    0.123244
   5 F :    0.185865
   6 O :    0.072785
   7 H :    0.076181
   8 H :    0.074412
   9 H :    0.069952

  Mayer bond orders larger than 0.100000
B(  0-C ,  1-C ) :   0.5327 B(  0-C ,  7-H ) :   0.9266 B(  0-C ,  8-H ) :   1.0089
B(  0-C ,  9-H ) :   0.9561 B(  1-C ,  2-C ) :   0.9007 B(  1-C ,  3-H ) :   0.9411
B(  1-C ,  4-H ) :   0.9687 B(  2-C ,  5-F ) :   0.9175 B(  2-C ,  6-O ) :   1.6420

Dispersion correction           -0.000089563
FINAL SINGLE POINT ENERGY      -292.395416040583

DIPOLE MOMENT
-------------
                                X             Y             Z
Electronic contribution:      3.96004       7.39257       1.49235
Nuclear contribution   :     -3.69486      -8.49563      -1.04945
                        -----------------------------------------
Total Dipole Moment    :      0.26518      -1.10306       0.44289
                        -----------------------------------------
Magnitude (a.u.)       :      1.21787
Magnitude (Debye)      :      3.09559

Rotational constants in cm-1:     0.293725     0.129218     0.102393
Rotational constants in MHz :  8805.653529  3873.869810  3069.666716

                             ****ORCA TERMINATED NORMALLY****
TOTAL RUN TIME: 0 days 0 hours 0 minutes 34 seconds 30 msec
