                         Program Version 5.0.0 -  RELEASE  -
|  1> !M062X D3Zero RIJCOSX def2-TZVPD def2/J TightSCF
|  2> *xyz 0 1
|  3> C         -0.69912        3.48945        3.75516
|  4> H         -0.96672        4.34901        3.14049
|  5> C         -1.08067        3.79296        5.15686
|  6> C          0.77696        3.13839        3.61741
|  7> H         -1.33146        2.65651        3.44632
|  8> H         -0.87449        4.76274        5.42734
|  9> H         -0.68079        3.13476        5.83900
| 10> H         -2.05755        3.53169        5.34620
| 11> H          0.99957        2.92898        2.59199
| 12> H          0.99576        2.27685        4.21303
| 13> H          1.37223        3.96279        3.95046
| 14> *
| 15> %MaxCore 64000
| 16>
| 17> %pal nprocs 4
| 18> end
| 19>
| 20> %scf
| 21>   MaxIter 150
| 22> end
| 23>
| 24>
| 25>                          ****END OF INPUT****

CARTESIAN COORDINATES (ANGSTROEM)
---------------------------------
  C     -0.699120    3.489450    3.755160
  H     -0.966720    4.349010    3.140490
  C     -1.080670    3.792960    5.156860
  C      0.776960    3.138390    3.617410
  H     -1.331460    2.656510    3.446320
  H     -0.874490    4.762740    5.427340
  H     -0.680790    3.134760    5.839000
  H     -2.057550    3.531690    5.346200
  H      0.999570    2.928980    2.591990
  H      0.995760    2.276850    4.213030
  H      1.372230    3.962790    3.950460

 Total Charge           Charge          ....    0
 Multiplicity           Mult            ....    1
 Number of Electrons    NEL             ....   26
 Basis Dimension        Dim             ....  183

ORBITAL ENERGIES
----------------

  NO   OCC          E(Eh)            E(eV)
   0   2.0000     -10.519629      -286.2537
   1   2.0000     -10.510072      -285.9936
   2   2.0000     -10.491818      -285.4969
   3   2.0000      -0.889912       -24.2157
   4   2.0000      -0.783815       -21.3287
   5   2.0000      -0.671629       -18.2759
   6   2.0000      -0.542549       -14.7635
   7   2.0000      -0.506974       -13.7955
   8   2.0000      -0.465129       -12.6568
   9   2.0000      -0.460384       -12.5277
  10   2.0000      -0.399634       -10.8746
  11   2.0000      -0.388968       -10.5844
  12   2.0000      -0.383816       -10.4442
  13   0.0000       0.023950         0.6517
  14   0.0000       0.043652         1.1878
  15   0.0000       0.046931         1.2771
  16   0.0000       0.072698         1.9782
  17   0.0000       0.095605         2.6015

MULLIKEN ATOMIC CHARGES
-----------------------
   0 C :   -0.189096
   1 H :    0.290922
   2 C :   -1.277569
   3 C :   -1.137402
   4 H :    0.301894
   5 H :    0.324720
   6 H :    0.374373
   7 H :    0.371256
   8 H :    0.303572
   9 H :    0.318342
  10 H :    0.318989
Sum of atomic charges:   -0.0000000

LOEWDIN ATOMIC CHARGES
----------------------
   0 C :   -0.319021
   1 H :    0.105346
   2 C :   -0.134860
   3 C :   -0.117977
   4 H :    0.104199
   5 H :    0.058369
   6 H :    0.055025
   7 H :    0.052162
   8 H :    0.061025
   9 H :    0.067266
  10 H :    0.068466

  Mayer bond orders larger than 0.100000
B(  0-C ,  1-H ) :   0.9563 B(  0-C ,  2-C ) :   0.4984 B(  0-C ,  3-C ) :   0.5462
B(  0-C ,  4-H ) :   0.9658 B(  2-C ,  5-H ) :   0.9514 B(  2-C ,  6-H ) :   0.9253
B(  2-C ,  7-H ) :   0.9266 B(  3-C ,  8-H ) :   0.9957 B(  3-C ,  9-H ) :   0.9720
B(  3-C , 10-H ) :   0.9658

Dispersion correction           -0.000053822
FINAL SINGLE POINT ENERGY      -119.094592335993

DIPOLE MOMENT
-------------
                                X             Y             Z
Electronic contribution:     -0.14072       0.12134      -0.39934
Nuclear contribution   :      0.10024      -0.14218       0.41628
                        -----------------------------------------
Total Dipole Moment    :     -0.04048      -0.02085       0.01694
                        -----------------------------------------
Magnitude (a.u.)       :      0.04858
Magnitude (Debye)      :      0.12349

Rotational constants in cm-1:     1.024179     0.291605     0.259489
Rotational constants in MHz : 30704.103454  8742.106283  7779.285909

                             ****ORCA TERMINATED NORMALLY****
TOTAL RUN TIME: 0 days 0 hours 0 minutes 19 seconds 932 msec
