                         Program Version 5.0.0 -  RELEASE  -
|  1> !M062X D3Zero RIJCOSX def2-TZVPD def2/J TightSCF
|  2> *xyz 0 1
|  3> C         -2.79070       -0.78527        5.70281
|  4> C         -2.45380        0.05510        6.94145
|  5> C         -2.07842        1.48042        6.56410
|  6> H         -1.62558       -0.38216        7.49891
|  7> H         -3.32527        0.08775        7.59917
|  8> O         -0.90125        1.85816        6.82810
|  9> F         -2.93658        2.17731        5.96415
| 10> H         -1.94052       -0.82114        5.05412
| 11> H         -3.61590       -0.34261        5.18514
| 12> H         -3.05063       -1.77815        6.00536
| 13> *
| 14> %MaxCore 64000
| 15>
| 16> %pal nprocs 4
| 17> end
| 18>
| 19> %scf
| 20>   MaxIter 150
| 21> end
| 22>
| 23>
| 24>                          ****END OF INPUT****

CARTESIAN COORDINATES (ANGSTROEM)
---------------------------------
  C     -2.790700   -0.785270    5.702810
  C     -2.453800    0.055100    6.941450
  C     -2.078420    1.480420    6.564100
  H     -1.625580   -0.382160    7.498910
  H     -3.325270    0.087750    7.599170
  O     -0.901250    1.858160    6.828100
  F     -2.936580    2.177310    5.964150
  H     -1.940520   -0.821140    5.054120
  H     -3.615900   -0.342610    5.185140
  H     -3.050630   -1.778150    6.005360

 Total Charge           Charge          ....    0
 Multiplicity           Mult            ....    1
 Number of Electrons    NEL             ....   40
 Basis Dimension        Dim             ....  236

ORBITAL ENERGIES
----------------

  NO   OCC          E(Eh)            E(eV)
   0   2.0000     -25.316424      -688.8949
   1   2.0000     -19.634070      -534.2702
   2   2.0000     -10.720898      -291.7305
   3   2.0000     -10.568585      -287.5858
   4   2.0000     -10.545440      -286.9560
   5   2.0000      -1.464619       -39.8543
   6   2.0000      -1.151097       -31.3230
   7   2.0000      -0.906209       -24.6592
   8   2.0000      -0.785383       -21.3714
   9   2.0000      -0.737447       -20.0669
  10   2.0000      -0.645671       -17.5696
  11   2.0000      -0.636172       -17.3111
  12   2.0000      -0.588008       -16.0005
  13   2.0000      -0.539681       -14.6855
  14   2.0000      -0.511852       -13.9282
  15   2.0000      -0.472001       -12.8438
  16   2.0000      -0.454856       -12.3773
  17   2.0000      -0.443336       -12.0638
  18   2.0000      -0.416596       -11.3361
  19   2.0000      -0.366416        -9.9707
  20   0.0000       0.004881         0.1328
  21   0.0000       0.017788         0.4840
  22   0.0000       0.034394         0.9359
  23   0.0000       0.041610         1.1323
  24   0.0000       0.052885         1.4391

MULLIKEN ATOMIC CHARGES
-----------------------
   0 C :   -1.089753
   1 C :   -0.353684
   2 C :    0.732436
   3 H :    0.269667
   4 H :    0.312577
   5 O :   -0.583804
   6 F :   -0.242848
   7 H :    0.343732
   8 H :    0.311542
   9 H :    0.300135
Sum of atomic charges:   -0.0000000

LOEWDIN ATOMIC CHARGES
----------------------
   0 C :   -0.087659
   1 C :   -0.153611
   2 C :   -0.477055
   3 H :    0.119003
   4 H :    0.119528
   5 O :    0.064516
   6 F :    0.196129
   7 H :    0.077817
   8 H :    0.070931
   9 H :    0.070403

  Mayer bond orders larger than 0.100000
B(  0-C ,  1-C ) :   0.4980 B(  0-C ,  7-H ) :   0.9493 B(  0-C ,  8-H ) :   0.9668
B(  0-C ,  9-H ) :   0.9708 B(  1-C ,  2-C ) :   0.9296 B(  1-C ,  3-H ) :   0.9846
B(  1-C ,  4-H ) :   0.9387 B(  2-C ,  5-O ) :   1.6280 B(  2-C ,  6-F ) :   0.9038

Dispersion correction           -0.000092382
FINAL SINGLE POINT ENERGY      -292.393056821772

DIPOLE MOMENT
-------------
                                X             Y             Z
Electronic contribution:      0.56894       7.90339       0.05715
Nuclear contribution   :     -1.47571      -8.84360      -0.10748
                        -----------------------------------------
Total Dipole Moment    :     -0.90677      -0.94022      -0.05033
                        -----------------------------------------
Magnitude (a.u.)       :      1.30720
Magnitude (Debye)      :      3.32264

Rotational constants in cm-1:     0.283081     0.133379     0.103386
Rotational constants in MHz :  8486.545774  3998.599544  3099.448040

                             ****ORCA TERMINATED NORMALLY****
TOTAL RUN TIME: 0 days 0 hours 0 minutes 35 seconds 177 msec
