                         Program Version 5.0.0 -  RELEASE  -
|  1> !M062X D3Zero RIJCOSX def2-TZVPD def2/J TightSCF xyzfile
|  2>
|  3> *xyzfile 0 1 D1.xyz
|  4>
|  5> %MaxCore 64000
|  6>
|  7> %pal nprocs 4
|  8> end
|  9>
| 10> %scf
| 11>   MaxIter 150
| 12> end
| 13>
| 14>
| 15>                          ****END OF INPUT****

CARTESIAN COORDINATES (ANGSTROEM)
---------------------------------
  C     -0.699123    3.489451    3.755163
  H     -0.966716    4.349013    3.140491
  C     -1.080669    3.792957    5.156857
  C      0.776956    3.138391    3.617408
  H     -1.331455    2.656510    3.446323
  H      1.371398    3.888342    4.149744
  H      1.046926    3.232057    2.561331
  C      1.118917    1.731170    4.115155
  H      2.200573    1.654226    4.254882
  C      0.659466    0.635182    3.153306
  H      0.677024    1.576674    5.103150
  H      1.312288    0.638870    2.274207
  H     -0.339563    0.868049    2.772876
  C      0.639957   -0.771175    3.755619
  C     -0.341821   -0.965537    4.915046
  H      1.648266   -1.028665    4.097015
  H      0.398568   -1.482386    2.958453
  H     -0.279892   -2.005646    5.252547
  C     -1.789164   -0.639231    4.557496
  H     -0.032380   -0.352918    5.765118
  H     -2.107151   -1.270102    3.719619
  H     -1.856352    0.391636    4.197604
  C     -2.790700   -0.785275    5.702812
  H     -2.867308   -1.835651    6.001675
  H     -3.774554   -0.486577    5.334807
  C     -2.453797    0.055101    6.941445
  C     -2.078419    1.480421    6.564098
  H     -1.625584   -0.382163    7.498914
  H     -3.325274    0.087746    7.599175
  H     -0.874488    4.762737    5.427344
  H     -0.680793    3.134762    5.839000
  H     -2.057550    3.531691    5.346197
  F     -0.901252    1.858156    6.828104
  O     -2.936582    2.177309    5.964151

 Total Charge           Charge          ....    0
 Multiplicity           Mult            ....    1
 Number of Electrons    NEL             ....  104
 Basis Dimension        Dim             ....  676

ORBITAL ENERGIES
----------------

  NO   OCC          E(Eh)            E(eV)
   0   2.0000     -25.322921      -689.0717
   1   2.0000     -19.641523      -534.4730
   2   2.0000     -10.731650      -292.0230
   3   2.0000     -10.570464      -287.6369
   4   2.0000     -10.552699      -287.1535
   5   2.0000     -10.537644      -286.7439
   6   2.0000     -10.534547      -286.6596
   7   2.0000     -10.529083      -286.5109
   8   2.0000     -10.521821      -286.3133
   9   2.0000     -10.519200      -286.2420
  10   2.0000     -10.511805      -286.0408
  11   2.0000     -10.501855      -285.7700
  12   2.0000     -10.447696      -284.2963
  13   2.0000      -1.476031       -40.1648
  14   2.0000      -1.170086       -31.8397
  15   2.0000      -0.933047       -25.3895
  16   2.0000      -0.908113       -24.7110
  17   2.0000      -0.876318       -23.8458
  18   2.0000      -0.846916       -23.0457
  19   2.0000      -0.803421       -21.8622
  20   2.0000      -0.779383       -21.2081
  21   2.0000      -0.750947       -20.4343
  22   2.0000      -0.713149       -19.4058
  23   2.0000      -0.695363       -18.9218
  24   2.0000      -0.656465       -17.8633
  25   2.0000      -0.650230       -17.6937
  26   2.0000      -0.644545       -17.5390
  27   2.0000      -0.623458       -16.9651
  28   2.0000      -0.601674       -16.3724
  29   2.0000      -0.553065       -15.0497
  30   2.0000      -0.548001       -14.9119
  31   2.0000      -0.531207       -14.4549
  32   2.0000      -0.527452       -14.3527
  33   2.0000      -0.504383       -13.7250
  34   2.0000      -0.501758       -13.6535
  35   2.0000      -0.484053       -13.1718
  36   2.0000      -0.473732       -12.8909
  37   2.0000      -0.465344       -12.6627
  38   2.0000      -0.455340       -12.3904
  39   2.0000      -0.447020       -12.1640
  40   2.0000      -0.431992       -11.7551
  41   2.0000      -0.426027       -11.5928
  42   2.0000      -0.413337       -11.2475
  43   2.0000      -0.406137       -11.0516
  44   2.0000      -0.401479       -10.9248
  45   2.0000      -0.388540       -10.5727
  46   2.0000      -0.383269       -10.4293
  47   2.0000      -0.372303       -10.1309
  48   2.0000      -0.368942       -10.0394
  49   2.0000      -0.356180        -9.6922
  50   2.0000      -0.355330        -9.6690
  51   2.0000      -0.332775        -9.0553
  52   0.0000      -0.003789        -0.1031
  53   0.0000       0.011723         0.3190
  54   0.0000       0.021605         0.5879
  55   0.0000       0.024774         0.6741
  56   0.0000       0.030820         0.8386

MULLIKEN ATOMIC CHARGES
-----------------------
   0 C :    0.009156
   1 H :    0.348008
   2 C :   -1.861717
   3 C :   -0.980126
   4 H :    0.147505
   5 H :    0.379309
   6 H :    0.349982
   7 C :   -0.093714
   8 H :    0.358277
   9 C :   -0.492824
  10 H :    0.009488
  11 H :    0.353421
  12 H :    0.271441
  13 C :   -1.187019
  14 C :   -0.376774
  15 H :    0.381330
  16 H :    0.371291
  17 H :    0.351857
  18 C :   -0.090635
  19 H :    0.223353
  20 H :    0.467258
  21 H :   -0.109802
  22 C :   -0.932598
  23 H :    0.383980
  24 H :    0.335354
  25 C :   -0.753648
  26 C :    0.836851
  27 H :    0.323601
  28 H :    0.421585
  29 H :    0.450562
  30 H :    0.515749
  31 H :    0.557309
  32 F :   -0.295170
  33 O :   -0.672641
Sum of atomic charges:    0.0000000

LOEWDIN ATOMIC CHARGES
----------------------
   0 C :   -0.240575
   1 H :    0.111502
   2 C :   -0.119792
   3 C :   -0.212046
   4 H :    0.099201
   5 H :    0.114894
   6 H :    0.109295
   7 C :   -0.204150
   8 H :    0.116575
   9 C :   -0.219205
  10 H :    0.090377
  11 H :    0.116356
  12 H :    0.098787
  13 C :   -0.210600
  14 C :   -0.212980
  15 H :    0.113521
  16 H :    0.112031
  17 H :    0.119478
  18 C :   -0.207429
  19 H :    0.095420
  20 H :    0.126375
  21 H :    0.098153
  22 C :   -0.188848
  23 H :    0.118314
  24 H :    0.117958
  25 C :   -0.095577
  26 C :   -0.436287
  27 H :    0.116960
  28 H :    0.129371
  29 H :    0.070697
  30 H :    0.024747
  31 H :    0.023221
  32 F :    0.151597
  33 O :    0.072658

  Mayer bond orders larger than 0.100000
B(  0-C ,  1-H ) :   0.9114 B(  0-C ,  3-C ) :   0.6654 B(  0-C ,  4-H ) :   1.0882
B(  0-C , 30-H ) :  -0.1470 B(  2-C ,  3-C ) :   0.1590 B(  2-C , 29-H ) :   0.8285
B(  2-C , 30-H ) :   0.7981 B(  2-C , 31-H ) :   0.8965 B(  3-C ,  5-H ) :   0.9309
B(  3-C ,  6-H ) :   0.9423 B(  3-C ,  7-C ) :   0.7255 B(  3-C ,  9-C ) :   0.2120
B(  7-C ,  8-H ) :   0.9221 B(  7-C ,  9-C ) :   0.3352 B(  7-C , 10-H ) :   1.0279
B(  7-C , 12-H ) :  -0.1272 B(  7-C , 13-C ) :   0.1607 B(  9-C , 10-H ) :  -0.1022
B(  9-C , 11-H ) :   0.9245 B(  9-C , 12-H ) :   1.0474 B(  9-C , 13-C ) :   0.6429
B( 13-C , 14-C ) :   0.6171 B( 13-C , 15-H ) :   0.9544 B( 13-C , 16-H ) :   0.9750
B( 13-C , 18-C ) :   0.1895 B( 14-C , 17-H ) :   0.9106 B( 14-C , 18-C ) :   0.1992
B( 14-C , 19-H ) :   1.0703 B( 14-C , 21-H ) :  -0.2121 B( 14-C , 22-C ) :   0.1274
B( 14-C , 25-C ) :   0.1152 B( 18-C , 19-H ) :  -0.1567 B( 18-C , 20-H ) :   0.7892
B( 18-C , 21-H ) :   1.2200 B( 18-C , 22-C ) :   0.5507 B( 18-C , 25-C ) :  -0.1396
B( 21-H , 22-C ) :   0.1857 B( 22-C , 23-H ) :   0.9378 B( 22-C , 24-H ) :   0.9590
B( 22-C , 25-C ) :   0.6619 B( 25-C , 26-C ) :   0.8800 B( 25-C , 27-H ) :   1.0078
B( 25-C , 28-H ) :   0.8593 B( 26-C , 32-F ) :   0.7673 B( 26-C , 33-O ) :   1.4455
B( 30-H , 32-F ) :  -0.1834 B( 31-H , 33-O ) :  -0.1746

Dispersion correction           -0.002041392
FINAL SINGLE POINT ENERGY      -606.796518382010

DIPOLE MOMENT
-------------
                                X             Y             Z
Electronic contribution:     -5.47002       2.47274      10.83385
Nuclear contribution   :      5.54676      -3.70047     -10.28793
                        -----------------------------------------
Total Dipole Moment    :      0.07674      -1.22773       0.54592
                        -----------------------------------------
Magnitude (a.u.)       :      1.34582
Magnitude (Debye)      :      3.42081

Rotational constants in cm-1:     0.028503     0.023389     0.015214
Rotational constants in MHz :   854.502405   701.197575   456.108322

                             ****ORCA TERMINATED NORMALLY****
TOTAL RUN TIME: 0 days 0 hours 7 minutes 28 seconds 138 msec
