                         Program Version 5.0.0 -  RELEASE  -
|  1> !M062X D3Zero RIJCOSX def2-TZVPD def2/J TightSCF xyzfile
|  2>
|  3> *xyzfile 0 1 D2.xyz
|  4>
|  5> %MaxCore 64000
|  6>
|  7> %pal nprocs 4
|  8> end
|  9>
| 10> %scf
| 11>   MaxIter 150
| 12> end
| 13>
| 14>
| 15>                          ****END OF INPUT****

CARTESIAN COORDINATES (ANGSTROEM)
---------------------------------
  C     -0.699123    3.489451    3.755163
  H     -0.966716    4.349013    3.140491
  C     -1.080669    3.792957    5.156857
  C      0.776956    3.138391    3.617408
  H     -1.331455    2.656510    3.446323
  H      1.371398    3.888342    4.149744
  H      1.046926    3.232057    2.561331
  C      1.118917    1.731170    4.115155
  H      2.200573    1.654226    4.254882
  C      0.659466    0.635182    3.153306
  H      0.677024    1.576674    5.103150
  H      1.312288    0.638870    2.274207
  H     -0.339563    0.868049    2.772876
  C      0.639957   -0.771175    3.755619
  C     -0.341821   -0.965537    4.915046
  H      1.648266   -1.028665    4.097015
  H      0.398568   -1.482386    2.958453
  H     -0.279892   -2.005646    5.252547
  C     -1.789164   -0.639231    4.557496
  H     -0.032380   -0.352918    5.765118
  H     -2.107151   -1.270102    3.719619
  H     -1.856352    0.391636    4.197604
  C     -2.790700   -0.785275    5.702812
  H     -2.867308   -1.835651    6.001675
  H     -3.774554   -0.486577    5.334807
  C     -2.453797    0.055101    6.941445
  C     -2.078419    1.480421    6.564098
  H     -1.625584   -0.382163    7.498914
  H     -3.325274    0.087746    7.599175
  H     -0.874488    4.762737    5.427344
  H     -0.680793    3.134762    5.839000
  H     -2.057550    3.531691    5.346197
  O     -0.901252    1.858156    6.828104
  F     -2.936582    2.177309    5.964151

 Total Charge           Charge          ....    0
 Multiplicity           Mult            ....    1
 Number of Electrons    NEL             ....  104
 Basis Dimension        Dim             ....  676

ORBITAL ENERGIES
----------------

  NO   OCC          E(Eh)            E(eV)
   0   2.0000     -25.326249      -689.1623
   1   2.0000     -19.641893      -534.4831
   2   2.0000     -10.733384      -292.0702
   3   2.0000     -10.570958      -287.6504
   4   2.0000     -10.555946      -287.2419
   5   2.0000     -10.539975      -286.8073
   6   2.0000     -10.529113      -286.5117
   7   2.0000     -10.525041      -286.4009
   8   2.0000     -10.517685      -286.2008
   9   2.0000     -10.511013      -286.0192
  10   2.0000     -10.508389      -285.9478
  11   2.0000     -10.501612      -285.7634
  12   2.0000     -10.446410      -284.2613
  13   2.0000      -1.479464       -40.2583
  14   2.0000      -1.169959       -31.8362
  15   2.0000      -0.934399       -25.4263
  16   2.0000      -0.905203       -24.6318
  17   2.0000      -0.874596       -23.7990
  18   2.0000      -0.845336       -23.0028
  19   2.0000      -0.799741       -21.7620
  20   2.0000      -0.777733       -21.1632
  21   2.0000      -0.752896       -20.4874
  22   2.0000      -0.709152       -19.2970
  23   2.0000      -0.695151       -18.9160
  24   2.0000      -0.658830       -17.9277
  25   2.0000      -0.653254       -17.7759
  26   2.0000      -0.645198       -17.5567
  27   2.0000      -0.619961       -16.8700
  28   2.0000      -0.597407       -16.2563
  29   2.0000      -0.555905       -15.1269
  30   2.0000      -0.549206       -14.9447
  31   2.0000      -0.529888       -14.4190
  32   2.0000      -0.522835       -14.2271
  33   2.0000      -0.499118       -13.5817
  34   2.0000      -0.494228       -13.4486
  35   2.0000      -0.490312       -13.3421
  36   2.0000      -0.473605       -12.8875
  37   2.0000      -0.467853       -12.7309
  38   2.0000      -0.455262       -12.3883
  39   2.0000      -0.441108       -12.0032
  40   2.0000      -0.438520       -11.9327
  41   2.0000      -0.430328       -11.7098
  42   2.0000      -0.414058       -11.2671
  43   2.0000      -0.404058       -10.9950
  44   2.0000      -0.398529       -10.8445
  45   2.0000      -0.388250       -10.5648
  46   2.0000      -0.380173       -10.3450
  47   2.0000      -0.369947       -10.0668
  48   2.0000      -0.363593        -9.8939
  49   2.0000      -0.352708        -9.5977
  50   2.0000      -0.352400        -9.5893
  51   2.0000      -0.324180        -8.8214
  52   0.0000      -0.002841        -0.0773
  53   0.0000       0.011204         0.3049
  54   0.0000       0.021612         0.5881
  55   0.0000       0.024853         0.6763
  56   0.0000       0.031200         0.8490

MULLIKEN ATOMIC CHARGES
-----------------------
   0 C :   -0.013091
   1 H :    0.346353
   2 C :   -1.852664
   3 C :   -0.995922
   4 H :    0.147625
   5 H :    0.377727
   6 H :    0.350530
   7 C :   -0.123415
   8 H :    0.349667
   9 C :   -0.475627
  10 H :    0.077070
  11 H :    0.351839
  12 H :    0.256684
  13 C :   -1.171576
  14 C :   -0.414564
  15 H :    0.376805
  16 H :    0.369755
  17 H :    0.357089
  18 C :   -0.041311
  19 H :    0.238608
  20 H :    0.461745
  21 H :   -0.114345
  22 C :   -0.968967
  23 H :    0.383549
  24 H :    0.343835
  25 C :   -0.741336
  26 C :    0.811631
  27 H :    0.304646
  28 H :    0.441928
  29 H :    0.436526
  30 H :    0.624765
  31 H :    0.470770
  32 O :   -0.655430
  33 F :   -0.310897
Sum of atomic charges:    0.0000000

LOEWDIN ATOMIC CHARGES
----------------------
   0 C :   -0.243971
   1 H :    0.109146
   2 C :   -0.120065
   3 C :   -0.209610
   4 H :    0.096564
   5 H :    0.115806
   6 H :    0.108522
   7 C :   -0.201175
   8 H :    0.116756
   9 C :   -0.219990
  10 H :    0.090959
  11 H :    0.115438
  12 H :    0.097117
  13 C :   -0.210381
  14 C :   -0.210354
  15 H :    0.113900
  16 H :    0.110823
  17 H :    0.119293
  18 C :   -0.207980
  19 H :    0.097593
  20 H :    0.125716
  21 H :    0.097728
  22 C :   -0.193525
  23 H :    0.118654
  24 H :    0.114429
  25 C :   -0.091180
  26 C :   -0.433519
  27 H :    0.125045
  28 H :    0.126247
  29 H :    0.071072
  30 H :    0.003616
  31 H :    0.038734
  32 O :    0.046358
  33 F :    0.182232

  Mayer bond orders larger than 0.100000
B(  0-C ,  1-H ) :   0.9229 B(  0-C ,  3-C ) :   0.7157 B(  0-C ,  4-H ) :   1.0779
B(  0-C , 30-H ) :  -0.1519 B(  2-C ,  3-C ) :   0.1749 B(  2-C , 29-H ) :   0.8549
B(  2-C , 30-H ) :   0.8139 B(  2-C , 31-H ) :   0.8854 B(  2-C , 32-O ) :   0.1098
B(  3-C ,  5-H ) :   0.9226 B(  3-C ,  6-H ) :   0.9422 B(  3-C ,  7-C ) :   0.7356
B(  3-C ,  9-C ) :   0.2111 B(  7-C ,  8-H ) :   0.9346 B(  7-C ,  9-C ) :   0.3111
B(  7-C , 10-H ) :   1.0205 B(  7-C , 12-H ) :  -0.1305 B(  7-C , 13-C ) :   0.1647
B(  9-C , 10-H ) :  -0.1195 B(  9-C , 11-H ) :   0.9265 B(  9-C , 12-H ) :   1.0565
B(  9-C , 13-C ) :   0.6365 B( 13-C , 14-C ) :   0.6001 B( 13-C , 15-H ) :   0.9564
B( 13-C , 16-H ) :   0.9783 B( 13-C , 18-C ) :   0.1868 B( 14-C , 17-H ) :   0.8939
B( 14-C , 18-C ) :   0.2677 B( 14-C , 19-H ) :   1.0618 B( 14-C , 21-H ) :  -0.1708
B( 14-C , 22-C ) :   0.1361 B( 14-C , 25-C ) :   0.1487 B( 18-C , 19-H ) :  -0.1320
B( 18-C , 20-H ) :   0.8048 B( 18-C , 21-H ) :   1.1751 B( 18-C , 22-C ) :   0.4567
B( 18-C , 25-C ) :  -0.1986 B( 21-H , 22-C ) :   0.1543 B( 22-C , 23-H ) :   0.9315
B( 22-C , 24-H ) :   0.9741 B( 22-C , 25-C ) :   0.6039 B( 25-C , 26-C ) :   0.8956
B( 25-C , 27-H ) :   1.0396 B( 25-C , 28-H ) :   0.8497 B( 26-C , 32-O ) :   1.5668
B( 26-C , 33-F ) :   0.6696 B( 30-H , 32-O ) :  -0.3323

Dispersion correction           -0.002042385
FINAL SINGLE POINT ENERGY      -606.794953961997

DIPOLE MOMENT
-------------
                                X             Y             Z
Electronic contribution:     -8.94585       3.00118       9.45469
Nuclear contribution   :      8.07181      -4.09641      -9.21610
                        -----------------------------------------
Total Dipole Moment    :     -0.87405      -1.09523       0.23859
                        -----------------------------------------
Magnitude (a.u.)       :      1.42141
Magnitude (Debye)      :      3.61295

Rotational constants in cm-1:     0.028400     0.023377     0.015073
Rotational constants in MHz :   851.414727   700.831775   451.871218

                             ****ORCA TERMINATED NORMALLY****
TOTAL RUN TIME: 0 days 0 hours 6 minutes 53 seconds 27 msec
