                         Program Version 5.0.0 -  RELEASE  -
|  1> !wB97X-D3 RIJCOSX def2-TZVP def2/J TightSCF
|  2> *xyz -1 1
|  3> C         -1.91658       -2.48508       -3.64367
|  4> C         -1.36353       -1.98134       -2.29361
|  5> O         -0.35039       -2.74969       -1.79601
|  6> H         -2.22622       -1.90839       -1.60204
|  7> H         -1.05135       -0.91567       -2.44333
|  8> H         -1.11522       -2.57167       -4.34739
|  9> H         -2.64227       -1.79099       -4.01314
| 10> H         -2.37564       -3.44180       -3.50640
| 11> *
| 12>
| 13> %MaxCore 64000
| 14> %pal nprocs 4
| 15> end
| 16>
| 17> %scf
| 18>   MaxIter 150
| 19> end
| 20>
| 21>
| 22>                          ****END OF INPUT****

CARTESIAN COORDINATES (ANGSTROEM)
---------------------------------
  C     -1.916580   -2.485080   -3.643670
  C     -1.363530   -1.981340   -2.293610
  O     -0.350390   -2.749690   -1.796010
  H     -2.226220   -1.908390   -1.602040
  H     -1.051350   -0.915670   -2.443330
  H     -1.115220   -2.571670   -4.347390
  H     -2.642270   -1.790990   -4.013140
  H     -2.375640   -3.441800   -3.506400

 Total Charge           Charge          ....   -1
 Multiplicity           Mult            ....    1
 Number of Electrons    NEL             ....   26
 Basis Dimension        Dim             ....  123

ORBITAL ENERGIES
----------------

  NO   OCC          E(Eh)            E(eV)
   0   2.0000     -18.870394      -513.4895
   1   2.0000     -10.079081      -274.2657
   2   2.0000     -10.057898      -273.6893
   3   2.0000      -0.778719       -21.1900
   4   2.0000      -0.632991       -17.2245
   5   2.0000      -0.472198       -12.8492
   6   2.0000      -0.343083        -9.3358
   7   2.0000      -0.320577        -8.7233
   8   2.0000      -0.260424        -7.0865
   9   2.0000      -0.243142        -6.6162
  10   2.0000      -0.193834        -5.2745
  11   2.0000      -0.045587        -1.2405
  12   2.0000      -0.042954        -1.1688
  13   0.0000       0.294186         8.0052
  14   0.0000       0.330608         8.9963
  15   0.0000       0.356424         9.6988
  16   0.0000       0.362189         9.8557
  17   0.0000       0.393120        10.6973

MULLIKEN ATOMIC CHARGES
-----------------------
   0 C :   -0.177746
   1 C :    0.092373
   2 O :   -0.802047
   3 H :   -0.079370
   4 H :   -0.082745
   5 H :    0.034113
   6 H :   -0.017709
   7 H :    0.033132
Sum of atomic charges:   -1.0000000

LOEWDIN ATOMIC CHARGES
----------------------
   0 C :   -0.361159
   1 C :   -0.552888
   2 O :   -0.438547
   3 H :    0.051753
   4 H :    0.050040
   5 H :    0.088034
   6 H :    0.075511
   7 H :    0.087255

  Mayer bond orders larger than 0.100000
B(  0-C ,  1-C ) :   0.9036 B(  0-C ,  2-O ) :  -0.1804 B(  0-C ,  5-H ) :   0.9736
B(  0-C ,  6-H ) :   0.9457 B(  0-C ,  7-H ) :   0.9766 B(  1-C ,  2-O ) :   1.5872
B(  1-C ,  3-H ) :   0.9241 B(  1-C ,  4-H ) :   0.9284

Dispersion correction           -0.000862866
FINAL SINGLE POINT ENERGY      -154.431899270935

DIPOLE MOMENT
-------------
                                X             Y             Z
Electronic contribution:      2.12051      -0.95700       1.85275
Nuclear contribution   :     -3.14382       1.30299      -2.83231
                        -----------------------------------------
Total Dipole Moment    :     -1.02331       0.34599      -0.97955
                        -----------------------------------------
Magnitude (a.u.)       :      1.45822
Magnitude (Debye)      :      3.70650

Rotational constants in cm-1:     1.288206     0.322942     0.285188
Rotational constants in MHz : 38619.437223  9681.562038  8549.712012

                             ****ORCA TERMINATED NORMALLY****
TOTAL RUN TIME: 0 days 0 hours 0 minutes 14 seconds 887 msec
