                         Program Version 5.0.0 -  RELEASE  -
|  1> !wB97X-D3 RIJCOSX def2-TZVP def2/J TightSCF
|  2> *xyz 1 1
|  3> C          1.64703       -2.34528       -5.02041
|  4> C          2.20996       -2.81239       -3.66571
|  5> C          2.48901       -1.66851       -2.73754
|  6> N          3.59631       -0.94761       -2.95225
|  7> N          1.66394       -1.41369       -1.77781
|  8> H          0.81164       -1.96318       -1.70275
|  9> H          1.84550       -0.63508       -1.15875
| 10> H          4.20535       -1.17600       -3.73383
| 11> H          3.81723       -0.12585       -2.40604
| 12> H          3.14311       -3.36280       -3.81152
| 13> H          1.48768       -3.45893       -3.16521
| 14> H          1.46566       -3.19589       -5.64368
| 15> H          2.35406       -1.69850       -5.49654
| 16> H          0.73014       -1.81680       -4.86253
| 17> *
| 18>
| 19> %MaxCore 64000
| 20> %pal nprocs 4
| 21> end
| 22>
| 23> %scf
| 24>   MaxIter 150
| 25> end
| 26>
| 27>
| 28>                          ****END OF INPUT****

CARTESIAN COORDINATES (ANGSTROEM)
---------------------------------
  C      1.647030   -2.345280   -5.020410
  C      2.209960   -2.812390   -3.665710
  C      2.489010   -1.668510   -2.737540
  N      3.596310   -0.947610   -2.952250
  N      1.663940   -1.413690   -1.777810
  H      0.811640   -1.963180   -1.702750
  H      1.845500   -0.635080   -1.158750
  H      4.205350   -1.176000   -3.733830
  H      3.817230   -0.125850   -2.406040
  H      3.143110   -3.362800   -3.811520
  H      1.487680   -3.458930   -3.165210
  H      1.465660   -3.195890   -5.643680
  H      2.354060   -1.698500   -5.496540
  H      0.730140   -1.816800   -4.862530

 Total Charge           Charge          ....    1
 Multiplicity           Mult            ....    1
 Number of Electrons    NEL             ....   40
 Basis Dimension        Dim             ....  209

ORBITAL ENERGIES
----------------

  NO   OCC          E(Eh)            E(eV)
   0   2.0000     -14.672331      -399.2544
   1   2.0000     -14.662800      -398.9951
   2   2.0000     -10.600061      -288.4423
   3   2.0000     -10.474092      -285.0145
   4   2.0000     -10.428562      -283.7756
   5   2.0000      -1.323695       -36.0196
   6   2.0000      -1.225234       -33.3403
   7   2.0000      -1.085027       -29.5251
   8   2.0000      -0.971705       -26.4414
   9   2.0000      -0.925037       -25.1715
  10   2.0000      -0.878246       -23.8983
  11   2.0000      -0.855920       -23.2908
  12   2.0000      -0.802857       -21.8468
  13   2.0000      -0.750916       -20.4335
  14   2.0000      -0.722662       -19.6646
  15   2.0000      -0.712029       -19.3753
  16   2.0000      -0.638990       -17.3878
  17   2.0000      -0.630680       -17.1617
  18   2.0000      -0.625493       -17.0205
  19   2.0000      -0.585581       -15.9345
  20   0.0000      -0.123018        -3.3475
  21   0.0000      -0.076322        -2.0768
  22   0.0000      -0.028930        -0.7872
  23   0.0000      -0.028603        -0.7783
  24   0.0000       0.002746         0.0747

MULLIKEN ATOMIC CHARGES
-----------------------
   0 C :   -0.332181
   1 C :   -0.255810
   2 C :    0.358147
   3 N :   -0.411310
   4 N :   -0.354674
   5 H :    0.316862
   6 H :    0.296460
   7 H :    0.316427
   8 H :    0.294948
   9 H :    0.178153
  10 H :    0.142793
  11 H :    0.176212
  12 H :    0.133189
  13 H :    0.140783
Sum of atomic charges:    1.0000000

LOEWDIN ATOMIC CHARGES
----------------------
   0 C :   -0.258903
   1 C :   -0.219152
   2 C :   -0.286748
   3 N :    0.090338
   4 N :    0.130421
   5 H :    0.217732
   6 H :    0.205174
   7 H :    0.210115
   8 H :    0.196307
   9 H :    0.166341
  10 H :    0.157987
  11 H :    0.138257
  12 H :    0.124115
  13 H :    0.128016

  Mayer bond orders larger than 0.100000
B(  0-C ,  1-C ) :   0.9654 B(  0-C , 11-H ) :   0.9665 B(  0-C , 12-H ) :   0.9703
B(  0-C , 13-H ) :   0.9598 B(  1-C ,  2-C ) :   0.9659 B(  1-C ,  9-H ) :   0.9504
B(  1-C , 10-H ) :   0.9696 B(  2-C ,  3-N ) :   1.4190 B(  2-C ,  4-N ) :   1.5069
B(  3-N ,  7-H ) :   0.8814 B(  3-N ,  8-H ) :   0.8886 B(  4-N ,  5-H ) :   0.8751
B(  4-N ,  6-H ) :   0.8836

Dispersion correction           -0.003021138
FINAL SINGLE POINT ENERGY      -229.057013978983

DIPOLE MOMENT
-------------
                                X             Y             Z
Electronic contribution:      1.19418       1.65884       3.63416
Nuclear contribution   :     -0.98617      -1.03178      -2.77619
                        -----------------------------------------
Total Dipole Moment    :      0.20801       0.62706       0.85797
                        -----------------------------------------
Magnitude (a.u.)       :      1.08286
Magnitude (Debye)      :      2.75242

Rotational constants in cm-1:     0.257311     0.127495     0.099037
Rotational constants in MHz :  7713.982239  3822.189706  2969.039713

                             ****ORCA TERMINATED NORMALLY****
TOTAL RUN TIME: 0 days 0 hours 0 minutes 36 seconds 735 msec
