                         Program Version 5.0.0 -  RELEASE  -
|  1> !wB97X-D3 RIJCOSX def2-TZVP def2/J TightSCF xyzfile
|  2>
|  3> *xyzfile 0 1 B.xyz
|  4>
|  5> %MaxCore 64000
|  6>
|  7> %pal nprocs 18
|  8> end
|  9>
| 10> %scf
| 11>   MaxIter 150
| 12> end
| 13>
| 14>
| 15>                          ****END OF INPUT****

CARTESIAN COORDINATES (ANGSTROEM)
---------------------------------
  C      1.647032   -2.345276   -5.020411
  C      0.217628   -1.814022   -4.924389
  C      2.209964   -2.812388   -3.665708
  C     -0.811356   -2.908780   -4.607625
  C     -1.916579   -2.485081   -3.643665
  H     -2.554525   -1.712428   -4.091993
  C     -1.363531   -1.981337   -2.293608
  H     -2.553448   -3.355667   -3.458815
  O     -0.350395   -2.749689   -1.796006
  H      2.308385   -1.588704   -5.457128
  H      1.674286   -3.203478   -5.697392
  C      2.489007   -1.668510   -2.737538
  N      3.596314   -0.947608   -2.952247
  N      1.663936   -1.413685   -1.777806
  H      0.811642   -1.963178   -1.702755
  H      1.845503   -0.635078   -1.158749
  H      4.205351   -1.176003   -3.733825
  H      3.817230   -0.125845   -2.406041
  H     -1.244829   -3.280884   -5.541040
  H     -0.306331   -3.757746   -4.142734
  H     -0.036244   -1.318555   -5.865303
  H      0.175004   -1.035382   -4.158095
  H      3.143106   -3.362803   -3.811524
  H      1.487683   -3.458935   -3.165211
  H     -2.226220   -1.908386   -1.602039
  H     -1.051353   -0.915671   -2.443331

 Total Charge           Charge          ....    0
 Multiplicity           Mult            ....    1
 Number of Electrons    NEL             ....   80
 Basis Dimension        Dim             ....  406

ORBITAL ENERGIES
----------------

  NO   OCC          E(Eh)            E(eV)
   0   2.0000     -19.078254      -519.1457
   1   2.0000     -14.497842      -394.5063
   2   2.0000     -14.452091      -393.2614
   3   2.0000     -10.416497      -283.4473
   4   2.0000     -10.300220      -280.2832
   5   2.0000     -10.288068      -279.9526
   6   2.0000     -10.257661      -279.1252
   7   2.0000     -10.245955      -278.8066
   8   2.0000     -10.237531      -278.5774
   9   2.0000     -10.219594      -278.0893
  10   2.0000      -1.140159       -31.0253
  11   2.0000      -1.044669       -28.4269
  12   2.0000      -0.988899       -26.9093
  13   2.0000      -0.933413       -25.3995
  14   2.0000      -0.869626       -23.6637
  15   2.0000      -0.817586       -22.2476
  16   2.0000      -0.759885       -20.6775
  17   2.0000      -0.740856       -20.1597
  18   2.0000      -0.700271       -19.0554
  19   2.0000      -0.695755       -18.9325
  20   2.0000      -0.668375       -18.1874
  21   2.0000      -0.625651       -17.0248
  22   2.0000      -0.603680       -16.4270
  23   2.0000      -0.587547       -15.9880
  24   2.0000      -0.565101       -15.3772
  25   2.0000      -0.539086       -14.6693
  26   2.0000      -0.529087       -14.3972
  27   2.0000      -0.500626       -13.6227
  28   2.0000      -0.486065       -13.2265
  29   2.0000      -0.483394       -13.1538
  30   2.0000      -0.449660       -12.2359
  31   2.0000      -0.442603       -12.0438
  32   2.0000      -0.431138       -11.7319
  33   2.0000      -0.411115       -11.1870
  34   2.0000      -0.402296       -10.9470
  35   2.0000      -0.389907       -10.6099
  36   2.0000      -0.380752       -10.3608
  37   2.0000      -0.373737       -10.1699
  38   2.0000      -0.256238        -6.9726
  39   2.0000      -0.249649        -6.7933
  40   0.0000       0.052552         1.4300
  41   0.0000       0.068288         1.8582
  42   0.0000       0.106797         2.9061
  43   0.0000       0.132043         3.5931
  44   0.0000       0.144099         3.9211

MULLIKEN ATOMIC CHARGES
-----------------------
   0 C :   -0.197007
   1 C :   -0.194789
   2 C :   -0.257495
   3 C :   -0.177407
   4 C :   -0.121287
   5 H :    0.060361
   6 C :   -0.020814
   7 H :    0.077410
   8 O :   -0.716573
   9 H :    0.093585
  10 H :    0.121825
  11 C :    0.307580
  12 N :   -0.457232
  13 N :   -0.344684
  14 H :    0.315114
  15 H :    0.228171
  16 H :    0.279547
  17 H :    0.261398
  18 H :    0.087880
  19 H :    0.089903
  20 H :    0.099925
  21 H :    0.096846
  22 H :    0.138471
  23 H :    0.190155
  24 H :    0.040759
  25 H :   -0.001642
Sum of atomic charges:    0.0000000

LOEWDIN ATOMIC CHARGES
----------------------
   0 C :   -0.258125
   1 C :   -0.258352
   2 C :   -0.209305
   3 C :   -0.272673
   4 C :   -0.286199
   5 H :    0.122808
   6 C :   -0.485853
   7 H :    0.129537
   8 O :   -0.289188
   9 H :    0.127359
  10 H :    0.143118
  11 C :   -0.308717
  12 N :    0.033470
  13 N :    0.145188
  14 H :    0.103078
  15 H :    0.175326
  16 H :    0.189865
  17 H :    0.178151
  18 H :    0.126893
  19 H :    0.138531
  20 H :    0.131908
  21 H :    0.136339
  22 H :    0.146651
  23 H :    0.167195
  24 H :    0.098035
  25 H :    0.074958

  Mayer bond orders larger than 0.100000
B(  0-C ,  1-C ) :   0.9660 B(  0-C ,  2-C ) :   0.9485 B(  0-C ,  9-H ) :   0.9785
B(  0-C , 10-H ) :   0.9674 B(  1-C ,  3-C ) :   0.9445 B(  1-C , 20-H ) :   0.9674
B(  1-C , 21-H ) :   0.9865 B(  2-C , 11-C ) :   0.9518 B(  2-C , 22-H ) :   0.9652
B(  2-C , 23-H ) :   0.9532 B(  3-C ,  4-C ) :   0.9809 B(  3-C , 18-H ) :   0.9675
B(  3-C , 19-H ) :   0.9757 B(  4-C ,  5-H ) :   0.9660 B(  4-C ,  6-C ) :   0.9438
B(  4-C ,  7-H ) :   0.9616 B(  4-C ,  8-O ) :  -0.1008 B(  6-C ,  8-O ) :   1.2357
B(  6-C , 24-H ) :   0.9693 B(  6-C , 25-H ) :   0.9740 B(  8-O , 14-H ) :   0.3846
B( 11-C , 12-N ) :   1.2954 B( 11-C , 13-N ) :   1.6809 B( 12-N , 16-H ) :   0.8998
B( 12-N , 17-H ) :   0.9046 B( 13-N , 14-H ) :   0.6238 B( 13-N , 15-H ) :   0.9104

Dispersion correction           -0.011117851
FINAL SINGLE POINT ENERGY      -461.124503221594

DIPOLE MOMENT
-------------
                                X             Y             Z
Electronic contribution:      5.64385       0.90240       4.32628
Nuclear contribution   :     -2.25948       0.71378      -5.15247
                        -----------------------------------------
Total Dipole Moment    :      3.38437       1.61618      -0.82619
                        -----------------------------------------
Magnitude (a.u.)       :      3.84039
Magnitude (Debye)      :      9.76149

Rotational constants in cm-1:     0.063973     0.031829     0.024059
Rotational constants in MHz :  1917.874550   954.201145   721.285252

                             ****ORCA TERMINATED NORMALLY****
TOTAL RUN TIME: 0 days 0 hours 0 minutes 52 seconds 97 msec
