                         Program Version 5.0.0 -  RELEASE  -
|  1> !wB97X-D3 RIJCOSX def2-TZVP def2/J TightSCF
|  2> *xyz 0 1
|  3> C         -1.91658       -2.48508       -3.64367
|  4> C         -1.36353       -1.98134       -2.29361
|  5> F         -0.35039       -2.74969       -1.79601
|  6> H         -2.22622       -1.90839       -1.60204
|  7> H         -1.05135       -0.91567       -2.44333
|  8> H         -1.11522       -2.57167       -4.34739
|  9> H         -2.64227       -1.79099       -4.01314
| 10> H         -2.37564       -3.44180       -3.50640
| 11> *
| 12>
| 13> %MaxCore 64000
| 14> %pal nprocs 4
| 15> end
| 16>
| 17> %scf
| 18>   MaxIter 150
| 19> end
| 20>
| 21>
| 22>                          ****END OF INPUT****

CARTESIAN COORDINATES (ANGSTROEM)
---------------------------------
  C     -1.916580   -2.485080   -3.643670
  C     -1.363530   -1.981340   -2.293610
  F     -0.350390   -2.749690   -1.796010
  H     -2.226220   -1.908390   -1.602040
  H     -1.051350   -0.915670   -2.443330
  H     -1.115220   -2.571670   -4.347390
  H     -2.642270   -1.790990   -4.013140
  H     -2.375640   -3.441800   -3.506400

 Total Charge           Charge          ....    0
 Multiplicity           Mult            ....    1
 Number of Electrons    NEL             ....   26
 Basis Dimension        Dim             ....  123

ORBITAL ENERGIES
----------------

  NO   OCC          E(Eh)            E(eV)
   0   2.0000     -24.770091      -674.0285
   1   2.0000     -10.354198      -281.7521
   2   2.0000     -10.268566      -279.4219
   3   2.0000      -1.314518       -35.7698
   4   2.0000      -0.879191       -23.9240
   5   2.0000      -0.742282       -20.1985
   6   2.0000      -0.610122       -16.6023
   7   2.0000      -0.597365       -16.2551
   8   2.0000      -0.559489       -15.2245
   9   2.0000      -0.504596       -13.7308
  10   2.0000      -0.498272       -13.5587
  11   2.0000      -0.430072       -11.7029
  12   2.0000      -0.423657       -11.5283
  13   0.0000       0.123837         3.3698
  14   0.0000       0.162701         4.4273
  15   0.0000       0.182244         4.9591
  16   0.0000       0.186794         5.0829
  17   0.0000       0.197149         5.3647

MULLIKEN ATOMIC CHARGES
-----------------------
   0 C :   -0.328957
   1 C :    0.045363
   2 F :   -0.234590
   3 H :    0.086558
   4 H :    0.086080
   5 H :    0.118159
   6 H :    0.110778
   7 H :    0.116609
Sum of atomic charges:    0.0000000

LOEWDIN ATOMIC CHARGES
----------------------
   0 C :   -0.308459
   1 C :   -0.371271
   2 F :    0.096740
   3 H :    0.115158
   4 H :    0.116751
   5 H :    0.116042
   6 H :    0.120083
   7 H :    0.114956

  Mayer bond orders larger than 0.100000
B(  0-C ,  1-C ) :   0.9933 B(  0-C ,  5-H ) :   0.9725 B(  0-C ,  6-H ) :   0.9623
B(  0-C ,  7-H ) :   0.9735 B(  1-C ,  2-F ) :   0.9945 B(  1-C ,  3-H ) :   0.9712
B(  1-C ,  4-H ) :   0.9732

Dispersion correction           -0.000873249
FINAL SINGLE POINT ENERGY      -179.085020670898

DIPOLE MOMENT
-------------
                                X             Y             Z
Electronic contribution:      3.62480      -1.36088       3.43239
Nuclear contribution   :     -4.15401       1.70894      -3.75000
                        -----------------------------------------
Total Dipole Moment    :     -0.52921       0.34806      -0.31761
                        -----------------------------------------
Magnitude (a.u.)       :      0.70858
Magnitude (Debye)      :      1.80107

Rotational constants in cm-1:     1.266842     0.300492     0.266603
Rotational constants in MHz : 37978.968232  9008.526876  7992.551454

                             ****ORCA TERMINATED NORMALLY****
TOTAL RUN TIME: 0 days 0 hours 0 minutes 12 seconds 715 msec
