                         Program Version 5.0.0 -  RELEASE  -
|  1> !wB97X-D3 RIJCOSX def2-TZVP def2/J TightSCF
|  2> *xyz 0 1
|  3> C          1.64703       -2.34528       -5.02041
|  4> C          2.20996       -2.81239       -3.66571
|  5> C          2.48901       -1.66851       -2.73754
|  6> C          3.59631       -0.94761       -2.95225
|  7> N          1.66394       -1.41369       -1.77781
|  8> H          0.81164       -1.96318       -1.70275
|  9> H          1.84550       -0.63508       -1.15875
| 10> H          4.20535       -1.17600       -3.73383
| 11> H          3.81723       -0.12585       -2.40604
| 12> H          3.14311       -3.36280       -3.81152
| 13> H          1.48768       -3.45893       -3.16521
| 14> H          1.46566       -3.19589       -5.64368
| 15> H          2.35406       -1.69850       -5.49654
| 16> H          0.73014       -1.81680       -4.86253
| 17> *
| 18>
| 19> %MaxCore 64000
| 20> %pal nprocs 4
| 21> end
| 22>
| 23> %scf
| 24>   MaxIter 150
| 25> end
| 26>
| 27>
| 28>                          ****END OF INPUT****

CARTESIAN COORDINATES (ANGSTROEM)
---------------------------------
  C      1.647030   -2.345280   -5.020410
  C      2.209960   -2.812390   -3.665710
  C      2.489010   -1.668510   -2.737540
  C      3.596310   -0.947610   -2.952250
  N      1.663940   -1.413690   -1.777810
  H      0.811640   -1.963180   -1.702750
  H      1.845500   -0.635080   -1.158750
  H      4.205350   -1.176000   -3.733830
  H      3.817230   -0.125850   -2.406040
  H      3.143110   -3.362800   -3.811520
  H      1.487680   -3.458930   -3.165210
  H      1.465660   -3.195890   -5.643680
  H      2.354060   -1.698500   -5.496540
  H      0.730140   -1.816800   -4.862530

 Total Charge           Charge          ....    0
 Multiplicity           Mult            ....    1
 Number of Electrons    NEL             ....   40
 Basis Dimension        Dim             ....  209

ORBITAL ENERGIES
----------------

  NO   OCC          E(Eh)            E(eV)
   0   2.0000     -14.424342      -392.5063
   1   2.0000     -10.295018      -280.1417
   2   2.0000     -10.274506      -279.5835
   3   2.0000     -10.257143      -279.1111
   4   2.0000     -10.199116      -277.5320
   5   2.0000      -1.056020       -28.7358
   6   2.0000      -0.895201       -24.3596
   7   2.0000      -0.821770       -22.3615
   8   2.0000      -0.749852       -20.4045
   9   2.0000      -0.673258       -18.3203
  10   2.0000      -0.634153       -17.2562
  11   2.0000      -0.581847       -15.8329
  12   2.0000      -0.541863       -14.7448
  13   2.0000      -0.510033       -13.8787
  14   2.0000      -0.490959       -13.3597
  15   2.0000      -0.477444       -12.9919
  16   2.0000      -0.445594       -12.1252
  17   2.0000      -0.430141       -11.7047
  18   2.0000      -0.426640       -11.6095
  19   2.0000      -0.270000        -7.3471
  20   0.0000       0.105419         2.8686
  21   0.0000       0.127551         3.4708
  22   0.0000       0.149810         4.0765
  23   0.0000       0.155925         4.2429
  24   0.0000       0.172607         4.6969

MULLIKEN ATOMIC CHARGES
-----------------------
   0 C :   -0.317309
   1 C :   -0.205818
   2 C :    0.231141
   3 C :   -0.467443
   4 N :   -0.470427
   5 H :    0.239537
   6 H :    0.245062
   7 H :    0.108773
   8 H :    0.095241
   9 H :    0.125458
  10 H :    0.075539
  11 H :    0.111839
  12 H :    0.122307
  13 H :    0.106100
Sum of atomic charges:    0.0000000

LOEWDIN ATOMIC CHARGES
----------------------
   0 C :   -0.288037
   1 C :   -0.235440
   2 C :   -0.376503
   3 C :   -0.292028
   4 N :    0.014119
   5 H :    0.175750
   6 H :    0.179165
   7 H :    0.103993
   8 H :    0.093025
   9 H :    0.148589
  10 H :    0.130597
  11 H :    0.112650
  12 H :    0.118782
  13 H :    0.115338

  Mayer bond orders larger than 0.100000
B(  0-C ,  1-C ) :   0.9716 B(  0-C , 11-H ) :   0.9798 B(  0-C , 12-H ) :   0.9781
B(  0-C , 13-H ) :   0.9760 B(  1-C ,  2-C ) :   0.9204 B(  1-C ,  9-H ) :   0.9871
B(  1-C , 10-H ) :   0.9861 B(  2-C ,  3-C ) :   1.7286 B(  2-C ,  4-N ) :   1.2033
B(  3-C ,  7-H ) :   1.0014 B(  3-C ,  8-H ) :   0.9943 B(  4-N ,  5-H ) :   0.9182
B(  4-N ,  6-H ) :   0.9141

Dispersion correction           -0.003005821
FINAL SINGLE POINT ENERGY      -212.581931098763

DIPOLE MOMENT
-------------
                                X             Y             Z
Electronic contribution:     -0.08287       0.64308       3.03294
Nuclear contribution   :     -0.69146      -0.83112      -2.71336
                        -----------------------------------------
Total Dipole Moment    :     -0.77434      -0.18803       0.31958
                        -----------------------------------------
Magnitude (a.u.)       :      0.85854
Magnitude (Debye)      :      2.18223

Rotational constants in cm-1:     0.270661     0.129240     0.102040
Rotational constants in MHz :  8114.202941  3874.518141  3059.074383

                             ****ORCA TERMINATED NORMALLY****
TOTAL RUN TIME: 0 days 0 hours 0 minutes 37 seconds 959 msec
