                         Program Version 5.0.0 -  RELEASE  -
|  1> !wB97X-D3 RIJCOSX def2-TZVP def2/J TightSCF
|  2> *xyz 0 1
|  3> C          1.64703       -2.34528       -5.02041
|  4> C          2.20996       -2.81239       -3.66571
|  5> C          2.48901       -1.66851       -2.73754
|  6> N          3.59631       -0.94761       -2.95225
|  7> C          1.66394       -1.41369       -1.77781
|  8> H          0.81164       -1.96318       -1.70275
|  9> H          1.84550       -0.63508       -1.15875
| 10> H          4.20535       -1.17600       -3.73383
| 11> H          3.81723       -0.12585       -2.40604
| 12> H          3.14311       -3.36280       -3.81152
| 13> H          1.48768       -3.45893       -3.16521
| 14> H          1.46566       -3.19589       -5.64368
| 15> H          2.35406       -1.69850       -5.49654
| 16> H          0.73014       -1.81680       -4.86253
| 17> *
| 18>
| 19> %MaxCore 64000
| 20> %pal nprocs 4
| 21> end
| 22>
| 23> %scf
| 24>   MaxIter 150
| 25> end
| 26>
| 27>
| 28>                          ****END OF INPUT****

CARTESIAN COORDINATES (ANGSTROEM)
---------------------------------
  C      1.647030   -2.345280   -5.020410
  C      2.209960   -2.812390   -3.665710
  C      2.489010   -1.668510   -2.737540
  N      3.596310   -0.947610   -2.952250
  C      1.663940   -1.413690   -1.777810
  H      0.811640   -1.963180   -1.702750
  H      1.845500   -0.635080   -1.158750
  H      4.205350   -1.176000   -3.733830
  H      3.817230   -0.125850   -2.406040
  H      3.143110   -3.362800   -3.811520
  H      1.487680   -3.458930   -3.165210
  H      1.465660   -3.195890   -5.643680
  H      2.354060   -1.698500   -5.496540
  H      0.730140   -1.816800   -4.862530

 Total Charge           Charge          ....    0
 Multiplicity           Mult            ....    1
 Number of Electrons    NEL             ....   40
 Basis Dimension        Dim             ....  209

ORBITAL ENERGIES
----------------

  NO   OCC          E(Eh)            E(eV)
   0   2.0000     -14.417392      -392.3172
   1   2.0000     -10.291555      -280.0474
   2   2.0000     -10.272800      -279.5371
   3   2.0000     -10.258207      -279.1400
   4   2.0000     -10.202244      -277.6172
   5   2.0000      -1.037085       -28.2205
   6   2.0000      -0.895174       -24.3589
   7   2.0000      -0.836216       -22.7546
   8   2.0000      -0.745313       -20.2810
   9   2.0000      -0.669192       -18.2096
  10   2.0000      -0.621760       -16.9189
  11   2.0000      -0.582018       -15.8375
  12   2.0000      -0.533625       -14.5207
  13   2.0000      -0.521884       -14.2012
  14   2.0000      -0.493579       -13.4310
  15   2.0000      -0.480401       -13.0724
  16   2.0000      -0.445497       -12.1226
  17   2.0000      -0.425876       -11.5887
  18   2.0000      -0.421186       -11.4611
  19   2.0000      -0.282056        -7.6751
  20   0.0000       0.106515         2.8984
  21   0.0000       0.131455         3.5771
  22   0.0000       0.152728         4.1559
  23   0.0000       0.160728         4.3736
  24   0.0000       0.169354         4.6084

MULLIKEN ATOMIC CHARGES
-----------------------
   0 C :   -0.313156
   1 C :   -0.221082
   2 C :    0.251447
   3 N :   -0.524219
   4 C :   -0.417107
   5 H :    0.106762
   6 H :    0.092909
   7 H :    0.241397
   8 H :    0.240136
   9 H :    0.099428
  10 H :    0.110050
  11 H :    0.115355
  12 H :    0.098174
  13 H :    0.119906
Sum of atomic charges:   -0.0000000

LOEWDIN ATOMIC CHARGES
----------------------
   0 C :   -0.291389
   1 C :   -0.235686
   2 C :   -0.364626
   3 N :   -0.020938
   4 C :   -0.263991
   5 H :    0.110453
   6 H :    0.100865
   7 H :    0.169529
   8 H :    0.169474
   9 H :    0.135571
  10 H :    0.146173
  11 H :    0.113805
  12 H :    0.111801
  13 H :    0.118957

  Mayer bond orders larger than 0.100000
B(  0-C ,  1-C ) :   0.9662 B(  0-C , 11-H ) :   0.9804 B(  0-C , 12-H ) :   0.9774
B(  0-C , 13-H ) :   0.9770 B(  1-C ,  2-C ) :   0.9443 B(  1-C ,  9-H ) :   0.9787
B(  1-C , 10-H ) :   0.9910 B(  2-C ,  3-N ) :   1.1237 B(  2-C ,  4-C ) :   1.7895
B(  3-N ,  7-H ) :   0.9235 B(  3-N ,  8-H ) :   0.9205 B(  4-C ,  5-H ) :   0.9973
B(  4-C ,  6-H ) :   0.9955

Dispersion correction           -0.003021473
FINAL SINGLE POINT ENERGY      -212.586368146639

DIPOLE MOMENT
-------------
                                X             Y             Z
Electronic contribution:      1.66634       1.07711       1.98067
Nuclear contribution   :     -1.13902      -0.93906      -2.44135
                        -----------------------------------------
Total Dipole Moment    :      0.52732       0.13805      -0.46068
                        -----------------------------------------
Magnitude (a.u.)       :      0.71369
Magnitude (Debye)      :      1.81406

Rotational constants in cm-1:     0.267243     0.130607     0.102304
Rotational constants in MHz :  8011.748167  3915.504600  3066.999841

                             ****ORCA TERMINATED NORMALLY****
TOTAL RUN TIME: 0 days 0 hours 0 minutes 36 seconds 342 msec
