                         Program Version 5.0.0 -  RELEASE  -
|  1> !PBE D3BJ RIJCOSX def2-SVP def2/J TightSCF
|  2> *xyz 1 1
|  3> C         -0.46129        2.23469       -4.98962
|  4> C          0.84888        2.66797       -4.30235
|  5> C         -0.42384        2.39877       -6.47432
|  6> N         -0.95947        3.49265       -7.00740
|  7> N          0.14558        1.48689       -7.20399
|  8> H          0.56537        0.69681       -6.72386
|  9> H          0.22068        1.58177       -8.20752
| 10> H         -1.40624        4.18151       -6.40326
| 11> H         -0.93421        3.68160       -7.99947
| 12> H         -1.28888        2.82674       -4.59500
| 13> H         -0.65170        1.18634       -4.75655
| 14> H          1.66208        2.08894       -4.68750
| 15> H          0.76716        2.51042       -3.24717
| 16> H          1.02677        3.70527       -4.49537
| 17> *
| 18>
| 19> %MaxCore 64000
| 20>
| 21> %pal nprocs 4
| 22> end
| 23>
| 24> %scf
| 25>   MaxIter 150
| 26> end
| 27>
| 28>
| 29>                          ****END OF INPUT****

CARTESIAN COORDINATES (ANGSTROEM)
---------------------------------
  C     -0.461290    2.234690   -4.989620
  C      0.848880    2.667970   -4.302350
  C     -0.423840    2.398770   -6.474320
  N     -0.959470    3.492650   -7.007400
  N      0.145580    1.486890   -7.203990
  H      0.565370    0.696810   -6.723860
  H      0.220680    1.581770   -8.207520
  H     -1.406240    4.181510   -6.403260
  H     -0.934210    3.681600   -7.999470
  H     -1.288880    2.826740   -4.595000
  H     -0.651700    1.186340   -4.756550
  H      1.662080    2.088940   -4.687500
  H      0.767160    2.510420   -3.247170
  H      1.026770    3.705270   -4.495370

 Total Charge           Charge          ....    1
 Multiplicity           Mult            ....    1
 Number of Electrons    NEL             ....   40
 Basis Dimension        Dim             ....  115

ORBITAL ENERGIES
----------------

  NO   OCC          E(Eh)            E(eV)
   0   2.0000     -14.245483      -387.6393
   1   2.0000     -14.241828      -387.5398
   2   2.0000     -10.205739      -277.7123
   3   2.0000     -10.092384      -274.6277
   4   2.0000     -10.051213      -273.5074
   5   2.0000      -1.112571       -30.2746
   6   2.0000      -1.023042       -27.8384
   7   2.0000      -0.890725       -24.2379
   8   2.0000      -0.793424       -21.5902
   9   2.0000      -0.753965       -20.5164
  10   2.0000      -0.724548       -19.7159
  11   2.0000      -0.693206       -18.8631
  12   2.0000      -0.652474       -17.7547
  13   2.0000      -0.600485       -16.3400
  14   2.0000      -0.573937       -15.6176
  15   2.0000      -0.567239       -15.4354
  16   2.0000      -0.501714       -13.6523
  17   2.0000      -0.490479       -13.3466
  18   2.0000      -0.483162       -13.1475
  19   2.0000      -0.452043       -12.3007
  20   0.0000      -0.236538        -6.4365
  21   0.0000      -0.168552        -4.5865
  22   0.0000      -0.124969        -3.4006
  23   0.0000      -0.122744        -3.3400
  24   0.0000      -0.099982        -2.7206

MULLIKEN ATOMIC CHARGES
-----------------------
   0 C :   -0.030383
   1 C :    0.010458
   2 C :   -0.117514
   3 N :    0.035734
   4 N :    0.082331
   5 H :    0.178421
   6 H :    0.167952
   7 H :    0.180336
   8 H :    0.164163
   9 H :    0.066611
  10 H :    0.080892
  11 H :    0.044197
  12 H :    0.085856
  13 H :    0.050945
Sum of atomic charges:    1.0000000

LOEWDIN ATOMIC CHARGES
----------------------
   0 C :   -0.037875
   1 C :   -0.025819
   2 C :    0.117484
   3 N :    0.106703
   4 N :    0.126927
   5 H :    0.122788
   6 H :    0.113059
   7 H :    0.122209
   8 H :    0.108610
   9 H :    0.056741
  10 H :    0.061000
  11 H :    0.034015
  12 H :    0.055614
  13 H :    0.038546

  Mayer bond orders larger than 0.100000
B(  0-C ,  1-C ) :   1.0877 B(  0-C ,  2-C ) :   1.0455 B(  0-C ,  9-H ) :   0.9118
B(  0-C , 10-H ) :   0.9117 B(  1-C , 11-H ) :   0.9672 B(  1-C , 12-H ) :   0.9567
B(  1-C , 13-H ) :   0.9650 B(  2-C ,  3-N ) :   1.5050 B(  2-C ,  4-N ) :   1.5380
B(  3-N ,  7-H ) :   0.9176 B(  3-N ,  8-H ) :   0.9289 B(  4-N ,  5-H ) :   0.9139
B(  4-N ,  6-H ) :   0.9248

Dispersion correction           -0.010109811
FINAL SINGLE POINT ENERGY      -228.576763785823

DIPOLE MOMENT
-------------
                                X             Y             Z
Electronic contribution:     -1.55580      -0.25481      -3.94569
Nuclear contribution   :      1.33202       0.27544       2.83701
                        -----------------------------------------
Total Dipole Moment    :     -0.22378       0.02063      -1.10868
                        -----------------------------------------
Magnitude (a.u.)       :      1.13122
Magnitude (Debye)      :      2.87534

Rotational constants in cm-1:     0.258570     0.126296     0.098869
Rotational constants in MHz :  7751.748523  3786.267300  2964.011691

                             ****ORCA TERMINATED NORMALLY****
TOTAL RUN TIME: 0 days 0 hours 0 minutes 10 seconds 79 msec
