                         Program Version 5.0.0 -  RELEASE  -
|  1> !PBE D3BJ RIJCOSX def2-SVP def2/J TightSCF
|  2> *xyz 0 1
|  3> C          0.84888        2.66797       -4.30235
|  4> C          2.09343        1.86104       -4.65684
|  5> H          2.44481        2.04157       -5.67499
|  6> H          2.90175        2.13786       -3.98034
|  7> S          1.87964        0.07859       -4.46297
|  8> F          3.20757       -0.46611       -4.42026
|  9> O          1.07506       -0.05616       -3.26876
| 10> O          1.13166       -0.31996       -5.67903
| 11> H          0.05064        2.40112       -4.96303
| 12> H          1.06043        3.71210       -4.40203
| 13> H          0.56237        2.45684       -3.29327
| 14> *
| 15>
| 16> %MaxCore 64000
| 17>
| 18> %pal nprocs 4
| 19> end
| 20>
| 21> %scf
| 22>   MaxIter 150
| 23> end
| 24>
| 25>
| 26>                          ****END OF INPUT****

CARTESIAN COORDINATES (ANGSTROEM)
---------------------------------
  C      0.848880    2.667970   -4.302350
  C      2.093430    1.861040   -4.656840
  H      2.444810    2.041570   -5.674990
  H      2.901750    2.137860   -3.980340
  S      1.879640    0.078590   -4.462970
  F      3.207570   -0.466110   -4.420260
  O      1.075060   -0.056160   -3.268760
  O      1.131660   -0.319960   -5.679030
  H      0.050640    2.401120   -4.963030
  H      1.060430    3.712100   -4.402030
  H      0.562370    2.456840   -3.293270

 Total Charge           Charge          ....    0
 Multiplicity           Mult            ....    1
 Number of Electrons    NEL             ....   58
 Basis Dimension        Dim             ....  113

ORBITAL ENERGIES
----------------

  NO   OCC          E(Eh)            E(eV)
   0   2.0000     -88.280871     -2402.2446
   1   2.0000     -24.372332      -663.2049
   2   2.0000     -18.755411      -510.3607
   3   2.0000     -18.741998      -509.9957
   4   2.0000      -9.944209      -270.5957
   5   2.0000      -9.908245      -269.6170
   6   2.0000      -7.895030      -214.8347
   7   2.0000      -5.925739      -161.2476
   8   2.0000      -5.919123      -161.0675
   9   2.0000      -5.917692      -161.0286
  10   2.0000      -1.264817       -34.4174
  11   2.0000      -1.003096       -27.2956
  12   2.0000      -0.901053       -24.5189
  13   2.0000      -0.736061       -20.0292
  14   2.0000      -0.658156       -17.9093
  15   2.0000      -0.601646       -16.3716
  16   2.0000      -0.518803       -14.1173
  17   2.0000      -0.514112       -13.9897
  18   2.0000      -0.484544       -13.1851
  19   2.0000      -0.436045       -11.8654
  20   2.0000      -0.419830       -11.4241
  21   2.0000      -0.379722       -10.3328
  22   2.0000      -0.374860       -10.2005
  23   2.0000      -0.356253        -9.6941
  24   2.0000      -0.336347        -9.1525
  25   2.0000      -0.322742        -8.7823
  26   2.0000      -0.274432        -7.4677
  27   2.0000      -0.260058        -7.0765
  28   2.0000      -0.242199        -6.5906
  29   0.0000       0.003427         0.0932
  30   0.0000       0.025818         0.7025
  31   0.0000       0.046103         1.2545
  32   0.0000       0.059985         1.6323
  33   0.0000       0.075750         2.0613

MULLIKEN ATOMIC CHARGES
-----------------------
   0 C :    0.005242
   1 C :   -0.144733
   2 H :    0.069656
   3 H :    0.052905
   4 S :    0.822434
   5 F :   -0.125349
   6 O :   -0.391348
   7 O :   -0.430307
   8 H :    0.051026
   9 H :    0.039362
  10 H :    0.051113
Sum of atomic charges:    0.0000000

LOEWDIN ATOMIC CHARGES
----------------------
   0 C :   -0.056516
   1 C :   -0.163494
   2 H :    0.036501
   3 H :    0.027976
   4 S :    1.079694
   5 F :   -0.090631
   6 O :   -0.449987
   7 O :   -0.491309
   8 H :    0.036020
   9 H :    0.037130
  10 H :    0.034617

  Mayer bond orders larger than 0.100000
B(  0-C ,  1-C ) :   1.0922 B(  0-C ,  8-H ) :   0.9679 B(  0-C ,  9-H ) :   0.9552
B(  0-C , 10-H ) :   0.9615 B(  1-C ,  2-H ) :   0.9263 B(  1-C ,  3-H ) :   0.9218
B(  1-C ,  4-S ) :   0.9048 B(  4-S ,  5-F ) :   1.0559 B(  4-S ,  6-O ) :   1.7826
B(  4-S ,  7-O ) :   1.7545

Dispersion correction           -0.009290058
FINAL SINGLE POINT ENERGY      -726.712098276369

DIPOLE MOMENT
-------------
                                X             Y             Z
Electronic contribution:      4.13044      -9.49093       0.11051
Nuclear contribution   :     -3.08754      10.54185      -0.04092
                        -----------------------------------------
Total Dipole Moment    :      1.04290       1.05092       0.06959
                        -----------------------------------------
Magnitude (a.u.)       :      1.48220
Magnitude (Debye)      :      3.76746

Rotational constants in cm-1:     0.158925     0.081210     0.079022
Rotational constants in MHz :  4764.450166  2434.603461  2369.014434

                             ****ORCA TERMINATED NORMALLY****
TOTAL RUN TIME: 0 days 0 hours 0 minutes 6 seconds 746 msec
