                         Program Version 5.0.0 -  RELEASE  -
|  1> !PBE D3BJ RIJCOSX def2-SVP def2/J TightSCF
|  2> *xyz 0 1
|  3> C         -0.46129        2.23469       -4.98962
|  4> C          0.84888        2.66797       -4.30235
|  5> C         -0.42384        2.39877       -6.47432
|  6> C         -0.95947        3.49265       -7.00740
|  7> N          0.14558        1.48689       -7.20399
|  8> H          0.56537        0.69681       -6.72386
|  9> H          0.22068        1.58177       -8.20752
| 10> H         -1.40624        4.18151       -6.40326
| 11> H         -0.93421        3.68160       -7.99947
| 12> H         -1.28888        2.82674       -4.59500
| 13> H         -0.65170        1.18634       -4.75655
| 14> H          1.66208        2.08894       -4.68750
| 15> H          0.76716        2.51042       -3.24717
| 16> H          1.02677        3.70527       -4.49537
| 17> *
| 18>
| 19> %MaxCore 64000
| 20>
| 21> %pal nprocs 4
| 22> end
| 23>
| 24> %scf
| 25>   MaxIter 150
| 26> end
| 27>
| 28>
| 29>                          ****END OF INPUT****

CARTESIAN COORDINATES (ANGSTROEM)
---------------------------------
  C     -0.461290    2.234690   -4.989620
  C      0.848880    2.667970   -4.302350
  C     -0.423840    2.398770   -6.474320
  C     -0.959470    3.492650   -7.007400
  N      0.145580    1.486890   -7.203990
  H      0.565370    0.696810   -6.723860
  H      0.220680    1.581770   -8.207520
  H     -1.406240    4.181510   -6.403260
  H     -0.934210    3.681600   -7.999470
  H     -1.288880    2.826740   -4.595000
  H     -0.651700    1.186340   -4.756550
  H      1.662080    2.088940   -4.687500
  H      0.767160    2.510420   -3.247170
  H      1.026770    3.705270   -4.495370

 Total Charge           Charge          ....    0
 Multiplicity           Mult            ....    1
 Number of Electrons    NEL             ....   40
 Basis Dimension        Dim             ....  115

ORBITAL ENERGIES
----------------

  NO   OCC          E(Eh)            E(eV)
   0   2.0000     -13.996253      -380.8574
   1   2.0000      -9.903209      -269.4800
   2   2.0000      -9.890719      -269.1402
   3   2.0000      -9.879715      -268.8407
   4   2.0000      -9.821474      -267.2559
   5   2.0000      -0.840538       -22.8722
   6   2.0000      -0.695305       -18.9202
   7   2.0000      -0.631379       -17.1807
   8   2.0000      -0.563270       -15.3274
   9   2.0000      -0.506542       -13.7837
  10   2.0000      -0.472204       -12.8493
  11   2.0000      -0.422548       -11.4981
  12   2.0000      -0.385995       -10.5035
  13   2.0000      -0.367116        -9.9897
  14   2.0000      -0.340255        -9.2588
  15   2.0000      -0.329951        -8.9784
  16   2.0000      -0.305113        -8.3025
  17   2.0000      -0.287359        -7.8194
  18   2.0000      -0.282564        -7.6889
  19   2.0000      -0.146595        -3.9891
  20   0.0000       0.022186         0.6037
  21   0.0000       0.036744         0.9999
  22   0.0000       0.070812         1.9269
  23   0.0000       0.079932         2.1751
  24   0.0000       0.095854         2.6083

MULLIKEN ATOMIC CHARGES
-----------------------
   0 C :    0.020823
   1 C :    0.025263
   2 C :   -0.178326
   3 C :   -0.027074
   4 N :   -0.002193
   5 H :    0.100849
   6 H :    0.107817
   7 H :   -0.041914
   8 H :   -0.058984
   9 H :    0.015955
  10 H :   -0.002582
  11 H :    0.003342
  12 H :    0.018014
  13 H :    0.019007
Sum of atomic charges:   -0.0000000

LOEWDIN ATOMIC CHARGES
----------------------
   0 C :   -0.033777
   1 C :   -0.051462
   2 C :   -0.018646
   3 C :   -0.179523
   4 N :    0.023057
   5 H :    0.070432
   6 H :    0.077672
   7 H :    0.000380
   8 H :   -0.009939
   9 H :    0.036431
  10 H :    0.018935
  11 H :    0.017275
  12 H :    0.023112
  13 H :    0.026052

  Mayer bond orders larger than 0.100000
B(  0-C ,  1-C ) :   1.1071 B(  0-C ,  2-C ) :   1.0455 B(  0-C ,  9-H ) :   0.9210
B(  0-C , 10-H ) :   0.9162 B(  1-C , 11-H ) :   0.9655 B(  1-C , 12-H ) :   0.9624
B(  1-C , 13-H ) :   0.9655 B(  2-C ,  3-C ) :   1.8303 B(  2-C ,  4-N ) :   1.3136
B(  3-C ,  7-H ) :   0.9260 B(  3-C ,  8-H ) :   0.9410 B(  4-N ,  5-H ) :   0.9419
B(  4-N ,  6-H ) :   0.9409

Dispersion correction           -0.010483371
FINAL SINGLE POINT ENERGY      -212.119458335439

DIPOLE MOMENT
-------------
                                X             Y             Z
Electronic contribution:     -0.68087      -1.23926      -2.64448
Nuclear contribution   :      1.14741       0.51394       2.60761
                        -----------------------------------------
Total Dipole Moment    :      0.46654      -0.72532      -0.03688
                        -----------------------------------------
Magnitude (a.u.)       :      0.86320
Magnitude (Debye)      :      2.19407

Rotational constants in cm-1:     0.269157     0.129188     0.102123
Rotational constants in MHz :  8069.118715  3872.945231  3061.580645

                             ****ORCA TERMINATED NORMALLY****
TOTAL RUN TIME: 0 days 0 hours 0 minutes 6 seconds 531 msec
