                         Program Version 5.0.0 -  RELEASE  -
|  1> !PBE D3BJ RIJCOSX def2-SVP def2/J TightSCF
|  2> *xyz 0 1
|  3> C          0.84888        2.66797       -4.30235
|  4> C          2.09343        1.86104       -4.65684
|  5> H          2.44481        2.04157       -5.67499
|  6> H          2.90175        2.13786       -3.98034
|  7> S          1.87964        0.07859       -4.46297
|  8> O          3.20757       -0.46611       -4.42026
|  9> F          1.07506       -0.05616       -3.26876
| 10> O          1.13166       -0.31996       -5.67903
| 11> H          0.05064        2.40112       -4.96303
| 12> H          1.06043        3.71210       -4.40203
| 13> H          0.56237        2.45684       -3.29327
| 14> *
| 15>
| 16> %MaxCore 64000
| 17>
| 18> %pal nprocs 4
| 19> end
| 20>
| 21> %scf
| 22>   MaxIter 150
| 23> end
| 24>
| 25>
| 26>                          ****END OF INPUT****

CARTESIAN COORDINATES (ANGSTROEM)
---------------------------------
  C      0.848880    2.667970   -4.302350
  C      2.093430    1.861040   -4.656840
  H      2.444810    2.041570   -5.674990
  H      2.901750    2.137860   -3.980340
  S      1.879640    0.078590   -4.462970
  O      3.207570   -0.466110   -4.420260
  F      1.075060   -0.056160   -3.268760
  O      1.131660   -0.319960   -5.679030
  H      0.050640    2.401120   -4.963030
  H      1.060430    3.712100   -4.402030
  H      0.562370    2.456840   -3.293270

 Total Charge           Charge          ....    0
 Multiplicity           Mult            ....    1
 Number of Electrons    NEL             ....   58
 Basis Dimension        Dim             ....  113

ORBITAL ENERGIES
----------------

  NO   OCC          E(Eh)            E(eV)
   0   2.0000     -88.280218     -2402.2269
   1   2.0000     -24.367480      -663.0728
   2   2.0000     -18.758696      -510.4501
   3   2.0000     -18.742385      -510.0062
   4   2.0000      -9.943959      -270.5889
   5   2.0000      -9.914829      -269.7962
   6   2.0000      -7.894398      -214.8175
   7   2.0000      -5.925174      -161.2322
   8   2.0000      -5.918480      -161.0500
   9   2.0000      -5.917070      -161.0117
  10   2.0000      -1.256392       -34.1882
  11   2.0000      -1.007033       -27.4027
  12   2.0000      -0.904293       -24.6071
  13   2.0000      -0.741354       -20.1733
  14   2.0000      -0.651939       -17.7402
  15   2.0000      -0.604688       -16.4544
  16   2.0000      -0.526976       -14.3397
  17   2.0000      -0.507693       -13.8150
  18   2.0000      -0.475233       -12.9318
  19   2.0000      -0.437883       -11.9154
  20   2.0000      -0.415055       -11.2942
  21   2.0000      -0.393860       -10.7175
  22   2.0000      -0.377169       -10.2633
  23   2.0000      -0.361430        -9.8350
  24   2.0000      -0.344369        -9.3707
  25   2.0000      -0.324202        -8.8220
  26   2.0000      -0.276819        -7.5326
  27   2.0000      -0.260575        -7.0906
  28   2.0000      -0.245508        -6.6806
  29   0.0000      -0.002408        -0.0655
  30   0.0000       0.035741         0.9726
  31   0.0000       0.040608         1.1050
  32   0.0000       0.064520         1.7557
  33   0.0000       0.076005         2.0682

MULLIKEN ATOMIC CHARGES
-----------------------
   0 C :   -0.015845
   1 C :   -0.144942
   2 H :    0.092947
   3 H :    0.063432
   4 S :    0.823791
   5 O :   -0.376018
   6 F :   -0.137793
   7 O :   -0.430785
   8 H :    0.048977
   9 H :    0.044057
  10 H :    0.032180
Sum of atomic charges:    0.0000000

LOEWDIN ATOMIC CHARGES
----------------------
   0 C :   -0.071993
   1 C :   -0.159717
   2 H :    0.051908
   3 H :    0.032844
   4 S :    1.082658
   5 O :   -0.439592
   6 F :   -0.099903
   7 O :   -0.492211
   8 H :    0.032492
   9 H :    0.038310
  10 H :    0.025204

  Mayer bond orders larger than 0.100000
B(  0-C ,  1-C ) :   1.0674 B(  0-C ,  8-H ) :   0.9666 B(  0-C ,  9-H ) :   0.9559
B(  0-C , 10-H ) :   0.9682 B(  1-C ,  2-H ) :   0.9318 B(  1-C ,  3-H ) :   0.9267
B(  1-C ,  4-S ) :   0.9091 B(  4-S ,  5-O ) :   1.8065 B(  4-S ,  6-F ) :   1.0355
B(  4-S ,  7-O ) :   1.7551

Dispersion correction           -0.009228771
FINAL SINGLE POINT ENERGY      -726.716605016381

DIPOLE MOMENT
-------------
                                X             Y             Z
Electronic contribution:      0.58333      -8.78880       2.00699
Nuclear contribution   :     -0.86540      10.11467      -1.24082
                        -----------------------------------------
Total Dipole Moment    :     -0.28207       1.32588       0.76617
                        -----------------------------------------
Magnitude (a.u.)       :      1.55709
Magnitude (Debye)      :      3.95781

Rotational constants in cm-1:     0.154065     0.083345     0.080357
Rotational constants in MHz :  4618.752213  2498.631937  2409.037217

                             ****ORCA TERMINATED NORMALLY****
TOTAL RUN TIME: 0 days 0 hours 0 minutes 6 seconds 537 msec
