                         Program Version 5.0.0 -  RELEASE  -
|  1> !PBE D3BJ RIJCOSX def2-SVP def2/J TightSCF
|  2> *xyz 0 1
|  3> C         -0.46129        2.23469       -4.98962
|  4> C          0.84888        2.66797       -4.30235
|  5> C         -0.42384        2.39877       -6.47432
|  6> N         -0.95947        3.49265       -7.00740
|  7> C          0.14558        1.48689       -7.20399
|  8> H          0.56537        0.69681       -6.72386
|  9> H          0.22068        1.58177       -8.20752
| 10> H         -1.40624        4.18151       -6.40326
| 11> H         -0.93421        3.68160       -7.99947
| 12> H         -1.28888        2.82674       -4.59500
| 13> H         -0.65170        1.18634       -4.75655
| 14> H          1.66208        2.08894       -4.68750
| 15> H          0.76716        2.51042       -3.24717
| 16> H          1.02677        3.70527       -4.49537
| 17> *
| 18>
| 19> %MaxCore 64000
| 20>
| 21> %pal nprocs 4
| 22> end
| 23>
| 24> %scf
| 25>   MaxIter 150
| 26> end
| 27>
| 28>
| 29>                          ****END OF INPUT****

CARTESIAN COORDINATES (ANGSTROEM)
---------------------------------
  C     -0.461290    2.234690   -4.989620
  C      0.848880    2.667970   -4.302350
  C     -0.423840    2.398770   -6.474320
  N     -0.959470    3.492650   -7.007400
  C      0.145580    1.486890   -7.203990
  H      0.565370    0.696810   -6.723860
  H      0.220680    1.581770   -8.207520
  H     -1.406240    4.181510   -6.403260
  H     -0.934210    3.681600   -7.999470
  H     -1.288880    2.826740   -4.595000
  H     -0.651700    1.186340   -4.756550
  H      1.662080    2.088940   -4.687500
  H      0.767160    2.510420   -3.247170
  H      1.026770    3.705270   -4.495370

 Total Charge           Charge          ....    0
 Multiplicity           Mult            ....    1
 Number of Electrons    NEL             ....   40
 Basis Dimension        Dim             ....  115

ORBITAL ENERGIES
----------------

  NO   OCC          E(Eh)            E(eV)
   0   2.0000     -13.992590      -380.7577
   1   2.0000      -9.901395      -269.4307
   2   2.0000      -9.890625      -269.1376
   3   2.0000      -9.878209      -268.7997
   4   2.0000      -9.820110      -267.2188
   5   2.0000      -0.828373       -22.5412
   6   2.0000      -0.696564       -18.9545
   7   2.0000      -0.634833       -17.2747
   8   2.0000      -0.564024       -15.3479
   9   2.0000      -0.501227       -13.6391
  10   2.0000      -0.462921       -12.5967
  11   2.0000      -0.424448       -11.5498
  12   2.0000      -0.387165       -10.5353
  13   2.0000      -0.362133        -9.8541
  14   2.0000      -0.340828        -9.2744
  15   2.0000      -0.331832        -9.0296
  16   2.0000      -0.302755        -8.2384
  17   2.0000      -0.290051        -7.8927
  18   2.0000      -0.278175        -7.5695
  19   2.0000      -0.149517        -4.0686
  20   0.0000       0.024109         0.6560
  21   0.0000       0.038276         1.0416
  22   0.0000       0.072106         1.9621
  23   0.0000       0.077332         2.1043
  24   0.0000       0.098882         2.6907

MULLIKEN ATOMIC CHARGES
-----------------------
   0 C :    0.022073
   1 C :    0.023259
   2 C :   -0.146442
   3 N :   -0.048411
   4 C :   -0.009147
   5 H :   -0.044135
   6 H :   -0.058639
   7 H :    0.100851
   8 H :    0.103413
   9 H :   -0.010586
  10 H :    0.022493
  11 H :    0.019501
  12 H :    0.015903
  13 H :    0.009867
Sum of atomic charges:   -0.0000000

LOEWDIN ATOMIC CHARGES
----------------------
   0 C :   -0.033616
   1 C :   -0.049116
   2 C :   -0.012091
   3 N :    0.003282
   4 C :   -0.167548
   5 H :    0.001715
   6 H :   -0.006464
   7 H :    0.068931
   8 H :    0.072892
   9 H :    0.018064
  10 H :    0.036142
  11 H :    0.024969
  12 H :    0.021831
  13 H :    0.021010

  Mayer bond orders larger than 0.100000
B(  0-C ,  1-C ) :   1.1119 B(  0-C ,  2-C ) :   1.0332 B(  0-C ,  9-H ) :   0.9180
B(  0-C , 10-H ) :   0.9238 B(  1-C , 11-H ) :   0.9682 B(  1-C , 12-H ) :   0.9620
B(  1-C , 13-H ) :   0.9644 B(  2-C ,  3-N ) :   1.2776 B(  2-C ,  4-C ) :   1.8667
B(  3-N ,  7-H ) :   0.9449 B(  3-N ,  8-H ) :   0.9461 B(  4-C ,  5-H ) :   0.9171
B(  4-C ,  6-H ) :   0.9385

Dispersion correction           -0.010489846
FINAL SINGLE POINT ENERGY      -212.118728168919

DIPOLE MOMENT
-------------
                                X             Y             Z
Electronic contribution:     -1.74916       0.66622      -2.44860
Nuclear contribution   :      1.40335       0.04939       2.56207
                        -----------------------------------------
Total Dipole Moment    :     -0.34580       0.71561       0.11347
                        -----------------------------------------
Magnitude (a.u.)       :      0.80284
Magnitude (Debye)      :      2.04065

Rotational constants in cm-1:     0.271383     0.128194     0.101873
Rotational constants in MHz :  8135.853259  3843.152748  3054.074278

                             ****ORCA TERMINATED NORMALLY****
TOTAL RUN TIME: 0 days 0 hours 0 minutes 6 seconds 364 msec
