                         Program Version 5.0.0 -  RELEASE  -
|  1> !PBE D3BJ RIJCOSX def2-SVP def2/J TightSCF
|  2> *xyz 0 1
|  3> C          0.84888        2.66797       -4.30235
|  4> C          2.09343        1.86104       -4.65684
|  5> H          2.44481        2.04157       -5.67499
|  6> H          2.90175        2.13786       -3.98034
|  7> S          1.87964        0.07859       -4.46297
|  8> O          3.20757       -0.46611       -4.42026
|  9> O          1.07506       -0.05616       -3.26876
| 10> F          1.13166       -0.31996       -5.67903
| 11> H          0.05064        2.40112       -4.96303
| 12> H          1.06043        3.71210       -4.40203
| 13> H          0.56237        2.45684       -3.29327
| 14> *
| 15>
| 16> %MaxCore 64000
| 17>
| 18> %pal nprocs 4
| 19> end
| 20>
| 21> %scf
| 22>   MaxIter 150
| 23> end
| 24>
| 25>
| 26>                          ****END OF INPUT****

CARTESIAN COORDINATES (ANGSTROEM)
---------------------------------
  C      0.848880    2.667970   -4.302350
  C      2.093430    1.861040   -4.656840
  H      2.444810    2.041570   -5.674990
  H      2.901750    2.137860   -3.980340
  S      1.879640    0.078590   -4.462970
  O      3.207570   -0.466110   -4.420260
  O      1.075060   -0.056160   -3.268760
  F      1.131660   -0.319960   -5.679030
  H      0.050640    2.401120   -4.963030
  H      1.060430    3.712100   -4.402030
  H      0.562370    2.456840   -3.293270

 Total Charge           Charge          ....    0
 Multiplicity           Mult            ....    1
 Number of Electrons    NEL             ....   58
 Basis Dimension        Dim             ....  113

ORBITAL ENERGIES
----------------

  NO   OCC          E(Eh)            E(eV)
   0   2.0000     -88.279175     -2402.1985
   1   2.0000     -24.348595      -662.5590
   2   2.0000     -18.759047      -510.4596
   3   2.0000     -18.756596      -510.3929
   4   2.0000      -9.943238      -270.5693
   5   2.0000      -9.909383      -269.6480
   6   2.0000      -7.893342      -214.7888
   7   2.0000      -5.923777      -161.1942
   8   2.0000      -5.917729      -161.0296
   9   2.0000      -5.916230      -160.9888
  10   2.0000      -1.225644       -33.3515
  11   2.0000      -1.015648       -27.6372
  12   2.0000      -0.924504       -25.1570
  13   2.0000      -0.737510       -20.0687
  14   2.0000      -0.641823       -17.4649
  15   2.0000      -0.596007       -16.2182
  16   2.0000      -0.510197       -13.8832
  17   2.0000      -0.486232       -13.2310
  18   2.0000      -0.475970       -12.9518
  19   2.0000      -0.435552       -11.8520
  20   2.0000      -0.417167       -11.3517
  21   2.0000      -0.393585       -10.7100
  22   2.0000      -0.375529       -10.2187
  23   2.0000      -0.353641        -9.6230
  24   2.0000      -0.347144        -9.4463
  25   2.0000      -0.326412        -8.8821
  26   2.0000      -0.281281        -7.6540
  27   2.0000      -0.275686        -7.5018
  28   2.0000      -0.260713        -7.0944
  29   0.0000       0.001829         0.0498
  30   0.0000       0.033428         0.9096
  31   0.0000       0.044406         1.2084
  32   0.0000       0.063907         1.7390
  33   0.0000       0.075940         2.0664

MULLIKEN ATOMIC CHARGES
-----------------------
   0 C :   -0.005171
   1 C :   -0.155188
   2 H :    0.064191
   3 H :    0.086017
   4 S :    0.834679
   5 O :   -0.381469
   6 O :   -0.395571
   7 F :   -0.174176
   8 H :    0.033138
   9 H :    0.037564
  10 H :    0.055986
Sum of atomic charges:   -0.0000000

LOEWDIN ATOMIC CHARGES
----------------------
   0 C :   -0.068260
   1 C :   -0.164812
   2 H :    0.033019
   3 H :    0.048668
   4 S :    1.088152
   5 O :   -0.443368
   6 O :   -0.452352
   7 F :   -0.139414
   8 H :    0.027858
   9 H :    0.035713
  10 H :    0.034795

  Mayer bond orders larger than 0.100000
B(  0-C ,  1-C ) :   1.0722 B(  0-C ,  8-H ) :   0.9704 B(  0-C ,  9-H ) :   0.9536
B(  0-C , 10-H ) :   0.9622 B(  1-C ,  2-H ) :   0.9284 B(  1-C ,  3-H ) :   0.9307
B(  1-C ,  4-S ) :   0.9008 B(  4-S ,  5-O ) :   1.8117 B(  4-S ,  6-O ) :   1.7889
B(  4-S ,  7-F ) :   0.9999

Dispersion correction           -0.009255166
FINAL SINGLE POINT ENERGY      -726.733320737447

DIPOLE MOMENT
-------------
                                X             Y             Z
Electronic contribution:      0.67165      -9.25368      -2.00303
Nuclear contribution   :     -0.92438      10.38956       1.27076
                        -----------------------------------------
Total Dipole Moment    :     -0.25273       1.13588      -0.73227
                        -----------------------------------------
Magnitude (a.u.)       :      1.37489
Magnitude (Debye)      :      3.49469

Rotational constants in cm-1:     0.154243     0.082247     0.080562
Rotational constants in MHz :  4624.087322  2465.703680  2415.175852

                             ****ORCA TERMINATED NORMALLY****
TOTAL RUN TIME: 0 days 0 hours 0 minutes 6 seconds 299 msec
