                         Program Version 5.0.0 -  RELEASE  -
|  1> !PBE D3BJ RIJCOSX def2-TZVP def2/J TightSCF xyzfile
|  2>
|  3> *xyzfile 0 1 D2.xyz
|  4>
|  5> %MaxCore 64000
|  6>
|  7> %pal nprocs 18
|  8> end
|  9>
| 10> %scf
| 11>   MaxIter 150
| 12> end
| 13>
| 14>
| 15>                          ****END OF INPUT****

CARTESIAN COORDINATES (ANGSTROEM)
---------------------------------
  C     -0.461293    2.234686   -4.989619
  C      0.848883    2.667967   -4.302351
  C      2.093434    1.861037   -4.656845
  H      2.444814    2.041567   -5.674990
  H      2.901748    2.137864   -3.980338
  S      1.879644    0.078594   -4.462965
  C     -0.423841    2.398772   -6.474317
  N     -0.959467    3.492647   -7.007401
  C      0.145585    1.486891   -7.203987
  H      0.565371    0.696807   -6.723858
  H      0.220682    1.581768   -8.207520
  H     -1.406243    4.181507   -6.403261
  H     -0.934215    3.681601   -7.999468
  F      3.207574   -0.466111   -4.420259
  O      1.075064   -0.056160   -3.268758
  O      1.131661   -0.319960   -5.679031
  H      0.668432    2.559427   -3.232850
  H      1.034074    3.729426   -4.497081
  H     -1.288884    2.826737   -4.594997
  H     -0.651696    1.186343   -4.756552

 Total Charge           Charge          ....    0
 Multiplicity           Mult            ....    1
 Number of Electrons    NEL             ....   88
 Basis Dimension        Dim             ....  376

ORBITAL ENERGIES
----------------

  NO   OCC          E(Eh)            E(eV)
   0   2.0000     -88.267131     -2401.8707
   1   2.0000     -24.375067      -663.2793
   2   2.0000     -18.759780      -510.4796
   3   2.0000     -18.750579      -510.2292
   4   2.0000     -13.977875      -380.3573
   5   2.0000      -9.930650      -270.2267
   6   2.0000      -9.904657      -269.5194
   7   2.0000      -9.885804      -269.0064
   8   2.0000      -9.881242      -268.8823
   9   2.0000      -9.787211      -266.3236
  10   2.0000      -7.863029      -213.9639
  11   2.0000      -5.887283      -160.2011
  12   2.0000      -5.880936      -160.0284
  13   2.0000      -5.880507      -160.0167
  14   2.0000      -1.280950       -34.8564
  15   2.0000      -1.015492       -27.6329
  16   2.0000      -0.923083       -25.1184
  17   2.0000      -0.838649       -22.8208
  18   2.0000      -0.751155       -20.4400
  19   2.0000      -0.694820       -18.9070
  20   2.0000      -0.654785       -17.8176
  21   2.0000      -0.631128       -17.1739
  22   2.0000      -0.573601       -15.6085
  23   2.0000      -0.527636       -14.3577
  24   2.0000      -0.522304       -14.2126
  25   2.0000      -0.503537       -13.7019
  26   2.0000      -0.501545       -13.6477
  27   2.0000      -0.461893       -12.5688
  28   2.0000      -0.441485       -12.0134
  29   2.0000      -0.432606       -11.7718
  30   2.0000      -0.419968       -11.4279
  31   2.0000      -0.404099       -10.9961
  32   2.0000      -0.389496       -10.5987
  33   2.0000      -0.356955        -9.7133
  34   2.0000      -0.352854        -9.6017
  35   2.0000      -0.339782        -9.2459
  36   2.0000      -0.324205        -8.8221
  37   2.0000      -0.316354        -8.6084
  38   2.0000      -0.293202        -7.9784
  39   2.0000      -0.291451        -7.9308
  40   2.0000      -0.277484        -7.5507
  41   2.0000      -0.266779        -7.2594
  42   2.0000      -0.249680        -6.7941
  43   2.0000      -0.151201        -4.1144
  44   0.0000      -0.012509        -0.3404
  45   0.0000       0.000666         0.0181
  46   0.0000       0.020402         0.5552
  47   0.0000       0.025346         0.6897
  48   0.0000       0.032964         0.8970

MULLIKEN ATOMIC CHARGES
-----------------------
   0 C :   -0.273991
   1 C :   -0.134485
   2 C :   -0.298476
   3 H :    0.159573
   4 H :    0.133262
   5 S :    0.704855
   6 C :    0.198228
   7 N :   -0.420112
   8 C :   -0.460120
   9 H :    0.174863
  10 H :    0.069050
  11 H :    0.208471
  12 H :    0.215108
  13 F :   -0.051673
  14 O :   -0.347750
  15 O :   -0.356218
  16 H :    0.116951
  17 H :    0.105133
  18 H :    0.088370
  19 H :    0.168961
Sum of atomic charges:    0.0000000

LOEWDIN ATOMIC CHARGES
----------------------
   0 C :   -0.220501
   1 C :   -0.270028
   2 C :   -0.377850
   3 H :    0.144625
   4 H :    0.136754
   5 S :    0.473267
   6 C :   -0.386697
   7 N :   -0.001776
   8 C :   -0.263178
   9 H :    0.091555
  10 H :    0.095929
  11 H :    0.163362
  12 H :    0.165494
  13 F :    0.124509
  14 O :   -0.230713
  15 O :   -0.235497
  16 H :    0.146884
  17 H :    0.146769
  18 H :    0.139562
  19 H :    0.157530

  Mayer bond orders larger than 0.100000
B(  0-C ,  1-C ) :   0.9858 B(  0-C ,  6-C ) :   0.9612 B(  0-C , 18-H ) :   0.9462
B(  0-C , 19-H ) :   0.9746 B(  1-C ,  2-C ) :   1.0241 B(  1-C , 16-H ) :   0.9409
B(  1-C , 17-H ) :   0.9247 B(  2-C ,  3-H ) :   0.9171 B(  2-C ,  4-H ) :   0.9251
B(  2-C ,  5-S ) :   0.9230 B(  5-S , 13-F ) :   1.1861 B(  5-S , 14-O ) :   1.9368
B(  5-S , 15-O ) :   1.8359 B(  6-C ,  7-N ) :   1.1578 B(  6-C ,  8-C ) :   1.7528
B(  7-N , 11-H ) :   0.9187 B(  7-N , 12-H ) :   0.9154 B(  8-C ,  9-H ) :   0.9359
B(  8-C , 10-H ) :   0.9725 B(  9-H , 15-O ) :   0.1089

Dispersion correction           -0.022957798
FINAL SINGLE POINT ENERGY      -899.193773448273

DIPOLE MOMENT
-------------
                                X             Y             Z
Electronic contribution:      9.17639     -12.48949       5.37037
Nuclear contribution   :     -8.42493      13.96425      -5.19491
                        -----------------------------------------
Total Dipole Moment    :      0.75146       1.47476       0.17546
                        -----------------------------------------
Magnitude (a.u.)       :      1.66445
Magnitude (Debye)      :      4.23070

Rotational constants in cm-1:     0.082815     0.024151     0.022015
Rotational constants in MHz :  2482.732265   724.035221   660.002136

                             ****ORCA TERMINATED NORMALLY****
TOTAL RUN TIME: 0 days 0 hours 0 minutes 11 seconds 69 msec
