                         Program Version 5.0.0 -  RELEASE  -
|  1> !PBE D3BJ RIJCOSX def2-TZVP def2/J TightSCF xyzfile
|  2>
|  3> *xyzfile 0 1 D3.xyz
|  4>
|  5> %MaxCore 64000
|  6>
|  7> %pal nprocs 18
|  8> end
|  9>
| 10> %scf
| 11>   MaxIter 150
| 12> end
| 13>
| 14>
| 15>                          ****END OF INPUT****

CARTESIAN COORDINATES (ANGSTROEM)
---------------------------------
  C     -0.461293    2.234686   -4.989619
  C      0.848883    2.667967   -4.302351
  C      2.093434    1.861037   -4.656845
  H      2.444814    2.041567   -5.674990
  H      2.901748    2.137864   -3.980338
  S      1.879644    0.078594   -4.462965
  C     -0.423841    2.398772   -6.474317
  C     -0.959467    3.492647   -7.007401
  N      0.145585    1.486891   -7.203987
  H      0.565371    0.696807   -6.723858
  H      0.220682    1.581768   -8.207520
  H     -1.406243    4.181507   -6.403261
  H     -0.934215    3.681601   -7.999468
  O      3.207574   -0.466111   -4.420259
  F      1.075064   -0.056160   -3.268758
  O      1.131661   -0.319960   -5.679031
  H      0.668432    2.559427   -3.232850
  H      1.034074    3.729426   -4.497081
  H     -1.288884    2.826737   -4.594997
  H     -0.651696    1.186343   -4.756552

 Total Charge           Charge          ....    0
 Multiplicity           Mult            ....    1
 Number of Electrons    NEL             ....   88
 Basis Dimension        Dim             ....  376

ORBITAL ENERGIES
----------------

  NO   OCC          E(Eh)            E(eV)
   0   2.0000     -88.285227     -2402.3632
   1   2.0000     -24.385741      -663.5697
   2   2.0000     -18.778930      -511.0007
   3   2.0000     -18.772945      -510.8378
   4   2.0000     -13.961438      -379.9100
   5   2.0000      -9.941842      -270.5313
   6   2.0000      -9.912283      -269.7269
   7   2.0000      -9.893362      -269.2121
   8   2.0000      -9.890874      -269.1444
   9   2.0000      -9.807524      -266.8763
  10   2.0000      -7.881025      -214.4536
  11   2.0000      -5.905393      -160.6939
  12   2.0000      -5.899080      -160.5221
  13   2.0000      -5.898285      -160.5005
  14   2.0000      -1.288543       -35.0630
  15   2.0000      -1.036504       -28.2047
  16   2.0000      -0.946701       -25.7610
  17   2.0000      -0.843195       -22.9445
  18   2.0000      -0.764366       -20.7994
  19   2.0000      -0.697121       -18.9696
  20   2.0000      -0.667681       -18.1685
  21   2.0000      -0.630004       -17.1433
  22   2.0000      -0.582997       -15.8642
  23   2.0000      -0.542851       -14.7717
  24   2.0000      -0.537563       -14.6278
  25   2.0000      -0.515070       -14.0158
  26   2.0000      -0.506450       -13.7812
  27   2.0000      -0.466354       -12.6901
  28   2.0000      -0.448472       -12.2035
  29   2.0000      -0.440899       -11.9975
  30   2.0000      -0.422343       -11.4925
  31   2.0000      -0.410112       -11.1597
  32   2.0000      -0.403987       -10.9930
  33   2.0000      -0.372256       -10.1296
  34   2.0000      -0.357358        -9.7242
  35   2.0000      -0.352651        -9.5961
  36   2.0000      -0.336576        -9.1587
  37   2.0000      -0.333868        -9.0850
  38   2.0000      -0.302395        -8.2286
  39   2.0000      -0.301500        -8.2042
  40   2.0000      -0.295466        -8.0400
  41   2.0000      -0.284818        -7.7503
  42   2.0000      -0.277737        -7.5576
  43   2.0000      -0.149971        -4.0809
  44   0.0000      -0.031708        -0.8628
  45   0.0000       0.004738         0.1289
  46   0.0000       0.010075         0.2742
  47   0.0000       0.016917         0.4603
  48   0.0000       0.027736         0.7547

MULLIKEN ATOMIC CHARGES
-----------------------
   0 C :   -0.276987
   1 C :   -0.170180
   2 C :   -0.294593
   3 H :    0.167928
   4 H :    0.149894
   5 S :    0.739089
   6 C :    0.189491
   7 C :   -0.430326
   8 N :   -0.389505
   9 H :    0.249006
  10 H :    0.203504
  11 H :    0.086988
  12 H :    0.082427
  13 O :   -0.335210
  14 F :   -0.049389
  15 O :   -0.395603
  16 H :    0.110736
  17 H :    0.116064
  18 H :    0.119078
  19 H :    0.127590
Sum of atomic charges:    0.0000000

LOEWDIN ATOMIC CHARGES
----------------------
   0 C :   -0.225682
   1 C :   -0.281584
   2 C :   -0.369619
   3 H :    0.152951
   4 H :    0.143629
   5 S :    0.489283
   6 C :   -0.389078
   7 C :   -0.289966
   8 N :    0.030707
   9 H :    0.134464
  10 H :    0.167605
  11 H :    0.103743
  12 H :    0.094961
  13 O :   -0.213992
  14 F :    0.125165
  15 O :   -0.255811
  16 H :    0.139764
  17 H :    0.150713
  18 H :    0.154734
  19 H :    0.138013

  Mayer bond orders larger than 0.100000
B(  0-C ,  1-C ) :   0.9658 B(  0-C ,  6-C ) :   0.9486 B(  0-C , 18-H ) :   0.9532
B(  0-C , 19-H ) :   0.9756 B(  1-C ,  2-C ) :   1.0090 B(  1-C , 16-H ) :   0.9496
B(  1-C , 17-H ) :   0.9236 B(  2-C ,  3-H ) :   0.9196 B(  2-C ,  4-H ) :   0.9315
B(  2-C ,  5-S ) :   0.9230 B(  5-S , 13-O ) :   2.0227 B(  5-S , 14-F ) :   1.1696
B(  5-S , 15-O ) :   1.7658 B(  6-C ,  7-C ) :   1.7249 B(  6-C ,  8-N ) :   1.2766
B(  7-C ,  8-N ) :   0.1058 B(  7-C , 11-H ) :   0.9748 B(  7-C , 12-H ) :   0.9788
B(  8-N ,  9-H ) :   0.8366 B(  8-N , 10-H ) :   0.9147 B(  9-H , 15-O ) :   0.1257

Dispersion correction           -0.022695350
FINAL SINGLE POINT ENERGY      -899.217088673097

DIPOLE MOMENT
-------------
                                X             Y             Z
Electronic contribution:      6.50391     -13.28300       7.31967
Nuclear contribution   :     -6.19944      13.70770      -6.43483
                        -----------------------------------------
Total Dipole Moment    :      0.30447       0.42470       0.88484
                        -----------------------------------------
Magnitude (a.u.)       :      1.02763
Magnitude (Debye)      :      2.61203

Rotational constants in cm-1:     0.079903     0.025241     0.022805
Rotational constants in MHz :  2395.439281   756.708181   683.680583

                             ****ORCA TERMINATED NORMALLY****
TOTAL RUN TIME: 0 days 0 hours 0 minutes 10 seconds 273 msec
