                         Program Version 5.0.0 -  RELEASE  -
|  1> !PBE0 D3BJ RIJCOSX def2-TZVPD def2/J TightSCF
|  2> *xyz -1 1
|  3> C         -0.72184       -0.99951       -3.43931
|  4> C          0.28725       -1.71177       -2.52740
|  5> H          1.13178       -2.06738       -3.15940
|  6> H         -0.20414       -2.63733       -2.17048
|  7> O          0.71050       -0.92751       -1.48177
|  8> H         -1.01315       -1.65739       -4.23129
|  9> H         -0.27123       -0.12142       -3.85259
| 10> H         -1.58442       -0.72333       -2.86958
| 11> *
| 12> %MaxCore 64000
| 13>
| 14> %pal nprocs 4
| 15> end
| 16>
| 17> %scf
| 18>   MaxIter 150
| 19> end
| 20>
| 21>
| 22>                          ****END OF INPUT****

CARTESIAN COORDINATES (ANGSTROEM)
---------------------------------
  C     -0.721840   -0.999510   -3.439310
  C      0.287250   -1.711770   -2.527400
  H      1.131780   -2.067380   -3.159400
  H     -0.204140   -2.637330   -2.170480
  O      0.710500   -0.927510   -1.481770
  H     -1.013150   -1.657390   -4.231290
  H     -0.271230   -0.121420   -3.852590
  H     -1.584420   -0.723330   -2.869580

 Total Charge           Charge          ....   -1
 Multiplicity           Mult            ....    1
 Number of Electrons    NEL             ....   26
 Basis Dimension        Dim             ....  159

ORBITAL ENERGIES
----------------

  NO   OCC          E(Eh)            E(eV)
   0   2.0000     -18.874157      -513.5919
   1   2.0000     -10.033390      -273.0224
   2   2.0000     -10.009953      -272.3847
   3   2.0000      -0.706031       -19.2121
   4   2.0000      -0.548434       -14.9236
   5   2.0000      -0.391018       -10.6401
   6   2.0000      -0.263451        -7.1689
   7   2.0000      -0.241112        -6.5610
   8   2.0000      -0.186164        -5.0658
   9   2.0000      -0.167890        -4.5685
  10   2.0000      -0.125882        -3.4254
  11   2.0000       0.017896         0.4870
  12   2.0000       0.020361         0.5541
  13   0.0000       0.160263         4.3610
  14   0.0000       0.183484         4.9929
  15   0.0000       0.210070         5.7163
  16   0.0000       0.212704         5.7880
  17   0.0000       0.234073         6.3694

MULLIKEN ATOMIC CHARGES
-----------------------
   0 C :   -0.707782
   1 C :   -0.128609
   2 H :    0.090152
   3 H :    0.082986
   4 O :   -0.902269
   5 H :    0.255452
   6 H :    0.154606
   7 H :    0.155464
Sum of atomic charges:   -1.0000000

LOEWDIN ATOMIC CHARGES
----------------------
   0 C :   -0.175335
   1 C :   -0.620271
   2 H :    0.056509
   3 H :    0.053611
   4 O :   -0.419009
   5 H :    0.026330
   6 H :    0.038792
   7 H :    0.039373

  Mayer bond orders larger than 0.100000
B(  0-C ,  1-C ) :   0.8967 B(  0-C ,  4-O ) :   0.3797 B(  0-C ,  5-H ) :   0.9844
B(  0-C ,  6-H ) :   1.0192 B(  0-C ,  7-H ) :   1.0165 B(  1-C ,  2-H ) :   1.0686
B(  1-C ,  3-H ) :   1.0771 B(  1-C ,  4-O ) :   0.9545

Dispersion correction           -0.003049217
FINAL SINGLE POINT ENERGY      -154.305862265745

DIPOLE MOMENT
-------------
                                X             Y             Z
Electronic contribution:      1.48563       0.70663       2.39641
Nuclear contribution   :     -2.24828      -1.06600      -3.62481
                        -----------------------------------------
Total Dipole Moment    :     -0.76264      -0.35937      -1.22840
                        -----------------------------------------
Magnitude (a.u.)       :      1.48988
Magnitude (Debye)      :      3.78697

Rotational constants in cm-1:     1.278116     0.325414     0.286672
Rotational constants in MHz : 38316.964654  9755.653004  8594.216906

                             ****ORCA TERMINATED NORMALLY****
TOTAL RUN TIME: 0 days 0 hours 0 minutes 17 seconds 282 msec
