                         Program Version 5.0.0 -  RELEASE  -
|  1> !PBE0 D3BJ RIJCOSX def2-TZVPD def2/J TightSCF
|  2> *xyz 1 1
|  3> C          3.48828        1.60092       -1.52204
|  4> C          4.34297        1.31342       -2.75683
|  5> N          2.81029        0.42878       -1.01420
|  6> H          2.71455        2.33145       -1.76030
|  7> H          4.09099        2.06315       -0.73338
|  8> C          3.29098       -0.41802       -0.12908
|  9> N          2.51754       -1.43202        0.23936
| 10> N          4.53549       -0.28441        0.39580
| 11> H          5.04363        0.57189        0.22290
| 12> H          4.72335       -0.73327        1.28180
| 13> H          1.93479        0.10230       -1.40379
| 14> H          1.67464       -1.50562       -0.31610
| 15> H          2.92850       -2.21850        0.72549
| 16> H          3.73575        0.86277       -3.51385
| 17> H          5.13754        0.64699       -2.49333
| 18> H          4.75374        2.22930       -3.12740
| 19> *
| 20> %MaxCore 64000
| 21>
| 22> %pal nprocs 4
| 23> end
| 24>
| 25> %scf
| 26>   MaxIter 150
| 27> end
| 28>
| 29>
| 30>                          ****END OF INPUT****

CARTESIAN COORDINATES (ANGSTROEM)
---------------------------------
  C      3.488280    1.600920   -1.522040
  C      4.342970    1.313420   -2.756830
  N      2.810290    0.428780   -1.014200
  H      2.714550    2.331450   -1.760300
  H      4.090990    2.063150   -0.733380
  C      3.290980   -0.418020   -0.129080
  N      2.517540   -1.432020    0.239360
  N      4.535490   -0.284410    0.395800
  H      5.043630    0.571890    0.222900
  H      4.723350   -0.733270    1.281800
  H      1.934790    0.102300   -1.403790
  H      1.674640   -1.505620   -0.316100
  H      2.928500   -2.218500    0.725490
  H      3.735750    0.862770   -3.513850
  H      5.137540    0.646990   -2.493330
  H      4.753740    2.229300   -3.127400

 Total Charge           Charge          ....    1
 Multiplicity           Mult            ....    1
 Number of Electrons    NEL             ....   48
 Basis Dimension        Dim             ....  312

ORBITAL ENERGIES
----------------

  NO   OCC          E(Eh)            E(eV)
   0   2.0000     -14.614135      -397.6708
   1   2.0000     -14.607094      -397.4792
   2   2.0000     -14.605211      -397.4280
   3   2.0000     -10.554052      -287.1904
   4   2.0000     -10.432252      -283.8760
   5   2.0000     -10.355676      -281.7923
   6   2.0000      -1.248072       -33.9618
   7   2.0000      -1.134116       -30.8609
   8   2.0000      -1.119777       -30.4707
   9   2.0000      -0.957366       -26.0512
  10   2.0000      -0.859131       -23.3782
  11   2.0000      -0.827249       -22.5106
  12   2.0000      -0.797035       -21.6884
  13   2.0000      -0.764449       -20.8017
  14   2.0000      -0.706936       -19.2367
  15   2.0000      -0.697986       -18.9932
  16   2.0000      -0.668793       -18.1988
  17   2.0000      -0.654740       -17.8164
  18   2.0000      -0.617215       -16.7953
  19   2.0000      -0.575770       -15.6675
  20   2.0000      -0.546221       -14.8634
  21   2.0000      -0.526036       -14.3142
  22   2.0000      -0.492178       -13.3928
  23   2.0000      -0.464992       -12.6531
  24   0.0000      -0.167328        -4.5532
  25   0.0000      -0.156677        -4.2634
  26   0.0000      -0.126340        -3.4379
  27   0.0000      -0.112909        -3.0724
  28   0.0000      -0.086026        -2.3409

MULLIKEN ATOMIC CHARGES
-----------------------
   0 C :   -0.495579
   1 C :   -0.676094
   2 N :    0.020958
   3 H :    0.186514
   4 H :    0.282842
   5 C :    0.463145
   6 N :   -0.223991
   7 N :   -0.253129
   8 H :    0.192657
   9 H :    0.208933
  10 H :    0.190873
  11 H :    0.187175
  12 H :    0.211947
  13 H :    0.226757
  14 H :    0.230320
  15 H :    0.246673
Sum of atomic charges:    1.0000000

LOEWDIN ATOMIC CHARGES
----------------------
   0 C :   -0.206480
   1 C :   -0.056493
   2 N :    0.085385
   3 H :    0.132631
   4 H :    0.122698
   5 C :   -0.436161
   6 N :    0.205344
   7 N :    0.214978
   8 H :    0.117436
   9 H :    0.136066
  10 H :    0.169356
  11 H :    0.137099
  12 H :    0.144286
  13 H :    0.078818
  14 H :    0.071738
  15 H :    0.083299

  Mayer bond orders larger than 0.100000
B(  0-C ,  1-C ) :   0.9002 B(  0-C ,  2-N ) :   0.9982 B(  0-C ,  3-H ) :   1.0014
B(  0-C ,  4-H ) :   0.8703 B(  1-C , 13-H ) :   0.9868 B(  1-C , 14-H ) :   0.9781
B(  1-C , 15-H ) :   0.9758 B(  2-N ,  5-C ) :   1.2399 B(  2-N , 10-H ) :   0.9747
B(  5-C ,  6-N ) :   1.2300 B(  5-C ,  7-N ) :   1.2216 B(  6-N , 11-H ) :   0.9630
B(  6-N , 12-H ) :   0.9534 B(  7-N ,  8-H ) :   0.9345 B(  7-N ,  9-H ) :   0.9721

Dispersion correction           -0.010418957
FINAL SINGLE POINT ENERGY      -284.180367270423

DIPOLE MOMENT
-------------
                                X             Y             Z
Electronic contribution:     -1.92048      -2.99698       3.72534
Nuclear contribution   :      1.59382       2.33278      -3.02574
                        -----------------------------------------
Total Dipole Moment    :     -0.32667      -0.66420       0.69960
                        -----------------------------------------
Magnitude (a.u.)       :      1.01848
Magnitude (Debye)      :      2.58878

Rotational constants in cm-1:     0.232230     0.073139     0.063030
Rotational constants in MHz :  6962.079716  2192.649203  1889.578947

                             ****ORCA TERMINATED NORMALLY****
TOTAL RUN TIME: 0 days 0 hours 0 minutes 55 seconds 553 msec
