                         Program Version 5.0.0 -  RELEASE  -
|  1> !PBE0 D3BJ RIJCOSX def2-TZVPD def2/J TightSCF xyzfile
|  2>
|  3> *xyzfile 0 1 B.xyz
|  4>
|  5> %MaxCore 64000
|  6>
|  7> %pal nprocs 4
|  8> end
|  9>
| 10> %scf
| 11>   MaxIter 150
| 12> end
| 13>
| 14>
| 15>                          ****END OF INPUT****

CARTESIAN COORDINATES (ANGSTROEM)
---------------------------------
  C      3.488276    1.600919   -1.522040
  C      4.342970    1.313419   -2.756826
  N      2.810285    0.428783   -1.014196
  H      5.132033    0.604994   -2.484466
  C      3.535896    0.749253   -3.924604
  H      4.841247    2.242136   -3.054083
  H      2.991617   -0.132199   -3.574137
  H      4.225505    0.392784   -4.695962
  C      2.564776    1.750890   -4.544523
  H      1.918749    2.171679   -3.769419
  C      1.686235    1.161657   -5.650111
  H      3.132494    2.594775   -4.951604
  C      0.839616   -0.037582   -5.220473
  H      2.323886    0.866395   -6.490796
  H      1.029518    1.951850   -6.029329
  C     -0.151019    0.254955   -4.094256
  H      1.499442   -0.857141   -4.922958
  H      0.290097   -0.410143   -6.091131
  H      0.328265    0.833022   -3.299125
  C     -0.721843   -0.999513   -3.439309
  H     -0.957367    0.884951   -4.485450
  H     -1.083403   -1.697555   -4.205656
  H     -1.581056   -0.723848   -2.820490
  C      0.287250   -1.711771   -2.527405
  H      1.131780   -2.067380   -3.159396
  H     -0.204137   -2.637326   -2.170480
  O      0.710505   -0.927506   -1.481767
  H      2.714548    2.331455   -1.760302
  H      4.090991    2.063151   -0.733382
  C      3.290978   -0.418021   -0.129083
  N      2.517536   -1.432017    0.239360
  N      4.535490   -0.284410    0.395800
  H      5.043627    0.571888    0.222899
  H      4.723346   -0.733273    1.281800
  H      1.934787    0.102305   -1.403788
  H      1.674638   -1.505616   -0.316095
  H      2.928503   -2.218502    0.725494

 Total Charge           Charge          ....    0
 Multiplicity           Mult            ....    1
 Number of Electrons    NEL             ....  112
 Basis Dimension        Dim             ....  728

ORBITAL ENERGIES
----------------

  NO   OCC          E(Eh)            E(eV)
   0   2.0000     -19.076031      -519.0852
   1   2.0000     -14.442543      -393.0016
   2   2.0000     -14.406839      -392.0300
   3   2.0000     -14.397712      -391.7817
   4   2.0000     -10.367717      -282.1199
   5   2.0000     -10.275184      -279.6020
   6   2.0000     -10.230783      -278.3938
   7   2.0000     -10.213485      -277.9231
   8   2.0000     -10.208006      -277.7740
   9   2.0000     -10.201306      -277.5917
  10   2.0000     -10.198066      -277.5035
  11   2.0000     -10.189318      -277.2654
  12   2.0000     -10.178825      -276.9799
  13   2.0000     -10.166870      -276.6546
  14   2.0000      -1.061212       -28.8770
  15   2.0000      -0.955210       -25.9926
  16   2.0000      -0.935692       -25.4615
  17   2.0000      -0.910504       -24.7761
  18   2.0000      -0.835623       -22.7385
  19   2.0000      -0.801103       -21.7991
  20   2.0000      -0.762471       -20.7479
  21   2.0000      -0.724139       -19.7048
  22   2.0000      -0.682143       -18.5620
  23   2.0000      -0.668654       -18.1950
  24   2.0000      -0.630318       -17.1518
  25   2.0000      -0.616915       -16.7871
  26   2.0000      -0.612873       -16.6771
  27   2.0000      -0.581679       -15.8283
  28   2.0000      -0.561858       -15.2889
  29   2.0000      -0.536302       -14.5935
  30   2.0000      -0.526765       -14.3340
  31   2.0000      -0.509887       -13.8747
  32   2.0000      -0.497940       -13.5496
  33   2.0000      -0.486277       -13.2323
  34   2.0000      -0.475026       -12.9261
  35   2.0000      -0.466383       -12.6909
  36   2.0000      -0.448178       -12.1956
  37   2.0000      -0.433293       -11.7905
  38   2.0000      -0.426549       -11.6070
  39   2.0000      -0.407195       -11.0803
  40   2.0000      -0.402321       -10.9477
  41   2.0000      -0.391142       -10.6435
  42   2.0000      -0.372203       -10.1282
  43   2.0000      -0.364802        -9.9268
  44   2.0000      -0.357154        -9.7187
  45   2.0000      -0.345748        -9.4083
  46   2.0000      -0.333127        -9.0648
  47   2.0000      -0.323862        -8.8127
  48   2.0000      -0.322525        -8.7763
  49   2.0000      -0.318292        -8.6612
  50   2.0000      -0.300517        -8.1775
  51   2.0000      -0.297039        -8.0828
  52   2.0000      -0.291271        -7.9259
  53   2.0000      -0.278174        -7.5695
  54   2.0000      -0.191518        -5.2115
  55   2.0000      -0.184653        -5.0247
  56   0.0000      -0.017525        -0.4769
  57   0.0000       0.005635         0.1533
  58   0.0000       0.013316         0.3624
  59   0.0000       0.025794         0.7019
  60   0.0000       0.027222         0.7408

MULLIKEN ATOMIC CHARGES
-----------------------
   0 C :   -1.008276
   1 C :    0.004234
   2 N :    0.157756
   3 H :    0.131435
   4 C :   -0.061320
   5 H :    0.141731
   6 H :   -0.012368
   7 H :    0.134625
   8 C :   -0.321641
   9 H :    0.184027
  10 C :   -0.378926
  11 H :    0.120884
  12 C :   -0.320837
  13 H :    0.158472
  14 H :    0.159428
  15 C :   -0.006724
  16 H :    0.134916
  17 H :    0.161257
  18 H :   -0.028707
  19 C :   -0.311476
  20 H :    0.140349
  21 H :    0.116999
  22 H :    0.147769
  23 C :   -0.335122
  24 H :    0.152294
  25 H :    0.145143
  26 O :   -1.092928
  27 H :    0.156573
  28 H :    0.317687
  29 C :    0.371074
  30 N :   -0.158980
  31 N :   -0.246738
  32 H :    0.186498
  33 H :    0.186810
  34 H :    0.446428
  35 H :    0.261125
  36 H :    0.166530
Sum of atomic charges:    0.0000000

LOEWDIN ATOMIC CHARGES
----------------------
   0 C :   -0.175052
   1 C :   -0.187575
   2 N :    0.097426
   3 H :    0.108199
   4 C :   -0.206771
   5 H :    0.114671
   6 H :    0.102710
   7 H :    0.120170
   8 C :   -0.219122
   9 H :    0.095934
  10 C :   -0.213747
  11 H :    0.114154
  12 C :   -0.221881
  13 H :    0.108288
  14 H :    0.109972
  15 C :   -0.220635
  16 H :    0.093417
  17 H :    0.112915
  18 H :    0.092949
  19 C :   -0.206935
  20 H :    0.111836
  21 H :    0.107254
  22 H :    0.106119
  23 C :   -0.408490
  24 H :    0.093769
  25 H :    0.098098
  26 O :   -0.320625
  27 H :    0.120825
  28 H :    0.111406
  29 C :   -0.448291
  30 N :    0.186265
  31 N :    0.172823
  32 H :    0.097204
  33 H :    0.114573
  34 H :    0.069886
  35 H :    0.046641
  36 H :    0.121624

  Mayer bond orders larger than 0.100000
B(  0-C ,  1-C ) :   0.8820 B(  0-C ,  2-N ) :   1.2081 B(  0-C ,  4-C ) :   0.1099
B(  0-C ,  8-C ) :   0.2029 B(  0-C , 27-H ) :   0.9961 B(  0-C , 28-H ) :   0.8121
B(  0-C , 29-C ) :  -0.2326 B(  0-C , 34-H ) :  -0.2658 B(  1-C ,  3-H ) :   0.9033
B(  1-C ,  4-C ) :   1.1646 B(  1-C ,  5-H ) :   0.9432 B(  1-C ,  6-H ) :   0.1061
B(  1-C ,  8-C ) :   0.2165 B(  2-N , 29-C ) :   1.1543 B(  2-N , 34-H ) :   0.8772
B(  4-C ,  6-H ) :   1.2831 B(  4-C ,  7-H ) :   0.8192 B(  4-C ,  8-C ) :   0.5990
B(  4-C , 10-C ) :   0.2304 B(  4-C , 12-C ) :   0.1382 B(  8-C ,  9-H ) :   0.9797
B(  8-C , 10-C ) :   1.1121 B(  8-C , 11-H ) :   0.9483 B(  8-C , 15-C ) :   0.1435
B(  9-H , 10-C ) :   0.1020 B( 10-C , 12-C ) :   1.0621 B( 10-C , 13-H ) :   0.9288
B( 10-C , 14-H ) :   0.9283 B( 10-C , 15-C ) :   0.2940 B( 12-C , 15-C ) :   0.5431
B( 12-C , 16-H ) :   1.0143 B( 12-C , 17-H ) :   0.9338 B( 12-C , 19-C ) :   0.3550
B( 15-C , 18-H ) :   1.1710 B( 15-C , 19-C ) :   1.0957 B( 15-C , 20-H ) :   0.8616
B( 15-C , 23-C ) :   0.1163 B( 18-H , 19-C ) :   0.1290 B( 18-H , 26-O ) :   0.1095
B( 19-C , 21-H ) :   0.9571 B( 19-C , 22-H ) :   0.8645 B( 19-C , 23-C ) :   1.0720
B( 19-C , 26-O ) :   0.1549 B( 23-C , 24-H ) :   1.0064 B( 23-C , 25-H ) :   0.9618
B( 23-C , 26-O ) :   0.8934 B( 26-O , 29-C ) :  -0.1115 B( 26-O , 35-H ) :   0.2590
B( 29-C , 30-N ) :   1.3630 B( 29-C , 31-N ) :   1.1883 B( 29-C , 34-H ) :  -0.1446
B( 30-N , 35-H ) :   0.7222 B( 30-N , 36-H ) :   0.9642 B( 31-N , 32-H ) :   0.9372
B( 31-N , 33-H ) :   0.9753

Dispersion correction           -0.035222180
FINAL SINGLE POINT ENERGY      -633.912720007411

DIPOLE MOMENT
-------------
                                X             Y             Z
Electronic contribution:      3.59882      -2.04909      11.35059
Nuclear contribution   :     -0.74583       2.62534      -9.91488
                        -----------------------------------------
Total Dipole Moment    :      2.85300       0.57625       1.43571
                        -----------------------------------------
Magnitude (a.u.)       :      3.24544
Magnitude (Debye)      :      8.24926

Rotational constants in cm-1:     0.027028     0.016098     0.010898
Rotational constants in MHz :   810.278072   482.590922   326.703462

                             ****ORCA TERMINATED NORMALLY****
TOTAL RUN TIME: 0 days 0 hours 7 minutes 50 seconds 568 msec
