                         Program Version 5.0.0 -  RELEASE  -
|  1> !PBE0 D3BJ RIJCOSX def2-TZVPD def2/J TightSCF
|  2> *xyz 0 1
|  3> C         -0.72184       -0.99951       -3.43931
|  4> C          0.28725       -1.71177       -2.52740
|  5> H          1.13178       -2.06738       -3.15940
|  6> H         -0.20414       -2.63733       -2.17048
|  7> F          0.71050       -0.92751       -1.48177
|  8> H         -1.01315       -1.65739       -4.23129
|  9> H         -0.27123       -0.12142       -3.85259
| 10> H         -1.58442       -0.72333       -2.86958
| 11> *
| 12> %MaxCore 64000
| 13>
| 14> %pal nprocs 4
| 15> end
| 16>
| 17> %scf
| 18>   MaxIter 150
| 19> end
| 20>
| 21>
| 22>                          ****END OF INPUT****

CARTESIAN COORDINATES (ANGSTROEM)
---------------------------------
  C     -0.721840   -0.999510   -3.439310
  C      0.287250   -1.711770   -2.527400
  H      1.131780   -2.067380   -3.159400
  H     -0.204140   -2.637330   -2.170480
  F      0.710500   -0.927510   -1.481770
  H     -1.013150   -1.657390   -4.231290
  H     -0.271230   -0.121420   -3.852590
  H     -1.584420   -0.723330   -2.869580

 Total Charge           Charge          ....    0
 Multiplicity           Mult            ....    1
 Number of Electrons    NEL             ....   26
 Basis Dimension        Dim             ....  159

ORBITAL ENERGIES
----------------

  NO   OCC          E(Eh)            E(eV)
   0   2.0000     -24.758620      -673.7163
   1   2.0000     -10.299200      -280.2555
   2   2.0000     -10.214670      -277.9553
   3   2.0000      -1.229577       -33.4585
   4   2.0000      -0.788535       -21.4571
   5   2.0000      -0.651695       -17.7335
   6   2.0000      -0.523982       -14.2583
   7   2.0000      -0.510505       -13.8915
   8   2.0000      -0.473762       -12.8917
   9   2.0000      -0.419687       -11.4203
  10   2.0000      -0.414354       -11.2751
  11   2.0000      -0.350500        -9.5376
  12   2.0000      -0.343329        -9.3424
  13   0.0000       0.016684         0.4540
  14   0.0000       0.043463         1.1827
  15   0.0000       0.060768         1.6536
  16   0.0000       0.064390         1.7521
  17   0.0000       0.090798         2.4707

MULLIKEN ATOMIC CHARGES
-----------------------
   0 C :   -0.617219
   1 C :    0.029620
   2 H :    0.135706
   3 H :    0.127031
   4 F :   -0.260921
   5 H :    0.227889
   6 H :    0.176861
   7 H :    0.181032
Sum of atomic charges:   -0.0000000

LOEWDIN ATOMIC CHARGES
----------------------
   0 C :   -0.086024
   1 C :   -0.287864
   2 H :    0.114069
   3 H :    0.110371
   4 F :   -0.048832
   5 H :    0.067792
   6 H :    0.065030
   7 H :    0.065458

  Mayer bond orders larger than 0.100000
B(  0-C ,  1-C ) :   0.9333 B(  0-C ,  5-H ) :   0.9525 B(  0-C ,  6-H ) :   0.9779
B(  0-C ,  7-H ) :   0.9761 B(  1-C ,  2-H ) :   0.9876 B(  1-C ,  3-H ) :   0.9964
B(  1-C ,  4-F ) :   0.8510

Dispersion correction           -0.002810165
FINAL SINGLE POINT ENERGY      -178.939374245999

DIPOLE MOMENT
-------------
                                X             Y             Z
Electronic contribution:      2.70089       1.04866       4.22312
Nuclear contribution   :     -2.97459      -1.40206      -4.79987
                        -----------------------------------------
Total Dipole Moment    :     -0.27371      -0.35340      -0.57675
                        -----------------------------------------
Magnitude (a.u.)       :      0.72969
Magnitude (Debye)      :      1.85472

Rotational constants in cm-1:     1.257024     0.302702     0.267953
Rotational constants in MHz : 37684.643733  9074.792567  8033.038070

                             ****ORCA TERMINATED NORMALLY****
TOTAL RUN TIME: 0 days 0 hours 0 minutes 13 seconds 487 msec
