                         Program Version 5.0.0 -  RELEASE  -
|  1> !PBE0 D3BJ RIJCOSX def2-TZVPD def2/J TightSCF
|  2> *xyz 0 1
|  3> C          3.48828        1.60092       -1.52204
|  4> C          4.34297        1.31342       -2.75683
|  5> C          2.81029        0.42878       -1.01420
|  6> H          2.71455        2.33145       -1.76030
|  7> H          4.09099        2.06315       -0.73338
|  8> C          3.29098       -0.41802       -0.12908
|  9> N          2.51754       -1.43202        0.23936
| 10> N          4.53549       -0.28441        0.39580
| 11> H          5.04363        0.57189        0.22290
| 12> H          4.72335       -0.73327        1.28180
| 13> H          1.93479        0.10230       -1.40379
| 14> H          1.67464       -1.50562       -0.31610
| 15> H          2.92850       -2.21850        0.72549
| 16> H          3.73575        0.86277       -3.51385
| 17> H          5.13754        0.64699       -2.49333
| 18> H          4.75374        2.22930       -3.12740
| 19> *
| 20> %MaxCore 64000
| 21>
| 22> %pal nprocs 4
| 23> end
| 24>
| 25> %scf
| 26>   MaxIter 150
| 27> end
| 28>
| 29>
| 30>                          ****END OF INPUT****

CARTESIAN COORDINATES (ANGSTROEM)
---------------------------------
  C      3.488280    1.600920   -1.522040
  C      4.342970    1.313420   -2.756830
  C      2.810290    0.428780   -1.014200
  H      2.714550    2.331450   -1.760300
  H      4.090990    2.063150   -0.733380
  C      3.290980   -0.418020   -0.129080
  N      2.517540   -1.432020    0.239360
  N      4.535490   -0.284410    0.395800
  H      5.043630    0.571890    0.222900
  H      4.723350   -0.733270    1.281800
  H      1.934790    0.102300   -1.403790
  H      1.674640   -1.505620   -0.316100
  H      2.928500   -2.218500    0.725490
  H      3.735750    0.862770   -3.513850
  H      5.137540    0.646990   -2.493330
  H      4.753740    2.229300   -3.127400

 Total Charge           Charge          ....    0
 Multiplicity           Mult            ....    1
 Number of Electrons    NEL             ....   48
 Basis Dimension        Dim             ....  312

ORBITAL ENERGIES
----------------

  NO   OCC          E(Eh)            E(eV)
   0   2.0000     -14.384685      -391.4272
   1   2.0000     -14.380244      -391.3063
   2   2.0000     -10.260459      -279.2013
   3   2.0000     -10.198517      -277.5158
   4   2.0000     -10.184293      -277.1287
   5   2.0000     -10.145757      -276.0801
   6   2.0000      -0.986785       -26.8518
   7   2.0000      -0.896745       -24.4017
   8   2.0000      -0.799749       -21.7623
   9   2.0000      -0.718067       -19.5396
  10   2.0000      -0.634433       -17.2638
  11   2.0000      -0.597424       -16.2567
  12   2.0000      -0.553199       -15.0533
  13   2.0000      -0.526601       -14.3295
  14   2.0000      -0.480661       -13.0794
  15   2.0000      -0.453481       -12.3398
  16   2.0000      -0.431875       -11.7519
  17   2.0000      -0.411394       -11.1946
  18   2.0000      -0.395177       -10.7533
  19   2.0000      -0.366006        -9.9595
  20   2.0000      -0.345077        -9.3900
  21   2.0000      -0.332447        -9.0464
  22   2.0000      -0.278757        -7.5854
  23   2.0000      -0.173904        -4.7322
  24   0.0000       0.005814         0.1582
  25   0.0000       0.031221         0.8496
  26   0.0000       0.036446         0.9917
  27   0.0000       0.047964         1.3052
  28   0.0000       0.063010         1.7146

MULLIKEN ATOMIC CHARGES
-----------------------
   0 C :   -0.371843
   1 C :   -0.744900
   2 C :   -0.526737
   3 H :    0.107929
   4 H :    0.222839
   5 C :    0.408503
   6 N :   -0.319280
   7 N :   -0.309592
   8 H :    0.170536
   9 H :    0.157147
  10 H :    0.246451
  11 H :    0.168785
  12 H :    0.153975
  13 H :    0.230737
  14 H :    0.215322
  15 H :    0.190128
Sum of atomic charges:   -0.0000000

LOEWDIN ATOMIC CHARGES
----------------------
   0 C :   -0.284842
   1 C :   -0.104735
   2 C :   -0.150113
   3 H :    0.104145
   4 H :    0.099111
   5 C :   -0.546396
   6 N :    0.101434
   7 N :    0.127563
   8 H :    0.091008
   9 H :    0.095616
  10 H :    0.070405
  11 H :    0.108152
  12 H :    0.101886
  13 H :    0.066626
  14 H :    0.062689
  15 H :    0.057452

  Mayer bond orders larger than 0.100000
B(  0-C ,  1-C ) :   0.7218 B(  0-C ,  2-C ) :   1.0716 B(  0-C ,  3-H ) :   1.0998
B(  0-C ,  4-H ) :   0.9119 B(  0-C ,  5-C ) :   0.2111 B(  1-C ,  2-C ) :   0.2097
B(  1-C , 13-H ) :   0.9966 B(  1-C , 14-H ) :   1.0011 B(  1-C , 15-H ) :   0.9862
B(  2-C ,  5-C ) :   1.3412 B(  2-C , 10-H ) :   0.9424 B(  5-C ,  6-N ) :   1.1473
B(  5-C ,  7-N ) :   1.0489 B(  5-C , 10-H ) :  -0.1568 B(  6-N , 11-H ) :   0.9645
B(  6-N , 12-H ) :   1.0148 B(  7-N ,  8-H ) :   0.9336 B(  7-N ,  9-H ) :   1.0074

Dispersion correction           -0.010840267
FINAL SINGLE POINT ENERGY      -267.709791177855

DIPOLE MOMENT
-------------
                                X             Y             Z
Electronic contribution:     -1.27641      -2.92039       3.64263
Nuclear contribution   :      1.44676       2.38443      -3.07370
                        -----------------------------------------
Total Dipole Moment    :      0.17036      -0.53596       0.56893
                        -----------------------------------------
Magnitude (a.u.)       :      0.79997
Magnitude (Debye)      :      2.03337

Rotational constants in cm-1:     0.235977     0.073199     0.063283
Rotational constants in MHz :  7074.404583  2194.453291  1897.179599

                             ****ORCA TERMINATED NORMALLY****
TOTAL RUN TIME: 0 days 0 hours 0 minutes 59 seconds 932 msec
