                         Program Version 5.0.0 -  RELEASE  -
|  1> !PBE0 D3BJ RIJCOSX def2-TZVPD def2/J TightSCF
|  2> *xyz 0 1
|  3> C          3.48828        1.60092       -1.52204
|  4> C          4.34297        1.31342       -2.75683
|  5> N          2.81029        0.42878       -1.01420
|  6> H          2.71455        2.33145       -1.76030
|  7> H          4.09099        2.06315       -0.73338
|  8> C          3.29098       -0.41802       -0.12908
|  9> C          2.51754       -1.43202        0.23936
| 10> N          4.53549       -0.28441        0.39580
| 11> H          5.04363        0.57189        0.22290
| 12> H          4.72335       -0.73327        1.28180
| 13> H          1.93479        0.10230       -1.40379
| 14> H          1.67464       -1.50562       -0.31610
| 15> H          2.92850       -2.21850        0.72549
| 16> H          3.73575        0.86277       -3.51385
| 17> H          5.13754        0.64699       -2.49333
| 18> H          4.75374        2.22930       -3.12740
| 19> *
| 20> %MaxCore 64000
| 21>
| 22> %pal nprocs 4
| 23> end
| 24>
| 25> %scf
| 26>   MaxIter 150
| 27> end
| 28>
| 29>
| 30>                          ****END OF INPUT****

CARTESIAN COORDINATES (ANGSTROEM)
---------------------------------
  C      3.488280    1.600920   -1.522040
  C      4.342970    1.313420   -2.756830
  N      2.810290    0.428780   -1.014200
  H      2.714550    2.331450   -1.760300
  H      4.090990    2.063150   -0.733380
  C      3.290980   -0.418020   -0.129080
  C      2.517540   -1.432020    0.239360
  N      4.535490   -0.284410    0.395800
  H      5.043630    0.571890    0.222900
  H      4.723350   -0.733270    1.281800
  H      1.934790    0.102300   -1.403790
  H      1.674640   -1.505620   -0.316100
  H      2.928500   -2.218500    0.725490
  H      3.735750    0.862770   -3.513850
  H      5.137540    0.646990   -2.493330
  H      4.753740    2.229300   -3.127400

 Total Charge           Charge          ....    0
 Multiplicity           Mult            ....    1
 Number of Electrons    NEL             ....   48
 Basis Dimension        Dim             ....  312

ORBITAL ENERGIES
----------------

  NO   OCC          E(Eh)            E(eV)
   0   2.0000     -14.386940      -391.4885
   1   2.0000     -14.384276      -391.4161
   2   2.0000     -10.264672      -279.3159
   3   2.0000     -10.264529      -279.3120
   4   2.0000     -10.210028      -277.8290
   5   2.0000     -10.129364      -275.6340
   6   2.0000      -0.998042       -27.1581
   7   2.0000      -0.910181       -24.7673
   8   2.0000      -0.799672       -21.7602
   9   2.0000      -0.724977       -19.7276
  10   2.0000      -0.650157       -17.6917
  11   2.0000      -0.616150       -16.7663
  12   2.0000      -0.552051       -15.0221
  13   2.0000      -0.515860       -14.0373
  14   2.0000      -0.493439       -13.4272
  15   2.0000      -0.454603       -12.3704
  16   2.0000      -0.445254       -12.1160
  17   2.0000      -0.418312       -11.3828
  18   2.0000      -0.391969       -10.6660
  19   2.0000      -0.385400       -10.4873
  20   2.0000      -0.376180       -10.2364
  21   2.0000      -0.369400       -10.0519
  22   2.0000      -0.271125        -7.3777
  23   2.0000      -0.172677        -4.6988
  24   0.0000       0.004380         0.1192
  25   0.0000       0.030178         0.8212
  26   0.0000       0.033753         0.9185
  27   0.0000       0.039307         1.0696
  28   0.0000       0.067818         1.8454

MULLIKEN ATOMIC CHARGES
-----------------------
   0 C :   -0.429865
   1 C :   -0.693479
   2 N :   -0.000201
   3 H :    0.159892
   4 H :    0.259771
   5 C :    0.636092
   6 C :   -1.175044
   7 N :   -0.313398
   8 H :    0.139363
   9 H :    0.192357
  10 H :    0.141597
  11 H :    0.218994
  12 H :    0.224489
  13 H :    0.189774
  14 H :    0.216976
  15 H :    0.232685
Sum of atomic charges:    0.0000000

LOEWDIN ATOMIC CHARGES
----------------------
   0 C :   -0.244847
   1 C :   -0.085292
   2 N :    0.013438
   3 H :    0.112535
   4 H :    0.107711
   5 C :   -0.565717
   6 C :   -0.010454
   7 N :    0.123224
   8 H :    0.081898
   9 H :    0.108067
  10 H :    0.146478
  11 H :    0.008040
  12 H :    0.009998
  13 H :    0.067325
  14 H :    0.064390
  15 H :    0.063205

  Mayer bond orders larger than 0.100000
B(  0-C ,  1-C ) :   0.8649 B(  0-C ,  2-N ) :   0.9692 B(  0-C ,  3-H ) :   1.0277
B(  0-C ,  4-H ) :   0.8997 B(  1-C , 13-H ) :   1.0055 B(  1-C , 14-H ) :   1.0138
B(  1-C , 15-H ) :   0.9855 B(  2-N ,  5-C ) :   1.1203 B(  2-N , 10-H ) :   0.9495
B(  5-C ,  6-C ) :   1.2229 B(  5-C ,  7-N ) :   1.0961 B(  6-C , 11-H ) :   1.0016
B(  6-C , 12-H ) :   1.0530 B(  7-N ,  8-H ) :   0.9820 B(  7-N ,  9-H ) :   0.9633

Dispersion correction           -0.010745136
FINAL SINGLE POINT ENERGY      -267.696089600392

DIPOLE MOMENT
-------------
                                X             Y             Z
Electronic contribution:     -0.87007      -1.05222       2.41082
Nuclear contribution   :      1.38466       1.98967      -2.80776
                        -----------------------------------------
Total Dipole Moment    :      0.51459       0.93745      -0.39694
                        -----------------------------------------
Magnitude (a.u.)       :      1.14069
Magnitude (Debye)      :      2.89940

Rotational constants in cm-1:     0.235618     0.075969     0.065309
Rotational constants in MHz :  7063.646698  2277.495424  1957.925383

                             ****ORCA TERMINATED NORMALLY****
TOTAL RUN TIME: 0 days 0 hours 0 minutes 56 seconds 266 msec
