                         Program Version 5.0.0 -  RELEASE  -
|  1> !PBE0 D3BJ RIJCOSX def2-TZVPD def2/J TightSCF
|  2> *xyz 0 1
|  3> C          3.48828        1.60092       -1.52204
|  4> C          4.34297        1.31342       -2.75683
|  5> N          2.81029        0.42878       -1.01420
|  6> H          2.71455        2.33145       -1.76030
|  7> H          4.09099        2.06315       -0.73338
|  8> C          3.29098       -0.41802       -0.12908
|  9> N          2.51754       -1.43202        0.23936
| 10> C          4.53549       -0.28441        0.39580
| 11> H          5.04363        0.57189        0.22290
| 12> H          4.72335       -0.73327        1.28180
| 13> H          1.93479        0.10230       -1.40379
| 14> H          1.67464       -1.50562       -0.31610
| 15> H          2.92850       -2.21850        0.72549
| 16> H          3.73575        0.86277       -3.51385
| 17> H          5.13754        0.64699       -2.49333
| 18> H          4.75374        2.22930       -3.12740
| 19> *
| 20> %MaxCore 64000
| 21>
| 22> %pal nprocs 4
| 23> end
| 24>
| 25> %scf
| 26>   MaxIter 150
| 27> end
| 28>
| 29>
| 30>                          ****END OF INPUT****

CARTESIAN COORDINATES (ANGSTROEM)
---------------------------------
  C      3.488280    1.600920   -1.522040
  C      4.342970    1.313420   -2.756830
  N      2.810290    0.428780   -1.014200
  H      2.714550    2.331450   -1.760300
  H      4.090990    2.063150   -0.733380
  C      3.290980   -0.418020   -0.129080
  N      2.517540   -1.432020    0.239360
  C      4.535490   -0.284410    0.395800
  H      5.043630    0.571890    0.222900
  H      4.723350   -0.733270    1.281800
  H      1.934790    0.102300   -1.403790
  H      1.674640   -1.505620   -0.316100
  H      2.928500   -2.218500    0.725490
  H      3.735750    0.862770   -3.513850
  H      5.137540    0.646990   -2.493330
  H      4.753740    2.229300   -3.127400

 Total Charge           Charge          ....    0
 Multiplicity           Mult            ....    1
 Number of Electrons    NEL             ....   48
 Basis Dimension        Dim             ....  312

ORBITAL ENERGIES
----------------

  NO   OCC          E(Eh)            E(eV)
   0   2.0000     -14.393089      -391.6559
   1   2.0000     -14.386462      -391.4755
   2   2.0000     -10.267390      -279.3899
   3   2.0000     -10.257085      -279.1095
   4   2.0000     -10.202314      -277.6191
   5   2.0000     -10.131375      -275.6887
   6   2.0000      -1.007255       -27.4088
   7   2.0000      -0.915711       -24.9178
   8   2.0000      -0.779910       -21.2224
   9   2.0000      -0.728867       -19.8335
  10   2.0000      -0.664705       -18.0875
  11   2.0000      -0.581360       -15.8196
  12   2.0000      -0.559468       -15.2239
  13   2.0000      -0.545879       -14.8541
  14   2.0000      -0.482916       -13.1408
  15   2.0000      -0.454491       -12.3673
  16   2.0000      -0.441599       -12.0165
  17   2.0000      -0.408429       -11.1139
  18   2.0000      -0.392365       -10.6768
  19   2.0000      -0.382202       -10.4003
  20   2.0000      -0.373206       -10.1554
  21   2.0000      -0.359690        -9.7877
  22   2.0000      -0.265207        -7.2167
  23   2.0000      -0.176326        -4.7981
  24   0.0000       0.002639         0.0718
  25   0.0000       0.027263         0.7419
  26   0.0000       0.037679         1.0253
  27   0.0000       0.041924         1.1408
  28   0.0000       0.067697         1.8421

MULLIKEN ATOMIC CHARGES
-----------------------
   0 C :   -0.382747
   1 C :   -0.709178
   2 N :   -0.072141
   3 H :    0.160190
   4 H :    0.259687
   5 C :    0.677662
   6 N :   -0.297373
   7 C :   -1.195919
   8 H :    0.197862
   9 H :    0.246333
  10 H :    0.159706
  11 H :    0.127019
  12 H :    0.188943
  13 H :    0.196558
  14 H :    0.212944
  15 H :    0.230453
Sum of atomic charges:    0.0000000

LOEWDIN ATOMIC CHARGES
----------------------
   0 C :   -0.239577
   1 C :   -0.082271
   2 N :    0.011378
   3 H :    0.111957
   4 H :    0.113109
   5 C :   -0.572961
   6 N :    0.114084
   7 C :    0.002109
   8 H :   -0.009884
   9 H :    0.003409
  10 H :    0.139080
  11 H :    0.098737
  12 H :    0.116258
  13 H :    0.064534
  14 H :    0.065643
  15 H :    0.064396

  Mayer bond orders larger than 0.100000
B(  0-C ,  1-C ) :   0.8592 B(  0-C ,  2-N ) :   0.9543 B(  0-C ,  3-H ) :   0.9775
B(  0-C ,  4-H ) :   0.8910 B(  0-C ,  7-C ) :   0.1160 B(  1-C , 13-H ) :   0.9941
B(  1-C , 14-H ) :   1.0339 B(  1-C , 15-H ) :   0.9640 B(  2-N ,  5-C ) :   1.0830
B(  2-N , 10-H ) :   0.9911 B(  5-C ,  6-N ) :   1.0878 B(  5-C ,  7-C ) :   1.2588
B(  6-N , 11-H ) :   1.0221 B(  6-N , 12-H ) :   0.9637 B(  7-C ,  8-H ) :   1.0348
B(  7-C ,  9-H ) :   1.0425

Dispersion correction           -0.010810544
FINAL SINGLE POINT ENERGY      -267.696562054907

DIPOLE MOMENT
-------------
                                X             Y             Z
Electronic contribution:     -2.80858      -2.28336       2.19067
Nuclear contribution   :      1.81275       2.23313      -2.77458
                        -----------------------------------------
Total Dipole Moment    :     -0.99583      -0.05023      -0.58391
                        -----------------------------------------
Magnitude (a.u.)       :      1.15548
Magnitude (Debye)      :      2.93700

Rotational constants in cm-1:     0.245202     0.073668     0.064348
Rotational constants in MHz :  7350.977980  2208.513334  1929.108541

                             ****ORCA TERMINATED NORMALLY****
TOTAL RUN TIME: 0 days 0 hours 0 minutes 55 seconds 664 msec
