                         Program Version 5.0.0 -  RELEASE  -
|  1> !PBE0 D3BJ RIJCOSX def2-TZVPD def2/J TightSCF xyzfile
|  2>
|  3> *xyzfile 0 1 D1.xyz
|  4>
|  5> %MaxCore 64000
|  6>
|  7> %pal nprocs 4
|  8> end
|  9>
| 10> %scf
| 11>   MaxIter 150
| 12> end
| 13>
| 14>
| 15>                          ****END OF INPUT****

CARTESIAN COORDINATES (ANGSTROEM)
---------------------------------
  C      3.488276    1.600919   -1.522040
  C      4.342970    1.313419   -2.756826
  C      2.810285    0.428783   -1.014196
  H      5.132033    0.604994   -2.484466
  C      3.535896    0.749253   -3.924604
  H      4.841247    2.242136   -3.054083
  H      2.991617   -0.132199   -3.574137
  H      4.225505    0.392784   -4.695962
  C      2.564776    1.750890   -4.544523
  H      1.918749    2.171679   -3.769419
  C      1.686235    1.161657   -5.650111
  H      3.132494    2.594775   -4.951604
  C      0.839616   -0.037582   -5.220473
  H      2.323886    0.866395   -6.490796
  H      1.029518    1.951850   -6.029329
  C     -0.151019    0.254955   -4.094256
  H      1.499442   -0.857141   -4.922958
  H      0.290097   -0.410143   -6.091131
  H      0.328265    0.833022   -3.299125
  C     -0.721843   -0.999513   -3.439309
  H     -0.957367    0.884951   -4.485450
  H     -1.083403   -1.697555   -4.205656
  H     -1.581056   -0.723848   -2.820490
  C      0.287250   -1.711771   -2.527405
  H      1.131780   -2.067380   -3.159396
  H     -0.204137   -2.637326   -2.170480
  F      0.710505   -0.927506   -1.481767
  H      2.714548    2.331455   -1.760302
  H      4.090991    2.063151   -0.733382
  C      3.290978   -0.418021   -0.129083
  N      2.517536   -1.432017    0.239360
  N      4.535490   -0.284410    0.395800
  H      5.043627    0.571888    0.222899
  H      4.723346   -0.733273    1.281800
  H      1.934787    0.102305   -1.403788
  H      1.674638   -1.505616   -0.316095
  H      2.928503   -2.218502    0.725494

 Total Charge           Charge          ....    0
 Multiplicity           Mult            ....    1
 Number of Electrons    NEL             ....  112
 Basis Dimension        Dim             ....  728

ORBITAL ENERGIES
----------------

  NO   OCC          E(Eh)            E(eV)
   0   2.0000     -24.788658      -674.5337
   1   2.0000     -14.370318      -391.0362
   2   2.0000     -14.354359      -390.6020
   3   2.0000     -10.310521      -280.5635
   4   2.0000     -10.243208      -278.7319
   5   2.0000     -10.233228      -278.4603
   6   2.0000     -10.218218      -278.0518
   7   2.0000     -10.214217      -277.9430
   8   2.0000     -10.209723      -277.8207
   9   2.0000     -10.201946      -277.6091
  10   2.0000     -10.196386      -277.4578
  11   2.0000     -10.191611      -277.3278
  12   2.0000     -10.185254      -277.1549
  13   2.0000     -10.119119      -275.3552
  14   2.0000      -1.269345       -34.5406
  15   2.0000      -0.969055       -26.3693
  16   2.0000      -0.879996       -23.9459
  17   2.0000      -0.843408       -22.9503
  18   2.0000      -0.818710       -22.2782
  19   2.0000      -0.789175       -21.4745
  20   2.0000      -0.754638       -20.5347
  21   2.0000      -0.715375       -19.4663
  22   2.0000      -0.688490       -18.7348
  23   2.0000      -0.653881       -17.7930
  24   2.0000      -0.622289       -16.9333
  25   2.0000      -0.607615       -16.5340
  26   2.0000      -0.582777       -15.8582
  27   2.0000      -0.565360       -15.3842
  28   2.0000      -0.551147       -14.9975
  29   2.0000      -0.538304       -14.6480
  30   2.0000      -0.529273       -14.4022
  31   2.0000      -0.512208       -13.9379
  32   2.0000      -0.502420       -13.6715
  33   2.0000      -0.478421       -13.0185
  34   2.0000      -0.470446       -12.8015
  35   2.0000      -0.457523       -12.4498
  36   2.0000      -0.451016       -12.2728
  37   2.0000      -0.437920       -11.9164
  38   2.0000      -0.427179       -11.6241
  39   2.0000      -0.416923       -11.3450
  40   2.0000      -0.409085       -11.1318
  41   2.0000      -0.391157       -10.6439
  42   2.0000      -0.385272       -10.4838
  43   2.0000      -0.377794       -10.2803
  44   2.0000      -0.373279       -10.1574
  45   2.0000      -0.370002       -10.0683
  46   2.0000      -0.350220        -9.5300
  47   2.0000      -0.342287        -9.3141
  48   2.0000      -0.332661        -9.0522
  49   2.0000      -0.329896        -8.9769
  50   2.0000      -0.326594        -8.8871
  51   2.0000      -0.311611        -8.4794
  52   2.0000      -0.305439        -8.3114
  53   2.0000      -0.300303        -8.1717
  54   2.0000      -0.261769        -7.1231
  55   2.0000      -0.157179        -4.2770
  56   0.0000       0.008239         0.2242
  57   0.0000       0.017360         0.4724
  58   0.0000       0.020987         0.5711
  59   0.0000       0.026537         0.7221
  60   0.0000       0.038505         1.0478

MULLIKEN ATOMIC CHARGES
-----------------------
   0 C :   -0.420460
   1 C :   -0.139534
   2 C :   -1.072208
   3 H :    0.181092
   4 C :    0.008467
   5 H :    0.081571
   6 H :   -0.098837
   7 H :    0.146658
   8 C :   -0.255561
   9 H :    0.122809
  10 C :   -0.388473
  11 H :    0.119409
  12 C :   -0.316360
  13 H :    0.167818
  14 H :    0.160278
  15 C :   -0.024883
  16 H :    0.170683
  17 H :    0.153543
  18 H :    0.010250
  19 C :   -0.312597
  20 H :    0.149670
  21 H :    0.148314
  22 H :    0.164763
  23 C :   -0.225700
  24 H :    0.243303
  25 H :    0.131261
  26 F :   -0.425707
  27 H :    0.117580
  28 H :    0.204021
  29 C :   -0.537189
  30 N :   -0.263646
  31 N :   -0.291992
  32 H :    0.187640
  33 H :    0.139110
  34 H :    1.562888
  35 H :    0.274117
  36 H :    0.127902
Sum of atomic charges:   -0.0000000

LOEWDIN ATOMIC CHARGES
----------------------
   0 C :   -0.227287
   1 C :   -0.204773
   2 C :   -0.130786
   3 H :    0.109807
   4 C :   -0.212939
   5 H :    0.106417
   6 H :    0.094649
   7 H :    0.116283
   8 C :   -0.216700
   9 H :    0.096712
  10 C :   -0.212018
  11 H :    0.115992
  12 C :   -0.220017
  13 H :    0.110381
  14 H :    0.110188
  15 C :   -0.209858
  16 H :    0.094608
  17 H :    0.114126
  18 H :    0.103566
  19 C :   -0.178866
  20 H :    0.119390
  21 H :    0.121823
  22 H :    0.113516
  23 C :   -0.195115
  24 H :    0.125223
  25 H :    0.124150
  26 F :   -0.078779
  27 H :    0.102224
  28 H :    0.102573
  29 C :   -0.525826
  30 N :    0.113588
  31 N :    0.126427
  32 H :    0.088207
  33 H :    0.092767
  34 H :    0.040747
  35 H :    0.068057
  36 H :    0.101545

  Mayer bond orders larger than 0.100000
B(  0-C ,  1-C ) :   0.8772 B(  0-C ,  2-C ) :   0.8657 B(  0-C ,  8-C ) :   0.1404
B(  0-C , 27-H ) :   0.9705 B(  0-C , 28-H ) :   0.9476 B(  0-C , 29-C ) :   0.2182
B(  1-C ,  2-C ) :   0.1934 B(  1-C ,  3-H ) :   0.8913 B(  1-C ,  4-C ) :   1.2535
B(  1-C ,  5-H ) :   0.9202 B(  1-C ,  6-H ) :   0.1147 B(  1-C ,  8-C ) :   0.2167
B(  2-C ,  4-C ) :   0.1746 B(  2-C , 26-F ) :   0.5022 B(  2-C , 29-C ) :   1.6193
B(  2-C , 30-N ) :  -0.1278 B(  2-C , 31-N ) :  -0.1017 B(  2-C , 32-H ) :  -0.1012
B(  2-C , 34-H ) :  -0.6521 B(  4-C ,  6-H ) :   1.3469 B(  4-C ,  7-H ) :   0.8028
B(  4-C ,  8-C ) :   0.5963 B(  4-C , 10-C ) :   0.2277 B(  4-C , 12-C ) :   0.1398
B(  8-C ,  9-H ) :   1.0248 B(  8-C , 10-C ) :   1.0853 B(  8-C , 11-H ) :   0.9410
B(  8-C , 15-C ) :   0.1152 B(  9-H , 15-C ) :   0.1049 B( 10-C , 12-C ) :   1.1212
B( 10-C , 13-H ) :   0.9274 B( 10-C , 14-H ) :   0.9247 B( 10-C , 15-C ) :   0.2984
B( 12-C , 15-C ) :   0.5205 B( 12-C , 16-H ) :   0.9827 B( 12-C , 17-H ) :   0.9549
B( 12-C , 19-C ) :   0.3313 B( 12-C , 23-C ) :   0.1149 B( 15-C , 18-H ) :   1.1698
B( 15-C , 19-C ) :   1.0642 B( 15-C , 20-H ) :   0.8631 B( 19-C , 21-H ) :   0.9249
B( 19-C , 22-H ) :   0.8954 B( 19-C , 23-C ) :   1.0793 B( 19-C , 26-F ) :   0.1424
B( 23-C , 24-H ) :   0.9508 B( 23-C , 25-H ) :   0.9679 B( 23-C , 26-F ) :   0.6541
B( 26-F , 29-C ) :   0.1140 B( 26-F , 34-H ) :  -0.8076 B( 26-F , 35-H ) :   0.1293
B( 29-C , 30-N ) :   1.2475 B( 29-C , 31-N ) :   1.1565 B( 29-C , 34-H ) :  -0.2374
B( 29-C , 35-H ) :   0.1216 B( 30-N , 35-H ) :   0.8035 B( 30-N , 36-H ) :   1.0184
B( 31-N , 32-H ) :   0.9339 B( 31-N , 33-H ) :   1.0194 B( 34-H , 35-H ) :  -0.1214

Dispersion correction           -0.035156289
FINAL SINGLE POINT ENERGY      -641.838164705017

DIPOLE MOMENT
-------------
                                X             Y             Z
Electronic contribution:     -1.58980      -4.84558      10.69937
Nuclear contribution   :      1.15699       3.94991     -10.89335
                        -----------------------------------------
Total Dipole Moment    :     -0.43281      -0.89567      -0.19398
                        -----------------------------------------
Magnitude (a.u.)       :      1.01350
Magnitude (Debye)      :      2.57610

Rotational constants in cm-1:     0.026548     0.016177     0.010851
Rotational constants in MHz :   795.884848   484.988695   325.313537

                             ****ORCA TERMINATED NORMALLY****
TOTAL RUN TIME: 0 days 0 hours 7 minutes 8 seconds 327 msec
