                         Program Version 5.0.0 -  RELEASE  -
|  1> !PBE0 D3BJ RIJCOSX def2-TZVPD def2/J TightSCF xyzfile
|  2>
|  3> *xyzfile 0 1 D2.xyz
|  4>
|  5> %MaxCore 64000
|  6>
|  7> %pal nprocs 4
|  8> end
|  9>
| 10> %scf
| 11>   MaxIter 150
| 12> end
| 13>
| 14>
| 15>                          ****END OF INPUT****

CARTESIAN COORDINATES (ANGSTROEM)
---------------------------------
  C      3.488276    1.600919   -1.522040
  C      4.342970    1.313419   -2.756826
  N      2.810285    0.428783   -1.014196
  H      5.132033    0.604994   -2.484466
  C      3.535896    0.749253   -3.924604
  H      4.841247    2.242136   -3.054083
  H      2.991617   -0.132199   -3.574137
  H      4.225505    0.392784   -4.695962
  C      2.564776    1.750890   -4.544523
  H      1.918749    2.171679   -3.769419
  C      1.686235    1.161657   -5.650111
  H      3.132494    2.594775   -4.951604
  C      0.839616   -0.037582   -5.220473
  H      2.323886    0.866395   -6.490796
  H      1.029518    1.951850   -6.029329
  C     -0.151019    0.254955   -4.094256
  H      1.499442   -0.857141   -4.922958
  H      0.290097   -0.410143   -6.091131
  H      0.328265    0.833022   -3.299125
  C     -0.721843   -0.999513   -3.439309
  H     -0.957367    0.884951   -4.485450
  H     -1.083403   -1.697555   -4.205656
  H     -1.581056   -0.723848   -2.820490
  C      0.287250   -1.711771   -2.527405
  H      1.131780   -2.067380   -3.159396
  H     -0.204137   -2.637326   -2.170480
  F      0.710505   -0.927506   -1.481767
  H      2.714548    2.331455   -1.760302
  H      4.090991    2.063151   -0.733382
  C      3.290978   -0.418021   -0.129083
  C      2.517536   -1.432017    0.239360
  N      4.535490   -0.284410    0.395800
  H      5.043627    0.571888    0.222899
  H      4.723346   -0.733273    1.281800
  H      1.934787    0.102305   -1.403788
  H      1.674638   -1.505616   -0.316095
  H      2.928503   -2.218502    0.725494

 Total Charge           Charge          ....    0
 Multiplicity           Mult            ....    1
 Number of Electrons    NEL             ....  112
 Basis Dimension        Dim             ....  728

ORBITAL ENERGIES
----------------

  NO   OCC          E(Eh)            E(eV)
   0   2.0000     -24.786387      -674.4719
   1   2.0000     -14.368355      -390.9828
   2   2.0000     -14.360306      -390.7638
   3   2.0000     -10.309418      -280.5335
   4   2.0000     -10.248537      -278.8769
   5   2.0000     -10.245655      -278.7984
   6   2.0000     -10.235077      -278.5106
   7   2.0000     -10.225206      -278.2420
   8   2.0000     -10.221711      -278.1469
   9   2.0000     -10.219740      -278.0933
  10   2.0000     -10.216567      -278.0069
  11   2.0000     -10.214435      -277.9489
  12   2.0000     -10.213676      -277.9283
  13   2.0000     -10.102373      -274.8995
  14   2.0000      -1.267052       -34.4783
  15   2.0000      -0.979339       -26.6492
  16   2.0000      -0.894151       -24.3311
  17   2.0000      -0.851180       -23.1618
  18   2.0000      -0.823808       -22.4170
  19   2.0000      -0.796413       -21.6715
  20   2.0000      -0.750626       -20.4256
  21   2.0000      -0.726483       -19.7686
  22   2.0000      -0.691488       -18.8163
  23   2.0000      -0.664122       -18.0717
  24   2.0000      -0.630543       -17.1579
  25   2.0000      -0.615340       -16.7442
  26   2.0000      -0.594765       -16.1844
  27   2.0000      -0.576881       -15.6977
  28   2.0000      -0.552341       -15.0300
  29   2.0000      -0.538752       -14.6602
  30   2.0000      -0.526778       -14.3344
  31   2.0000      -0.511711       -13.9244
  32   2.0000      -0.499565       -13.5938
  33   2.0000      -0.488285       -13.2869
  34   2.0000      -0.482542       -13.1306
  35   2.0000      -0.468165       -12.7394
  36   2.0000      -0.451876       -12.2962
  37   2.0000      -0.444939       -12.1074
  38   2.0000      -0.442863       -12.0509
  39   2.0000      -0.427239       -11.6258
  40   2.0000      -0.408880       -11.1262
  41   2.0000      -0.395978       -10.7751
  42   2.0000      -0.386968       -10.5299
  43   2.0000      -0.383823       -10.4444
  44   2.0000      -0.377753       -10.2792
  45   2.0000      -0.372815       -10.1448
  46   2.0000      -0.358320        -9.7504
  47   2.0000      -0.355034        -9.6610
  48   2.0000      -0.349269        -9.5041
  49   2.0000      -0.340124        -9.2553
  50   2.0000      -0.332626        -9.0512
  51   2.0000      -0.328249        -8.9321
  52   2.0000      -0.325000        -8.8437
  53   2.0000      -0.321503        -8.7486
  54   2.0000      -0.253659        -6.9024
  55   2.0000      -0.153811        -4.1854
  56   0.0000       0.008891         0.2419
  57   0.0000       0.013456         0.3662
  58   0.0000       0.018361         0.4996
  59   0.0000       0.022716         0.6181
  60   0.0000       0.036875         1.0034

MULLIKEN ATOMIC CHARGES
-----------------------
   0 C :   -0.973113
   1 C :   -0.082569
   2 N :    0.108018
   3 H :    0.158697
   4 C :   -0.033573
   5 H :    0.151393
   6 H :   -0.054989
   7 H :    0.128179
   8 C :   -0.267029
   9 H :    0.149761
  10 C :   -0.408940
  11 H :    0.123998
  12 C :   -0.324695
  13 H :    0.166731
  14 H :    0.159693
  15 C :   -0.074514
  16 H :    0.186265
  17 H :    0.157188
  18 H :    0.025045
  19 C :   -0.291184
  20 H :    0.156170
  21 H :    0.141578
  22 H :    0.168821
  23 C :   -0.272736
  24 H :    0.253964
  25 H :    0.168554
  26 F :   -0.465124
  27 H :    0.145497
  28 H :    0.315622
  29 C :    0.727607
  30 C :   -1.532469
  31 N :   -0.295284
  32 H :    0.143141
  33 H :    0.201241
  34 H :    0.294820
  35 H :    0.618500
  36 H :    0.225732
Sum of atomic charges:    0.0000000

LOEWDIN ATOMIC CHARGES
----------------------
   0 C :   -0.192829
   1 C :   -0.190300
   2 N :    0.037243
   3 H :    0.110623
   4 C :   -0.210691
   5 H :    0.111259
   6 H :    0.096837
   7 H :    0.119075
   8 C :   -0.218888
   9 H :    0.094698
  10 C :   -0.210476
  11 H :    0.116837
  12 C :   -0.219354
  13 H :    0.111641
  14 H :    0.111459
  15 C :   -0.211740
  16 H :    0.095031
  17 H :    0.115681
  18 H :    0.100295
  19 C :   -0.179034
  20 H :    0.119746
  21 H :    0.122197
  22 H :    0.114089
  23 C :   -0.192980
  24 H :    0.125115
  25 H :    0.128443
  26 F :   -0.080574
  27 H :    0.110644
  28 H :    0.111106
  29 C :   -0.546210
  30 C :    0.003107
  31 N :    0.120615
  32 H :    0.078947
  33 H :    0.105200
  34 H :    0.097246
  35 H :   -0.015720
  36 H :    0.011663

  Mayer bond orders larger than 0.100000
B(  0-C ,  1-C ) :   0.8759 B(  0-C ,  2-N ) :   1.1864 B(  0-C ,  8-C ) :   0.1803
B(  0-C , 27-H ) :   1.0034 B(  0-C , 28-H ) :   0.8491 B(  0-C , 29-C ) :  -0.2129
B(  0-C , 31-N ) :   0.1247 B(  0-C , 34-H ) :  -0.2015 B(  1-C ,  3-H ) :   0.9064
B(  1-C ,  4-C ) :   1.1815 B(  1-C ,  5-H ) :   0.9664 B(  1-C ,  6-H ) :   0.1441
B(  1-C ,  8-C ) :   0.2305 B(  2-N , 29-C ) :   0.9108 B(  2-N , 34-H ) :   0.9156
B(  4-C ,  6-H ) :   1.3327 B(  4-C ,  7-H ) :   0.8287 B(  4-C ,  8-C ) :   0.5785
B(  4-C , 10-C ) :   0.2345 B(  4-C , 12-C ) :   0.1307 B(  8-C ,  9-H ) :   1.0049
B(  8-C , 10-C ) :   1.0948 B(  8-C , 11-H ) :   0.9379 B(  8-C , 15-C ) :   0.1144
B(  9-H , 15-C ) :   0.1079 B( 10-C , 12-C ) :   1.1145 B( 10-C , 13-H ) :   0.9300
B( 10-C , 14-H ) :   0.9262 B( 10-C , 15-C ) :   0.3199 B( 12-C , 15-C ) :   0.5358
B( 12-C , 16-H ) :   0.9768 B( 12-C , 17-H ) :   0.9455 B( 12-C , 19-C ) :   0.3203
B( 12-C , 23-C ) :   0.1252 B( 15-C , 18-H ) :   1.1802 B( 15-C , 19-C ) :   1.0990
B( 15-C , 20-H ) :   0.8642 B( 19-C , 21-H ) :   0.9369 B( 19-C , 22-H ) :   0.8871
B( 19-C , 23-C ) :   1.0772 B( 19-C , 26-F ) :   0.1150 B( 23-C , 24-H ) :   0.9492
B( 23-C , 25-H ) :   0.9373 B( 23-C , 26-F ) :   0.6727 B( 26-F , 30-C ) :   0.2285
B( 26-F , 35-H ) :  -0.1520 B( 29-C , 30-C ) :   1.2902 B( 29-C , 31-N ) :   1.0899
B( 29-C , 34-H ) :  -0.1753 B( 29-C , 36-H ) :  -0.1360 B( 30-C , 35-H ) :   0.6618
B( 30-C , 36-H ) :   1.1252 B( 31-N , 32-H ) :   0.9931 B( 31-N , 33-H ) :   0.9583

Dispersion correction           -0.034943364
FINAL SINGLE POINT ENERGY      -641.824406084630

DIPOLE MOMENT
-------------
                                X             Y             Z
Electronic contribution:     -1.27486      -3.13427       9.42839
Nuclear contribution   :      1.09892       3.58083     -10.64472
                        -----------------------------------------
Total Dipole Moment    :     -0.17594       0.44656      -1.21632
                        -----------------------------------------
Magnitude (a.u.)       :      1.30760
Magnitude (Debye)      :      3.32365

Rotational constants in cm-1:     0.026768     0.016312     0.010954
Rotational constants in MHz :   802.489946   489.033275   328.388904

                             ****ORCA TERMINATED NORMALLY****
TOTAL RUN TIME: 0 days 0 hours 7 minutes 54 seconds 928 msec
