                         Program Version 5.0.0 -  RELEASE  -
|  1> !PBE0 D3BJ RIJCOSX def2-TZVPD def2/J TightSCF xyzfile
|  2>
|  3> *xyzfile 0 1 D3.xyz
|  4>
|  5> %MaxCore 64000
|  6>
|  7> %pal nprocs 4
|  8> end
|  9>
| 10> %scf
| 11>   MaxIter 150
| 12> end
| 13>
| 14>
| 15>                          ****END OF INPUT****

CARTESIAN COORDINATES (ANGSTROEM)
---------------------------------
  C      3.488276    1.600919   -1.522040
  C      4.342970    1.313419   -2.756826
  N      2.810285    0.428783   -1.014196
  H      5.132033    0.604994   -2.484466
  C      3.535896    0.749253   -3.924604
  H      4.841247    2.242136   -3.054083
  H      2.991617   -0.132199   -3.574137
  H      4.225505    0.392784   -4.695962
  C      2.564776    1.750890   -4.544523
  H      1.918749    2.171679   -3.769419
  C      1.686235    1.161657   -5.650111
  H      3.132494    2.594775   -4.951604
  C      0.839616   -0.037582   -5.220473
  H      2.323886    0.866395   -6.490796
  H      1.029518    1.951850   -6.029329
  C     -0.151019    0.254955   -4.094256
  H      1.499442   -0.857141   -4.922958
  H      0.290097   -0.410143   -6.091131
  H      0.328265    0.833022   -3.299125
  C     -0.721843   -0.999513   -3.439309
  H     -0.957367    0.884951   -4.485450
  H     -1.083403   -1.697555   -4.205656
  H     -1.581056   -0.723848   -2.820490
  C      0.287250   -1.711771   -2.527405
  H      1.131780   -2.067380   -3.159396
  H     -0.204137   -2.637326   -2.170480
  F      0.710505   -0.927506   -1.481767
  H      2.714548    2.331455   -1.760302
  H      4.090991    2.063151   -0.733382
  C      3.290978   -0.418021   -0.129083
  N      2.517536   -1.432017    0.239360
  C      4.535490   -0.284410    0.395800
  H      5.043627    0.571888    0.222899
  H      4.723346   -0.733273    1.281800
  H      1.934787    0.102305   -1.403788
  H      1.674638   -1.505616   -0.316095
  H      2.928503   -2.218502    0.725494

 Total Charge           Charge          ....    0
 Multiplicity           Mult            ....    1
 Number of Electrons    NEL             ....  112
 Basis Dimension        Dim             ....  728

ORBITAL ENERGIES
----------------

  NO   OCC          E(Eh)            E(eV)
   0   2.0000     -24.815728      -675.2703
   1   2.0000     -14.364286      -390.8721
   2   2.0000     -14.356776      -390.6677
   3   2.0000     -10.327486      -281.0252
   4   2.0000     -10.247946      -278.8608
   5   2.0000     -10.247079      -278.8372
   6   2.0000     -10.240655      -278.6624
   7   2.0000     -10.232636      -278.4442
   8   2.0000     -10.226675      -278.2820
   9   2.0000     -10.221708      -278.1468
  10   2.0000     -10.216068      -277.9933
  11   2.0000     -10.212133      -277.8863
  12   2.0000     -10.206591      -277.7355
  13   2.0000     -10.113334      -275.1978
  14   2.0000      -1.295200       -35.2442
  15   2.0000      -0.985205       -26.8088
  16   2.0000      -0.894918       -24.3519
  17   2.0000      -0.857358       -23.3299
  18   2.0000      -0.827200       -22.5093
  19   2.0000      -0.792861       -21.5749
  20   2.0000      -0.750406       -20.4196
  21   2.0000      -0.716480       -19.4964
  22   2.0000      -0.710617       -19.3369
  23   2.0000      -0.674776       -18.3616
  24   2.0000      -0.640540       -17.4300
  25   2.0000      -0.613623       -16.6975
  26   2.0000      -0.591470       -16.0947
  27   2.0000      -0.578754       -15.7487
  28   2.0000      -0.572888       -15.5891
  29   2.0000      -0.545311       -14.8387
  30   2.0000      -0.536694       -14.6042
  31   2.0000      -0.525265       -14.2932
  32   2.0000      -0.509289       -13.8585
  33   2.0000      -0.491901       -13.3853
  34   2.0000      -0.478623       -13.0240
  35   2.0000      -0.469379       -12.7725
  36   2.0000      -0.454662       -12.3720
  37   2.0000      -0.451494       -12.2858
  38   2.0000      -0.443465       -12.0673
  39   2.0000      -0.424187       -11.5427
  40   2.0000      -0.415093       -11.2953
  41   2.0000      -0.398751       -10.8506
  42   2.0000      -0.392591       -10.6829
  43   2.0000      -0.385120       -10.4797
  44   2.0000      -0.383202       -10.4275
  45   2.0000      -0.373255       -10.1568
  46   2.0000      -0.364008        -9.9052
  47   2.0000      -0.361042        -9.8245
  48   2.0000      -0.352303        -9.5866
  49   2.0000      -0.348827        -9.4921
  50   2.0000      -0.341988        -9.3060
  51   2.0000      -0.328293        -8.9333
  52   2.0000      -0.326596        -8.8871
  53   2.0000      -0.319769        -8.7014
  54   2.0000      -0.243230        -6.6186
  55   2.0000      -0.158097        -4.3020
  56   0.0000       0.001186         0.0323
  57   0.0000       0.010735         0.2921
  58   0.0000       0.018422         0.5013
  59   0.0000       0.022416         0.6100
  60   0.0000       0.034956         0.9512

MULLIKEN ATOMIC CHARGES
-----------------------
   0 C :   -0.958069
   1 C :   -0.112981
   2 N :    0.016814
   3 H :    0.175133
   4 C :   -0.045416
   5 H :    0.148081
   6 H :   -0.071408
   7 H :    0.130323
   8 C :   -0.243722
   9 H :    0.127331
  10 C :   -0.425938
  11 H :    0.124504
  12 C :   -0.313284
  13 H :    0.169364
  14 H :    0.159484
  15 C :   -0.063452
  16 H :    0.181873
  17 H :    0.158721
  18 H :    0.022265
  19 C :   -0.313134
  20 H :    0.158057
  21 H :    0.144882
  22 H :    0.164657
  23 C :   -0.212524
  24 H :    0.230483
  25 H :    0.149320
  26 F :   -0.512397
  27 H :    0.156104
  28 H :    0.325459
  29 C :    0.747731
  30 N :   -0.277366
  31 C :   -1.372056
  32 H :    0.228781
  33 H :    0.251026
  34 H :    0.470867
  35 H :    0.313335
  36 H :    0.167153
Sum of atomic charges:    0.0000000

LOEWDIN ATOMIC CHARGES
----------------------
   0 C :   -0.187580
   1 C :   -0.184029
   2 N :    0.035459
   3 H :    0.112415
   4 C :   -0.212273
   5 H :    0.113235
   6 H :    0.094078
   7 H :    0.118941
   8 C :   -0.218988
   9 H :    0.094321
  10 C :   -0.210230
  11 H :    0.117525
  12 C :   -0.219248
  13 H :    0.112105
  14 H :    0.111524
  15 C :   -0.210515
  16 H :    0.094706
  17 H :    0.115863
  18 H :    0.100830
  19 C :   -0.177096
  20 H :    0.121026
  21 H :    0.124143
  22 H :    0.114869
  23 C :   -0.190198
  24 H :    0.126805
  25 H :    0.127961
  26 F :   -0.069802
  27 H :    0.110218
  28 H :    0.116009
  29 C :   -0.557413
  30 N :    0.122787
  31 C :   -0.002649
  32 H :   -0.014280
  33 H :   -0.000983
  34 H :    0.093005
  35 H :    0.061840
  36 H :    0.115619

  Mayer bond orders larger than 0.100000
B(  0-C ,  1-C ) :   0.9117 B(  0-C ,  2-N ) :   1.1914 B(  0-C ,  4-C ) :   0.1315
B(  0-C ,  8-C ) :   0.1770 B(  0-C , 27-H ) :   0.9367 B(  0-C , 28-H ) :   0.8131
B(  0-C , 29-C ) :  -0.1859 B(  0-C , 31-C ) :   0.1735 B(  0-C , 34-H ) :  -0.3051
B(  1-C ,  3-H ) :   0.9283 B(  1-C ,  4-C ) :   1.1764 B(  1-C ,  5-H ) :   0.9290
B(  1-C ,  6-H ) :   0.1288 B(  1-C ,  8-C ) :   0.2268 B(  2-N , 29-C ) :   0.8898
B(  2-N , 34-H ) :   0.8422 B(  4-C ,  6-H ) :   1.3473 B(  4-C ,  7-H ) :   0.8243
B(  4-C ,  8-C ) :   0.5834 B(  4-C , 10-C ) :   0.2424 B(  4-C , 12-C ) :   0.1300
B(  8-C ,  9-H ) :   1.0147 B(  8-C , 10-C ) :   1.0928 B(  8-C , 11-H ) :   0.9372
B(  8-C , 15-C ) :   0.1117 B(  9-H , 15-C ) :   0.1163 B( 10-C , 12-C ) :   1.1247
B( 10-C , 13-H ) :   0.9306 B( 10-C , 14-H ) :   0.9275 B( 10-C , 15-C ) :   0.3224
B( 12-C , 15-C ) :   0.5225 B( 12-C , 16-H ) :   0.9769 B( 12-C , 17-H ) :   0.9473
B( 12-C , 19-C ) :   0.3185 B( 12-C , 23-C ) :   0.1207 B( 15-C , 18-H ) :   1.1774
B( 15-C , 19-C ) :   1.0767 B( 15-C , 20-H ) :   0.8652 B( 19-C , 21-H ) :   0.9205
B( 19-C , 22-H ) :   0.9022 B( 19-C , 23-C ) :   1.0895 B( 19-C , 26-F ) :   0.1450
B( 23-C , 24-H ) :   0.9671 B( 23-C , 25-H ) :   0.9439 B( 23-C , 26-F ) :   0.6457
B( 29-C , 30-N ) :   1.2093 B( 29-C , 31-C ) :   1.1211 B( 29-C , 33-H ) :  -0.1229
B( 30-N , 35-H ) :   0.7941 B( 30-N , 36-H ) :   0.9669 B( 31-C , 32-H ) :   1.0393
B( 31-C , 33-H ) :   1.0973

Dispersion correction           -0.034927332
FINAL SINGLE POINT ENERGY      -641.836431813119

DIPOLE MOMENT
-------------
                                X             Y             Z
Electronic contribution:     -3.23753      -4.29433       9.07573
Nuclear contribution   :      1.49917       3.80845     -10.61369
                        -----------------------------------------
Total Dipole Moment    :     -1.73836      -0.48587      -1.53796
                        -----------------------------------------
Magnitude (a.u.)       :      2.37135
Magnitude (Debye)      :      6.02748

Rotational constants in cm-1:     0.026547     0.016542     0.011018
Rotational constants in MHz :   795.873737   495.912559   330.323979

                             ****ORCA TERMINATED NORMALLY****
TOTAL RUN TIME: 0 days 0 hours 8 minutes 2 seconds 770 msec
