                         Program Version 5.0.0 -  RELEASE  -
|  1> !TPSS D3BJ RIJCOSX def2-SVPD def2/J TightSCF
|  2> *xyz -1 1
|  3> C          0.69721        3.22791       -0.52513
|  4> O          1.48929        2.37470        0.19919
|  5> H          0.26505        2.70007       -1.34946
|  6> H          1.28994        4.03943       -0.89255
|  7> H         -0.08148        3.61005        0.10138
|  8> *
|  9>
| 10> %MaxCore 64000
| 11> %pal nprocs 8
| 12> end
| 13>
| 14> %scf
| 15>   MaxIter 150
| 16> end
| 17>
| 18>
| 19>                          ****END OF INPUT****

CARTESIAN COORDINATES (ANGSTROEM)
---------------------------------
  C      0.697210    3.227910   -0.525130
  O      1.489290    2.374700    0.199190
  H      0.265050    2.700070   -1.349460
  H      1.289940    4.039430   -0.892550
  H     -0.081480    3.610050    0.101380

 Total Charge           Charge          ....   -1
 Multiplicity           Mult            ....    1
 Number of Electrons    NEL             ....   18
 Basis Dimension        Dim             ....   67

ORBITAL ENERGIES
----------------

  NO   OCC          E(Eh)            E(eV)
   0   2.0000     -18.548775      -504.7378
   1   2.0000      -9.788407      -266.3561
   2   2.0000      -0.582714       -15.8564
   3   2.0000      -0.340834        -9.2746
   4   2.0000      -0.155366        -4.2277
   5   2.0000      -0.155365        -4.2277
   6   2.0000      -0.054907        -1.4941
   7   2.0000       0.091540         2.4909
   8   2.0000       0.091545         2.4911
   9   0.0000       0.189395         5.1537
  10   0.0000       0.259351         7.0573
  11   0.0000       0.259354         7.0574
  12   0.0000       0.267168         7.2700
  13   0.0000       0.304146         8.2762

MULLIKEN ATOMIC CHARGES
-----------------------
   0 C :    0.807780
   1 O :   -1.045916
   2 H :   -0.253967
   3 H :   -0.253966
   4 H :   -0.253931
Sum of atomic charges:   -1.0000000

LOEWDIN ATOMIC CHARGES
----------------------
   0 C :   -0.108130
   1 O :   -0.635298
   2 H :   -0.085523
   3 H :   -0.085527
   4 H :   -0.085522

  Mayer bond orders larger than 0.100000
B(  0-C ,  1-O ) :   1.1193 B(  0-C ,  2-H ) :   0.9224 B(  0-C ,  3-H ) :   0.9224
B(  0-C ,  4-H ) :   0.9225

Dispersion correction           -0.001756217
FINAL SINGLE POINT ENERGY      -115.034344508927

DIPOLE MOMENT
-------------
                                X             Y             Z
Electronic contribution:      1.10202      -1.18707       1.00778
Nuclear contribution   :     -1.66672       1.79535      -1.52413
                        -----------------------------------------
Total Dipole Moment    :     -0.56469       0.60828      -0.51636
                        -----------------------------------------
Magnitude (a.u.)       :      0.97750
Magnitude (Debye)      :      2.48461

Rotational constants in cm-1:     5.477728     0.937442     0.937441
Rotational constants in MHz : 164218.159175 28103.818547 28103.787504

                             ****ORCA TERMINATED NORMALLY****
TOTAL RUN TIME: 0 days 0 hours 0 minutes 2 seconds 114 msec
