                         Program Version 5.0.0 -  RELEASE  -
|  1> !TPSS D3BJ RIJCOSX def2-SVPD def2/J TightSCF
|  2> *xyz 1 1
|  3> C          3.95643        0.50147       -0.37910
|  4> N          3.80389        1.96157       -0.15675
|  5> H          4.20643        2.24441        0.74536
|  6> H          2.80827        2.21132       -0.09610
|  7> H          4.28076        2.50155       -0.89104
|  8> H          3.52890        0.23799       -1.32393
|  9> H          3.45469       -0.03240        0.40073
| 10> H          4.99562        0.24661       -0.37434
| 11> *
| 12>
| 13> %MaxCore 64000
| 14> %pal nprocs 8
| 15> end
| 16>
| 17> %scf
| 18>   MaxIter 150
| 19> end
| 20>
| 21>
| 22>                          ****END OF INPUT****

CARTESIAN COORDINATES (ANGSTROEM)
---------------------------------
  C      3.956430    0.501470   -0.379100
  N      3.803890    1.961570   -0.156750
  H      4.206430    2.244410    0.745360
  H      2.808270    2.211320   -0.096100
  H      4.280760    2.501550   -0.891040
  H      3.528900    0.237990   -1.323930
  H      3.454690   -0.032400    0.400730
  H      4.995620    0.246610   -0.374340

 Total Charge           Charge          ....    1
 Multiplicity           Mult            ....    1
 Number of Electrons    NEL             ....   18
 Basis Dimension        Dim             ....   88

ORBITAL ENERGIES
----------------

  NO   OCC          E(Eh)            E(eV)
   0   2.0000     -14.467870      -393.6907
   1   2.0000     -10.261618      -279.2328
   2   2.0000      -1.158573       -31.5264
   3   2.0000      -0.884021       -24.0554
   4   2.0000      -0.771747       -21.0003
   5   2.0000      -0.760352       -20.6902
   6   2.0000      -0.675484       -18.3809
   7   2.0000      -0.591217       -16.0878
   8   2.0000      -0.589613       -16.0442
   9   0.0000      -0.218288        -5.9399
  10   0.0000      -0.152943        -4.1618
  11   0.0000      -0.150432        -4.0935
  12   0.0000      -0.143406        -3.9023
  13   0.0000      -0.097763        -2.6603

MULLIKEN ATOMIC CHARGES
-----------------------
   0 C :    0.881234
   1 N :   -0.868880
   2 H :    0.375963
   3 H :    0.385948
   4 H :    0.385430
   5 H :   -0.053037
   6 H :   -0.052267
   7 H :   -0.054392
Sum of atomic charges:    1.0000000

LOEWDIN ATOMIC CHARGES
----------------------
   0 C :    0.292680
   1 N :    0.314758
   2 H :    0.106149
   3 H :    0.108169
   4 H :    0.110214
   5 H :    0.022750
   6 H :    0.022814
   7 H :    0.022467

  Mayer bond orders larger than 0.100000
B(  0-C ,  1-N ) :   0.7974 B(  0-C ,  5-H ) :   0.9033 B(  0-C ,  6-H ) :   0.9023
B(  0-C ,  7-H ) :   0.9059 B(  1-N ,  2-H ) :   0.7596 B(  1-N ,  3-H ) :   0.7414
B(  1-N ,  4-H ) :   0.7388

Dispersion correction           -0.004017105
FINAL SINGLE POINT ENERGY       -96.168708955238

DIPOLE MOMENT
-------------
                                X             Y             Z
Electronic contribution:     -0.11005       1.07194       0.13905
Nuclear contribution   :      0.02154      -0.23654       0.01355
                        -----------------------------------------
Total Dipole Moment    :     -0.08851       0.83540       0.15260
                        -----------------------------------------
Magnitude (a.u.)       :      0.85382
Magnitude (Debye)      :      2.17024

Rotational constants in cm-1:     2.873586     0.687737     0.684128
Rotational constants in MHz : 86147.950763 20617.847271 20509.632222

                             ****ORCA TERMINATED NORMALLY****
TOTAL RUN TIME: 0 days 0 hours 0 minutes 2 seconds 455 msec
