                         Program Version 5.0.0 -  RELEASE  -
|  1> !TPSS D3BJ RIJCOSX def2-SVPD def2/J TightSCF xyzfile
|  2>
|  3> *xyzfile 0 1 B.xyz
|  4>
|  5> %MaxCore 64000
|  6>
|  7> %pal nprocs 4
|  8> end
|  9>
| 10> %scf
| 11>   MaxIter 150
| 12> end
| 13>
| 14>
| 15>                          ****END OF INPUT****

CARTESIAN COORDINATES (ANGSTROEM)
---------------------------------
  C      3.956426    0.501466   -0.379100
  H      3.168398    0.029201    0.207383
  N      3.803893    1.961572   -0.156747
  C      3.842322    0.148490   -1.854058
  H      4.923231    0.177982    0.009371
  H      4.620021    0.694502   -2.402150
  H      4.096015   -0.910930   -1.955103
  C      2.475619    0.412708   -2.485377
  H      2.174689    1.445076   -2.287971
  C      1.383931   -0.532740   -1.995203
  H      2.575613    0.318574   -3.571460
  H      1.264698   -0.412309   -0.915491
  H      1.705223   -1.566885   -2.164984
  C      0.031398   -0.317260   -2.677791
  C     -0.587292    1.060853   -2.436460
  H     -0.662815   -1.089530   -2.329985
  H      0.149465   -0.478040   -3.755648
  H      0.104376    1.828590   -2.793130
  C     -0.951213    1.334978   -0.972500
  H     -1.478832    1.161355   -3.062484
  H     -0.317007    0.741648   -0.311389
  H     -1.980916    1.012842   -0.788958
  C     -0.774550    2.788332   -0.543943
  H     -1.352609    3.459372   -1.192585
  H     -1.171014    2.902331    0.469968
  C      0.697208    3.227911   -0.525126
  O      1.489294    2.374703    0.199189
  H      0.715998    4.264030   -0.130774
  H      1.036148    3.330920   -1.583669
  H      4.206425    2.244406    0.745359
  H      2.808269    2.211323   -0.096097
  H      4.280757    2.501552   -0.891037

 Total Charge           Charge          ....    0
 Multiplicity           Mult            ....    1
 Number of Electrons    NEL             ....   90
 Basis Dimension        Dim             ....  391

ORBITAL ENERGIES
----------------

  NO   OCC          E(Eh)            E(eV)
   0   2.0000     -18.773578      -510.8550
   1   2.0000     -14.197876      -386.3438
   2   2.0000     -10.068728      -273.9840
   3   2.0000     -10.025189      -272.7993
   4   2.0000      -9.999501      -272.1002
   5   2.0000      -9.987093      -271.7626
   6   2.0000      -9.985213      -271.7114
   7   2.0000      -9.981103      -271.5996
   8   2.0000      -9.968885      -271.2672
   9   2.0000      -9.956102      -270.9193
  10   2.0000      -9.948750      -270.7193
  11   2.0000      -0.919825       -25.0297
  12   2.0000      -0.814660       -22.1680
  13   2.0000      -0.753573       -20.5058
  14   2.0000      -0.715351       -19.4657
  15   2.0000      -0.678903       -18.4739
  16   2.0000      -0.639537       -17.4027
  17   2.0000      -0.603823       -16.4309
  18   2.0000      -0.568382       -15.4664
  19   2.0000      -0.541648       -14.7390
  20   2.0000      -0.527177       -14.3452
  21   2.0000      -0.520223       -14.1560
  22   2.0000      -0.497478       -13.5371
  23   2.0000      -0.462140       -12.5755
  24   2.0000      -0.451096       -12.2750
  25   2.0000      -0.425917       -11.5898
  26   2.0000      -0.425117       -11.5680
  27   2.0000      -0.396424       -10.7872
  28   2.0000      -0.383368       -10.4320
  29   2.0000      -0.377928       -10.2840
  30   2.0000      -0.363748        -9.8981
  31   2.0000      -0.352714        -9.5978
  32   2.0000      -0.343598        -9.3498
  33   2.0000      -0.327239        -8.9046
  34   2.0000      -0.318671        -8.6715
  35   2.0000      -0.307206        -8.3595
  36   2.0000      -0.297122        -8.0851
  37   2.0000      -0.290913        -7.9161
  38   2.0000      -0.279700        -7.6110
  39   2.0000      -0.273149        -7.4328
  40   2.0000      -0.255553        -6.9539
  41   2.0000      -0.248567        -6.7639
  42   2.0000      -0.246838        -6.7168
  43   2.0000      -0.143697        -3.9102
  44   2.0000      -0.135153        -3.6777
  45   0.0000      -0.026555        -0.7226
  46   0.0000       0.008221         0.2237
  47   0.0000       0.013274         0.3612
  48   0.0000       0.027895         0.7591
  49   0.0000       0.040108         1.0914

MULLIKEN ATOMIC CHARGES
-----------------------
   0 C :    0.802814
   1 H :    0.047785
   2 N :   -0.109485
   3 C :    0.156802
   4 H :   -0.247349
   5 H :   -0.052552
   6 H :   -0.047676
   7 C :    0.409964
   8 H :   -0.508421
   9 C :   -0.118407
  10 H :   -0.049143
  11 H :   -0.031072
  12 H :   -0.117593
  13 C :    0.491441
  14 C :    0.074715
  15 H :   -0.168506
  16 H :    0.053900
  17 H :   -0.067318
  18 C :    0.049415
  19 H :   -0.199199
  20 H :   -0.036925
  21 H :   -0.115143
  22 C :    0.163999
  23 H :   -0.105647
  24 H :    0.070786
  25 C :    0.431284
  26 O :   -0.685564
  27 H :   -0.332499
  28 H :    0.056363
  29 H :    0.349848
  30 H :   -0.535383
  31 H :    0.368769
Sum of atomic charges:    0.0000000

LOEWDIN ATOMIC CHARGES
----------------------
   0 C :    0.094263
   1 H :    0.034796
   2 N :    0.318916
   3 C :   -0.010599
   4 H :    0.023356
   5 H :    0.017126
   6 H :    0.024786
   7 C :   -0.011103
   8 H :   -0.007427
   9 C :   -0.020127
  10 H :    0.025339
  11 H :   -0.001069
  12 H :    0.018514
  13 C :   -0.023928
  14 C :   -0.014299
  15 H :    0.018533
  16 H :    0.014174
  17 H :   -0.009890
  18 C :   -0.019947
  19 H :    0.014128
  20 H :   -0.010458
  21 H :    0.012027
  22 C :   -0.025081
  23 H :    0.014075
  24 H :    0.015905
  25 C :   -0.072283
  26 O :   -0.371399
  27 H :   -0.000865
  28 H :   -0.014237
  29 H :    0.083567
  30 H :   -0.197444
  31 H :    0.080651

  Mayer bond orders larger than 0.100000
B(  0-C ,  1-H ) :   0.7821 B(  0-C ,  2-N ) :   0.8258 B(  0-C ,  3-C ) :   1.1369
B(  0-C ,  4-H ) :   0.8785 B(  0-C ,  6-H ) :   0.1301 B(  1-H ,  2-N ) :   0.1164
B(  1-H ,  3-C ) :   0.1103 B(  1-H ,  4-H ) :  -0.1181 B(  2-N ,  4-H ) :   0.1001
B(  2-N , 29-H ) :   0.7821 B(  2-N , 30-H ) :   1.4685 B(  2-N , 31-H ) :   0.7526
B(  3-C ,  4-H ) :   0.1083 B(  3-C ,  5-H ) :   0.7719 B(  3-C ,  6-H ) :   0.8891
B(  3-C ,  7-C ) :   1.1667 B(  3-C ,  8-H ) :   0.1031 B(  5-H ,  7-C ) :   0.2170
B(  7-C ,  8-H ) :   0.8146 B(  7-C ,  9-C ) :   1.1819 B(  7-C , 10-H ) :   0.7035
B(  7-C , 11-H ) :   0.1214 B(  7-C , 12-H ) :   0.1458 B(  8-H ,  9-C ) :   0.2507
B(  8-H , 10-H ) :   0.1206 B(  9-C , 10-H ) :   0.1490 B(  9-C , 11-H ) :   0.8503
B(  9-C , 12-H ) :   0.8918 B(  9-C , 13-C ) :   1.1914 B(  9-C , 14-C ) :   0.1151
B(  9-C , 15-H ) :   0.2622 B(  9-C , 16-H ) :   0.1274 B( 11-H , 20-H ) :   0.1491
B( 13-C , 14-C ) :   1.1738 B( 13-C , 15-H ) :   0.7558 B( 13-C , 16-H ) :   0.6965
B( 13-C , 17-H ) :   0.1226 B( 13-C , 19-H ) :   0.1019 B( 14-C , 15-H ) :   0.1084
B( 14-C , 16-H ) :   0.2063 B( 14-C , 17-H ) :   0.8680 B( 14-C , 18-C ) :   1.2151
B( 14-C , 19-H ) :   0.8507 B( 14-C , 20-H ) :   0.1055 B( 14-C , 21-H ) :   0.2070
B( 15-H , 16-H ) :  -0.1125 B( 17-H , 18-C ) :   0.1208 B( 18-C , 19-H ) :   0.1875
B( 18-C , 20-H ) :   0.8315 B( 18-C , 21-H ) :   0.8098 B( 18-C , 22-C ) :   1.2471
B( 18-C , 23-H ) :   0.1178 B( 18-C , 24-H ) :   0.1979 B( 18-C , 25-C ) :   0.1023
B( 20-H , 22-C ) :   0.1502 B( 21-H , 22-C ) :   0.1180 B( 22-C , 23-H ) :   0.8627
B( 22-C , 24-H ) :   0.6927 B( 22-C , 25-C ) :   1.1490 B( 22-C , 26-O ) :   0.1021
B( 23-H , 25-C ) :   0.1763 B( 24-H , 25-C ) :   0.1196 B( 25-C , 26-O ) :   0.9844
B( 25-C , 27-H ) :   1.0262 B( 25-C , 28-H ) :   0.8046 B( 26-O , 30-H ) :   0.3707

Dispersion correction           -0.041106098
FINAL SINGLE POINT ENERGY      -485.335486521300

DIPOLE MOMENT
-------------
                                X             Y             Z
Electronic contribution:      2.09492       0.89147       2.57084
Nuclear contribution   :      0.61785      -1.47632      -2.91844
                        -----------------------------------------
Total Dipole Moment    :      2.71277      -0.58485      -0.34760
                        -----------------------------------------
Magnitude (a.u.)       :      2.79678
Magnitude (Debye)      :      7.10885

Rotational constants in cm-1:     0.040993     0.027400     0.018162
Rotational constants in MHz :  1228.944366   821.418004   544.476857

                             ****ORCA TERMINATED NORMALLY****
TOTAL RUN TIME: 0 days 0 hours 0 minutes 54 seconds 357 msec
