                         Program Version 5.0.0 -  RELEASE  -
|  1> !TPSS D3BJ RIJCOSX def2-SVPD def2/J TightSCF
|  2> *xyz 0 1
|  3> C          0.69721        3.22791       -0.52513
|  4> F          1.48929        2.37470        0.19919
|  5> H          0.26505        2.70007       -1.34946
|  6> H          1.28994        4.03943       -0.89255
|  7> H         -0.08148        3.61005        0.10138
|  8> *
|  9>
| 10> %MaxCore 64000
| 11> %pal nprocs 8
| 12> end
| 13>
| 14> %scf
| 15>   MaxIter 150
| 16> end
| 17>
| 18>
| 19>                          ****END OF INPUT****

CARTESIAN COORDINATES (ANGSTROEM)
---------------------------------
  C      0.697210    3.227910   -0.525130
  F      1.489290    2.374700    0.199190
  H      0.265050    2.700070   -1.349460
  H      1.289940    4.039430   -0.892550
  H     -0.081480    3.610050    0.101380

 Total Charge           Charge          ....    0
 Multiplicity           Mult            ....    1
 Number of Electrons    NEL             ....   18
 Basis Dimension        Dim             ....   67

ORBITAL ENERGIES
----------------

  NO   OCC          E(Eh)            E(eV)
   0   2.0000     -24.411756      -664.2777
   1   2.0000     -10.072602      -274.0894
   2   2.0000      -1.104477       -30.0544
   3   2.0000      -0.648761       -17.6537
   4   2.0000      -0.449772       -12.2389
   5   2.0000      -0.441402       -12.0111
   6   2.0000      -0.441400       -12.0111
   7   2.0000      -0.303626        -8.2621
   8   2.0000      -0.303625        -8.2621
   9   0.0000       0.016077         0.4375
  10   0.0000       0.043728         1.1899
  11   0.0000       0.089730         2.4417
  12   0.0000       0.089733         2.4418
  13   0.0000       0.134242         3.6529

MULLIKEN ATOMIC CHARGES
-----------------------
   0 C :    0.855661
   1 F :   -0.486689
   2 H :   -0.123004
   3 H :   -0.122987
   4 H :   -0.122981
Sum of atomic charges:   -0.0000000

LOEWDIN ATOMIC CHARGES
----------------------
   0 C :    0.274375
   1 F :   -0.243786
   2 H :   -0.010195
   3 H :   -0.010199
   4 H :   -0.010195

  Mayer bond orders larger than 0.100000
B(  0-C ,  1-F ) :   0.8379 B(  0-C ,  2-H ) :   0.9456 B(  0-C ,  3-H ) :   0.9456
B(  0-C ,  4-H ) :   0.9457

Dispersion correction           -0.001538346
FINAL SINGLE POINT ENERGY      -139.660634093307

DIPOLE MOMENT
-------------
                                X             Y             Z
Electronic contribution:      1.70951      -1.84145       1.56324
Nuclear contribution   :     -2.11402       2.27717      -1.93317
                        -----------------------------------------
Total Dipole Moment    :     -0.40451       0.43572      -0.36993
                        -----------------------------------------
Magnitude (a.u.)       :      0.70023
Magnitude (Debye)      :      1.77985

Rotational constants in cm-1:     5.477728     0.872600     0.872599
Rotational constants in MHz : 164218.159175 26159.886777 26159.859881

                             ****ORCA TERMINATED NORMALLY****
TOTAL RUN TIME: 0 days 0 hours 0 minutes 1 seconds 959 msec
