                         Program Version 5.0.0 -  RELEASE  -
|  1> !TPSS D3BJ RIJCOSX def2-SVPD def2/J TightSCF
|  2> *xyz 0 1
|  3> C          3.95643        0.50147       -0.37910
|  4> C          3.80389        1.96157       -0.15675
|  5> H          4.20643        2.24441        0.74536
|  6> H          2.80827        2.21132       -0.09610
|  7> H          4.28076        2.50155       -0.89104
|  8> H          3.52890        0.23799       -1.32393
|  9> H          3.45469       -0.03240        0.40073
| 10> H          4.99562        0.24661       -0.37434
| 11> *
| 12>
| 13> %MaxCore 64000
| 14> %pal nprocs 8
| 15> end
| 16>
| 17> %scf
| 18>   MaxIter 150
| 19> end
| 20>
| 21>
| 22>                          ****END OF INPUT****

CARTESIAN COORDINATES (ANGSTROEM)
---------------------------------
  C      3.956430    0.501470   -0.379100
  C      3.803890    1.961570   -0.156750
  H      4.206430    2.244410    0.745360
  H      2.808270    2.211320   -0.096100
  H      4.280760    2.501550   -0.891040
  H      3.528900    0.237990   -1.323930
  H      3.454690   -0.032400    0.400730
  H      4.995620    0.246610   -0.374340

 Total Charge           Charge          ....    0
 Multiplicity           Mult            ....    1
 Number of Electrons    NEL             ....   18
 Basis Dimension        Dim             ....   88

ORBITAL ENERGIES
----------------

  NO   OCC          E(Eh)            E(eV)
   0   2.0000      -9.979733      -271.5623
   1   2.0000      -9.966591      -271.2047
   2   2.0000      -0.707000       -19.2384
   3   2.0000      -0.567719       -15.4484
   4   2.0000      -0.410426       -11.1683
   5   2.0000      -0.404001       -10.9934
   6   2.0000      -0.329133        -8.9562
   7   2.0000      -0.313225        -8.5233
   8   2.0000      -0.306968        -8.3530
   9   0.0000       0.019212         0.5228
  10   0.0000       0.051691         1.4066
  11   0.0000       0.090224         2.4551
  12   0.0000       0.091882         2.5002
  13   0.0000       0.112989         3.0746

MULLIKEN ATOMIC CHARGES
-----------------------
   0 C :    0.175505
   1 C :    0.492978
   2 H :   -0.173047
   3 H :   -0.165077
   4 H :   -0.167367
   5 H :   -0.057365
   6 H :   -0.050809
   7 H :   -0.054818
Sum of atomic charges:    0.0000000

LOEWDIN ATOMIC CHARGES
----------------------
   0 C :    0.084892
   1 C :    0.087406
   2 H :   -0.039276
   3 H :   -0.036929
   4 H :   -0.035086
   5 H :   -0.020447
   6 H :   -0.019954
   7 H :   -0.020608

  Mayer bond orders larger than 0.100000
B(  0-C ,  1-C ) :   1.4572 B(  0-C ,  2-H ) :   0.1641 B(  0-C ,  3-H ) :   0.1711
B(  0-C ,  4-H ) :   0.1681 B(  0-C ,  5-H ) :   0.8757 B(  0-C ,  6-H ) :   0.8765
B(  0-C ,  7-H ) :   0.8799 B(  1-C ,  2-H ) :   0.7930 B(  1-C ,  3-H ) :   0.7995
B(  1-C ,  4-H ) :   0.8102 B(  1-C ,  5-H ) :   0.1485 B(  1-C ,  6-H ) :   0.1493
B(  1-C ,  7-H ) :   0.1471 B(  2-H ,  3-H ) :   0.1193

Dispersion correction           -0.004026885
FINAL SINGLE POINT ENERGY       -79.777773773734

DIPOLE MOMENT
-------------
                                X             Y             Z
Electronic contribution:      0.00211       0.01039      -0.03801
Nuclear contribution   :     -0.00471       0.01526       0.05114
                        -----------------------------------------
Total Dipole Moment    :     -0.00261       0.02565       0.01313
                        -----------------------------------------
Magnitude (a.u.)       :      0.02893
Magnitude (Debye)      :      0.07353

Rotational constants in cm-1:     2.873610     0.717865     0.713933
Rotational constants in MHz : 86148.646881 21521.066032 21403.176468

                             ****ORCA TERMINATED NORMALLY****
TOTAL RUN TIME: 0 days 0 hours 0 minutes 2 seconds 650 msec
