                         Program Version 5.0.0 -  RELEASE  -
|  1> !wB97X-D3 RIJCOSX def2-SVP def2/J TightSCF
|  2> *xyz -1 1
|  3> C          0.28725       -1.71177       -2.52740
|  4> O          0.71050       -0.92751       -1.48177
|  5> H          0.92384       -1.55316       -3.37267
|  6> H         -0.71828       -1.45137       -2.78433
|  7> H          0.32655       -2.74158       -2.23955
|  8> *
|  9> %MaxCore 64000
| 10>
| 11> %pal nprocs 18
| 12> end
| 13>
| 14> %scf
| 15>   MaxIter 150
| 16> end
| 17>
| 18>
| 19>                          ****END OF INPUT****

CARTESIAN COORDINATES (ANGSTROEM)
---------------------------------
  C      0.287250   -1.711770   -2.527400
  O      0.710500   -0.927510   -1.481770
  H      0.923840   -1.553160   -3.372670
  H     -0.718280   -1.451370   -2.784330
  H      0.326550   -2.741580   -2.239550

 Total Charge           Charge          ....   -1
 Multiplicity           Mult            ....    1
 Number of Electrons    NEL             ....   18
 Basis Dimension        Dim             ....   43

ORBITAL ENERGIES
----------------

  NO   OCC          E(Eh)            E(eV)
   0   2.0000     -18.809553      -511.8339
   1   2.0000     -10.044560      -273.3264
   2   2.0000      -0.704321       -19.1655
   3   2.0000      -0.469265       -12.7693
   4   2.0000      -0.266980        -7.2649
   5   2.0000      -0.266968        -7.2646
   6   2.0000      -0.136750        -3.7212
   7   2.0000       0.020167         0.5488
   8   2.0000       0.020179         0.5491
   9   0.0000       0.370429        10.0799
  10   0.0000       0.445252        12.1159
  11   0.0000       0.445254        12.1160
  12   0.0000       0.537249        14.6193
  13   0.0000       0.815034        22.1782

MULLIKEN ATOMIC CHARGES
-----------------------
   0 C :    0.295276
   1 O :   -0.817230
   2 H :   -0.159322
   3 H :   -0.159408
   4 H :   -0.159316
Sum of atomic charges:   -1.0000000

LOEWDIN ATOMIC CHARGES
----------------------
   0 C :   -0.009960
   1 O :   -0.746185
   2 H :   -0.081277
   3 H :   -0.081290
   4 H :   -0.081289

  Mayer bond orders larger than 0.100000
B(  0-C ,  1-O ) :   1.3923 B(  0-C ,  2-H ) :   0.9152 B(  0-C ,  3-H ) :   0.9151
B(  0-C ,  4-H ) :   0.9152

Dispersion correction           -0.000091576
FINAL SINGLE POINT ENERGY      -114.929938064785

DIPOLE MOMENT
-------------
                                X             Y             Z
Electronic contribution:      0.65788       1.21887       1.62502
Nuclear contribution   :     -0.89006      -1.64923      -2.19886
                        -----------------------------------------
Total Dipole Moment    :     -0.23218      -0.43036      -0.57384
                        -----------------------------------------
Magnitude (a.u.)       :      0.75393
Magnitude (Debye)      :      1.91634

Rotational constants in cm-1:     5.477712     0.934243     0.934241
Rotational constants in MHz : 164217.678885 28007.889263 28007.851448

                             ****ORCA TERMINATED NORMALLY****
TOTAL RUN TIME: 0 days 0 hours 0 minutes 2 seconds 939 msec
