                         Program Version 5.0.0 -  RELEASE  -
|  1> !wB97X-D3 RIJCOSX def2-SVP def2/J TightSCF
|  2> *xyz 1 1
|  3> C          3.48828        1.60092       -1.52204
|  4> N          2.81029        0.42878       -1.01420
|  5> C          3.29098       -0.41802       -0.12908
|  6> N          2.51754       -1.43202        0.23936
|  7> N          4.53549       -0.28441        0.39580
|  8> H          5.04363        0.57189        0.22290
|  9> H          4.72335       -0.73327        1.28180
| 10> H          1.93479        0.10230       -1.40379
| 11> H          1.67464       -1.50562       -0.31610
| 12> H          2.92850       -2.21850        0.72549
| 13> H          2.85802        2.09943       -2.22855
| 14> H          4.39853        1.30677       -2.00144
| 15> H          3.70992        2.26379       -0.71187
| 16> *
| 17> %MaxCore 64000
| 18>
| 19> %pal nprocs 18
| 20> end
| 21>
| 22> %scf
| 23>   MaxIter 150
| 24> end
| 25>
| 26>
| 27>                          ****END OF INPUT****

CARTESIAN COORDINATES (ANGSTROEM)
---------------------------------
  C      3.488280    1.600920   -1.522040
  N      2.810290    0.428780   -1.014200
  C      3.290980   -0.418020   -0.129080
  N      2.517540   -1.432020    0.239360
  N      4.535490   -0.284410    0.395800
  H      5.043630    0.571890    0.222900
  H      4.723350   -0.733270    1.281800
  H      1.934790    0.102300   -1.403790
  H      1.674640   -1.505620   -0.316100
  H      2.928500   -2.218500    0.725490
  H      2.858020    2.099430   -2.228550
  H      4.398530    1.306770   -2.001440
  H      3.709920    2.263790   -0.711870

 Total Charge           Charge          ....    1
 Multiplicity           Mult            ....    1
 Number of Electrons    NEL             ....   40
 Basis Dimension        Dim             ....  110

ORBITAL ENERGIES
----------------

  NO   OCC          E(Eh)            E(eV)
   0   2.0000     -14.669662      -399.1818
   1   2.0000     -14.662884      -398.9974
   2   2.0000     -14.661495      -398.9596
   3   2.0000     -10.629519      -289.2439
   4   2.0000     -10.497288      -285.6457
   5   2.0000      -1.335165       -36.3317
   6   2.0000      -1.218823       -33.1659
   7   2.0000      -1.204438       -32.7744
   8   2.0000      -1.020790       -27.7771
   9   2.0000      -0.934161       -25.4198
  10   2.0000      -0.887900       -24.1610
  11   2.0000      -0.862925       -23.4814
  12   2.0000      -0.797184       -21.6925
  13   2.0000      -0.786280       -21.3958
  14   2.0000      -0.766016       -20.8444
  15   2.0000      -0.747328       -20.3358
  16   2.0000      -0.694336       -18.8938
  17   2.0000      -0.680047       -18.5050
  18   2.0000      -0.576451       -15.6860
  19   2.0000      -0.552547       -15.0356
  20   0.0000      -0.082287        -2.2391
  21   0.0000      -0.057353        -1.5607
  22   0.0000      -0.015932        -0.4335
  23   0.0000      -0.004665        -0.1269
  24   0.0000       0.021867         0.5950

MULLIKEN ATOMIC CHARGES
-----------------------
   0 C :    0.064446
   1 N :   -0.179860
   2 C :    0.091763
   3 N :   -0.058374
   4 N :   -0.099071
   5 H :    0.177369
   6 H :    0.186689
   7 H :    0.175817
   8 H :    0.177180
   9 H :    0.192914
  10 H :    0.099661
  11 H :    0.087129
  12 H :    0.084337
Sum of atomic charges:    1.0000000

LOEWDIN ATOMIC CHARGES
----------------------
   0 C :    0.048787
   1 N :    0.023961
   2 C :    0.160310
   3 N :    0.042711
   4 N :    0.026129
   5 H :    0.108484
   6 H :    0.113540
   7 H :    0.107565
   8 H :    0.109773
   9 H :    0.117463
  10 H :    0.059794
  11 H :    0.040805
  12 H :    0.040678

  Mayer bond orders larger than 0.100000
B(  0-C ,  1-N ) :   0.9199 B(  0-C , 10-H ) :   0.9687 B(  0-C , 11-H ) :   0.9758
B(  0-C , 12-H ) :   0.9742 B(  1-N ,  2-C ) :   1.3972 B(  1-N ,  7-H ) :   0.9098
B(  2-C ,  3-N ) :   1.3966 B(  2-C ,  4-N ) :   1.3757 B(  3-N ,  8-H ) :   0.9213
B(  3-N ,  9-H ) :   0.9231 B(  4-N ,  5-H ) :   0.9252 B(  4-N ,  6-H ) :   0.9265

Dispersion correction           -0.002381218
FINAL SINGLE POINT ENERGY      -244.834996207362

DIPOLE MOMENT
-------------
                                X             Y             Z
Electronic contribution:     -0.69019      -2.33094       1.36995
Nuclear contribution   :      0.56176       1.95858      -1.15445
                        -----------------------------------------
Total Dipole Moment    :     -0.12843      -0.37235       0.21550
                        -----------------------------------------
Magnitude (a.u.)       :      0.44898
Magnitude (Debye)      :      1.14121

Rotational constants in cm-1:     0.309570     0.135399     0.096056
Rotational constants in MHz :  9280.673410  4059.171112  2879.675555

                             ****ORCA TERMINATED NORMALLY****
TOTAL RUN TIME: 0 days 0 hours 0 minutes 6 seconds 144 msec
