                         Program Version 5.0.0 -  RELEASE  -
|  1> !wB97X-D3 RIJCOSX def2-SVP def2/J TightSCF xyzfile
|  2>
|  3> *xyzfile 0 1 B.xyz
|  4>
|  5> %MaxCore 64000
|  6>
|  7> %pal nprocs 18
|  8> end
|  9>
| 10> %scf
| 11>   MaxIter 150
| 12> end
| 13>
| 14>
| 15>                          ****END OF INPUT****

CARTESIAN COORDINATES (ANGSTROEM)
---------------------------------
  C      3.488276    1.600919   -1.522040
  C      4.342970    1.313419   -2.756826
  N      2.810285    0.428783   -1.014196
  H      5.132033    0.604994   -2.484466
  C      3.535896    0.749253   -3.924604
  H      4.841247    2.242136   -3.054083
  H      2.991617   -0.132199   -3.574137
  H      4.225505    0.392784   -4.695962
  C      2.564776    1.750890   -4.544523
  H      1.918749    2.171679   -3.769419
  C      1.686235    1.161657   -5.650111
  H      3.132494    2.594775   -4.951604
  C      0.839616   -0.037582   -5.220473
  H      2.323886    0.866395   -6.490796
  H      1.029518    1.951850   -6.029329
  C     -0.151019    0.254955   -4.094256
  H      1.499442   -0.857141   -4.922958
  H      0.290097   -0.410143   -6.091131
  H      0.328265    0.833022   -3.299125
  C     -0.721843   -0.999513   -3.439309
  H     -0.957367    0.884951   -4.485450
  H     -1.083403   -1.697555   -4.205656
  H     -1.581056   -0.723848   -2.820490
  C      0.287250   -1.711771   -2.527405
  H      1.131780   -2.067380   -3.159396
  H     -0.204137   -2.637326   -2.170480
  O      0.710505   -0.927506   -1.481767
  H      2.714548    2.331455   -1.760302
  H      4.090991    2.063151   -0.733382
  C      3.290978   -0.418021   -0.129083
  N      2.517536   -1.432017    0.239360
  N      4.535490   -0.284410    0.395800
  H      5.043627    0.571888    0.222899
  H      4.723346   -0.733273    1.281800
  H      1.934787    0.102305   -1.403788
  H      1.674638   -1.505616   -0.316095
  H      2.928503   -2.218502    0.725494

 Total Charge           Charge          ....    0
 Multiplicity           Mult            ....    1
 Number of Electrons    NEL             ....  112
 Basis Dimension        Dim             ....  311

ORBITAL ENERGIES
----------------

  NO   OCC          E(Eh)            E(eV)
   0   2.0000     -19.090957      -519.4914
   1   2.0000     -14.494377      -394.4121
   2   2.0000     -14.451380      -393.2420
   3   2.0000     -14.445201      -393.0739
   4   2.0000     -10.437688      -284.0239
   5   2.0000     -10.342191      -281.4253
   6   2.0000     -10.297296      -280.2037
   7   2.0000     -10.279739      -279.7259
   8   2.0000     -10.274226      -279.5759
   9   2.0000     -10.267210      -279.3850
  10   2.0000     -10.259667      -279.1797
  11   2.0000     -10.254768      -279.0464
  12   2.0000     -10.243191      -278.7314
  13   2.0000     -10.229022      -278.3458
  14   2.0000      -1.141849       -31.0713
  15   2.0000      -1.034193       -28.1418
  16   2.0000      -1.014047       -27.5936
  17   2.0000      -0.972189       -26.4546
  18   2.0000      -0.921183       -25.0667
  19   2.0000      -0.885703       -24.1012
  20   2.0000      -0.845779       -23.0148
  21   2.0000      -0.807438       -21.9715
  22   2.0000      -0.765097       -20.8193
  23   2.0000      -0.751758       -20.4564
  24   2.0000      -0.714277       -19.4365
  25   2.0000      -0.701302       -19.0834
  26   2.0000      -0.698146       -18.9975
  27   2.0000      -0.665927       -18.1208
  28   2.0000      -0.644658       -17.5420
  29   2.0000      -0.619006       -16.8440
  30   2.0000      -0.609496       -16.5852
  31   2.0000      -0.592515       -16.1232
  32   2.0000      -0.582264       -15.8442
  33   2.0000      -0.570970       -15.5369
  34   2.0000      -0.560525       -15.2527
  35   2.0000      -0.552982       -15.0474
  36   2.0000      -0.532202       -14.4819
  37   2.0000      -0.517456       -14.0807
  38   2.0000      -0.510072       -13.8798
  39   2.0000      -0.488957       -13.3052
  40   2.0000      -0.484345       -13.1797
  41   2.0000      -0.472939       -12.8693
  42   2.0000      -0.451497       -12.2859
  43   2.0000      -0.445200       -12.1145
  44   2.0000      -0.436899       -11.8886
  45   2.0000      -0.423868       -11.5340
  46   2.0000      -0.412070       -11.2130
  47   2.0000      -0.402718       -10.9585
  48   2.0000      -0.399399       -10.8682
  49   2.0000      -0.394195       -10.7266
  50   2.0000      -0.378020       -10.2864
  51   2.0000      -0.372590       -10.1387
  52   2.0000      -0.367444        -9.9987
  53   2.0000      -0.352810        -9.6004
  54   2.0000      -0.256661        -6.9841
  55   2.0000      -0.248426        -6.7600
  56   0.0000       0.100244         2.7278
  57   0.0000       0.103262         2.8099
  58   0.0000       0.137663         3.7460
  59   0.0000       0.154782         4.2118
  60   0.0000       0.158436         4.3113

MULLIKEN ATOMIC CHARGES
-----------------------
   0 C :    0.066018
   1 C :   -0.000769
   2 N :   -0.138668
   3 H :    0.012547
   4 C :   -0.056682
   5 H :    0.023974
   6 H :    0.038772
   7 H :    0.021146
   8 C :   -0.056655
   9 H :    0.016927
  10 C :    0.014679
  11 H :    0.009921
  12 C :   -0.051377
  13 H :    0.008851
  14 H :    0.012243
  15 C :   -0.042281
  16 H :    0.011980
  17 H :    0.010521
  18 H :    0.003363
  19 C :   -0.015793
  20 H :    0.001065
  21 H :   -0.017597
  22 H :    0.003444
  23 C :    0.241131
  24 H :   -0.071896
  25 H :   -0.046515
  26 O :   -0.659045
  27 H :    0.054204
  28 H :    0.015793
  29 C :    0.040910
  30 N :   -0.052340
  31 N :   -0.124518
  32 H :    0.143117
  33 H :    0.149004
  34 H :    0.156009
  35 H :    0.148608
  36 H :    0.129909
Sum of atomic charges:   -0.0000000

LOEWDIN ATOMIC CHARGES
----------------------
   0 C :    0.033692
   1 C :   -0.046790
   2 N :    0.031921
   3 H :    0.019196
   4 C :   -0.041032
   5 H :    0.025492
   6 H :    0.026068
   7 H :    0.024895
   8 C :   -0.042043
   9 H :    0.015406
  10 C :   -0.036842
  11 H :    0.019210
  12 C :   -0.042430
  13 H :    0.018308
  14 H :    0.020791
  15 C :   -0.045251
  16 H :    0.013796
  17 H :    0.020381
  18 H :    0.010247
  19 C :   -0.061696
  20 H :    0.014336
  21 H :    0.007758
  22 H :    0.017249
  23 C :    0.030738
  24 H :   -0.037126
  25 H :   -0.020834
  26 O :   -0.495577
  27 H :    0.035196
  28 H :    0.013463
  29 C :    0.145338
  30 N :    0.026157
  31 N :   -0.016999
  32 H :    0.084623
  33 H :    0.089824
  34 H :    0.028410
  35 H :    0.034624
  36 H :    0.079500

  Mayer bond orders larger than 0.100000
B(  0-C ,  1-C ) :   1.0540 B(  0-C ,  2-N ) :   0.9791 B(  0-C , 27-H ) :   0.9479
B(  0-C , 28-H ) :   0.9533 B(  1-C ,  3-H ) :   0.9429 B(  1-C ,  4-C ) :   1.0783
B(  1-C ,  5-H ) :   0.9449 B(  2-N , 29-C ) :   1.4356 B(  2-N , 34-H ) :   0.7506
B(  4-C ,  6-H ) :   0.9432 B(  4-C ,  7-H ) :   0.9478 B(  4-C ,  8-C ) :   1.0498
B(  8-C ,  9-H ) :   0.9485 B(  8-C , 10-C ) :   1.0814 B(  8-C , 11-H ) :   0.9448
B( 10-C , 12-C ) :   1.0758 B( 10-C , 13-H ) :   0.9474 B( 10-C , 14-H ) :   0.9461
B( 12-C , 15-C ) :   1.0515 B( 12-C , 16-H ) :   0.9495 B( 12-C , 17-H ) :   0.9425
B( 15-C , 18-H ) :   0.9382 B( 15-C , 19-C ) :   1.0772 B( 15-C , 20-H ) :   0.9504
B( 19-C , 21-H ) :   0.9415 B( 19-C , 22-H ) :   0.9396 B( 19-C , 23-C ) :   1.0441
B( 23-C , 24-H ) :   0.9210 B( 23-C , 25-H ) :   0.9318 B( 23-C , 26-O ) :   1.1482
B( 26-O , 34-H ) :   0.2898 B( 26-O , 35-H ) :   0.2656 B( 29-C , 30-N ) :   1.4506
B( 29-C , 31-N ) :   1.2733 B( 30-N , 35-H ) :   0.7793 B( 30-N , 36-H ) :   0.9381
B( 31-N , 32-H ) :   0.9374 B( 31-N , 33-H ) :   0.9402

Dispersion correction           -0.017848657
FINAL SINGLE POINT ENERGY      -633.778806277039

DIPOLE MOMENT
-------------
                                X             Y             Z
Electronic contribution:      3.70835      -2.07287      11.56312
Nuclear contribution   :     -0.74583       2.62534      -9.91488
                        -----------------------------------------
Total Dipole Moment    :      2.96252       0.55247       1.64824
                        -----------------------------------------
Magnitude (a.u.)       :      3.43489
Magnitude (Debye)      :      8.73080

Rotational constants in cm-1:     0.027028     0.016098     0.010898
Rotational constants in MHz :   810.278072   482.590922   326.703462

                             ****ORCA TERMINATED NORMALLY****
TOTAL RUN TIME: 0 days 0 hours 0 minutes 43 seconds 403 msec
