                         Program Version 5.0.0 -  RELEASE  -
|  1> !wB97X-D3 RIJCOSX def2-SVP def2/J TightSCF
|  2> *xyz 0 1
|  3> C          0.28725       -1.71177       -2.52740
|  4> F          0.71050       -0.92751       -1.48177
|  5> H          0.92384       -1.55316       -3.37267
|  6> H         -0.71828       -1.45137       -2.78433
|  7> H          0.32655       -2.74158       -2.23955
|  8> *
|  9> %MaxCore 64000
| 10>
| 11> %pal nprocs 18
| 12> end
| 13>
| 14> %scf
| 15>   MaxIter 150
| 16> end
| 17>
| 18>
| 19>                          ****END OF INPUT****

CARTESIAN COORDINATES (ANGSTROEM)
---------------------------------
  C      0.287250   -1.711770   -2.527400
  F      0.710500   -0.927510   -1.481770
  H      0.923840   -1.553160   -3.372670
  H     -0.718280   -1.451370   -2.784330
  H      0.326550   -2.741580   -2.239550

 Total Charge           Charge          ....    0
 Multiplicity           Mult            ....    1
 Number of Electrons    NEL             ....   18
 Basis Dimension        Dim             ....   43

ORBITAL ENERGIES
----------------

  NO   OCC          E(Eh)            E(eV)
   0   2.0000     -24.758463      -673.7120
   1   2.0000     -10.351895      -281.6894
   2   2.0000      -1.276025       -34.7224
   3   2.0000      -0.806895       -21.9567
   4   2.0000      -0.582194       -15.8423
   5   2.0000      -0.582178       -15.8419
   6   2.0000      -0.581888       -15.8340
   7   2.0000      -0.435651       -11.8547
   8   2.0000      -0.435621       -11.8539
   9   0.0000       0.165246         4.4966
  10   0.0000       0.217098         5.9075
  11   0.0000       0.225762         6.1433
  12   0.0000       0.225769         6.1435
  13   0.0000       0.544534        14.8175

MULLIKEN ATOMIC CHARGES
-----------------------
   0 C :    0.228913
   1 F :   -0.302725
   2 H :    0.024656
   3 H :    0.024515
   4 H :    0.024642
Sum of atomic charges:    0.0000000

LOEWDIN ATOMIC CHARGES
----------------------
   0 C :    0.127681
   1 F :   -0.159492
   2 H :    0.010614
   3 H :    0.010587
   4 H :    0.010610

  Mayer bond orders larger than 0.100000
B(  0-C ,  1-F ) :   0.9685 B(  0-C ,  2-H ) :   0.9829 B(  0-C ,  3-H ) :   0.9829
B(  0-C ,  4-H ) :   0.9829

Dispersion correction           -0.000131477
FINAL SINGLE POINT ENERGY      -139.592192370689

DIPOLE MOMENT
-------------
                                X             Y             Z
Electronic contribution:      0.90361       1.67424       2.23214
Nuclear contribution   :     -1.12906      -2.09208      -2.78929
                        -----------------------------------------
Total Dipole Moment    :     -0.22545      -0.41783      -0.55715
                        -----------------------------------------
Magnitude (a.u.)       :      0.73200
Magnitude (Debye)      :      1.86060

Rotational constants in cm-1:     5.477712     0.869598     0.869597
Rotational constants in MHz : 164217.678885 26069.889584 26069.856821

                             ****ORCA TERMINATED NORMALLY****
TOTAL RUN TIME: 0 days 0 hours 0 minutes 2 seconds 905 msec
