                         Program Version 5.0.0 -  RELEASE  -
|  1> !wB97X-D3 RIJCOSX def2-SVP def2/J TightSCF
|  2> *xyz 0 1
|  3> C          3.48828        1.60092       -1.52204
|  4> C          2.81029        0.42878       -1.01420
|  5> C          3.29098       -0.41802       -0.12908
|  6> N          2.51754       -1.43202        0.23936
|  7> N          4.53549       -0.28441        0.39580
|  8> H          5.04363        0.57189        0.22290
|  9> H          4.72335       -0.73327        1.28180
| 10> H          1.93479        0.10230       -1.40379
| 11> H          1.67464       -1.50562       -0.31610
| 12> H          2.92850       -2.21850        0.72549
| 13> H          2.85802        2.09943       -2.22855
| 14> H          4.39853        1.30677       -2.00144
| 15> H          3.70992        2.26379       -0.71187
| 16> *
| 17> %MaxCore 64000
| 18>
| 19> %pal nprocs 18
| 20> end
| 21>
| 22> %scf
| 23>   MaxIter 150
| 24> end
| 25>
| 26>
| 27>                          ****END OF INPUT****

CARTESIAN COORDINATES (ANGSTROEM)
---------------------------------
  C      3.488280    1.600920   -1.522040
  C      2.810290    0.428780   -1.014200
  C      3.290980   -0.418020   -0.129080
  N      2.517540   -1.432020    0.239360
  N      4.535490   -0.284410    0.395800
  H      5.043630    0.571890    0.222900
  H      4.723350   -0.733270    1.281800
  H      1.934790    0.102300   -1.403790
  H      1.674640   -1.505620   -0.316100
  H      2.928500   -2.218500    0.725490
  H      2.858020    2.099430   -2.228550
  H      4.398530    1.306770   -2.001440
  H      3.709920    2.263790   -0.711870

 Total Charge           Charge          ....    0
 Multiplicity           Mult            ....    1
 Number of Electrons    NEL             ....   40
 Basis Dimension        Dim             ....  110

ORBITAL ENERGIES
----------------

  NO   OCC          E(Eh)            E(eV)
   0   2.0000     -14.428731      -392.6257
   1   2.0000     -14.421805      -392.4373
   2   2.0000     -10.319991      -280.8212
   3   2.0000     -10.250059      -278.9183
   4   2.0000     -10.201470      -277.5961
   5   2.0000      -1.059197       -28.8222
   6   2.0000      -0.968230       -26.3469
   7   2.0000      -0.856881       -23.3169
   8   2.0000      -0.756320       -20.5805
   9   2.0000      -0.680244       -18.5104
  10   2.0000      -0.631699       -17.1894
  11   2.0000      -0.602964       -16.4075
  12   2.0000      -0.555934       -15.1277
  13   2.0000      -0.521189       -14.1823
  14   2.0000      -0.506089       -13.7714
  15   2.0000      -0.465927       -12.6785
  16   2.0000      -0.455311       -12.3897
  17   2.0000      -0.429919       -11.6987
  18   2.0000      -0.351413        -9.5624
  19   2.0000      -0.237217        -6.4550
  20   0.0000       0.136595         3.7169
  21   0.0000       0.166125         4.5205
  22   0.0000       0.180923         4.9232
  23   0.0000       0.191200         5.2028
  24   0.0000       0.210069         5.7163

MULLIKEN ATOMIC CHARGES
-----------------------
   0 C :    0.068513
   1 C :   -0.219775
   2 C :   -0.047650
   3 N :   -0.098722
   4 N :   -0.140360
   5 H :    0.126763
   6 H :    0.114768
   7 H :   -0.087448
   8 H :    0.129857
   9 H :    0.114521
  10 H :    0.014212
  11 H :    0.015131
  12 H :    0.010189
Sum of atomic charges:   -0.0000000

LOEWDIN ATOMIC CHARGES
----------------------
   0 C :   -0.059876
   1 C :   -0.232611
   2 C :    0.030566
   3 N :   -0.035566
   4 N :   -0.044293
   5 H :    0.078538
   6 H :    0.066072
   7 H :   -0.011174
   8 H :    0.084166
   9 H :    0.067080
  10 H :    0.029728
  11 H :    0.013944
  12 H :    0.013426

  Mayer bond orders larger than 0.100000
B(  0-C ,  1-C ) :   1.0432 B(  0-C , 10-H ) :   0.9531 B(  0-C , 11-H ) :   0.9691
B(  0-C , 12-H ) :   0.9668 B(  1-C ,  2-C ) :   1.7321 B(  1-C ,  7-H ) :   0.9384
B(  2-C ,  3-N ) :   1.2326 B(  2-C ,  4-N ) :   1.2259 B(  3-N ,  8-H ) :   0.9350
B(  3-N ,  9-H ) :   0.9495 B(  4-N ,  5-H ) :   0.9413 B(  4-N ,  6-H ) :   0.9513

Dispersion correction           -0.002384138
FINAL SINGLE POINT ENERGY      -228.367761603519

DIPOLE MOMENT
-------------
                                X             Y             Z
Electronic contribution:     -0.18135      -2.66022       1.91837
Nuclear contribution   :      0.45569       2.05070      -1.27895
                        -----------------------------------------
Total Dipole Moment    :      0.27434      -0.60952       0.63942
                        -----------------------------------------
Magnitude (a.u.)       :      0.92501
Magnitude (Debye)      :      2.35118

Rotational constants in cm-1:     0.314404     0.136412     0.097030
Rotational constants in MHz :  9425.600285  4089.541372  2908.875289

                             ****ORCA TERMINATED NORMALLY****
TOTAL RUN TIME: 0 days 0 hours 0 minutes 6 seconds 39 msec
