                         Program Version 5.0.0 -  RELEASE  -
|  1> !wB97X-D3 RIJCOSX def2-SVP def2/J TightSCF
|  2> *xyz 0 1
|  3> C          3.48828        1.60092       -1.52204
|  4> N          2.81029        0.42878       -1.01420
|  5> C          3.29098       -0.41802       -0.12908
|  6> C          2.51754       -1.43202        0.23936
|  7> N          4.53549       -0.28441        0.39580
|  8> H          5.04363        0.57189        0.22290
|  9> H          4.72335       -0.73327        1.28180
| 10> H          1.93479        0.10230       -1.40379
| 11> H          1.67464       -1.50562       -0.31610
| 12> H          2.92850       -2.21850        0.72549
| 13> H          2.85802        2.09943       -2.22855
| 14> H          4.39853        1.30677       -2.00144
| 15> H          3.70992        2.26379       -0.71187
| 16> *
| 17> %MaxCore 64000
| 18>
| 19> %pal nprocs 18
| 20> end
| 21>
| 22> %scf
| 23>   MaxIter 150
| 24> end
| 25>
| 26>
| 27>                          ****END OF INPUT****

CARTESIAN COORDINATES (ANGSTROEM)
---------------------------------
  C      3.488280    1.600920   -1.522040
  N      2.810290    0.428780   -1.014200
  C      3.290980   -0.418020   -0.129080
  C      2.517540   -1.432020    0.239360
  N      4.535490   -0.284410    0.395800
  H      5.043630    0.571890    0.222900
  H      4.723350   -0.733270    1.281800
  H      1.934790    0.102300   -1.403790
  H      1.674640   -1.505620   -0.316100
  H      2.928500   -2.218500    0.725490
  H      2.858020    2.099430   -2.228550
  H      4.398530    1.306770   -2.001440
  H      3.709920    2.263790   -0.711870

 Total Charge           Charge          ....    0
 Multiplicity           Mult            ....    1
 Number of Electrons    NEL             ....   40
 Basis Dimension        Dim             ....  110

ORBITAL ENERGIES
----------------

  NO   OCC          E(Eh)            E(eV)
   0   2.0000     -14.430046      -392.6615
   1   2.0000     -14.428917      -392.6308
   2   2.0000     -10.327452      -281.0242
   3   2.0000     -10.322571      -280.8914
   4   2.0000     -10.189962      -277.2830
   5   2.0000      -1.072438       -29.1825
   6   2.0000      -0.982891       -26.7458
   7   2.0000      -0.854377       -23.2488
   8   2.0000      -0.767387       -20.8817
   9   2.0000      -0.696411       -18.9503
  10   2.0000      -0.629915       -17.1409
  11   2.0000      -0.588758       -16.0209
  12   2.0000      -0.573526       -15.6064
  13   2.0000      -0.555578       -15.1181
  14   2.0000      -0.501940       -13.6585
  15   2.0000      -0.476956       -12.9786
  16   2.0000      -0.466721       -12.7001
  17   2.0000      -0.459624       -12.5070
  18   2.0000      -0.346158        -9.4194
  19   2.0000      -0.239809        -6.5255
  20   0.0000       0.132774         3.6130
  21   0.0000       0.164374         4.4728
  22   0.0000       0.172434         4.6922
  23   0.0000       0.187145         5.0925
  24   0.0000       0.222876         6.0648

MULLIKEN ATOMIC CHARGES
-----------------------
   0 C :    0.098521
   1 N :   -0.206705
   2 C :   -0.018727
   3 C :   -0.117297
   4 N :   -0.144261
   5 H :    0.107934
   6 H :    0.137510
   7 H :    0.135601
   8 H :   -0.057239
   9 H :   -0.037419
  10 H :    0.038143
  11 H :    0.033140
  12 H :    0.030800
Sum of atomic charges:   -0.0000000

LOEWDIN ATOMIC CHARGES
----------------------
   0 C :    0.026766
   1 N :   -0.042708
   2 C :    0.048377
   3 C :   -0.268827
   4 N :   -0.040752
   5 H :    0.063466
   6 H :    0.084512
   7 H :    0.086492
   8 H :   -0.011550
   9 H :   -0.007763
  10 H :    0.031957
  11 H :    0.014782
  12 H :    0.015249

  Mayer bond orders larger than 0.100000
B(  0-C ,  1-N ) :   0.9911 B(  0-C , 10-H ) :   0.9782 B(  0-C , 11-H ) :   0.9760
B(  0-C , 12-H ) :   0.9745 B(  1-N ,  2-C ) :   1.2138 B(  1-N ,  7-H ) :   0.9267
B(  2-C ,  3-C ) :   1.7412 B(  2-C ,  4-N ) :   1.2077 B(  3-C ,  8-H ) :   0.9377
B(  3-C ,  9-H ) :   0.9612 B(  4-N ,  5-H ) :   0.9542 B(  4-N ,  6-H ) :   0.9495

Dispersion correction           -0.002394858
FINAL SINGLE POINT ENERGY      -228.354229523701

DIPOLE MOMENT
-------------
                                X             Y             Z
Electronic contribution:      0.15467      -0.65821       0.65335
Nuclear contribution   :      0.39640       1.67380      -1.02505
                        -----------------------------------------
Total Dipole Moment    :      0.55106       1.01559      -0.37169
                        -----------------------------------------
Magnitude (a.u.)       :      1.21378
Magnitude (Debye)      :      3.08517

Rotational constants in cm-1:     0.316500     0.141146     0.099607
Rotational constants in MHz :  9488.425850  4231.454938  2986.155520

                             ****ORCA TERMINATED NORMALLY****
TOTAL RUN TIME: 0 days 0 hours 0 minutes 6 seconds 440 msec
