                         Program Version 5.0.0 -  RELEASE  -
|  1> !wB97X-D3 RIJCOSX def2-SVP def2/J TightSCF
|  2> *xyz 0 1
|  3> C          3.48828        1.60092       -1.52204
|  4> N          2.81029        0.42878       -1.01420
|  5> C          3.29098       -0.41802       -0.12908
|  6> N          2.51754       -1.43202        0.23936
|  7> C          4.53549       -0.28441        0.39580
|  8> H          5.04363        0.57189        0.22290
|  9> H          4.72335       -0.73327        1.28180
| 10> H          1.93479        0.10230       -1.40379
| 11> H          1.67464       -1.50562       -0.31610
| 12> H          2.92850       -2.21850        0.72549
| 13> H          2.85802        2.09943       -2.22855
| 14> H          4.39853        1.30677       -2.00144
| 15> H          3.70992        2.26379       -0.71187
| 16> *
| 17> %MaxCore 64000
| 18>
| 19> %pal nprocs 18
| 20> end
| 21>
| 22> %scf
| 23>   MaxIter 150
| 24> end
| 25>
| 26>
| 27>                          ****END OF INPUT****

CARTESIAN COORDINATES (ANGSTROEM)
---------------------------------
  C      3.488280    1.600920   -1.522040
  N      2.810290    0.428780   -1.014200
  C      3.290980   -0.418020   -0.129080
  N      2.517540   -1.432020    0.239360
  C      4.535490   -0.284410    0.395800
  H      5.043630    0.571890    0.222900
  H      4.723350   -0.733270    1.281800
  H      1.934790    0.102300   -1.403790
  H      1.674640   -1.505620   -0.316100
  H      2.928500   -2.218500    0.725490
  H      2.858020    2.099430   -2.228550
  H      4.398530    1.306770   -2.001440
  H      3.709920    2.263790   -0.711870

 Total Charge           Charge          ....    0
 Multiplicity           Mult            ....    1
 Number of Electrons    NEL             ....   40
 Basis Dimension        Dim             ....  110

ORBITAL ENERGIES
----------------

  NO   OCC          E(Eh)            E(eV)
   0   2.0000     -14.437273      -392.8582
   1   2.0000     -14.430502      -392.6739
   2   2.0000     -10.330052      -281.0950
   3   2.0000     -10.314385      -280.6687
   4   2.0000     -10.191321      -277.3200
   5   2.0000      -1.081752       -29.4360
   6   2.0000      -0.988045       -26.8861
   7   2.0000      -0.821919       -22.3656
   8   2.0000      -0.801075       -21.7984
   9   2.0000      -0.665309       -18.1040
  10   2.0000      -0.639875       -17.4119
  11   2.0000      -0.624953       -17.0058
  12   2.0000      -0.553784       -15.0692
  13   2.0000      -0.545152       -14.8343
  14   2.0000      -0.508646       -13.8410
  15   2.0000      -0.478020       -13.0076
  16   2.0000      -0.460363       -12.5271
  17   2.0000      -0.454214       -12.3598
  18   2.0000      -0.339154        -9.2288
  19   2.0000      -0.243408        -6.6235
  20   0.0000       0.126876         3.4525
  21   0.0000       0.167103         4.5471
  22   0.0000       0.179906         4.8955
  23   0.0000       0.186031         5.0622
  24   0.0000       0.211944         5.7673

MULLIKEN ATOMIC CHARGES
-----------------------
   0 C :    0.125580
   1 N :   -0.223302
   2 C :   -0.006645
   3 N :   -0.112679
   4 C :   -0.164385
   5 H :   -0.044230
   6 H :   -0.037892
   7 H :    0.106703
   8 H :    0.106335
   9 H :    0.143034
  10 H :    0.028037
  11 H :    0.038835
  12 H :    0.040609
Sum of atomic charges:    0.0000000

LOEWDIN ATOMIC CHARGES
----------------------
   0 C :    0.042038
   1 N :   -0.037306
   2 C :    0.042654
   3 N :   -0.026786
   4 C :   -0.287435
   5 H :   -0.011168
   6 H :   -0.008805
   7 H :    0.064709
   8 H :    0.063545
   9 H :    0.088793
  10 H :    0.025918
  11 H :    0.020670
  12 H :    0.023172

  Mayer bond orders larger than 0.100000
B(  0-C ,  1-N ) :   0.9871 B(  0-C , 10-H ) :   0.9781 B(  0-C , 11-H ) :   0.9724
B(  0-C , 12-H ) :   0.9720 B(  1-N ,  2-C ) :   1.1992 B(  1-N ,  7-H ) :   0.9399
B(  2-C ,  3-N ) :   1.2311 B(  2-C ,  4-C ) :   1.7236 B(  3-N ,  8-H ) :   0.9528
B(  3-N ,  9-H ) :   0.9446 B(  4-C ,  5-H ) :   0.9502 B(  4-C ,  6-H ) :   0.9564

Dispersion correction           -0.002378018
FINAL SINGLE POINT ENERGY      -228.355400777455

DIPOLE MOMENT
-------------
                                X             Y             Z
Electronic contribution:     -1.95028      -2.00247       0.35777
Nuclear contribution   :      0.80512       1.90624      -0.99336
                        -----------------------------------------
Total Dipole Moment    :     -1.14516      -0.09623      -0.63559
                        -----------------------------------------
Magnitude (a.u.)       :      1.31325
Magnitude (Debye)      :      3.33802

Rotational constants in cm-1:     0.332728     0.136065     0.098521
Rotational constants in MHz :  9974.927067  4079.126590  2953.598000

                             ****ORCA TERMINATED NORMALLY****
TOTAL RUN TIME: 0 days 0 hours 0 minutes 6 seconds 91 msec
