                         Program Version 5.0.0 -  RELEASE  -
|  1> !wB97X-D3 RIJCOSX def2-SVP def2/J TightSCF xyzfile
|  2>
|  3> *xyzfile 0 1 D3.xyz
|  4>
|  5> %MaxCore 64000
|  6>
|  7> %pal nprocs 18
|  8> end
|  9>
| 10> %scf
| 11>   MaxIter 150
| 12> end
| 13>
| 14>
| 15>                          ****END OF INPUT****

CARTESIAN COORDINATES (ANGSTROEM)
---------------------------------
  C      3.488276    1.600919   -1.522040
  C      4.342970    1.313419   -2.756826
  N      2.810285    0.428783   -1.014196
  H      5.132033    0.604994   -2.484466
  C      3.535896    0.749253   -3.924604
  H      4.841247    2.242136   -3.054083
  H      2.991617   -0.132199   -3.574137
  H      4.225505    0.392784   -4.695962
  C      2.564776    1.750890   -4.544523
  H      1.918749    2.171679   -3.769419
  C      1.686235    1.161657   -5.650111
  H      3.132494    2.594775   -4.951604
  C      0.839616   -0.037582   -5.220473
  H      2.323886    0.866395   -6.490796
  H      1.029518    1.951850   -6.029329
  C     -0.151019    0.254955   -4.094256
  H      1.499442   -0.857141   -4.922958
  H      0.290097   -0.410143   -6.091131
  H      0.328265    0.833022   -3.299125
  C     -0.721843   -0.999513   -3.439309
  H     -0.957367    0.884951   -4.485450
  H     -1.083403   -1.697555   -4.205656
  H     -1.581056   -0.723848   -2.820490
  C      0.287250   -1.711771   -2.527405
  H      1.131780   -2.067380   -3.159396
  H     -0.204137   -2.637326   -2.170480
  F      0.710505   -0.927506   -1.481767
  H      2.714548    2.331455   -1.760302
  H      4.090991    2.063151   -0.733382
  C      3.290978   -0.418021   -0.129083
  N      2.517536   -1.432017    0.239360
  C      4.535490   -0.284410    0.395800
  H      5.043627    0.571888    0.222899
  H      4.723346   -0.733273    1.281800
  H      1.934787    0.102305   -1.403788
  H      1.674638   -1.505616   -0.316095
  H      2.928503   -2.218502    0.725494

 Total Charge           Charge          ....    0
 Multiplicity           Mult            ....    1
 Number of Electrons    NEL             ....  112
 Basis Dimension        Dim             ....  311

ORBITAL ENERGIES
----------------

  NO   OCC          E(Eh)            E(eV)
   0   2.0000     -24.838990      -675.9033
   1   2.0000     -14.406918      -392.0322
   2   2.0000     -14.400409      -391.8551
   3   2.0000     -10.398001      -282.9440
   4   2.0000     -10.315246      -280.6921
   5   2.0000     -10.311288      -280.5844
   6   2.0000     -10.305332      -280.4223
   7   2.0000     -10.300925      -280.3024
   8   2.0000     -10.294760      -280.1347
   9   2.0000     -10.289027      -279.9787
  10   2.0000     -10.283237      -279.8211
  11   2.0000     -10.278966      -279.7049
  12   2.0000     -10.271542      -279.5029
  13   2.0000     -10.172368      -276.8042
  14   2.0000      -1.359548       -36.9952
  15   2.0000      -1.060315       -28.8527
  16   2.0000      -0.970120       -26.3983
  17   2.0000      -0.945084       -25.7170
  18   2.0000      -0.913515       -24.8580
  19   2.0000      -0.877971       -23.8908
  20   2.0000      -0.834827       -22.7168
  21   2.0000      -0.801373       -21.8065
  22   2.0000      -0.789039       -21.4709
  23   2.0000      -0.759747       -20.6738
  24   2.0000      -0.726272       -19.7629
  25   2.0000      -0.698181       -18.9985
  26   2.0000      -0.677948       -18.4479
  27   2.0000      -0.663359       -18.0509
  28   2.0000      -0.659101       -17.9351
  29   2.0000      -0.626614       -17.0510
  30   2.0000      -0.621984       -16.9250
  31   2.0000      -0.609959       -16.5978
  32   2.0000      -0.591184       -16.0869
  33   2.0000      -0.578099       -15.7309
  34   2.0000      -0.564018       -15.3477
  35   2.0000      -0.553605       -15.0644
  36   2.0000      -0.539591       -14.6830
  37   2.0000      -0.534847       -14.5539
  38   2.0000      -0.527179       -14.3453
  39   2.0000      -0.507146       -13.8001
  40   2.0000      -0.498364       -13.5612
  41   2.0000      -0.481413       -13.0999
  42   2.0000      -0.474830       -12.9208
  43   2.0000      -0.466642       -12.6980
  44   2.0000      -0.465237       -12.6597
  45   2.0000      -0.454233       -12.3603
  46   2.0000      -0.444065       -12.0836
  47   2.0000      -0.439407       -11.9569
  48   2.0000      -0.432144       -11.7592
  49   2.0000      -0.427218       -11.6252
  50   2.0000      -0.423001       -11.5105
  51   2.0000      -0.407862       -11.0985
  52   2.0000      -0.406370       -11.0579
  53   2.0000      -0.399065       -10.8591
  54   2.0000      -0.316673        -8.6171
  55   2.0000      -0.223924        -6.0933
  56   0.0000       0.118772         3.2319
  57   0.0000       0.135199         3.6790
  58   0.0000       0.146571         3.9884
  59   0.0000       0.150779         4.1029
  60   0.0000       0.166131         4.5207

MULLIKEN ATOMIC CHARGES
-----------------------
   0 C :    0.102032
   1 C :    0.014119
   2 N :   -0.219177
   3 H :    0.035209
   4 C :   -0.053811
   5 H :    0.011585
   6 H :   -0.007764
   7 H :    0.020047
   8 C :   -0.061901
   9 H :    0.014158
  10 C :    0.014168
  11 H :    0.021650
  12 C :   -0.061043
  13 H :    0.021441
  14 H :    0.018288
  15 C :   -0.063133
  16 H :    0.013049
  17 H :    0.023398
  18 H :    0.025002
  19 C :   -0.078493
  20 H :    0.034468
  21 H :    0.041259
  22 H :    0.046519
  23 C :    0.223780
  24 H :    0.050224
  25 H :    0.051571
  26 F :   -0.252609
  27 H :    0.013302
  28 H :    0.040386
  29 C :   -0.007724
  30 N :   -0.131918
  31 C :   -0.164679
  32 H :   -0.054378
  33 H :   -0.048674
  34 H :    0.127346
  35 H :    0.113443
  36 H :    0.128859
Sum of atomic charges:   -0.0000000

LOEWDIN ATOMIC CHARGES
----------------------
   0 C :    0.041829
   1 C :   -0.045438
   2 N :   -0.035151
   3 H :    0.031372
   4 C :   -0.043295
   5 H :    0.020741
   6 H :    0.008262
   7 H :    0.023811
   8 C :   -0.042757
   9 H :    0.013280
  10 C :   -0.035854
  11 H :    0.025417
  12 C :   -0.043208
  13 H :    0.024345
  14 H :    0.022839
  15 C :   -0.044092
  16 H :    0.013586
  17 H :    0.024774
  18 H :    0.019458
  19 C :   -0.055152
  20 H :    0.029766
  21 H :    0.036796
  22 H :    0.032456
  23 C :    0.118347
  24 H :    0.021615
  25 H :    0.026036
  26 F :   -0.051806
  27 H :    0.015173
  28 H :    0.028937
  29 C :    0.049900
  30 N :   -0.039701
  31 C :   -0.305105
  32 H :   -0.016343
  33 H :   -0.013029
  34 H :    0.030131
  35 H :    0.032421
  36 H :    0.079638

  Mayer bond orders larger than 0.100000
B(  0-C ,  1-C ) :   1.0631 B(  0-C ,  2-N ) :   0.9962 B(  0-C , 27-H ) :   0.9576
B(  0-C , 28-H ) :   0.9441 B(  1-C ,  3-H ) :   0.9393 B(  1-C ,  4-C ) :   1.0762
B(  1-C ,  5-H ) :   0.9463 B(  2-N , 29-C ) :   1.1931 B(  2-N , 34-H ) :   0.8952
B(  4-C ,  6-H ) :   0.9402 B(  4-C ,  7-H ) :   0.9494 B(  4-C ,  8-C ) :   1.0472
B(  8-C ,  9-H ) :   0.9483 B(  8-C , 10-C ) :   1.0791 B(  8-C , 11-H ) :   0.9436
B( 10-C , 12-C ) :   1.0763 B( 10-C , 13-H ) :   0.9468 B( 10-C , 14-H ) :   0.9480
B( 12-C , 15-C ) :   1.0442 B( 12-C , 16-H ) :   0.9535 B( 12-C , 17-H ) :   0.9442
B( 15-C , 18-H ) :   0.9501 B( 15-C , 19-C ) :   1.0710 B( 15-C , 20-H ) :   0.9495
B( 19-C , 21-H ) :   0.9418 B( 19-C , 22-H ) :   0.9467 B( 19-C , 23-C ) :   1.0760
B( 23-C , 24-H ) :   0.9540 B( 23-C , 25-H ) :   0.9582 B( 23-C , 26-F ) :   0.8652
B( 29-C , 30-N ) :   1.2423 B( 29-C , 31-C ) :   1.7107 B( 30-N , 35-H ) :   0.9260
B( 30-N , 36-H ) :   0.9471 B( 31-C , 32-H ) :   0.9474 B( 31-C , 33-H ) :   0.9552

Dispersion correction           -0.017696423
FINAL SINGLE POINT ENERGY      -641.694596240451

DIPOLE MOMENT
-------------
                                X             Y             Z
Electronic contribution:     -3.33682      -4.41225       9.10993
Nuclear contribution   :      1.49917       3.80845     -10.61369
                        -----------------------------------------
Total Dipole Moment    :     -1.83765      -0.60379      -1.50375
                        -----------------------------------------
Magnitude (a.u.)       :      2.45006
Magnitude (Debye)      :      6.22755

Rotational constants in cm-1:     0.026547     0.016542     0.011018
Rotational constants in MHz :   795.873737   495.912559   330.323979

                             ****ORCA TERMINATED NORMALLY****
TOTAL RUN TIME: 0 days 0 hours 0 minutes 46 seconds 7 msec
