                         Program Version 5.0.0 -  RELEASE  -
|  1> !wB97X-D3 RIJCOSX def2-SVP def2/J TightSCF
|  2>
|  3> *xyz -1 1
|  4> C          2.95263        1.86308       -3.57485
|  5> C          4.12921        0.89839       -3.41895
|  6> H          3.73369       -0.10060       -3.23763
|  7> H          4.71910        0.86256       -4.33901
|  8> C          5.01734        1.31521       -2.22130
|  9> O          4.73706        0.85411       -1.12283
| 10> O          5.92815        2.16811       -2.49136
| 11> H          2.35067        1.56005       -4.40594
| 12> H          3.32277        2.85258       -3.74453
| 13> H          2.36134        1.85149       -2.68315
| 14> *
| 15> %MaxCore 64000
| 16>
| 17> %pal nprocs 4
| 18> end
| 19>
| 20> %scf
| 21>   MaxIter 150
| 22> end
| 23>
| 24>
| 25>                          ****END OF INPUT****

CARTESIAN COORDINATES (ANGSTROEM)
---------------------------------
  C      2.952630    1.863080   -3.574850
  C      4.129210    0.898390   -3.418950
  H      3.733690   -0.100600   -3.237630
  H      4.719100    0.862560   -4.339010
  C      5.017340    1.315210   -2.221300
  O      4.737060    0.854110   -1.122830
  O      5.928150    2.168110   -2.491360
  H      2.350670    1.560050   -4.405940
  H      3.322770    2.852580   -3.744530
  H      2.361340    1.851490   -2.683150

 Total Charge           Charge          ....   -1
 Multiplicity           Mult            ....    1
 Number of Electrons    NEL             ....   40
 Basis Dimension        Dim             ....   95

ORBITAL ENERGIES
----------------

  NO   OCC          E(Eh)            E(eV)
   0   2.0000     -18.945160      -515.5240
   1   2.0000     -18.932533      -515.1804
   2   2.0000     -10.143182      -276.0100
   3   2.0000     -10.120490      -275.3925
   4   2.0000     -10.095536      -274.7135
   5   2.0000      -0.897767       -24.4295
   6   2.0000      -0.796649       -21.6779
   7   2.0000      -0.703491       -19.1430
   8   2.0000      -0.562547       -15.3077
   9   2.0000      -0.405929       -11.0459
  10   2.0000      -0.381066       -10.3693
  11   2.0000      -0.338498        -9.2110
  12   2.0000      -0.311279        -8.4703
  13   2.0000      -0.288478        -7.8499
  14   2.0000      -0.287949        -7.8355
  15   2.0000      -0.250188        -6.8080
  16   2.0000      -0.240899        -6.5552
  17   2.0000      -0.106698        -2.9034
  18   2.0000      -0.102446        -2.7877
  19   2.0000      -0.089758        -2.4424
  20   0.0000       0.300989         8.1903
  21   0.0000       0.352333         9.5875
  22   0.0000       0.364441         9.9169
  23   0.0000       0.367165         9.9911
  24   0.0000       0.388693        10.5769

MULLIKEN ATOMIC CHARGES
-----------------------
   0 C :   -0.024893
   1 C :   -0.031938
   2 H :   -0.040992
   3 H :   -0.032359
   4 C :    0.055523
   5 O :   -0.414533
   6 O :   -0.491764
   7 H :   -0.029148
   8 H :    0.006107
   9 H :    0.003997
Sum of atomic charges:   -1.0000000

LOEWDIN ATOMIC CHARGES
----------------------
   0 C :   -0.061654
   1 C :   -0.096386
   2 H :   -0.005291
   3 H :   -0.001573
   4 C :   -0.046069
   5 O :   -0.369590
   6 O :   -0.439693
   7 H :   -0.004825
   8 H :    0.012655
   9 H :    0.012426

  Mayer bond orders larger than 0.100000
B(  0-C ,  1-C ) :   1.0948 B(  0-C ,  7-H ) :   0.9743 B(  0-C ,  8-H ) :   0.9710
B(  0-C ,  9-H ) :   0.9721 B(  1-C ,  2-H ) :   0.9423 B(  1-C ,  3-H ) :   0.9460
B(  1-C ,  4-C ) :   0.9130 B(  4-C ,  5-O ) :   1.8839 B(  4-C ,  6-O ) :   1.8022
B(  5-O ,  6-O ) :   0.1129

Dispersion correction           -0.001998917
FINAL SINGLE POINT ENERGY      -267.542069015539

DIPOLE MOMENT
-------------
                                X             Y             Z
Electronic contribution:      4.50930      -0.13476       4.01021
Nuclear contribution   :     -5.85873      -0.10793      -5.24103
                        -----------------------------------------
Total Dipole Moment    :     -1.34943      -0.24269      -1.23082
                        -----------------------------------------
Magnitude (a.u.)       :      1.84249
Magnitude (Debye)      :      4.68324

Rotational constants in cm-1:     0.292505     0.135951     0.110253
Rotational constants in MHz :  8769.065873  4075.717001  3305.311891

                             ****ORCA TERMINATED NORMALLY****
TOTAL RUN TIME: 0 days 0 hours 0 minutes 13 seconds 546 msec
