                         Program Version 5.0.0 -  RELEASE  -
|  1> !wB97X-D3 RIJCOSX def2-SVP def2/J TightSCF
|  2>
|  3> *xyz 1 1
|  4> C          3.34350        3.35457       -3.59200
|  5> C          2.95263        1.86308       -3.57485
|  6> C          4.25587        3.70385       -4.72605
|  7> N          3.73403        4.29378       -5.80077
|  8> N          5.51504        3.40725       -4.63718
|  9> H          6.14919        3.60120       -5.39905
| 10> H          5.81358        2.89950       -3.80879
| 11> H          2.74138        4.51311       -5.82470
| 12> H          4.28755        4.52126       -6.61434
| 13> H          3.86125        3.59725       -2.66298
| 14> H          2.44649        3.97346       -3.65656
| 15> H          2.44395        1.61721       -4.48352
| 16> H          2.30781        1.67290       -2.74242
| 17> H          3.83491        1.26414       -3.48670
| 18> *
| 19> %MaxCore 64000
| 20>
| 21> %pal nprocs 4
| 22> end
| 23>
| 24> %scf
| 25>   MaxIter 150
| 26> end
| 27>
| 28>
| 29>                          ****END OF INPUT****

CARTESIAN COORDINATES (ANGSTROEM)
---------------------------------
  C      3.343500    3.354570   -3.592000
  C      2.952630    1.863080   -3.574850
  C      4.255870    3.703850   -4.726050
  N      3.734030    4.293780   -5.800770
  N      5.515040    3.407250   -4.637180
  H      6.149190    3.601200   -5.399050
  H      5.813580    2.899500   -3.808790
  H      2.741380    4.513110   -5.824700
  H      4.287550    4.521260   -6.614340
  H      3.861250    3.597250   -2.662980
  H      2.446490    3.973460   -3.656560
  H      2.443950    1.617210   -4.483520
  H      2.307810    1.672900   -2.742420
  H      3.834910    1.264140   -3.486700

 Total Charge           Charge          ....    1
 Multiplicity           Mult            ....    1
 Number of Electrons    NEL             ....   40
 Basis Dimension        Dim             ....  115

ORBITAL ENERGIES
----------------

  NO   OCC          E(Eh)            E(eV)
   0   2.0000     -14.686323      -399.6352
   1   2.0000     -14.681009      -399.4906
   2   2.0000     -10.614287      -288.8294
   3   2.0000     -10.487622      -285.3827
   4   2.0000     -10.445980      -284.2496
   5   2.0000      -1.316276       -35.8177
   6   2.0000      -1.217609       -33.1328
   7   2.0000      -1.079892       -29.3854
   8   2.0000      -0.967073       -26.3154
   9   2.0000      -0.922240       -25.0954
  10   2.0000      -0.883010       -24.0279
  11   2.0000      -0.854407       -23.2496
  12   2.0000      -0.803260       -21.8578
  13   2.0000      -0.752672       -20.4812
  14   2.0000      -0.724835       -19.7238
  15   2.0000      -0.713717       -19.4212
  16   2.0000      -0.640643       -17.4328
  17   2.0000      -0.631986       -17.1972
  18   2.0000      -0.623646       -16.9703
  19   2.0000      -0.586791       -15.9674
  20   0.0000      -0.120011        -3.2657
  21   0.0000      -0.056969        -1.5502
  22   0.0000      -0.009928        -0.2702
  23   0.0000      -0.007599        -0.2068
  24   0.0000       0.016753         0.4559

MULLIKEN ATOMIC CHARGES
-----------------------
   0 C :   -0.074467
   1 C :   -0.018427
   2 C :   -0.034720
   3 N :   -0.044025
   4 N :    0.010242
   5 H :    0.188145
   6 H :    0.198367
   7 H :    0.197914
   8 H :    0.183059
   9 H :    0.099185
  10 H :    0.082419
  11 H :    0.062550
  12 H :    0.097942
  13 H :    0.051816
Sum of atomic charges:    1.0000000

LOEWDIN ATOMIC CHARGES
----------------------
   0 C :   -0.038680
   1 C :   -0.023204
   2 C :    0.159023
   3 N :    0.079168
   4 N :    0.104293
   5 H :    0.117030
   6 H :    0.126778
   7 H :    0.123798
   8 H :    0.111744
   9 H :    0.060564
  10 H :    0.055392
  11 H :    0.038015
  12 H :    0.054336
  13 H :    0.031743

  Mayer bond orders larger than 0.100000
B(  0-C ,  1-C ) :   1.0558 B(  0-C ,  2-C ) :   1.0142 B(  0-C ,  9-H ) :   0.9312
B(  0-C , 10-H ) :   0.9327 B(  1-C , 11-H ) :   0.9719 B(  1-C , 12-H ) :   0.9673
B(  1-C , 13-H ) :   0.9748 B(  2-C ,  3-N ) :   1.4936 B(  2-C ,  4-N ) :   1.5353
B(  3-N ,  7-H ) :   0.9196 B(  3-N ,  8-H ) :   0.9311 B(  4-N ,  5-H ) :   0.9260
B(  4-N ,  6-H ) :   0.9141

Dispersion correction           -0.003011887
FINAL SINGLE POINT ENERGY      -228.807251010012

DIPOLE MOMENT
-------------
                                X             Y             Z
Electronic contribution:      2.40328       2.58996      -2.31389
Nuclear contribution   :     -1.74195      -2.09431       1.58516
                        -----------------------------------------
Total Dipole Moment    :      0.66133       0.49565      -0.72873
                        -----------------------------------------
Magnitude (a.u.)       :      1.10185
Magnitude (Debye)      :      2.80068

Rotational constants in cm-1:     0.258965     0.126500     0.098780
Rotational constants in MHz :  7763.584551  3792.383135  2961.336502

                             ****ORCA TERMINATED NORMALLY****
TOTAL RUN TIME: 0 days 0 hours 0 minutes 19 seconds 115 msec
