                         Program Version 5.0.0 -  RELEASE  -
|  1> !wB97X-D3 RIJCOSX def2-SVP def2/J TightSCF
|  2>
|  3> *xyz 0 1
|  4> C          2.95263        1.86308       -3.57485
|  5> C          4.12921        0.89839       -3.41895
|  6> H          3.73369       -0.10060       -3.23763
|  7> H          4.71910        0.86256       -4.33901
|  8> C          5.01734        1.31521       -2.22130
|  9> F          4.73706        0.85411       -1.12283
| 10> O          5.92815        2.16811       -2.49136
| 11> H          2.35067        1.56005       -4.40594
| 12> H          3.32277        2.85258       -3.74453
| 13> H          2.36134        1.85149       -2.68315
| 14> *
| 15> %MaxCore 64000
| 16>
| 17> %pal nprocs 4
| 18> end
| 19>
| 20> %scf
| 21>   MaxIter 150
| 22> end
| 23>
| 24>
| 25>                          ****END OF INPUT****

CARTESIAN COORDINATES (ANGSTROEM)
---------------------------------
  C      2.952630    1.863080   -3.574850
  C      4.129210    0.898390   -3.418950
  H      3.733690   -0.100600   -3.237630
  H      4.719100    0.862560   -4.339010
  C      5.017340    1.315210   -2.221300
  F      4.737060    0.854110   -1.122830
  O      5.928150    2.168110   -2.491360
  H      2.350670    1.560050   -4.405940
  H      3.322770    2.852580   -3.744530
  H      2.361340    1.851490   -2.683150

 Total Charge           Charge          ....    0
 Multiplicity           Mult            ....    1
 Number of Electrons    NEL             ....   40
 Basis Dimension        Dim             ....   95

ORBITAL ENERGIES
----------------

  NO   OCC          E(Eh)            E(eV)
   0   2.0000     -24.872349      -676.8110
   1   2.0000     -19.235844      -523.4339
   2   2.0000     -10.464693      -284.7588
   3   2.0000     -10.315736      -280.7055
   4   2.0000     -10.296599      -280.1847
   5   2.0000      -1.440063       -39.1861
   6   2.0000      -1.118238       -30.4288
   7   2.0000      -0.909411       -24.7463
   8   2.0000      -0.794473       -21.6187
   9   2.0000      -0.750608       -20.4251
  10   2.0000      -0.664718       -18.0879
  11   2.0000      -0.649640       -17.6776
  12   2.0000      -0.602826       -16.4037
  13   2.0000      -0.563618       -15.3368
  14   2.0000      -0.530143       -14.4259
  15   2.0000      -0.494675       -13.4608
  16   2.0000      -0.471142       -12.8204
  17   2.0000      -0.465215       -12.6591
  18   2.0000      -0.432339       -11.7645
  19   2.0000      -0.374095       -10.1796
  20   0.0000       0.065005         1.7689
  21   0.0000       0.148049         4.0286
  22   0.0000       0.193415         5.2631
  23   0.0000       0.196529         5.3478
  24   0.0000       0.221898         6.0381

MULLIKEN ATOMIC CHARGES
-----------------------
   0 C :   -0.049722
   1 C :   -0.111409
   2 H :    0.041698
   3 H :    0.073273
   4 C :    0.250896
   5 F :   -0.044361
   6 O :   -0.299491
   7 H :    0.047627
   8 H :    0.054436
   9 H :    0.037053
Sum of atomic charges:    0.0000000

LOEWDIN ATOMIC CHARGES
----------------------
   0 C :   -0.043444
   1 C :   -0.072924
   2 H :    0.028074
   3 H :    0.046750
   4 C :    0.103991
   5 F :    0.079357
   6 O :   -0.229345
   7 H :    0.030702
   8 H :    0.031488
   9 H :    0.025352

  Mayer bond orders larger than 0.100000
B(  0-C ,  1-C ) :   1.0732 B(  0-C ,  7-H ) :   0.9751 B(  0-C ,  8-H ) :   0.9748
B(  0-C ,  9-H ) :   0.9769 B(  1-C ,  2-H ) :   0.9434 B(  1-C ,  3-H ) :   0.9509
B(  1-C ,  4-C ) :   0.9894 B(  4-C ,  5-F ) :   1.2244 B(  4-C ,  6-O ) :   2.0389

Dispersion correction           -0.001949907
FINAL SINGLE POINT ENERGY      -292.084371992054

DIPOLE MOMENT
-------------
                                X             Y             Z
Electronic contribution:      5.09914      -1.15255       6.56510
Nuclear contribution   :     -6.06116       0.51860      -6.80802
                        -----------------------------------------
Total Dipole Moment    :     -0.96201      -0.63395      -0.24292
                        -----------------------------------------
Magnitude (a.u.)       :      1.17745
Magnitude (Debye)      :      2.99283

Rotational constants in cm-1:     0.276196     0.132056     0.105465
Rotational constants in MHz :  8280.156449  3958.940601  3161.775929

                             ****ORCA TERMINATED NORMALLY****
TOTAL RUN TIME: 0 days 0 hours 0 minutes 13 seconds 986 msec
