                         Program Version 5.0.0 -  RELEASE  -
|  1> !wB97X-D3 RIJCOSX def2-SVP def2/J TightSCF
|  2>
|  3> *xyz 0 1
|  4> C          3.34350        3.35457       -3.59200
|  5> C          2.95263        1.86308       -3.57485
|  6> C          4.25587        3.70385       -4.72605
|  7> C          3.73403        4.29378       -5.80077
|  8> N          5.51504        3.40725       -4.63718
|  9> H          6.14919        3.60120       -5.39905
| 10> H          5.81358        2.89950       -3.80879
| 11> H          2.74138        4.51311       -5.82470
| 12> H          4.28755        4.52126       -6.61434
| 13> H          3.86125        3.59725       -2.66298
| 14> H          2.44649        3.97346       -3.65656
| 15> H          2.44395        1.61721       -4.48352
| 16> H          2.30781        1.67290       -2.74242
| 17> H          3.83491        1.26414       -3.48670
| 18> *
| 19> %MaxCore 64000
| 20>
| 21> %pal nprocs 4
| 22> end
| 23>
| 24> %scf
| 25>   MaxIter 150
| 26> end
| 27>
| 28>
| 29>                          ****END OF INPUT****

CARTESIAN COORDINATES (ANGSTROEM)
---------------------------------
  C      3.343500    3.354570   -3.592000
  C      2.952630    1.863080   -3.574850
  C      4.255870    3.703850   -4.726050
  C      3.734030    4.293780   -5.800770
  N      5.515040    3.407250   -4.637180
  H      6.149190    3.601200   -5.399050
  H      5.813580    2.899500   -3.808790
  H      2.741380    4.513110   -5.824700
  H      4.287550    4.521260   -6.614340
  H      3.861250    3.597250   -2.662980
  H      2.446490    3.973460   -3.656560
  H      2.443950    1.617210   -4.483520
  H      2.307810    1.672900   -2.742420
  H      3.834910    1.264140   -3.486700

 Total Charge           Charge          ....    0
 Multiplicity           Mult            ....    1
 Number of Electrons    NEL             ....   40
 Basis Dimension        Dim             ....  115

ORBITAL ENERGIES
----------------

  NO   OCC          E(Eh)            E(eV)
   0   2.0000     -14.433472      -392.7547
   1   2.0000     -10.304004      -280.3862
   2   2.0000     -10.285972      -279.8955
   3   2.0000     -10.275459      -279.6095
   4   2.0000     -10.214749      -277.9575
   5   2.0000      -1.040296       -28.3079
   6   2.0000      -0.884967       -24.0812
   7   2.0000      -0.816707       -22.2237
   8   2.0000      -0.739044       -20.1104
   9   2.0000      -0.668501       -18.1908
  10   2.0000      -0.629594       -17.1321
  11   2.0000      -0.577068       -15.7028
  12   2.0000      -0.535340       -14.5673
  13   2.0000      -0.517495       -14.0818
  14   2.0000      -0.486846       -13.2478
  15   2.0000      -0.475702       -12.9445
  16   2.0000      -0.446630       -12.1534
  17   2.0000      -0.425055       -11.5663
  18   2.0000      -0.422963       -11.5094
  19   2.0000      -0.267804        -7.2873
  20   0.0000       0.130629         3.5546
  21   0.0000       0.149078         4.0566
  22   0.0000       0.183217         4.9856
  23   0.0000       0.190660         5.1881
  24   0.0000       0.204526         5.5654

MULLIKEN ATOMIC CHARGES
-----------------------
   0 C :   -0.011643
   1 C :   -0.000247
   2 C :   -0.145499
   3 C :   -0.080808
   4 N :   -0.075381
   5 H :    0.129590
   6 H :    0.121240
   7 H :   -0.022932
   8 H :   -0.037743
   9 H :    0.016230
  10 H :    0.033256
  11 H :    0.030712
  12 H :    0.031464
  13 H :    0.011762
Sum of atomic charges:    0.0000000

LOEWDIN ATOMIC CHARGES
----------------------
   0 C :   -0.032041
   1 C :   -0.047615
   2 C :    0.002250
   3 C :   -0.189863
   4 N :   -0.001482
   5 H :    0.081805
   6 H :    0.074803
   7 H :   -0.000094
   8 H :   -0.008784
   9 H :    0.019747
  10 H :    0.035750
  11 H :    0.026120
  12 H :    0.023273
  13 H :    0.016131

  Mayer bond orders larger than 0.100000
B(  0-C ,  1-C ) :   1.0774 B(  0-C ,  2-C ) :   1.0149 B(  0-C ,  9-H ) :   0.9428
B(  0-C , 10-H ) :   0.9440 B(  1-C , 11-H ) :   0.9731 B(  1-C , 12-H ) :   0.9745
B(  1-C , 13-H ) :   0.9738 B(  2-C ,  3-C ) :   1.8478 B(  2-C ,  4-N ) :   1.2780
B(  3-C ,  7-H ) :   0.9506 B(  3-C ,  8-H ) :   0.9638 B(  4-N ,  5-H ) :   0.9474
B(  4-N ,  6-H ) :   0.9484

Dispersion correction           -0.003012613
FINAL SINGLE POINT ENERGY      -212.347577963349

DIPOLE MOMENT
-------------
                                X             Y             Z
Electronic contribution:      2.38730       1.44509      -0.82717
Nuclear contribution   :     -1.79713      -1.86925       1.28073
                        -----------------------------------------
Total Dipole Moment    :      0.59017      -0.42415       0.45357
                        -----------------------------------------
Magnitude (a.u.)       :      0.85670
Magnitude (Debye)      :      2.17756

Rotational constants in cm-1:     0.269040     0.129645     0.102087
Rotational constants in MHz :  8065.609820  3886.645139  3060.489045

                             ****ORCA TERMINATED NORMALLY****
TOTAL RUN TIME: 0 days 0 hours 0 minutes 19 seconds 298 msec
