                         Program Version 5.0.0 -  RELEASE  -
|  1> !wB97X-D3 RIJCOSX def2-SVP def2/J TightSCF
|  2>
|  3> *xyz 0 1
|  4> C          2.95263        1.86308       -3.57485
|  5> C          4.12921        0.89839       -3.41895
|  6> H          3.73369       -0.10060       -3.23763
|  7> H          4.71910        0.86256       -4.33901
|  8> C          5.01734        1.31521       -2.22130
|  9> O          4.73706        0.85411       -1.12283
| 10> F          5.92815        2.16811       -2.49136
| 11> H          2.35067        1.56005       -4.40594
| 12> H          3.32277        2.85258       -3.74453
| 13> H          2.36134        1.85149       -2.68315
| 14> *
| 15> %MaxCore 64000
| 16>
| 17> %pal nprocs 4
| 18> end
| 19>
| 20> %scf
| 21>   MaxIter 150
| 22> end
| 23>
| 24>
| 25>                          ****END OF INPUT****

CARTESIAN COORDINATES (ANGSTROEM)
---------------------------------
  C      2.952630    1.863080   -3.574850
  C      4.129210    0.898390   -3.418950
  H      3.733690   -0.100600   -3.237630
  H      4.719100    0.862560   -4.339010
  C      5.017340    1.315210   -2.221300
  O      4.737060    0.854110   -1.122830
  F      5.928150    2.168110   -2.491360
  H      2.350670    1.560050   -4.405940
  H      3.322770    2.852580   -3.744530
  H      2.361340    1.851490   -2.683150

 Total Charge           Charge          ....    0
 Multiplicity           Mult            ....    1
 Number of Electrons    NEL             ....   40
 Basis Dimension        Dim             ....   95

ORBITAL ENERGIES
----------------

  NO   OCC          E(Eh)            E(eV)
   0   2.0000     -24.850627      -676.2199
   1   2.0000     -19.246431      -523.7220
   2   2.0000     -10.461419      -284.6697
   3   2.0000     -10.315424      -280.6969
   4   2.0000     -10.297036      -280.1966
   5   2.0000      -1.398452       -38.0538
   6   2.0000      -1.152795       -31.3691
   7   2.0000      -0.909426       -24.7468
   8   2.0000      -0.784471       -21.3465
   9   2.0000      -0.735802       -20.0222
  10   2.0000      -0.644480       -17.5372
  11   2.0000      -0.629152       -17.1201
  12   2.0000      -0.602336       -16.3904
  13   2.0000      -0.562376       -15.3030
  14   2.0000      -0.534225       -14.5370
  15   2.0000      -0.498535       -13.5658
  16   2.0000      -0.479859       -13.0576
  17   2.0000      -0.465039       -12.6544
  18   2.0000      -0.450639       -12.2625
  19   2.0000      -0.385873       -10.5002
  20   0.0000       0.070331         1.9138
  21   0.0000       0.148245         4.0339
  22   0.0000       0.192243         5.2312
  23   0.0000       0.197540         5.3753
  24   0.0000       0.221714         6.0331

MULLIKEN ATOMIC CHARGES
-----------------------
   0 C :   -0.052218
   1 C :   -0.113086
   2 H :    0.066843
   3 H :    0.049794
   4 C :    0.257708
   5 O :   -0.236294
   6 F :   -0.113292
   7 H :    0.048098
   8 H :    0.040225
   9 H :    0.052223
Sum of atomic charges:   -0.0000000

LOEWDIN ATOMIC CHARGES
----------------------
   0 C :   -0.043792
   1 C :   -0.073437
   2 H :    0.043982
   3 H :    0.031966
   4 C :    0.112618
   5 O :   -0.170392
   6 F :    0.011197
   7 H :    0.030887
   8 H :    0.025863
   9 H :    0.031106

  Mayer bond orders larger than 0.100000
B(  0-C ,  1-C ) :   1.0735 B(  0-C ,  7-H ) :   0.9753 B(  0-C ,  8-H ) :   0.9773
B(  0-C ,  9-H ) :   0.9749 B(  1-C ,  2-H ) :   0.9519 B(  1-C ,  3-H ) :   0.9445
B(  1-C ,  4-C ) :   0.9877 B(  4-C ,  5-O ) :   2.1129 B(  4-C ,  6-F ) :   1.1521

Dispersion correction           -0.001946743
FINAL SINGLE POINT ENERGY      -292.101267195076

DIPOLE MOMENT
-------------
                                X             Y             Z
Electronic contribution:      7.06498       1.02102       4.28945
Nuclear contribution   :     -7.35982      -0.91407      -5.31589
                        -----------------------------------------
Total Dipole Moment    :     -0.29483       0.10695      -1.02645
                        -----------------------------------------
Magnitude (a.u.)       :      1.07330
Magnitude (Debye)      :      2.72810

Rotational constants in cm-1:     0.275433     0.132201     0.105422
Rotational constants in MHz :  8257.268192  3963.279062  3160.465566

                             ****ORCA TERMINATED NORMALLY****
TOTAL RUN TIME: 0 days 0 hours 0 minutes 13 seconds 548 msec
