                         Program Version 5.0.0 -  RELEASE  -
|  1> !wB97X-D3 RIJCOSX def2-SVP def2/J TightSCF
|  2>
|  3> *xyz 0 1
|  4> C          3.34350        3.35457       -3.59200
|  5> C          2.95263        1.86308       -3.57485
|  6> C          4.25587        3.70385       -4.72605
|  7> N          3.73403        4.29378       -5.80077
|  8> C          5.51504        3.40725       -4.63718
|  9> H          6.14919        3.60120       -5.39905
| 10> H          5.81358        2.89950       -3.80879
| 11> H          2.74138        4.51311       -5.82470
| 12> H          4.28755        4.52126       -6.61434
| 13> H          3.86125        3.59725       -2.66298
| 14> H          2.44649        3.97346       -3.65656
| 15> H          2.44395        1.61721       -4.48352
| 16> H          2.30781        1.67290       -2.74242
| 17> H          3.83491        1.26414       -3.48670
| 18> *
| 19> %MaxCore 64000
| 20>
| 21> %pal nprocs 4
| 22> end
| 23>
| 24> %scf
| 25>   MaxIter 150
| 26> end
| 27>
| 28>
| 29>                          ****END OF INPUT****

CARTESIAN COORDINATES (ANGSTROEM)
---------------------------------
  C      3.343500    3.354570   -3.592000
  C      2.952630    1.863080   -3.574850
  C      4.255870    3.703850   -4.726050
  N      3.734030    4.293780   -5.800770
  C      5.515040    3.407250   -4.637180
  H      6.149190    3.601200   -5.399050
  H      5.813580    2.899500   -3.808790
  H      2.741380    4.513110   -5.824700
  H      4.287550    4.521260   -6.614340
  H      3.861250    3.597250   -2.662980
  H      2.446490    3.973460   -3.656560
  H      2.443950    1.617210   -4.483520
  H      2.307810    1.672900   -2.742420
  H      3.834910    1.264140   -3.486700

 Total Charge           Charge          ....    0
 Multiplicity           Mult            ....    1
 Number of Electrons    NEL             ....   40
 Basis Dimension        Dim             ....  115

ORBITAL ENERGIES
----------------

  NO   OCC          E(Eh)            E(eV)
   0   2.0000     -14.428509      -392.6197
   1   2.0000     -10.301449      -280.3167
   2   2.0000     -10.285428      -279.8807
   3   2.0000     -10.273101      -279.5453
   4   2.0000     -10.213634      -277.9271
   5   2.0000      -1.024987       -27.8913
   6   2.0000      -0.886959       -24.1354
   7   2.0000      -0.820643       -22.3308
   8   2.0000      -0.740264       -20.1436
   9   2.0000      -0.661590       -18.0028
  10   2.0000      -0.616929       -16.7875
  11   2.0000      -0.580600       -15.7989
  12   2.0000      -0.537246       -14.6192
  13   2.0000      -0.509732       -13.8705
  14   2.0000      -0.486567       -13.2402
  15   2.0000      -0.477345       -12.9892
  16   2.0000      -0.441967       -12.0265
  17   2.0000      -0.428504       -11.6602
  18   2.0000      -0.419240       -11.4081
  19   2.0000      -0.272788        -7.4229
  20   0.0000       0.133858         3.6424
  21   0.0000       0.151008         4.1091
  22   0.0000       0.182906         4.9771
  23   0.0000       0.189109         5.1459
  24   0.0000       0.208570         5.6755

MULLIKEN ATOMIC CHARGES
-----------------------
   0 C :   -0.009381
   1 C :   -0.001751
   2 C :   -0.107875
   3 N :   -0.128463
   4 C :   -0.063903
   5 H :   -0.035966
   6 H :   -0.022617
   7 H :    0.119353
   8 H :    0.123455
   9 H :    0.040859
  10 H :    0.006023
  11 H :    0.022439
  12 H :    0.027957
  13 H :    0.029871
Sum of atomic charges:   -0.0000000

LOEWDIN ATOMIC CHARGES
----------------------
   0 C :   -0.032895
   1 C :   -0.044200
   2 C :    0.009685
   3 N :   -0.024532
   4 C :   -0.174051
   5 H :   -0.004598
   6 H :    0.002633
   7 H :    0.071169
   8 H :    0.075864
   9 H :    0.035966
  10 H :    0.017783
  11 H :    0.021448
  12 H :    0.021368
  13 H :    0.024361

  Mayer bond orders larger than 0.100000
B(  0-C ,  1-C ) :   1.0842 B(  0-C ,  2-C ) :   0.9980 B(  0-C ,  9-H ) :   0.9465
B(  0-C , 10-H ) :   0.9449 B(  1-C , 11-H ) :   0.9726 B(  1-C , 12-H ) :   0.9742
B(  1-C , 13-H ) :   0.9763 B(  2-C ,  3-N ) :   1.2363 B(  2-C ,  4-C ) :   1.8882
B(  3-N ,  7-H ) :   0.9529 B(  3-N ,  8-H ) :   0.9536 B(  4-C ,  5-H ) :   0.9615
B(  4-C ,  6-H ) :   0.9430

Dispersion correction           -0.002997876
FINAL SINGLE POINT ENERGY      -212.347552426623

DIPOLE MOMENT
-------------
                                X             Y             Z
Electronic contribution:      0.72673       2.29154      -1.89872
Nuclear contribution   :     -1.38463      -2.07457       1.55023
                        -----------------------------------------
Total Dipole Moment    :     -0.65789       0.21696      -0.34849
                        -----------------------------------------
Magnitude (a.u.)       :      0.77546
Magnitude (Debye)      :      1.97107

Rotational constants in cm-1:     0.272312     0.128195     0.101724
Rotational constants in MHz :  8163.717141  3843.180148  3049.598073

                             ****ORCA TERMINATED NORMALLY****
TOTAL RUN TIME: 0 days 0 hours 0 minutes 18 seconds 736 msec
