                         Program Version 5.0.0 -  RELEASE  -
|  1> !wB97X-D3 RIJCOSX def2-SVP def2/J TightSCF xyzfile
|  2>
|  3> *xyzfile 0 1 D3.xyz
|  4>
|  5> %MaxCore 64000
|  6>
|  7> %pal nprocs 18
|  8> end
|  9>
| 10> %scf
| 11>   MaxIter 150
| 12> end
| 13>
| 14>
| 15>                          ****END OF INPUT****

CARTESIAN COORDINATES (ANGSTROEM)
---------------------------------
  C      3.343500    3.354571   -3.591998
  C      2.952633    1.863077   -3.574849
  C      4.129209    0.898394   -3.418950
  H      3.733687   -0.100605   -3.237633
  H      4.719095    0.862556   -4.339005
  C      5.017344    1.315212   -2.221305
  C      4.255868    3.703851   -4.726054
  C      3.734032    4.293783   -5.800770
  N      5.515039    3.407255   -4.637185
  H      6.149187    3.601203   -5.399053
  H      5.813584    2.899504   -3.808785
  H      2.741380    4.513109   -5.824701
  H      4.287548    4.521260   -6.614341
  H      2.278938    1.735250   -2.725496
  H      2.377466    1.625787   -4.475869
  O      4.737055    0.854112   -1.122825
  F      5.928146    2.168108   -2.491365
  H      3.861246    3.597252   -2.662979
  H      2.446493    3.973461   -3.656556

 Total Charge           Charge          ....    0
 Multiplicity           Mult            ....    1
 Number of Electrons    NEL             ....   70
 Basis Dimension        Dim             ....  176

ORBITAL ENERGIES
----------------

  NO   OCC          E(Eh)            E(eV)
   0   2.0000     -24.887372      -677.2198
   1   2.0000     -19.266488      -524.2678
   2   2.0000     -14.422297      -392.4506
   3   2.0000     -10.482264      -285.2369
   4   2.0000     -10.323205      -280.9087
   5   2.0000     -10.310401      -280.5603
   6   2.0000     -10.308119      -280.4982
   7   2.0000     -10.297906      -280.2203
   8   2.0000     -10.218363      -278.0558
   9   2.0000      -1.440013       -39.1848
  10   2.0000      -1.172497       -31.9053
  11   2.0000      -1.041441       -28.3390
  12   2.0000      -0.933325       -25.3971
  13   2.0000      -0.863549       -23.4984
  14   2.0000      -0.821678       -22.3590
  15   2.0000      -0.782996       -21.3064
  16   2.0000      -0.744513       -20.2592
  17   2.0000      -0.689080       -18.7508
  18   2.0000      -0.674219       -18.3464
  19   2.0000      -0.653792       -17.7906
  20   2.0000      -0.627230       -17.0678
  21   2.0000      -0.603811       -16.4305
  22   2.0000      -0.583426       -15.8758
  23   2.0000      -0.569594       -15.4994
  24   2.0000      -0.545246       -14.8369
  25   2.0000      -0.522563       -14.2197
  26   2.0000      -0.497940       -13.5496
  27   2.0000      -0.489415       -13.3176
  28   2.0000      -0.480589       -13.0775
  29   2.0000      -0.471873       -12.8403
  30   2.0000      -0.452985       -12.3264
  31   2.0000      -0.428893       -11.6708
  32   2.0000      -0.425985       -11.5916
  33   2.0000      -0.401508       -10.9256
  34   2.0000      -0.269505        -7.3336
  35   0.0000       0.050764         1.3814
  36   0.0000       0.130695         3.5564
  37   0.0000       0.150274         4.0892
  38   0.0000       0.173048         4.7089
  39   0.0000       0.180523         4.9123

MULLIKEN ATOMIC CHARGES
-----------------------
   0 C :    0.007129
   1 C :   -0.032649
   2 C :   -0.074592
   3 H :    0.072432
   4 H :    0.057853
   5 C :    0.250500
   6 C :   -0.137094
   7 C :   -0.080201
   8 N :   -0.097546
   9 H :    0.124189
  10 H :    0.124810
  11 H :   -0.026718
  12 H :   -0.036260
  13 H :    0.048656
  14 H :    0.047754
  15 O :   -0.209301
  16 F :   -0.111829
  17 H :    0.032543
  18 H :    0.040326
Sum of atomic charges:   -0.0000000

LOEWDIN ATOMIC CHARGES
----------------------
   0 C :   -0.033482
   1 C :   -0.021057
   2 C :   -0.071680
   3 H :    0.049278
   4 H :    0.033760
   5 C :    0.117181
   6 C :   -0.000417
   7 C :   -0.190052
   8 N :   -0.011735
   9 H :    0.078059
  10 H :    0.020626
  11 H :   -0.001422
  12 H :   -0.007748
  13 H :    0.030884
  14 H :    0.034991
  15 O :   -0.149859
  16 F :    0.059678
  17 H :    0.020246
  18 H :    0.042749

  Mayer bond orders larger than 0.100000
B(  0-C ,  1-C ) :   1.0818 B(  0-C ,  6-C ) :   1.0074 B(  0-C , 17-H ) :   0.9277
B(  0-C , 18-H ) :   0.9327 B(  1-C ,  2-C ) :   1.0651 B(  1-C , 13-H ) :   0.9522
B(  1-C , 14-H ) :   0.9498 B(  2-C ,  3-H ) :   0.9422 B(  2-C ,  4-H ) :   0.9243
B(  2-C ,  5-C ) :   0.9908 B(  5-C , 15-O ) :   2.1538 B(  5-C , 16-F ) :   1.0392
B(  6-C ,  7-C ) :   1.8514 B(  6-C ,  8-N ) :   1.2776 B(  7-C , 11-H ) :   0.9477
B(  7-C , 12-H ) :   0.9643 B(  8-N ,  9-H ) :   0.9454 B(  8-N , 10-H ) :   0.9197

Dispersion correction           -0.006980446
FINAL SINGLE POINT ENERGY      -463.967824297350

DIPOLE MOMENT
-------------
                                X             Y             Z
Electronic contribution:      7.51801      -3.61022       8.13353
Nuclear contribution   :     -7.21688       3.18902      -8.52197
                        -----------------------------------------
Total Dipole Moment    :      0.30113      -0.42120      -0.38845
                        -----------------------------------------
Magnitude (a.u.)       :      0.64728
Magnitude (Debye)      :      1.64526

Rotational constants in cm-1:     0.103917     0.036987     0.030872
Rotational constants in MHz :  3115.342573  1108.839114   925.506342

                             ****ORCA TERMINATED NORMALLY****
TOTAL RUN TIME: 0 days 0 hours 0 minutes 19 seconds 855 msec
