                         Program Version 5.0.0 -  RELEASE  -
|  1> !TPSS D3BJ RIJCOSX def2-SVPD def2/J TightSCF xyzfile
|  2>
|  3> *xyzfile 0 1 D1.xyz
|  4>
|  5> %MaxCore 64000
|  6>
|  7> %pal nprocs 4
|  8> end
|  9>
| 10> %scf
| 11>   MaxIter 150
| 12> end
| 13>
| 14>
| 15>                          ****END OF INPUT****

CARTESIAN COORDINATES (ANGSTROEM)
---------------------------------
  C      3.913853   -1.658291    3.015134
  C      5.039266   -0.901154    2.492821
  C      4.084215    1.742081   -2.114724
  C      4.265245    2.500518   -0.795890
  H      4.868534    3.392674   -0.981134
  H      3.307640    2.824571   -0.387809
  C      4.982240    1.650257    0.247422
  C      6.210384   -1.417261    2.178244
  N      6.535913   -2.677122    2.556078
  N      7.076754   -0.700820    1.478906
  H      7.954643   -1.121554    1.207554
  H      6.756161    0.106637    0.960278
  H      4.842168    0.017609    2.115191
  H      5.993876   -3.126918    3.282784
  H      7.498441   -2.975482    2.468776
  F      4.368065    1.389270    1.313706
  O      6.128919    1.233512   -0.045620
  C      3.139159   -2.376572    1.910609
  H      3.267235   -0.939401    3.520693
  H      4.247195   -2.355095    3.790065
  C      1.997274    0.430918   -1.399218
  C      3.412746    0.376886   -1.965497
  H      4.047407   -0.246590   -1.326706
  H      3.390774   -0.118719   -2.942839
  H      5.068475    1.598504   -2.565728
  H      3.503356    2.363939   -2.804565
  C      2.399946   -1.389579    1.009490
  H      2.440750   -3.087118    2.362976
  H      3.844475   -2.970462    1.318677
  C      2.070177   -1.936705   -0.372401
  H      1.481611   -1.061542    1.509912
  H      3.008628   -0.490001    0.897451
  C      1.322238   -0.935775   -1.256413
  H      1.472747   -2.850902   -0.283997
  H      3.003539   -2.234041   -0.862535
  H      1.376444    1.058920   -2.047420
  H      2.015341    0.929780   -0.426535
  H      0.316648   -0.787213   -0.848278
  H      1.185611   -1.379252   -2.248613

 Total Charge           Charge          ....    0
 Multiplicity           Mult            ....    1
 Number of Electrons    NEL             ....  126
 Basis Dimension        Dim             ....  510

ORBITAL ENERGIES
----------------

  NO   OCC          E(Eh)            E(eV)
   0   2.0000     -24.509993      -666.9508
   1   2.0000     -18.928576      -515.0727
   2   2.0000     -14.104224      -383.7955
   3   2.0000     -14.079300      -383.1172
   4   2.0000     -10.189852      -277.2800
   5   2.0000     -10.038722      -273.1675
   6   2.0000     -10.019848      -272.6539
   7   2.0000     -10.016612      -272.5659
   8   2.0000     -10.004271      -272.2300
   9   2.0000      -9.999163      -272.0910
  10   2.0000      -9.992793      -271.9177
  11   2.0000      -9.985295      -271.7137
  12   2.0000      -9.978939      -271.5407
  13   2.0000      -9.970347      -271.3069
  14   2.0000      -9.965922      -271.1865
  15   2.0000      -9.898681      -269.3568
  16   2.0000      -1.241195       -33.7746
  17   2.0000      -0.981856       -26.7177
  18   2.0000      -0.864005       -23.5108
  19   2.0000      -0.779190       -21.2028
  20   2.0000      -0.766601       -20.8603
  21   2.0000      -0.738367       -20.0920
  22   2.0000      -0.710941       -19.3457
  23   2.0000      -0.683637       -18.6027
  24   2.0000      -0.647898       -17.6302
  25   2.0000      -0.627687       -17.0802
  26   2.0000      -0.603178       -16.4133
  27   2.0000      -0.580138       -15.7864
  28   2.0000      -0.551178       -14.9983
  29   2.0000      -0.534930       -14.5562
  30   2.0000      -0.514806       -14.0086
  31   2.0000      -0.509535       -13.8652
  32   2.0000      -0.501841       -13.6558
  33   2.0000      -0.500514       -13.6197
  34   2.0000      -0.477628       -12.9969
  35   2.0000      -0.469405       -12.7732
  36   2.0000      -0.443673       -12.0730
  37   2.0000      -0.436888       -11.8883
  38   2.0000      -0.434769       -11.8307
  39   2.0000      -0.417471       -11.3600
  40   2.0000      -0.405324       -11.0294
  41   2.0000      -0.394608       -10.7378
  42   2.0000      -0.386153       -10.5078
  43   2.0000      -0.377771       -10.2797
  44   2.0000      -0.372675       -10.1410
  45   2.0000      -0.368387       -10.0243
  46   2.0000      -0.353260        -9.6127
  47   2.0000      -0.348457        -9.4820
  48   2.0000      -0.332895        -9.0585
  49   2.0000      -0.328690        -8.9441
  50   2.0000      -0.323582        -8.8051
  51   2.0000      -0.320870        -8.7313
  52   2.0000      -0.311854        -8.4860
  53   2.0000      -0.302687        -8.2365
  54   2.0000      -0.300504        -8.1771
  55   2.0000      -0.285433        -7.7670
  56   2.0000      -0.278363        -7.5746
  57   2.0000      -0.270861        -7.3705
  58   2.0000      -0.267604        -7.2819
  59   2.0000      -0.265205        -7.2166
  60   2.0000      -0.257756        -7.0139
  61   2.0000      -0.204235        -5.5575
  62   2.0000      -0.114421        -3.1136
  63   0.0000      -0.084086        -2.2881
  64   0.0000       0.002917         0.0794
  65   0.0000       0.016014         0.4358
  66   0.0000       0.019973         0.5435
  67   0.0000       0.023136         0.6296

MULLIKEN ATOMIC CHARGES
-----------------------
   0 C :    0.560485
   1 C :    0.077582
   2 C :    0.352277
   3 C :    0.204235
   4 H :   -0.087402
   5 H :    0.194728
   6 C :    0.588112
   7 C :    0.805364
   8 N :   -0.056103
   9 N :    0.281598
  10 H :   -0.179640
  11 H :   -0.321253
  12 H :   -0.556324
  13 H :   -0.023402
  14 H :   -0.283294
  15 F :   -0.522052
  16 O :   -0.521368
  17 C :    0.322075
  18 H :    0.026791
  19 H :   -0.223016
  20 C :   -0.155428
  21 C :   -0.155436
  22 H :    0.000742
  23 H :   -0.126807
  24 H :    0.053314
  25 H :   -0.089807
  26 C :    0.538656
  27 H :   -0.064166
  28 H :   -0.040232
  29 C :   -0.070680
  30 H :    0.082275
  31 H :   -0.921981
  32 C :    0.625435
  33 H :   -0.373458
  34 H :    0.169689
  35 H :   -0.379895
  36 H :    0.206604
  37 H :    0.041572
  38 H :    0.020209
Sum of atomic charges:   -0.0000000

LOEWDIN ATOMIC CHARGES
----------------------
   0 C :   -0.042679
   1 C :   -0.016786
   2 C :   -0.003971
   3 C :    0.066618
   4 H :    0.039183
   5 H :    0.018948
   6 C :    0.050577
   7 C :   -0.196078
   8 N :    0.203177
   9 N :    0.209417
  10 H :   -0.010361
  11 H :   -0.119201
  12 H :   -0.110715
  13 H :   -0.020820
  14 H :   -0.018523
  15 F :   -0.027455
  16 O :   -0.094876
  17 C :   -0.020122
  18 H :    0.012993
  19 H :   -0.006309
  20 C :   -0.028198
  21 C :   -0.018658
  22 H :    0.012263
  23 H :    0.028662
  24 H :    0.025345
  25 H :    0.025556
  26 C :   -0.024950
  27 H :    0.011722
  28 H :    0.015533
  29 C :   -0.031001
  30 H :    0.030263
  31 H :   -0.026220
  32 C :   -0.023583
  33 H :    0.020141
  34 H :    0.014411
  35 H :    0.020277
  36 H :    0.000473
  37 H :    0.018411
  38 H :    0.016538

  Mayer bond orders larger than 0.100000
B(  0-C ,  1-C ) :   0.8957 B(  0-C , 12-H ) :   0.7068 B(  0-C , 17-C ) :   1.0074
B(  0-C , 18-H ) :   0.7125 B(  0-C , 19-H ) :   0.6504 B(  0-C , 28-H ) :   0.1135
B(  1-C ,  7-C ) :   1.7698 B(  1-C ,  8-N ) :   0.2943 B(  1-C ,  9-N ) :   0.2587
B(  1-C , 13-H ) :  -0.1396 B(  1-C , 18-H ) :   0.2764 B(  1-C , 19-H ) :   0.3121
B(  2-C ,  3-C ) :   1.1601 B(  2-C ,  4-H ) :   0.1658 B(  2-C , 21-C ) :   1.2570
B(  2-C , 22-H ) :   0.1083 B(  2-C , 24-H ) :   0.6900 B(  2-C , 25-H ) :   0.8381
B(  3-C ,  4-H ) :   0.6658 B(  3-C ,  5-H ) :   0.7600 B(  3-C ,  6-C ) :   1.2467
B(  3-C , 21-C ) :   0.1029 B(  3-C , 24-H ) :   0.1102 B(  3-C , 25-H ) :   0.1419
B(  4-H ,  6-C ) :   0.2708 B(  5-H ,  6-C ) :   0.1744 B(  6-C , 15-F ) :   0.6904
B(  6-C , 16-O ) :   1.5652 B(  7-C ,  8-N ) :   0.7675 B(  7-C ,  9-N ) :   0.7616
B(  7-C , 11-H ) :  -0.2707 B(  7-C , 12-H ) :   0.3274 B(  7-C , 14-H ) :  -0.1869
B(  7-C , 19-H ) :  -0.1021 B(  8-N ,  9-N ) :   0.1108 B(  8-N , 13-H ) :   1.0166
B(  8-N , 14-H ) :   1.3375 B(  9-N , 10-H ) :   1.1783 B(  9-N , 11-H ) :   1.1579
B( 10-H , 11-H ) :  -0.2097 B( 12-H , 15-F ) :   0.1710 B( 13-H , 14-H ) :  -0.1838
B( 15-F , 31-H ) :   0.1035 B( 17-C , 26-C ) :   1.1273 B( 17-C , 27-H ) :   0.8623
B( 17-C , 28-H ) :   0.9078 B( 17-C , 30-H ) :   0.1515 B( 18-H , 19-H ) :  -0.1114
B( 20-C , 21-C ) :   1.2190 B( 20-C , 23-H ) :   0.1443 B( 20-C , 29-C ) :   0.1252
B( 20-C , 32-C ) :   1.1470 B( 20-C , 35-H ) :   1.0692 B( 20-C , 36-H ) :   0.8084
B( 20-C , 37-H ) :   0.2531 B( 20-C , 38-H ) :   0.1309 B( 21-C , 22-H ) :   0.9304
B( 21-C , 23-H ) :   0.8855 B( 21-C , 24-H ) :   0.2188 B( 21-C , 25-H ) :   0.1711
B( 21-C , 35-H ) :   0.1086 B( 24-H , 25-H ) :  -0.1028 B( 26-C , 27-H ) :   0.1712
B( 26-C , 28-H ) :   0.1271 B( 26-C , 29-C ) :   1.2360 B( 26-C , 30-H ) :   0.6431
B( 26-C , 31-H ) :   0.3749 B( 26-C , 33-H ) :   0.1244 B( 26-C , 34-H ) :   0.1215
B( 29-C , 31-H ) :   0.1505 B( 29-C , 32-C ) :   1.1124 B( 29-C , 33-H ) :   1.0539
B( 29-C , 34-H ) :   0.8283 B( 29-C , 37-H ) :   0.1167 B( 29-C , 38-H ) :   0.2223
B( 30-H , 31-H ) :   0.2319 B( 32-C , 37-H ) :   0.6789 B( 32-C , 38-H ) :   0.6921

Dispersion correction           -0.055555497
FINAL SINGLE POINT ENERGY      -755.314493011634

DIPOLE MOMENT
-------------
                                X             Y             Z
Electronic contribution:     11.33685       8.95662       5.91742
Nuclear contribution   :    -11.48003      -8.36271      -6.78621
                        -----------------------------------------
Total Dipole Moment    :     -0.14318       0.59390      -0.86879
                        -----------------------------------------
Magnitude (a.u.)       :      1.06208
Magnitude (Debye)      :      2.69960

Rotational constants in cm-1:     0.020055     0.013548     0.009477
Rotational constants in MHz :   601.234832   406.162779   284.104317

                             ****ORCA TERMINATED NORMALLY****
TOTAL RUN TIME: 0 days 0 hours 1 minutes 46 seconds 423 msec
