                         Program Version 5.0.0 -  RELEASE  -
|  1> !TPSS D3BJ RIJCOSX def2-SVPD def2/J TightSCF xyzfile
|  2>
|  3> *xyzfile 0 1 D3.xyz
|  4>
|  5> %MaxCore 64000
|  6>
|  7> %pal nprocs 4
|  8> end
|  9>
| 10> %scf
| 11>   MaxIter 150
| 12> end
| 13>
| 14>
| 15>                          ****END OF INPUT****

CARTESIAN COORDINATES (ANGSTROEM)
---------------------------------
  C      3.913853   -1.658291    3.015134
  N      5.039266   -0.901154    2.492821
  C      4.084215    1.742081   -2.114724
  C      4.265245    2.500518   -0.795890
  H      4.868534    3.392674   -0.981134
  H      3.307640    2.824571   -0.387809
  C      4.982240    1.650257    0.247422
  C      6.210384   -1.417261    2.178244
  N      6.535913   -2.677122    2.556078
  C      7.076754   -0.700820    1.478906
  H      7.954643   -1.121554    1.207554
  H      6.756161    0.106637    0.960278
  H      4.842168    0.017609    2.115191
  H      5.993876   -3.126918    3.282784
  H      7.498441   -2.975482    2.468776
  F      4.368065    1.389270    1.313706
  O      6.128919    1.233512   -0.045620
  C      3.139159   -2.376572    1.910609
  H      3.267235   -0.939401    3.520693
  H      4.247195   -2.355095    3.790065
  C      1.997274    0.430918   -1.399218
  C      3.412746    0.376886   -1.965497
  H      4.047407   -0.246590   -1.326706
  H      3.390774   -0.118719   -2.942839
  H      5.068475    1.598504   -2.565728
  H      3.503356    2.363939   -2.804565
  C      2.399946   -1.389579    1.009490
  H      2.440750   -3.087118    2.362976
  H      3.844475   -2.970462    1.318677
  C      2.070177   -1.936705   -0.372401
  H      1.481611   -1.061542    1.509912
  H      3.008628   -0.490001    0.897451
  C      1.322238   -0.935775   -1.256413
  H      1.472747   -2.850902   -0.283997
  H      3.003539   -2.234041   -0.862535
  H      1.376444    1.058920   -2.047420
  H      2.015341    0.929780   -0.426535
  H      0.316648   -0.787213   -0.848278
  H      1.185611   -1.379252   -2.248613

 Total Charge           Charge          ....    0
 Multiplicity           Mult            ....    1
 Number of Electrons    NEL             ....  126
 Basis Dimension        Dim             ....  510

ORBITAL ENERGIES
----------------

  NO   OCC          E(Eh)            E(eV)
   0   2.0000     -24.517229      -667.1477
   1   2.0000     -18.911924      -514.6196
   2   2.0000     -14.102596      -383.7511
   3   2.0000     -14.095881      -383.5684
   4   2.0000     -10.177571      -276.9458
   5   2.0000     -10.034509      -273.0529
   6   2.0000     -10.029689      -272.9217
   7   2.0000     -10.016986      -272.5760
   8   2.0000     -10.016515      -272.5632
   9   2.0000     -10.004764      -272.2435
  10   2.0000     -10.002874      -272.1920
  11   2.0000      -9.999391      -272.0973
  12   2.0000      -9.996385      -272.0155
  13   2.0000      -9.995934      -272.0032
  14   2.0000      -9.992519      -271.9103
  15   2.0000      -9.878777      -268.8152
  16   2.0000      -1.246878       -33.9293
  17   2.0000      -0.966875       -26.3100
  18   2.0000      -0.877352       -23.8740
  19   2.0000      -0.798749       -21.7351
  20   2.0000      -0.766782       -20.8652
  21   2.0000      -0.742839       -20.2137
  22   2.0000      -0.714985       -19.4557
  23   2.0000      -0.679309       -18.4849
  24   2.0000      -0.654396       -17.8070
  25   2.0000      -0.630263       -17.1503
  26   2.0000      -0.608356       -16.5542
  27   2.0000      -0.588568       -16.0157
  28   2.0000      -0.555634       -15.1196
  29   2.0000      -0.547884       -14.9087
  30   2.0000      -0.530995       -14.4491
  31   2.0000      -0.516275       -14.0486
  32   2.0000      -0.510327       -13.8867
  33   2.0000      -0.491379       -13.3711
  34   2.0000      -0.481220       -13.0947
  35   2.0000      -0.462701       -12.5907
  36   2.0000      -0.446543       -12.1511
  37   2.0000      -0.438982       -11.9453
  38   2.0000      -0.430607       -11.7174
  39   2.0000      -0.419105       -11.4044
  40   2.0000      -0.416806       -11.3419
  41   2.0000      -0.401269       -10.9191
  42   2.0000      -0.390290       -10.6203
  43   2.0000      -0.387880       -10.5548
  44   2.0000      -0.375659       -10.2222
  45   2.0000      -0.362710        -9.8698
  46   2.0000      -0.356188        -9.6924
  47   2.0000      -0.350852        -9.5472
  48   2.0000      -0.335687        -9.1345
  49   2.0000      -0.331075        -9.0090
  50   2.0000      -0.327323        -8.9069
  51   2.0000      -0.326594        -8.8871
  52   2.0000      -0.317577        -8.6417
  53   2.0000      -0.311056        -8.4643
  54   2.0000      -0.305801        -8.3213
  55   2.0000      -0.302721        -8.2375
  56   2.0000      -0.295880        -8.0513
  57   2.0000      -0.284561        -7.7433
  58   2.0000      -0.283064        -7.7026
  59   2.0000      -0.278899        -7.5892
  60   2.0000      -0.229304        -6.2397
  61   2.0000      -0.201468        -5.4822
  62   2.0000      -0.112607        -3.0642
  63   0.0000      -0.075754        -2.0614
  64   0.0000       0.001941         0.0528
  65   0.0000       0.013101         0.3565
  66   0.0000       0.015913         0.4330
  67   0.0000       0.020989         0.5711

MULLIKEN ATOMIC CHARGES
-----------------------
   0 C :    1.125152
   1 N :    0.221664
   2 C :    0.346462
   3 C :    0.232998
   4 H :   -0.091596
   5 H :    0.188530
   6 C :    0.565827
   7 C :    0.882927
   8 N :    0.085192
   9 C :    0.694110
  10 H :   -0.316328
  11 H :   -0.667757
  12 H :   -0.952718
  13 H :   -0.106099
  14 H :   -0.198448
  15 F :   -0.516232
  16 O :   -0.551031
  17 C :    0.218303
  18 H :   -0.320186
  19 H :   -0.215743
  20 C :   -0.138305
  21 C :   -0.162466
  22 H :   -0.005388
  23 H :   -0.124882
  24 H :    0.056043
  25 H :   -0.088309
  26 C :    0.540871
  27 H :   -0.136284
  28 H :    0.014707
  29 C :   -0.037542
  30 H :    0.020930
  31 H :   -0.857369
  32 C :    0.625443
  33 H :   -0.359569
  34 H :    0.149136
  35 H :   -0.368450
  36 H :    0.193828
  37 H :    0.038212
  38 H :    0.014366
Sum of atomic charges:    0.0000000

LOEWDIN ATOMIC CHARGES
----------------------
   0 C :    0.064178
   1 N :    0.009548
   2 C :   -0.003626
   3 C :    0.063377
   4 H :    0.038184
   5 H :    0.015228
   6 C :    0.040450
   7 C :   -0.214440
   8 N :    0.200107
   9 C :    0.180232
  10 H :   -0.095694
  11 H :   -0.195992
  12 H :   -0.049340
  13 H :   -0.036779
  14 H :   -0.000666
  15 F :   -0.026863
  16 O :   -0.099062
  17 C :   -0.010493
  18 H :    0.018949
  19 H :    0.000950
  20 C :   -0.028321
  21 C :   -0.018220
  22 H :    0.012624
  23 H :    0.028878
  24 H :    0.026855
  25 H :    0.024808
  26 C :   -0.028365
  27 H :    0.017030
  28 H :    0.017442
  29 C :   -0.028569
  30 H :    0.030889
  31 H :   -0.027190
  32 C :   -0.022110
  33 H :    0.021298
  34 H :    0.017166
  35 H :    0.021213
  36 H :   -0.000472
  37 H :    0.018547
  38 H :    0.018253

  Mayer bond orders larger than 0.100000
B(  0-C ,  1-N ) :   0.9153 B(  0-C , 12-H ) :  -0.3989 B(  0-C , 17-C ) :   1.0241
B(  0-C , 18-H ) :   0.6548 B(  0-C , 19-H ) :   0.8017 B(  0-C , 26-C ) :   0.1412
B(  1-N ,  7-C ) :   1.0985 B(  1-N ,  8-N ) :   0.2118 B(  1-N ,  9-C ) :   0.1310
B(  1-N , 12-H ) :   0.8891 B(  1-N , 18-H ) :   0.2071 B(  1-N , 19-H ) :   0.1015
B(  2-C ,  3-C ) :   1.1642 B(  2-C ,  4-H ) :   0.1660 B(  2-C , 21-C ) :   1.2659
B(  2-C , 22-H ) :   0.1054 B(  2-C , 24-H ) :   0.6918 B(  2-C , 25-H ) :   0.8325
B(  3-C ,  4-H ) :   0.6773 B(  3-C ,  5-H ) :   0.7498 B(  3-C ,  6-C ) :   1.2140
B(  3-C , 21-C ) :   0.1090 B(  3-C , 24-H ) :   0.1118 B(  3-C , 25-H ) :   0.1409
B(  4-H ,  6-C ) :   0.2618 B(  5-H ,  6-C ) :   0.1675 B(  6-C , 15-F ) :   0.6074
B(  6-C , 16-O ) :   1.6925 B(  7-C ,  8-N ) :   0.7604 B(  7-C ,  9-C ) :   1.4303
B(  7-C , 10-H ) :   0.2400 B(  7-C , 12-H ) :  -0.6091 B(  7-C , 14-H ) :  -0.1066
B(  7-C , 19-H ) :  -0.1018 B(  8-N ,  9-C ) :   0.2977 B(  8-N , 13-H ) :   1.0043
B(  8-N , 14-H ) :   1.2485 B(  8-N , 19-H ) :   0.1078 B(  9-C , 10-H ) :   0.6148
B(  9-C , 11-H ) :   0.4768 B( 10-H , 11-H ) :   0.2496 B( 12-H , 15-F ) :   0.1547
B( 12-H , 18-H ) :   0.1595 B( 13-H , 14-H ) :  -0.1844 B( 17-C , 19-H ) :   0.1492
B( 17-C , 26-C ) :   1.1153 B( 17-C , 27-H ) :   0.9419 B( 17-C , 28-H ) :   0.8900
B( 17-C , 30-H ) :   0.1272 B( 18-H , 19-H ) :  -0.2050 B( 20-C , 21-C ) :   1.2145
B( 20-C , 23-H ) :   0.1458 B( 20-C , 29-C ) :   0.1236 B( 20-C , 32-C ) :   1.1602
B( 20-C , 35-H ) :   1.0442 B( 20-C , 36-H ) :   0.8149 B( 20-C , 37-H ) :   0.2529
B( 20-C , 38-H ) :   0.1361 B( 21-C , 22-H ) :   0.9345 B( 21-C , 23-H ) :   0.8816
B( 21-C , 24-H ) :   0.2124 B( 21-C , 25-H ) :   0.1727 B( 21-C , 35-H ) :   0.1165
B( 24-H , 25-H ) :  -0.1048 B( 26-C , 27-H ) :   0.1583 B( 26-C , 29-C ) :   1.2452
B( 26-C , 30-H ) :   0.6632 B( 26-C , 31-H ) :   0.3783 B( 26-C , 33-H ) :   0.1036
B( 26-C , 34-H ) :   0.1448 B( 29-C , 31-H ) :   0.1519 B( 29-C , 32-C ) :   1.1103
B( 29-C , 33-H ) :   1.0537 B( 29-C , 34-H ) :   0.8251 B( 29-C , 37-H ) :   0.1148
B( 29-C , 38-H ) :   0.2083 B( 30-H , 31-H ) :   0.2387 B( 32-C , 37-H ) :   0.6769
B( 32-C , 38-H ) :   0.7106

Dispersion correction           -0.055329703
FINAL SINGLE POINT ENERGY      -755.292751735535

DIPOLE MOMENT
-------------
                                X             Y             Z
Electronic contribution:      9.54408       8.59194       6.75729
Nuclear contribution   :    -11.12616      -8.32792      -6.96231
                        -----------------------------------------
Total Dipole Moment    :     -1.58207       0.26402      -0.20503
                        -----------------------------------------
Magnitude (a.u.)       :      1.61700
Magnitude (Debye)      :      4.11009

Rotational constants in cm-1:     0.020226     0.013574     0.009520
Rotational constants in MHz :   606.360011   406.923773   285.390769

                             ****ORCA TERMINATED NORMALLY****
TOTAL RUN TIME: 0 days 0 hours 1 minutes 50 seconds 792 msec
