                         Program Version 5.0.0 -  RELEASE  -
|  1> !TPSS D3BJ RIJCOSX def2-TZVP def2/J TightSCF
|  2> *xyz -1 1
|  3> C         -0.05517        1.61942       -3.78858
|  4> C          1.22302        2.46987       -3.75691
|  5> H          1.11470        3.25807       -4.53300
|  6> H          1.23773        3.01124       -2.79216
|  7> O          2.35381        1.71203       -3.93448
|  8> H         -0.10198        1.08015       -4.71156
|  9> H         -0.91014        2.25726       -3.70441
| 10> H         -0.04403        0.92826       -2.97183
| 11> *
| 12>
| 13> %MaxCore 64000
| 14>
| 15> %pal nprocs 4
| 16> end
| 17>
| 18> %scf
| 19>   MaxIter 150
| 20> end
| 21>
| 22>
| 23>                          ****END OF INPUT****

CARTESIAN COORDINATES (ANGSTROEM)
---------------------------------
  C     -0.055170    1.619420   -3.788580
  C      1.223020    2.469870   -3.756910
  H      1.114700    3.258070   -4.533000
  H      1.237730    3.011240   -2.792160
  O      2.353810    1.712030   -3.934480
  H     -0.101980    1.080150   -4.711560
  H     -0.910140    2.257260   -3.704410
  H     -0.044030    0.928260   -2.971830

 Total Charge           Charge          ....   -1
 Multiplicity           Mult            ....    1
 Number of Electrons    NEL             ....   26
 Basis Dimension        Dim             ....  123

ORBITAL ENERGIES
----------------

  NO   OCC          E(Eh)            E(eV)
   0   2.0000     -18.532655      -504.2992
   1   2.0000      -9.787408      -266.3289
   2   2.0000      -9.767557      -265.7887
   3   2.0000      -0.600246       -16.3335
   4   2.0000      -0.463377       -12.6091
   5   2.0000      -0.317025        -8.6267
   6   2.0000      -0.201786        -5.4909
   7   2.0000      -0.179924        -4.8960
   8   2.0000      -0.125091        -3.4039
   9   2.0000      -0.112051        -3.0491
  10   2.0000      -0.056655        -1.5416
  11   2.0000       0.083854         2.2818
  12   2.0000       0.086046         2.3414
  13   0.0000       0.209296         5.6952
  14   0.0000       0.244130         6.6431
  15   0.0000       0.267022         7.2660
  16   0.0000       0.272437         7.4134
  17   0.0000       0.304215         8.2781

MULLIKEN ATOMIC CHARGES
-----------------------
   0 C :   -0.091676
   1 C :    0.056852
   2 H :   -0.084814
   3 H :   -0.082037
   4 O :   -0.758860
   5 H :    0.010441
   6 H :   -0.061478
   7 H :    0.011574
Sum of atomic charges:   -1.0000000

LOEWDIN ATOMIC CHARGES
----------------------
   0 C :   -0.359428
   1 C :   -0.548139
   2 H :    0.046107
   3 H :    0.047891
   4 O :   -0.412390
   5 H :    0.081417
   6 H :    0.063259
   7 H :    0.081283

  Mayer bond orders larger than 0.100000
B(  0-C ,  1-C ) :   0.8991 B(  0-C ,  4-O ) :  -0.3256 B(  0-C ,  5-H ) :   0.9520
B(  0-C ,  6-H ) :   0.8926 B(  0-C ,  7-H ) :   0.9559 B(  1-C ,  2-H ) :   0.9030
B(  1-C ,  3-H ) :   0.9037 B(  1-C ,  4-O ) :   1.6316 B(  4-O ,  6-H ) :   0.1361

Dispersion correction           -0.004557862
FINAL SINGLE POINT ENERGY      -154.504450901496

DIPOLE MOMENT
-------------
                                X             Y             Z
Electronic contribution:      3.06129      -0.66905      -0.28485
Nuclear contribution   :     -4.28298       0.81046       0.39340
                        -----------------------------------------
Total Dipole Moment    :     -1.22168       0.14141       0.10855
                        -----------------------------------------
Magnitude (a.u.)       :      1.23462
Magnitude (Debye)      :      3.13816

Rotational constants in cm-1:     1.266793     0.328147     0.288309
Rotational constants in MHz : 37977.512300  9837.594308  8643.275638

                             ****ORCA TERMINATED NORMALLY****
TOTAL RUN TIME: 0 days 0 hours 0 minutes 9 seconds 105 msec
