                         Program Version 5.0.0 -  RELEASE  -
|  1> !TPSS D3BJ RIJCOSX def2-TZVP def2/J TightSCF
|  2> *xyz 1 1
|  3> C          1.63556       -1.67040       -5.29211
|  4> C          0.33848       -1.50091       -4.50540
|  5> N          2.48451       -0.50741       -5.14039
|  6> H          1.39834       -1.82924       -6.35259
|  7> H          2.15586       -2.56540       -4.93209
|  8> C          3.45115       -0.14953       -5.95259
|  9> N          3.92267        1.08956       -5.85071
| 10> N          3.96616       -1.00618       -6.86788
| 11> H          3.52139       -1.90647       -6.99527
| 12> H          4.44482       -0.62347       -7.67035
| 13> H          2.25200        0.24080       -4.49879
| 14> H          3.46428        1.64078       -5.13639
| 15> H          4.83447        1.31375       -6.22465
| 16> H         -0.17658       -0.62881       -4.85045
| 17> H          0.56384       -1.39374       -3.46490
| 18> H         -0.28102       -2.36136       -4.64938
| 19> *
| 20>
| 21> %MaxCore 64000
| 22>
| 23> %pal nprocs 4
| 24> end
| 25>
| 26> %scf
| 27>   MaxIter 150
| 28> end
| 29>
| 30>
| 31>                          ****END OF INPUT****

CARTESIAN COORDINATES (ANGSTROEM)
---------------------------------
  C      1.635560   -1.670400   -5.292110
  C      0.338480   -1.500910   -4.505400
  N      2.484510   -0.507410   -5.140390
  H      1.398340   -1.829240   -6.352590
  H      2.155860   -2.565400   -4.932090
  C      3.451150   -0.149530   -5.952590
  N      3.922670    1.089560   -5.850710
  N      3.966160   -1.006180   -6.867880
  H      3.521390   -1.906470   -6.995270
  H      4.444820   -0.623470   -7.670350
  H      2.252000    0.240800   -4.498790
  H      3.464280    1.640780   -5.136390
  H      4.834470    1.313750   -6.224650
  H     -0.176580   -0.628810   -4.850450
  H      0.563840   -1.393740   -3.464900
  H     -0.281020   -2.361360   -4.649380

 Total Charge           Charge          ....    1
 Multiplicity           Mult            ....    1
 Number of Electrons    NEL             ....   48
 Basis Dimension        Dim             ....  246

ORBITAL ENERGIES
----------------

  NO   OCC          E(Eh)            E(eV)
   0   2.0000     -14.326154      -389.8345
   1   2.0000     -14.322846      -389.7445
   2   2.0000     -14.320862      -389.6905
   3   2.0000     -10.304820      -280.4084
   4   2.0000     -10.195269      -277.4274
   5   2.0000     -10.125351      -275.5248
   6   2.0000      -1.150389       -31.3037
   7   2.0000      -1.044397       -28.4195
   8   2.0000      -1.032216       -28.0880
   9   2.0000      -0.880237       -23.9525
  10   2.0000      -0.781794       -21.2737
  11   2.0000      -0.764789       -20.8110
  12   2.0000      -0.727873       -19.8064
  13   2.0000      -0.699067       -19.0226
  14   2.0000      -0.644833       -17.5468
  15   2.0000      -0.640781       -17.4365
  16   2.0000      -0.616373       -16.7724
  17   2.0000      -0.600031       -16.3277
  18   2.0000      -0.559804       -15.2331
  19   2.0000      -0.509256       -13.8576
  20   2.0000      -0.494349       -13.4519
  21   2.0000      -0.485195       -13.2028
  22   2.0000      -0.437773       -11.9124
  23   2.0000      -0.417813       -11.3693
  24   0.0000      -0.193369        -5.2618
  25   0.0000      -0.168388        -4.5821
  26   0.0000      -0.134256        -3.6533
  27   0.0000      -0.117223        -3.1898
  28   0.0000      -0.097695        -2.6584

MULLIKEN ATOMIC CHARGES
-----------------------
   0 C :   -0.139751
   1 C :   -0.373540
   2 N :   -0.208959
   3 H :    0.140379
   4 H :    0.163107
   5 C :    0.378027
   6 N :   -0.378760
   7 N :   -0.413257
   8 H :    0.291571
   9 H :    0.286474
  10 H :    0.240640
  11 H :    0.269913
  12 H :    0.293888
  13 H :    0.141928
  14 H :    0.147068
  15 H :    0.161272
Sum of atomic charges:    1.0000000

LOEWDIN ATOMIC CHARGES
----------------------
   0 C :   -0.283737
   1 C :   -0.269525
   2 N :    0.179317
   3 H :    0.140094
   4 H :    0.143569
   5 C :   -0.418662
   6 N :    0.069793
   7 N :    0.059247
   8 H :    0.193200
   9 H :    0.194808
  10 H :    0.209277
  11 H :    0.196430
  12 H :    0.199138
  13 H :    0.124118
  14 H :    0.126044
  15 H :    0.136888

  Mayer bond orders larger than 0.100000
B(  0-C ,  1-C ) :   1.0333 B(  0-C ,  2-N ) :   0.8908 B(  0-C ,  3-H ) :   0.9492
B(  0-C ,  4-H ) :   0.9354 B(  1-C , 13-H ) :   0.9670 B(  1-C , 14-H ) :   0.9636
B(  1-C , 15-H ) :   0.9530 B(  2-N ,  5-C ) :   1.4052 B(  2-N , 10-H ) :   0.8945
B(  5-C ,  6-N ) :   1.3407 B(  5-C ,  7-N ) :   1.3243 B(  6-N , 11-H ) :   0.8935
B(  6-N , 12-H ) :   0.8834 B(  7-N ,  8-H ) :   0.8886 B(  7-N ,  9-H ) :   0.8885

Dispersion correction           -0.014773120
FINAL SINGLE POINT ENERGY      -284.555902210966

DIPOLE MOMENT
-------------
                                X             Y             Z
Electronic contribution:      4.70343       2.48321      -1.69910
Nuclear contribution   :     -3.96322      -1.85512       1.24891
                        -----------------------------------------
Total Dipole Moment    :      0.74021       0.62809      -0.45019
                        -----------------------------------------
Magnitude (a.u.)       :      1.07008
Magnitude (Debye)      :      2.71994

Rotational constants in cm-1:     0.261404     0.067000     0.054949
Rotational constants in MHz :  7836.702504  2008.609425  1647.329138

                             ****ORCA TERMINATED NORMALLY****
TOTAL RUN TIME: 0 days 0 hours 0 minutes 15 seconds 212 msec
