                         Program Version 5.0.0 -  RELEASE  -
|  1> !TPSS D3BJ RIJCOSX def2-TZVP def2/J TightSCF xyzfile
|  2>
|  3> *xyzfile 0 1 B.xyz
|  4>
|  5> %MaxCore 64000
|  6>
|  7> %pal nprocs 18
|  8> end
|  9>
| 10> %scf
| 11>   MaxIter 150
| 12> end
| 13>
| 14>
| 15>                          ****END OF INPUT****

CARTESIAN COORDINATES (ANGSTROEM)
---------------------------------
  C      1.635557   -1.670396   -5.292109
  C      0.338484   -1.500907   -4.505398
  N      2.484511   -0.507410   -5.140392
  C     -0.684873   -0.528026   -5.099889
  C     -0.290406    0.951335   -5.153423
  H      0.607991    1.070692   -5.764412
  C     -0.055168    1.619420   -3.788577
  H     -1.080912    1.483775   -5.689436
  H      0.045006    0.862302   -3.003015
  H     -0.922936    2.230329   -3.517028
  C      1.223022    2.469865   -3.756911
  H      1.114701    3.258074   -4.532999
  H      1.237732    3.011242   -2.792157
  O      2.353815    1.712032   -3.934477
  H      1.398337   -1.829239   -6.352591
  H      2.155864   -2.565398   -4.932091
  C      3.451149   -0.149530   -5.952589
  N      3.922667    1.089559   -5.850711
  N      3.966162   -1.006183   -6.867880
  H      3.521391   -1.906467   -6.995270
  H      4.444824   -0.623472   -7.670348
  H      2.251995    0.240804   -4.498792
  H      3.464277    1.640782   -5.136392
  H      4.834470    1.313745   -6.224653
  H     -0.937999   -0.869056   -6.110838
  H     -1.604638   -0.622496   -4.513132
  H      0.594887   -1.211578   -3.482312
  H     -0.126530   -2.487656   -4.434176

 Total Charge           Charge          ....    0
 Multiplicity           Mult            ....    1
 Number of Electrons    NEL             ....   88
 Basis Dimension        Dim             ....  443

ORBITAL ENERGIES
----------------

  NO   OCC          E(Eh)            E(eV)
   0   2.0000     -18.751409      -510.2518
   1   2.0000     -14.156053      -385.2058
   2   2.0000     -14.114426      -384.0731
   3   2.0000     -14.113396      -384.0450
   4   2.0000     -10.116156      -275.2746
   5   2.0000     -10.036045      -273.0947
   6   2.0000      -9.987812      -271.7822
   7   2.0000      -9.974652      -271.4241
   8   2.0000      -9.961901      -271.0771
   9   2.0000      -9.956520      -270.9307
  10   2.0000      -9.938367      -270.4367
  11   2.0000      -0.961654       -26.1679
  12   2.0000      -0.864068       -23.5125
  13   2.0000      -0.844488       -22.9797
  14   2.0000      -0.816719       -22.2240
  15   2.0000      -0.740998       -20.1636
  16   2.0000      -0.689571       -18.7642
  17   2.0000      -0.636294       -17.3145
  18   2.0000      -0.600801       -16.3486
  19   2.0000      -0.575557       -15.6617
  20   2.0000      -0.548106       -14.9147
  21   2.0000      -0.530287       -14.4298
  22   2.0000      -0.514443       -13.9987
  23   2.0000      -0.480663       -13.0795
  24   2.0000      -0.462983       -12.5984
  25   2.0000      -0.450179       -12.2500
  26   2.0000      -0.443311       -12.0631
  27   2.0000      -0.432232       -11.7616
  28   2.0000      -0.396022       -10.7763
  29   2.0000      -0.383291       -10.4299
  30   2.0000      -0.372954       -10.1486
  31   2.0000      -0.370753       -10.0887
  32   2.0000      -0.344053        -9.3622
  33   2.0000      -0.326676        -8.8893
  34   2.0000      -0.319930        -8.7057
  35   2.0000      -0.299099        -8.1389
  36   2.0000      -0.282438        -7.6855
  37   2.0000      -0.270531        -7.3615
  38   2.0000      -0.265003        -7.2111
  39   2.0000      -0.259521        -7.0619
  40   2.0000      -0.252353        -6.8669
  41   2.0000      -0.226693        -6.1686
  42   2.0000      -0.137995        -3.7550
  43   2.0000      -0.130064        -3.5392
  44   0.0000      -0.017209        -0.4683
  45   0.0000      -0.008594        -0.2339
  46   0.0000       0.019184         0.5220
  47   0.0000       0.035801         0.9742
  48   0.0000       0.054253         1.4763

MULLIKEN ATOMIC CHARGES
-----------------------
   0 C :   -0.123204
   1 C :   -0.194394
   2 N :   -0.197265
   3 C :   -0.138923
   4 C :   -0.228327
   5 H :    0.104051
   6 C :   -0.115790
   7 H :    0.076319
   8 H :    0.055057
   9 H :    0.054926
  10 C :    0.068985
  11 H :    0.007102
  12 H :    0.031680
  13 O :   -0.724156
  14 H :    0.081021
  15 H :    0.113098
  16 C :    0.364236
  17 N :   -0.404453
  18 N :   -0.467321
  19 H :    0.259896
  20 H :    0.250005
  21 H :    0.252785
  22 H :    0.276771
  23 H :    0.224829
  24 H :    0.067396
  25 H :    0.088879
  26 H :    0.121538
  27 H :    0.095260
Sum of atomic charges:   -0.0000000

LOEWDIN ATOMIC CHARGES
----------------------
   0 C :   -0.281640
   1 C :   -0.260836
   2 N :    0.179730
   3 C :   -0.267274
   4 C :   -0.271003
   5 H :    0.133917
   6 C :   -0.280232
   7 H :    0.128875
   8 H :    0.124718
   9 H :    0.122017
  10 C :   -0.464093
  11 H :    0.090143
  12 H :    0.096922
  13 O :   -0.284660
  14 H :    0.125555
  15 H :    0.128029
  16 C :   -0.441607
  17 N :    0.046442
  18 N :    0.006124
  19 H :    0.175273
  20 H :    0.173371
  21 H :    0.158463
  22 H :    0.151720
  23 H :    0.165954
  24 H :    0.128837
  25 H :    0.136409
  26 H :    0.140757
  27 H :    0.138086

  Mayer bond orders larger than 0.100000
B(  0-C ,  1-C ) :   1.0332 B(  0-C ,  2-N ) :   0.9577 B(  0-C , 14-H ) :   0.9387
B(  0-C , 15-H ) :   0.9338 B(  1-C ,  3-C ) :   1.0389 B(  1-C , 26-H ) :   0.9552
B(  1-C , 27-H ) :   0.9403 B(  2-N , 16-C ) :   1.4485 B(  2-N , 21-H ) :   0.7260
B(  3-C ,  4-C ) :   1.0143 B(  3-C , 24-H ) :   0.9407 B(  3-C , 25-H ) :   0.9442
B(  4-C ,  5-H ) :   0.9625 B(  4-C ,  6-C ) :   1.0136 B(  4-C ,  7-H ) :   0.9455
B(  6-C ,  8-H ) :   0.9517 B(  6-C ,  9-H ) :   0.9265 B(  6-C , 10-C ) :   0.9887
B( 10-C , 11-H ) :   0.9452 B( 10-C , 12-H ) :   0.9304 B( 10-C , 13-O ) :   1.1957
B( 13-O , 21-H ) :   0.2737 B( 13-O , 22-H ) :   0.2386 B( 16-C , 17-N ) :   1.3984
B( 16-C , 18-N ) :   1.2211 B( 17-N , 22-H ) :   0.7421 B( 17-N , 23-H ) :   0.9064
B( 18-N , 19-H ) :   0.9038 B( 18-N , 20-H ) :   0.9034

Dispersion correction           -0.036076016
FINAL SINGLE POINT ENERGY      -516.745434252454

DIPOLE MOMENT
-------------
                                X             Y             Z
Electronic contribution:      8.41633      -0.87331      -2.19914
Nuclear contribution   :     -7.46499      -1.05836       0.01518
                        -----------------------------------------
Total Dipole Moment    :      0.95134      -1.93167      -2.18396
                        -----------------------------------------
Magnitude (a.u.)       :      3.06693
Magnitude (Debye)      :      7.79553

Rotational constants in cm-1:     0.044680     0.028958     0.019773
Rotational constants in MHz :  1339.486245   868.136755   592.791310

                             ****ORCA TERMINATED NORMALLY****
TOTAL RUN TIME: 0 days 0 hours 0 minutes 20 seconds 671 msec
