                         Program Version 5.0.0 -  RELEASE  -
|  1> !TPSS D3BJ RIJCOSX def2-TZVP def2/J TightSCF
|  2> *xyz 0 1
|  3> C         -0.05517        1.61942       -3.78858
|  4> C          1.22302        2.46987       -3.75691
|  5> H          1.11470        3.25807       -4.53300
|  6> H          1.23773        3.01124       -2.79216
|  7> F          2.35381        1.71203       -3.93448
|  8> H         -0.10198        1.08015       -4.71156
|  9> H         -0.91014        2.25726       -3.70441
| 10> H         -0.04403        0.92826       -2.97183
| 11> *
| 12>
| 13> %MaxCore 64000
| 14>
| 15> %pal nprocs 4
| 16> end
| 17>
| 18> %scf
| 19>   MaxIter 150
| 20> end
| 21>
| 22>
| 23>                          ****END OF INPUT****

CARTESIAN COORDINATES (ANGSTROEM)
---------------------------------
  C     -0.055170    1.619420   -3.788580
  C      1.223020    2.469870   -3.756910
  H      1.114700    3.258070   -4.533000
  H      1.237730    3.011240   -2.792160
  F      2.353810    1.712030   -3.934480
  H     -0.101980    1.080150   -4.711560
  H     -0.910140    2.257260   -3.704410
  H     -0.044030    0.928260   -2.971830

 Total Charge           Charge          ....    0
 Multiplicity           Mult            ....    1
 Number of Electrons    NEL             ....   26
 Basis Dimension        Dim             ....  123

ORBITAL ENERGIES
----------------

  NO   OCC          E(Eh)            E(eV)
   0   2.0000     -24.392722      -663.7597
   1   2.0000     -10.060398      -273.7573
   2   2.0000      -9.979484      -271.5556
   3   2.0000      -1.118314       -30.4309
   4   2.0000      -0.708679       -19.2841
   5   2.0000      -0.580634       -15.7999
   6   2.0000      -0.457037       -12.4366
   7   2.0000      -0.445773       -12.1301
   8   2.0000      -0.404634       -11.0106
   9   2.0000      -0.361765        -9.8441
  10   2.0000      -0.359205        -9.7745
  11   2.0000      -0.289189        -7.8692
  12   2.0000      -0.288278        -7.8444
  13   0.0000       0.032506         0.8845
  14   0.0000       0.069165         1.8821
  15   0.0000       0.076832         2.0907
  16   0.0000       0.086462         2.3528
  17   0.0000       0.101605         2.7648

MULLIKEN ATOMIC CHARGES
-----------------------
   0 C :   -0.313868
   1 C :    0.026953
   2 H :    0.086285
   3 H :    0.086425
   4 F :   -0.222899
   5 H :    0.115681
   6 H :    0.106526
   7 H :    0.114896
Sum of atomic charges:   -0.0000000

LOEWDIN ATOMIC CHARGES
----------------------
   0 C :   -0.303965
   1 C :   -0.368131
   2 H :    0.113685
   3 H :    0.113007
   4 F :    0.098823
   5 H :    0.114376
   6 H :    0.118645
   7 H :    0.113559

  Mayer bond orders larger than 0.100000
B(  0-C ,  1-C ) :   1.0261 B(  0-C ,  5-H ) :   0.9655 B(  0-C ,  6-H ) :   0.9519
B(  0-C ,  7-H ) :   0.9668 B(  1-C ,  2-H ) :   0.9609 B(  1-C ,  3-H ) :   0.9610
B(  1-C ,  4-F ) :   1.0194

Dispersion correction           -0.004203502
FINAL SINGLE POINT ENERGY      -179.157940430482

DIPOLE MOMENT
-------------
                                X             Y             Z
Electronic contribution:      5.06965      -0.76391      -0.43840
Nuclear contribution   :     -5.66833       1.07099       0.52006
                        -----------------------------------------
Total Dipole Moment    :     -0.59868       0.30708       0.08166
                        -----------------------------------------
Magnitude (a.u.)       :      0.67778
Magnitude (Debye)      :      1.72278

Rotational constants in cm-1:     1.245689     0.305293     0.269541
Rotational constants in MHz : 37344.801915  9152.442838  8080.640229

                             ****ORCA TERMINATED NORMALLY****
TOTAL RUN TIME: 0 days 0 hours 0 minutes 5 seconds 57 msec
