                         Program Version 5.0.0 -  RELEASE  -
|  1> !TPSS D3BJ RIJCOSX def2-TZVP def2/J TightSCF
|  2> *xyz 0 1
|  3> C          1.63556       -1.67040       -5.29211
|  4> C          0.33848       -1.50091       -4.50540
|  5> C          2.48451       -0.50741       -5.14039
|  6> H          1.39834       -1.82924       -6.35259
|  7> H          2.15586       -2.56540       -4.93209
|  8> C          3.45115       -0.14953       -5.95259
|  9> N          3.92267        1.08956       -5.85071
| 10> N          3.96616       -1.00618       -6.86788
| 11> H          3.52139       -1.90647       -6.99527
| 12> H          4.44482       -0.62347       -7.67035
| 13> H          2.25200        0.24080       -4.49879
| 14> H          3.46428        1.64078       -5.13639
| 15> H          4.83447        1.31375       -6.22465
| 16> H         -0.17658       -0.62881       -4.85045
| 17> H          0.56384       -1.39374       -3.46490
| 18> H         -0.28102       -2.36136       -4.64938
| 19> *
| 20>
| 21> %MaxCore 64000
| 22>
| 23> %pal nprocs 4
| 24> end
| 25>
| 26> %scf
| 27>   MaxIter 150
| 28> end
| 29>
| 30>
| 31>                          ****END OF INPUT****

CARTESIAN COORDINATES (ANGSTROEM)
---------------------------------
  C      1.635560   -1.670400   -5.292110
  C      0.338480   -1.500910   -4.505400
  C      2.484510   -0.507410   -5.140390
  H      1.398340   -1.829240   -6.352590
  H      2.155860   -2.565400   -4.932090
  C      3.451150   -0.149530   -5.952590
  N      3.922670    1.089560   -5.850710
  N      3.966160   -1.006180   -6.867880
  H      3.521390   -1.906470   -6.995270
  H      4.444820   -0.623470   -7.670350
  H      2.252000    0.240800   -4.498790
  H      3.464280    1.640780   -5.136390
  H      4.834470    1.313750   -6.224650
  H     -0.176580   -0.628810   -4.850450
  H      0.563840   -1.393740   -3.464900
  H     -0.281020   -2.361360   -4.649380

 Total Charge           Charge          ....    0
 Multiplicity           Mult            ....    1
 Number of Electrons    NEL             ....   48
 Basis Dimension        Dim             ....  246

ORBITAL ENERGIES
----------------

  NO   OCC          E(Eh)            E(eV)
   0   2.0000     -14.099709      -383.6726
   1   2.0000     -14.095189      -383.5496
   2   2.0000     -10.014417      -272.5061
   3   2.0000      -9.960712      -271.0447
   4   2.0000      -9.951992      -270.8075
   5   2.0000      -9.903382      -269.4847
   6   2.0000      -0.890646       -24.2357
   7   2.0000      -0.809467       -22.0267
   8   2.0000      -0.716460       -19.4959
   9   2.0000      -0.641721       -17.4621
  10   2.0000      -0.560641       -15.2558
  11   2.0000      -0.530515       -14.4361
  12   2.0000      -0.486355       -13.2344
  13   2.0000      -0.466896       -12.7049
  14   2.0000      -0.422280       -11.4908
  15   2.0000      -0.397138       -10.8067
  16   2.0000      -0.383763       -10.4427
  17   2.0000      -0.351914        -9.5761
  18   2.0000      -0.335114        -9.1189
  19   2.0000      -0.302418        -8.2292
  20   2.0000      -0.292622        -7.9627
  21   2.0000      -0.290947        -7.9171
  22   2.0000      -0.221514        -6.0277
  23   2.0000      -0.131350        -3.5742
  24   0.0000       0.012274         0.3340
  25   0.0000       0.040540         1.1032
  26   0.0000       0.052857         1.4383
  27   0.0000       0.057628         1.5681
  28   0.0000       0.068614         1.8671

MULLIKEN ATOMIC CHARGES
-----------------------
   0 C :   -0.156591
   1 C :   -0.344067
   2 C :   -0.285719
   3 H :    0.063611
   4 H :    0.078006
   5 C :    0.322599
   6 N :   -0.474559
   7 N :   -0.499101
   8 H :    0.245916
   9 H :    0.218668
  10 H :    0.059834
  11 H :    0.237725
  12 H :    0.221064
  13 H :    0.102597
  14 H :    0.106488
  15 H :    0.103530
Sum of atomic charges:    0.0000000

LOEWDIN ATOMIC CHARGES
----------------------
   0 C :   -0.302335
   1 C :   -0.291863
   2 C :   -0.283322
   3 H :    0.125103
   4 H :    0.127126
   5 C :   -0.462743
   6 N :   -0.014220
   7 N :   -0.020844
   8 H :    0.172221
   9 H :    0.156658
  10 H :    0.122387
  11 H :    0.179470
  12 H :    0.158579
  13 H :    0.111922
  14 H :    0.113291
  15 H :    0.108571

  Mayer bond orders larger than 0.100000
B(  0-C ,  1-C ) :   1.0115 B(  0-C ,  2-C ) :   1.0366 B(  0-C ,  3-H ) :   0.9482
B(  0-C ,  4-H ) :   0.9473 B(  1-C , 13-H ) :   0.9745 B(  1-C , 14-H ) :   0.9758
B(  1-C , 15-H ) :   0.9720 B(  2-C ,  5-C ) :   1.6466 B(  2-C , 10-H ) :   0.9891
B(  5-C ,  6-N ) :   1.1688 B(  5-C ,  7-N ) :   1.1478 B(  6-N , 11-H ) :   0.9121
B(  6-N , 12-H ) :   0.9118 B(  7-N ,  8-H ) :   0.9148 B(  7-N ,  9-H ) :   0.9150

Dispersion correction           -0.015386113
FINAL SINGLE POINT ENERGY      -268.065723711640

DIPOLE MOMENT
-------------
                                X             Y             Z
Electronic contribution:      4.58002       2.19540      -1.93681
Nuclear contribution   :     -3.99655      -1.83277       1.34879
                        -----------------------------------------
Total Dipole Moment    :      0.58348       0.36263      -0.58802
                        -----------------------------------------
Magnitude (a.u.)       :      0.90427
Magnitude (Debye)      :      2.29848

Rotational constants in cm-1:     0.262971     0.067064     0.055026
Rotational constants in MHz :  7883.664566  2010.513309  1649.636654

                             ****ORCA TERMINATED NORMALLY****
TOTAL RUN TIME: 0 days 0 hours 0 minutes 15 seconds 214 msec
