                         Program Version 5.0.0 -  RELEASE  -
|  1> !TPSS D3BJ RIJCOSX def2-TZVP def2/J TightSCF
|  2> *xyz 0 1
|  3> C          1.63556       -1.67040       -5.29211
|  4> C          0.33848       -1.50091       -4.50540
|  5> N          2.48451       -0.50741       -5.14039
|  6> H          1.39834       -1.82924       -6.35259
|  7> H          2.15586       -2.56540       -4.93209
|  8> C          3.45115       -0.14953       -5.95259
|  9> C          3.92267        1.08956       -5.85071
| 10> N          3.96616       -1.00618       -6.86788
| 11> H          3.52139       -1.90647       -6.99527
| 12> H          4.44482       -0.62347       -7.67035
| 13> H          2.25200        0.24080       -4.49879
| 14> H          3.46428        1.64078       -5.13639
| 15> H          4.83447        1.31375       -6.22465
| 16> H         -0.17658       -0.62881       -4.85045
| 17> H          0.56384       -1.39374       -3.46490
| 18> H         -0.28102       -2.36136       -4.64938
| 19> *
| 20>
| 21> %MaxCore 64000
| 22>
| 23> %pal nprocs 4
| 24> end
| 25>
| 26> %scf
| 27>   MaxIter 150
| 28> end
| 29>
| 30>
| 31>                          ****END OF INPUT****

CARTESIAN COORDINATES (ANGSTROEM)
---------------------------------
  C      1.635560   -1.670400   -5.292110
  C      0.338480   -1.500910   -4.505400
  N      2.484510   -0.507410   -5.140390
  H      1.398340   -1.829240   -6.352590
  H      2.155860   -2.565400   -4.932090
  C      3.451150   -0.149530   -5.952590
  C      3.922670    1.089560   -5.850710
  N      3.966160   -1.006180   -6.867880
  H      3.521390   -1.906470   -6.995270
  H      4.444820   -0.623470   -7.670350
  H      2.252000    0.240800   -4.498790
  H      3.464280    1.640780   -5.136390
  H      4.834470    1.313750   -6.224650
  H     -0.176580   -0.628810   -4.850450
  H      0.563840   -1.393740   -3.464900
  H     -0.281020   -2.361360   -4.649380

 Total Charge           Charge          ....    0
 Multiplicity           Mult            ....    1
 Number of Electrons    NEL             ....   48
 Basis Dimension        Dim             ....  246

ORBITAL ENERGIES
----------------

  NO   OCC          E(Eh)            E(eV)
   0   2.0000     -14.099948      -383.6791
   1   2.0000     -14.098172      -383.6308
   2   2.0000     -10.027094      -272.8511
   3   2.0000     -10.018161      -272.6080
   4   2.0000      -9.985581      -271.7215
   5   2.0000      -9.892057      -269.1766
   6   2.0000      -0.902684       -24.5633
   7   2.0000      -0.821687       -22.3592
   8   2.0000      -0.721553       -19.6344
   9   2.0000      -0.647373       -17.6159
  10   2.0000      -0.580121       -15.7859
  11   2.0000      -0.546378       -14.8677
  12   2.0000      -0.486821       -13.2471
  13   2.0000      -0.452954       -12.3255
  14   2.0000      -0.437476       -11.9043
  15   2.0000      -0.420611       -11.4454
  16   2.0000      -0.379054       -10.3146
  17   2.0000      -0.355849        -9.6831
  18   2.0000      -0.340323        -9.2607
  19   2.0000      -0.338083        -9.1997
  20   2.0000      -0.334899        -9.1131
  21   2.0000      -0.309503        -8.4220
  22   2.0000      -0.217598        -5.9211
  23   2.0000      -0.129182        -3.5152
  24   0.0000       0.014316         0.3896
  25   0.0000       0.034803         0.9470
  26   0.0000       0.042800         1.1646
  27   0.0000       0.053426         1.4538
  28   0.0000       0.075350         2.0504

MULLIKEN ATOMIC CHARGES
-----------------------
   0 C :   -0.080917
   1 C :   -0.362436
   2 N :   -0.275907
   3 H :    0.090426
   4 H :    0.101907
   5 C :    0.349111
   6 C :   -0.540111
   7 N :   -0.499109
   8 H :    0.227634
   9 H :    0.248286
  10 H :    0.215944
  11 H :    0.063290
  12 H :    0.102871
  13 H :    0.120851
  14 H :    0.119398
  15 H :    0.118763
Sum of atomic charges:    0.0000000

LOEWDIN ATOMIC CHARGES
----------------------
   0 C :   -0.310499
   1 C :   -0.294083
   2 N :    0.123714
   3 H :    0.122455
   4 H :    0.121408
   5 C :   -0.467297
   6 C :   -0.346381
   7 N :   -0.018275
   8 H :    0.158130
   9 H :    0.173495
  10 H :    0.197845
  11 H :    0.094992
  12 H :    0.094572
  13 H :    0.115877
  14 H :    0.115469
  15 H :    0.118578

  Mayer bond orders larger than 0.100000
B(  0-C ,  1-C ) :   1.0258 B(  0-C ,  2-N ) :   0.9727 B(  0-C ,  3-H ) :   0.9460
B(  0-C ,  4-H ) :   0.9416 B(  1-C , 13-H ) :   0.9708 B(  1-C , 14-H ) :   0.9710
B(  1-C , 15-H ) :   0.9666 B(  2-N ,  5-C ) :   1.2263 B(  2-N , 10-H ) :   0.9121
B(  5-C ,  6-C ) :   1.6199 B(  5-C ,  7-N ) :   1.1270 B(  6-C , 11-H ) :   0.9926
B(  6-C , 12-H ) :   0.9867 B(  7-N ,  8-H ) :   0.9204 B(  7-N ,  9-H ) :   0.9141

Dispersion correction           -0.015236663
FINAL SINGLE POINT ENERGY      -268.057320110909

DIPOLE MOMENT
-------------
                                X             Y             Z
Electronic contribution:      2.97397       0.54218      -1.29247
Nuclear contribution   :     -3.69145      -1.49398       1.19810
                        -----------------------------------------
Total Dipole Moment    :     -0.71748      -0.95180      -0.09438
                        -----------------------------------------
Magnitude (a.u.)       :      1.19566
Magnitude (Debye)      :      3.03913

Rotational constants in cm-1:     0.270790     0.068966     0.056679
Rotational constants in MHz :  8118.084803  2067.559423  1699.196934

                             ****ORCA TERMINATED NORMALLY****
TOTAL RUN TIME: 0 days 0 hours 0 minutes 14 seconds 912 msec
