                         Program Version 5.0.0 -  RELEASE  -
|  1> !TPSS D3BJ RIJCOSX def2-TZVP def2/J TightSCF
|  2> *xyz 0 1
|  3> C          1.63556       -1.67040       -5.29211
|  4> C          0.33848       -1.50091       -4.50540
|  5> N          2.48451       -0.50741       -5.14039
|  6> H          1.39834       -1.82924       -6.35259
|  7> H          2.15586       -2.56540       -4.93209
|  8> C          3.45115       -0.14953       -5.95259
|  9> N          3.92267        1.08956       -5.85071
| 10> C          3.96616       -1.00618       -6.86788
| 11> H          3.52139       -1.90647       -6.99527
| 12> H          4.44482       -0.62347       -7.67035
| 13> H          2.25200        0.24080       -4.49879
| 14> H          3.46428        1.64078       -5.13639
| 15> H          4.83447        1.31375       -6.22465
| 16> H         -0.17658       -0.62881       -4.85045
| 17> H          0.56384       -1.39374       -3.46490
| 18> H         -0.28102       -2.36136       -4.64938
| 19> *
| 20>
| 21> %MaxCore 64000
| 22>
| 23> %pal nprocs 4
| 24> end
| 25>
| 26> %scf
| 27>   MaxIter 150
| 28> end
| 29>
| 30>
| 31>                          ****END OF INPUT****

CARTESIAN COORDINATES (ANGSTROEM)
---------------------------------
  C      1.635560   -1.670400   -5.292110
  C      0.338480   -1.500910   -4.505400
  N      2.484510   -0.507410   -5.140390
  H      1.398340   -1.829240   -6.352590
  H      2.155860   -2.565400   -4.932090
  C      3.451150   -0.149530   -5.952590
  N      3.922670    1.089560   -5.850710
  C      3.966160   -1.006180   -6.867880
  H      3.521390   -1.906470   -6.995270
  H      4.444820   -0.623470   -7.670350
  H      2.252000    0.240800   -4.498790
  H      3.464280    1.640780   -5.136390
  H      4.834470    1.313750   -6.224650
  H     -0.176580   -0.628810   -4.850450
  H      0.563840   -1.393740   -3.464900
  H     -0.281020   -2.361360   -4.649380

 Total Charge           Charge          ....    0
 Multiplicity           Mult            ....    1
 Number of Electrons    NEL             ....   48
 Basis Dimension        Dim             ....  246

ORBITAL ENERGIES
----------------

  NO   OCC          E(Eh)            E(eV)
   0   2.0000     -14.105490      -383.8299
   1   2.0000     -14.100480      -383.6936
   2   2.0000     -10.020362      -272.6679
   3   2.0000     -10.019299      -272.6390
   4   2.0000      -9.981761      -271.6175
   5   2.0000      -9.893019      -269.2027
   6   2.0000      -0.910790       -24.7838
   7   2.0000      -0.826319       -22.4853
   8   2.0000      -0.709000       -19.2929
   9   2.0000      -0.646405       -17.5896
  10   2.0000      -0.595420       -16.2022
  11   2.0000      -0.520383       -14.1603
  12   2.0000      -0.488406       -13.2902
  13   2.0000      -0.479193       -13.0395
  14   2.0000      -0.431260       -11.7352
  15   2.0000      -0.424684       -11.5562
  16   2.0000      -0.360741        -9.8163
  17   2.0000      -0.355829        -9.6826
  18   2.0000      -0.349881        -9.5207
  19   2.0000      -0.331008        -9.0072
  20   2.0000      -0.323314        -8.7978
  21   2.0000      -0.311333        -8.4718
  22   2.0000      -0.212675        -5.7872
  23   2.0000      -0.132915        -3.6168
  24   0.0000       0.006759         0.1839
  25   0.0000       0.031843         0.8665
  26   0.0000       0.048211         1.3119
  27   0.0000       0.059163         1.6099
  28   0.0000       0.077771         2.1163

MULLIKEN ATOMIC CHARGES
-----------------------
   0 C :   -0.058063
   1 C :   -0.351946
   2 N :   -0.283676
   3 H :    0.108631
   4 H :    0.104544
   5 C :    0.321926
   6 N :   -0.464635
   7 C :   -0.553306
   8 H :    0.095931
   9 H :    0.096857
  10 H :    0.177035
  11 H :    0.204022
  12 H :    0.254018
  13 H :    0.114245
  14 H :    0.113599
  15 H :    0.120818
Sum of atomic charges:   -0.0000000

LOEWDIN ATOMIC CHARGES
----------------------
   0 C :   -0.291887
   1 C :   -0.296822
   2 N :    0.124757
   3 H :    0.131748
   4 H :    0.126728
   5 C :   -0.479731
   6 N :   -0.008101
   7 C :   -0.354574
   8 H :    0.094380
   9 H :    0.092697
  10 H :    0.177181
  11 H :    0.159458
  12 H :    0.178223
  13 H :    0.113275
  14 H :    0.113165
  15 H :    0.119503

  Mayer bond orders larger than 0.100000
B(  0-C ,  1-C ) :   1.0082 B(  0-C ,  2-N ) :   0.9612 B(  0-C ,  3-H ) :   0.9516
B(  0-C ,  4-H ) :   0.9499 B(  1-C , 13-H ) :   0.9706 B(  1-C , 14-H ) :   0.9705
B(  1-C , 15-H ) :   0.9680 B(  2-N ,  5-C ) :   1.1923 B(  2-N , 10-H ) :   0.9205
B(  5-C ,  6-N ) :   1.1468 B(  5-C ,  7-C ) :   1.6184 B(  6-N , 11-H ) :   0.9206
B(  6-N , 12-H ) :   0.9094 B(  7-C ,  8-H ) :   0.9933 B(  7-C ,  9-H ) :   0.9848

Dispersion correction           -0.015294532
FINAL SINGLE POINT ENERGY      -268.057256328664

DIPOLE MOMENT
-------------
                                X             Y             Z
Electronic contribution:      3.02889       2.67150      -0.17578
Nuclear contribution   :     -3.68222      -1.93858       0.98231
                        -----------------------------------------
Total Dipole Moment    :     -0.65334       0.73292       0.80654
                        -----------------------------------------
Magnitude (a.u.)       :      1.27064
Magnitude (Debye)      :      3.22970

Rotational constants in cm-1:     0.275407     0.068040     0.056255
Rotational constants in MHz :  8256.498401  2039.796466  1686.484500

                             ****ORCA TERMINATED NORMALLY****
TOTAL RUN TIME: 0 days 0 hours 0 minutes 14 seconds 912 msec
