                         Program Version 5.0.0 -  RELEASE  -
|  1> !TPSS D3BJ RIJCOSX def2-TZVP def2/J TightSCF xyzfile
|  2>
|  3> *xyzfile 0 1 D2.xyz
|  4>
|  5> %MaxCore 64000
|  6>
|  7> %pal nprocs 18
|  8> end
|  9>
| 10> %scf
| 11>   MaxIter 150
| 12> end
| 13>
| 14>
| 15>                          ****END OF INPUT****

CARTESIAN COORDINATES (ANGSTROEM)
---------------------------------
  C      1.635557   -1.670396   -5.292109
  C      0.338484   -1.500907   -4.505398
  N      2.484511   -0.507410   -5.140392
  C     -0.684873   -0.528026   -5.099889
  C     -0.290406    0.951335   -5.153423
  H      0.607991    1.070692   -5.764412
  C     -0.055168    1.619420   -3.788577
  H     -1.080912    1.483775   -5.689436
  H      0.045006    0.862302   -3.003015
  H     -0.922936    2.230329   -3.517028
  C      1.223022    2.469865   -3.756911
  H      1.114701    3.258074   -4.532999
  H      1.237732    3.011242   -2.792157
  F      2.353815    1.712032   -3.934477
  H      1.398337   -1.829239   -6.352591
  H      2.155864   -2.565398   -4.932091
  C      3.451149   -0.149530   -5.952589
  C      3.922667    1.089559   -5.850711
  N      3.966162   -1.006183   -6.867880
  H      3.521391   -1.906467   -6.995270
  H      4.444824   -0.623472   -7.670348
  H      2.251995    0.240804   -4.498792
  H      3.464277    1.640782   -5.136392
  H      4.834470    1.313745   -6.224653
  H     -0.937999   -0.869056   -6.110838
  H     -1.604638   -0.622496   -4.513132
  H      0.594887   -1.211578   -3.482312
  H     -0.126530   -2.487656   -4.434176

 Total Charge           Charge          ....    0
 Multiplicity           Mult            ....    1
 Number of Electrons    NEL             ....   88
 Basis Dimension        Dim             ....  443

ORBITAL ENERGIES
----------------

  NO   OCC          E(Eh)            E(eV)
   0   2.0000     -24.424466      -664.6235
   1   2.0000     -14.083786      -383.2393
   2   2.0000     -14.073567      -382.9612
   3   2.0000     -10.072155      -274.0773
   4   2.0000     -10.013703      -272.4867
   5   2.0000     -10.000611      -272.1305
   6   2.0000      -9.999212      -272.0924
   7   2.0000      -9.988702      -271.8064
   8   2.0000      -9.988256      -271.7943
   9   2.0000      -9.986331      -271.7419
  10   2.0000      -9.867646      -268.5123
  11   2.0000      -1.157705       -31.5028
  12   2.0000      -0.885563       -24.0974
  13   2.0000      -0.807513       -21.9735
  14   2.0000      -0.759917       -20.6784
  15   2.0000      -0.720019       -19.5927
  16   2.0000      -0.680942       -18.5294
  17   2.0000      -0.630700       -17.1622
  18   2.0000      -0.599229       -16.3059
  19   2.0000      -0.571977       -15.5643
  20   2.0000      -0.535430       -14.5698
  21   2.0000      -0.521281       -14.1848
  22   2.0000      -0.493270       -13.4226
  23   2.0000      -0.467719       -12.7273
  24   2.0000      -0.460165       -12.5217
  25   2.0000      -0.452477       -12.3125
  26   2.0000      -0.441853       -12.0234
  27   2.0000      -0.427090       -11.6217
  28   2.0000      -0.409462       -11.1420
  29   2.0000      -0.397889       -10.8271
  30   2.0000      -0.381666       -10.3857
  31   2.0000      -0.366569        -9.9748
  32   2.0000      -0.359096        -9.7715
  33   2.0000      -0.338154        -9.2016
  34   2.0000      -0.332263        -9.0413
  35   2.0000      -0.324636        -8.8338
  36   2.0000      -0.312611        -8.5066
  37   2.0000      -0.307644        -8.3714
  38   2.0000      -0.295477        -8.0403
  39   2.0000      -0.287553        -7.8247
  40   2.0000      -0.283537        -7.7154
  41   2.0000      -0.280790        -7.6407
  42   2.0000      -0.200597        -5.4585
  43   2.0000      -0.112570        -3.0632
  44   0.0000       0.016580         0.4512
  45   0.0000       0.027731         0.7546
  46   0.0000       0.037771         1.0278
  47   0.0000       0.042502         1.1565
  48   0.0000       0.053404         1.4532

MULLIKEN ATOMIC CHARGES
-----------------------
   0 C :   -0.081104
   1 C :   -0.211737
   2 N :   -0.285223
   3 C :   -0.135468
   4 C :   -0.271809
   5 H :    0.164514
   6 C :   -0.187437
   7 H :    0.091432
   8 H :    0.098635
   9 H :    0.105955
  10 C :    0.016868
  11 H :    0.100154
  12 H :    0.105781
  13 F :   -0.204341
  14 H :    0.070559
  15 H :    0.098160
  16 C :    0.343716
  17 C :   -0.617498
  18 N :   -0.508562
  19 H :    0.222314
  20 H :    0.243477
  21 H :    0.239004
  22 H :    0.138505
  23 H :    0.092737
  24 H :    0.083936
  25 H :    0.089152
  26 H :    0.100923
  27 H :    0.097357
Sum of atomic charges:   -0.0000000

LOEWDIN ATOMIC CHARGES
----------------------
   0 C :   -0.291241
   1 C :   -0.265874
   2 N :    0.124209
   3 C :   -0.263231
   4 C :   -0.268185
   5 H :    0.145733
   6 C :   -0.268406
   7 H :    0.133085
   8 H :    0.136142
   9 H :    0.140585
  10 C :   -0.339939
  11 H :    0.126372
  12 H :    0.122330
  13 F :    0.160923
  14 H :    0.123019
  15 H :    0.122159
  16 C :   -0.473957
  17 C :   -0.361593
  18 N :   -0.023342
  19 H :    0.155156
  20 H :    0.170341
  21 H :    0.171740
  22 H :    0.092078
  23 H :    0.090100
  24 H :    0.135880
  25 H :    0.135114
  26 H :    0.132450
  27 H :    0.138353

  Mayer bond orders larger than 0.100000
B(  0-C ,  1-C ) :   1.0298 B(  0-C ,  2-N ) :   0.9896 B(  0-C , 14-H ) :   0.9355
B(  0-C , 15-H ) :   0.9393 B(  1-C ,  3-C ) :   1.0362 B(  1-C , 26-H ) :   0.9601
B(  1-C , 27-H ) :   0.9444 B(  2-N , 16-C ) :   1.2379 B(  2-N , 21-H ) :   0.8750
B(  3-C ,  4-C ) :   1.0130 B(  3-C , 24-H ) :   0.9397 B(  3-C , 25-H ) :   0.9471
B(  4-C ,  5-H ) :   0.9635 B(  4-C ,  6-C ) :   0.9873 B(  4-C ,  7-H ) :   0.9438
B(  6-C ,  8-H ) :   0.9524 B(  6-C ,  9-H ) :   0.9335 B(  6-C , 10-C ) :   1.0299
B( 10-C , 11-H ) :   0.9645 B( 10-C , 12-H ) :   0.9515 B( 10-C , 13-F ) :   0.9432
B( 16-C , 17-C ) :   1.6118 B( 16-C , 18-N ) :   1.1089 B( 17-C , 22-H ) :   0.9796
B( 17-C , 23-H ) :   0.9833 B( 18-N , 19-H ) :   0.9224 B( 18-N , 20-H ) :   0.9149

Dispersion correction           -0.035766880
FINAL SINGLE POINT ENERGY      -524.659402241350

DIPOLE MOMENT
-------------
                                X             Y             Z
Electronic contribution:      6.40662       2.41842       1.68376
Nuclear contribution   :     -7.85451      -2.70006      -1.48294
                        -----------------------------------------
Total Dipole Moment    :     -1.44789      -0.28164       0.20082
                        -----------------------------------------
Magnitude (a.u.)       :      1.48863
Magnitude (Debye)      :      3.78380

Rotational constants in cm-1:     0.044065     0.029250     0.019826
Rotational constants in MHz :  1321.026981   876.903192   594.367265

                             ****ORCA TERMINATED NORMALLY****
TOTAL RUN TIME: 0 days 0 hours 0 minutes 17 seconds 851 msec
