                         Program Version 5.0.0 -  RELEASE  -
|  1> !LC-BLYP RIJCOSX def2-SVPD def2/J TightSCF
|  2> *xyz -1 1
|  3> C          0.96805        1.63064       -3.71575
|  4> C         -0.50835        1.72268       -4.12430
|  5> S         -1.32861        0.14674       -4.43578
|  6> H         -0.59151        2.29496       -5.04722
|  7> H         -1.11411        2.23561       -3.37436
|  8> O         -2.57135        0.47573       -5.06834
|  9> O         -1.51496       -0.40051       -3.06342
| 10> O         -0.37793       -0.62756       -5.20114
| 11> H          1.51840        1.12197       -4.47946
| 12> H          1.05062        1.08971       -2.79625
| 13> H          1.36450        2.61606       -3.58668
| 14> *
| 15> %MaxCore 64000
| 16>
| 17> %pal nprocs 4
| 18> end
| 19>
| 20> %scf
| 21>   MaxIter 150
| 22> end
| 23>
| 24>
| 25>                          ****END OF INPUT****

CARTESIAN COORDINATES (ANGSTROEM)
---------------------------------
  C      0.968050    1.630640   -3.715750
  C     -0.508350    1.722680   -4.124300
  S     -1.328610    0.146740   -4.435780
  H     -0.591510    2.294960   -5.047220
  H     -1.114110    2.235610   -3.374360
  O     -2.571350    0.475730   -5.068340
  O     -1.514960   -0.400510   -3.063420
  O     -0.377930   -0.627560   -5.201140
  H      1.518400    1.121970   -4.479460
  H      1.050620    1.089710   -2.796250
  H      1.364500    2.616060   -3.586680

 Total Charge           Charge          ....   -1
 Multiplicity           Mult            ....    1
 Number of Electrons    NEL             ....   58
 Basis Dimension        Dim             ....  176

ORBITAL ENERGIES
----------------

  NO   OCC          E(Eh)            E(eV)
   0   2.0000     -88.310387     -2403.0478
   1   2.0000     -18.744940      -510.0757
   2   2.0000     -18.741547      -509.9834
   3   2.0000     -18.725716      -509.5526
   4   2.0000      -9.948429      -270.7105
   5   2.0000      -9.943472      -270.5756
   6   2.0000      -7.859355      -213.8639
   7   2.0000      -5.893713      -160.3761
   8   2.0000      -5.893512      -160.3706
   9   2.0000      -5.893108      -160.3596
  10   2.0000      -1.035510       -28.1776
  11   2.0000      -0.893782       -24.3210
  12   2.0000      -0.863060       -23.4851
  13   2.0000      -0.737759       -20.0754
  14   2.0000      -0.613905       -16.7052
  15   2.0000      -0.487539       -13.2666
  16   2.0000      -0.427409       -11.6304
  17   2.0000      -0.425233       -11.5712
  18   2.0000      -0.385392       -10.4870
  19   2.0000      -0.372337       -10.1318
  20   2.0000      -0.362616        -9.8673
  21   2.0000      -0.333018        -9.0619
  22   2.0000      -0.314833        -8.5670
  23   2.0000      -0.259428        -7.0594
  24   2.0000      -0.258431        -7.0323
  25   2.0000      -0.223132        -6.0717
  26   2.0000      -0.210781        -5.7356
  27   2.0000      -0.198737        -5.4079
  28   2.0000      -0.166511        -4.5310
  29   0.0000       0.190810         5.1922
  30   0.0000       0.212671         5.7871
  31   0.0000       0.217177         5.9097
  32   0.0000       0.223021         6.0687
  33   0.0000       0.244476         6.6525

MULLIKEN ATOMIC CHARGES
-----------------------
   0 C :    1.001953
   1 C :   -0.168714
   2 S :    1.106812
   3 H :   -0.139454
   4 H :   -0.142207
   5 O :   -0.693858
   6 O :   -0.773042
   7 O :   -0.725220
   8 H :   -0.135184
   9 H :   -0.141421
  10 H :   -0.189666
Sum of atomic charges:   -1.0000000

LOEWDIN ATOMIC CHARGES
----------------------
   0 C :    0.095710
   1 C :   -0.146404
   2 S :    0.800347
   3 H :    0.002575
   4 H :    0.009504
   5 O :   -0.553196
   6 O :   -0.586613
   7 O :   -0.556296
   8 H :   -0.021584
   9 H :   -0.013300
  10 H :   -0.030743

  Mayer bond orders larger than 0.100000
B(  0-C ,  1-C ) :   1.2713 B(  0-C ,  3-H ) :   0.1151 B(  0-C ,  8-H ) :   0.7680
B(  0-C ,  9-H ) :   0.7609 B(  0-C , 10-H ) :   0.6749 B(  1-C ,  2-S ) :   0.9139
B(  1-C ,  3-H ) :   0.9616 B(  1-C ,  4-H ) :   0.9494 B(  1-C ,  8-H ) :   0.2240
B(  1-C ,  9-H ) :   0.2155 B(  1-C , 10-H ) :   0.2601 B(  2-S ,  5-O ) :   1.4194
B(  2-S ,  6-O ) :   1.3195 B(  2-S ,  7-O ) :   1.3602

FINAL SINGLE POINT ENERGY      -701.944521868261

DIPOLE MOMENT
-------------
                                X             Y             Z
Electronic contribution:     -5.52860      -5.19678      -1.92360
Nuclear contribution   :      6.64523       6.80157       2.07300
                        -----------------------------------------
Total Dipole Moment    :      1.11663       1.60479       0.14940
                        -----------------------------------------
Magnitude (a.u.)       :      1.96075
Magnitude (Debye)      :      4.98383

Rotational constants in cm-1:     0.163070     0.082807     0.081541
Rotational constants in MHz :  4888.719902  2482.497026  2444.541148

                             ****ORCA TERMINATED NORMALLY****
TOTAL RUN TIME: 0 days 0 hours 0 minutes 28 seconds 619 msec
