                         Program Version 5.0.0 -  RELEASE  -
|  1> !LC-BLYP RIJCOSX def2-SVPD def2/J TightSCF
|  2> *xyz 1 1
|  3> C          1.36401        0.46874       -2.81376
|  4> N          0.42884        0.32140       -1.65531
|  5> C          0.96805        1.63064       -3.71575
|  6> H          0.74858       -0.40054       -1.00134
|  7> H         -0.46105        0.02333       -2.07773
|  8> H          0.31026        1.20137       -1.13495
|  9> H          1.29485       -0.46874       -3.36468
| 10> H          2.37622        0.59740       -2.43149
| 11> H          1.65923        1.70213       -4.52942
| 12> H          0.98421        2.54058       -3.15304
| 13> H         -0.01744        1.46536       -4.09838
| 14> *
| 15> %MaxCore 64000
| 16>
| 17> %pal nprocs 4
| 18> end
| 19>
| 20> %scf
| 21>   MaxIter 150
| 22> end
| 23>
| 24>
| 25>                          ****END OF INPUT****

CARTESIAN COORDINATES (ANGSTROEM)
---------------------------------
  C      1.364010    0.468740   -2.813760
  N      0.428840    0.321400   -1.655310
  C      0.968050    1.630640   -3.715750
  H      0.748580   -0.400540   -1.001340
  H     -0.461050    0.023330   -2.077730
  H      0.310260    1.201370   -1.134950
  H      1.294850   -0.468740   -3.364680
  H      2.376220    0.597400   -2.431490
  H      1.659230    1.702130   -4.529420
  H      0.984210    2.540580   -3.153040
  H     -0.017440    1.465360   -4.098380

 Total Charge           Charge          ....    1
 Multiplicity           Mult            ....    1
 Number of Electrons    NEL             ....   26
 Basis Dimension        Dim             ....  124

ORBITAL ENERGIES
----------------

  NO   OCC          E(Eh)            E(eV)
   0   2.0000     -14.522174      -395.1684
   1   2.0000     -10.340162      -281.3701
   2   2.0000     -10.262041      -279.2443
   3   2.0000      -1.308943       -35.6182
   4   2.0000      -1.069467       -29.1017
   5   2.0000      -0.948344       -25.8058
   6   2.0000      -0.910331       -24.7714
   7   2.0000      -0.892444       -24.2846
   8   2.0000      -0.798026       -21.7154
   9   2.0000      -0.748686       -20.3728
  10   2.0000      -0.685957       -18.6658
  11   2.0000      -0.668661       -18.1952
  12   2.0000      -0.651378       -17.7249
  13   0.0000      -0.132831        -3.6145
  14   0.0000      -0.071675        -1.9504
  15   0.0000      -0.069419        -1.8890
  16   0.0000      -0.063139        -1.7181
  17   0.0000      -0.031808        -0.8655

MULLIKEN ATOMIC CHARGES
-----------------------
   0 C :    0.326657
   1 N :   -0.674187
   2 C :    0.872415
   3 H :    0.308793
   4 H :    0.410435
   5 H :    0.365616
   6 H :   -0.148239
   7 H :   -0.204761
   8 H :   -0.089092
   9 H :   -0.092747
  10 H :   -0.074890
Sum of atomic charges:    1.0000000

LOEWDIN ATOMIC CHARGES
----------------------
   0 C :    0.033115
   1 N :    0.332055
   2 C :    0.161629
   3 H :    0.109124
   4 H :    0.108434
   5 H :    0.111746
   6 H :    0.057565
   7 H :    0.056826
   8 H :    0.020718
   9 H :    0.004342
  10 H :    0.004445

  Mayer bond orders larger than 0.100000
B(  0-C ,  1-N ) :   0.8567 B(  0-C ,  2-C ) :   1.3077 B(  0-C ,  6-H ) :   0.8675
B(  0-C ,  7-H ) :   0.9171 B(  0-C ,  8-H ) :   0.2234 B(  0-C ,  9-H ) :   0.1740
B(  0-C , 10-H ) :   0.1798 B(  1-N ,  3-H ) :   0.8178 B(  1-N ,  4-H ) :   0.7108
B(  1-N ,  5-H ) :   0.7652 B(  1-N ,  6-H ) :   0.1356 B(  2-C ,  8-H ) :   0.7527
B(  2-C ,  9-H ) :   0.7892 B(  2-C , 10-H ) :   0.7804

FINAL SINGLE POINT ENERGY      -135.044920903744

DIPOLE MOMENT
-------------
                                X             Y             Z
Electronic contribution:     -0.34751      -0.95198       1.57668
Nuclear contribution   :     -0.20470       0.31427      -0.31587
                        -----------------------------------------
Total Dipole Moment    :     -0.55221      -0.63772       1.26081
                        -----------------------------------------
Magnitude (a.u.)       :      1.51699
Magnitude (Debye)      :      3.85588

Rotational constants in cm-1:     1.011480     0.279280     0.248378
Rotational constants in MHz : 30323.408050  8372.602834  7446.185305

                             ****ORCA TERMINATED NORMALLY****
TOTAL RUN TIME: 0 days 0 hours 0 minutes 14 seconds 888 msec
