                         Program Version 5.0.0 -  RELEASE  -
|  1> !LC-BLYP RIJCOSX def2-SVPD def2/J TightSCF xyzfile
|  2>
|  3> *xyzfile 0 1 B.xyz
|  4>
|  5> %MaxCore 64000
|  6>
|  7> %pal nprocs 4
|  8> end
|  9>
| 10> %scf
| 11>   MaxIter 150
| 12> end
| 13>
| 14>
| 15>                          ****END OF INPUT****

CARTESIAN COORDINATES (ANGSTROEM)
---------------------------------
  C      1.364014    0.468742   -2.813764
  N      0.428844    0.321402   -1.655312
  C      0.968045    1.630639   -3.715749
  C     -0.508347    1.722679   -4.124300
  S     -1.328608    0.146737   -4.435781
  H     -0.591511    2.294958   -5.047219
  H     -1.114114    2.235610   -3.374362
  H      0.748578   -0.400542   -1.001345
  H     -0.461053    0.023332   -2.077731
  H      0.310258    1.201375   -1.134948
  O     -2.571347    0.475733   -5.068341
  O     -1.514963   -0.400512   -3.063420
  H      1.294847   -0.468742   -3.364684
  H      2.376216    0.597400   -2.431495
  H      1.578688    1.520652   -4.612733
  H      1.266653    2.575988   -3.250448
  O     -0.377928   -0.627558   -5.201141

 Total Charge           Charge          ....    0
 Multiplicity           Mult            ....    1
 Number of Electrons    NEL             ....   74
 Basis Dimension        Dim             ....  248

ORBITAL ENERGIES
----------------

  NO   OCC          E(Eh)            E(eV)
   0   2.0000     -88.478167     -2407.6133
   1   2.0000     -18.915027      -514.7041
   2   2.0000     -18.899881      -514.2919
   3   2.0000     -18.897383      -514.2239
   4   2.0000     -14.322308      -389.7298
   5   2.0000     -10.179320      -276.9934
   6   2.0000     -10.131749      -275.6989
   7   2.0000     -10.110865      -275.1306
   8   2.0000      -8.026524      -218.4128
   9   2.0000      -6.061540      -164.9429
  10   2.0000      -6.060386      -164.9115
  11   2.0000      -6.060008      -164.9012
  12   2.0000      -1.203006       -32.7355
  13   2.0000      -1.127316       -30.6758
  14   2.0000      -1.050220       -28.5779
  15   2.0000      -1.048083       -28.5198
  16   2.0000      -0.933899       -25.4127
  17   2.0000      -0.848137       -23.0790
  18   2.0000      -0.763931       -20.7876
  19   2.0000      -0.735397       -20.0112
  20   2.0000      -0.720496       -19.6057
  21   2.0000      -0.655088       -17.8259
  22   2.0000      -0.631839       -17.1932
  23   2.0000      -0.597600       -16.2615
  24   2.0000      -0.581370       -15.8199
  25   2.0000      -0.571311       -15.5462
  26   2.0000      -0.538819       -14.6620
  27   2.0000      -0.528788       -14.3891
  28   2.0000      -0.506174       -13.7737
  29   2.0000      -0.497845       -13.5471
  30   2.0000      -0.478755       -13.0276
  31   2.0000      -0.428698       -11.6655
  32   2.0000      -0.420473       -11.4417
  33   2.0000      -0.388025       -10.5587
  34   2.0000      -0.377797       -10.2804
  35   2.0000      -0.367305        -9.9949
  36   2.0000      -0.336855        -9.1663
  37   0.0000       0.014258         0.3880
  38   0.0000       0.057626         1.5681
  39   0.0000       0.060876         1.6565
  40   0.0000       0.083831         2.2811
  41   0.0000       0.100672         2.7394

MULLIKEN ATOMIC CHARGES
-----------------------
   0 C :    0.729796
   1 N :   -0.119622
   2 C :    0.436853
   3 C :    0.381517
   4 S :    1.129724
   5 H :   -0.328764
   6 H :    0.025392
   7 H :    0.258109
   8 H :   -0.217973
   9 H :    0.379360
  10 O :   -0.664491
  11 O :   -0.750270
  12 H :    0.004771
  13 H :   -0.398872
  14 H :    0.003135
  15 H :   -0.177080
  16 O :   -0.691587
Sum of atomic charges:    0.0000000

LOEWDIN ATOMIC CHARGES
----------------------
   0 C :    0.076577
   1 N :    0.327800
   2 C :   -0.025400
   3 C :   -0.071301
   4 S :    0.893272
   5 H :    0.025712
   6 H :    0.021297
   7 H :    0.098621
   8 H :   -0.123245
   9 H :    0.100484
  10 O :   -0.483445
  11 O :   -0.492255
  12 H :    0.038991
  13 H :    0.040097
  14 H :    0.045850
  15 H :    0.031003
  16 O :   -0.504058

  Mayer bond orders larger than 0.100000
B(  0-C ,  1-N ) :   0.9240 B(  0-C ,  2-C ) :   1.1883 B(  0-C , 12-H ) :   0.7599
B(  0-C , 13-H ) :   0.8079 B(  0-C , 14-H ) :   0.1820 B(  0-C , 15-H ) :   0.1574
B(  1-N ,  7-H ) :   0.8106 B(  1-N ,  8-H ) :   1.2667 B(  1-N ,  9-H ) :   0.7714
B(  1-N , 12-H ) :   0.1420 B(  1-N , 13-H ) :   0.1094 B(  2-C ,  3-C ) :   1.2298
B(  2-C ,  5-H ) :   0.1844 B(  2-C ,  6-H ) :   0.1292 B(  2-C , 12-H ) :   0.1311
B(  2-C , 14-H ) :   0.7582 B(  2-C , 15-H ) :   0.7364 B(  3-C ,  4-S ) :   0.8798
B(  3-C ,  5-H ) :   0.8016 B(  3-C ,  6-H ) :   0.8619 B(  3-C , 11-O ) :   0.1203
B(  3-C , 14-H ) :   0.1397 B(  3-C , 15-H ) :   0.1093 B(  4-S ,  5-H ) :   0.1114
B(  4-S , 10-O ) :   1.5541 B(  4-S , 11-O ) :   1.1144 B(  4-S , 16-O ) :   1.3928
B(  8-H , 11-O ) :   0.3607 B( 12-H , 13-H ) :  -0.1143

FINAL SINGLE POINT ENERGY      -796.823284330852

DIPOLE MOMENT
-------------
                                X             Y             Z
Electronic contribution:     -6.84387      -4.06785      -4.24566
Nuclear contribution   :      9.95459       5.57517       7.68169
                        -----------------------------------------
Total Dipole Moment    :      3.11072       1.50732       3.43603
                        -----------------------------------------
Magnitude (a.u.)       :      4.87390
Magnitude (Debye)      :     12.38847

Rotational constants in cm-1:     0.102119     0.045768     0.041299
Rotational constants in MHz :  3061.441288  1372.093000  1238.124534

                             ****ORCA TERMINATED NORMALLY****
TOTAL RUN TIME: 0 days 0 hours 0 minutes 52 seconds 374 msec
