                         Program Version 5.0.0 -  RELEASE  -
|  1> !LC-BLYP RIJCOSX def2-SVPD def2/J TightSCF
|  2> *xyz 0 1
|  3> C          0.96805        1.63064       -3.71575
|  4> C         -0.50835        1.72268       -4.12430
|  5> S         -1.32861        0.14674       -4.43578
|  6> H         -0.59151        2.29496       -5.04722
|  7> H         -1.11411        2.23561       -3.37436
|  8> F         -2.57135        0.47573       -5.06834
|  9> O         -1.51496       -0.40051       -3.06342
| 10> O         -0.37793       -0.62756       -5.20114
| 11> H          1.51840        1.12197       -4.47946
| 12> H          1.05062        1.08971       -2.79625
| 13> H          1.36450        2.61606       -3.58668
| 14> *
| 15> %MaxCore 64000
| 16>
| 17> %pal nprocs 4
| 18> end
| 19>
| 20> %scf
| 21>   MaxIter 150
| 22> end
| 23>
| 24>
| 25>                          ****END OF INPUT****

CARTESIAN COORDINATES (ANGSTROEM)
---------------------------------
  C      0.968050    1.630640   -3.715750
  C     -0.508350    1.722680   -4.124300
  S     -1.328610    0.146740   -4.435780
  H     -0.591510    2.294960   -5.047220
  H     -1.114110    2.235610   -3.374360
  F     -2.571350    0.475730   -5.068340
  O     -1.514960   -0.400510   -3.063420
  O     -0.377930   -0.627560   -5.201140
  H      1.518400    1.121970   -4.479460
  H      1.050620    1.089710   -2.796250
  H      1.364500    2.616060   -3.586680

 Total Charge           Charge          ....    0
 Multiplicity           Mult            ....    1
 Number of Electrons    NEL             ....   58
 Basis Dimension        Dim             ....  176

ORBITAL ENERGIES
----------------

  NO   OCC          E(Eh)            E(eV)
   0   2.0000     -88.568744     -2410.0780
   1   2.0000     -24.602583      -669.4703
   2   2.0000     -18.974802      -516.3306
   3   2.0000     -18.958713      -515.8928
   4   2.0000     -10.150311      -276.2040
   5   2.0000     -10.105976      -274.9976
   6   2.0000      -8.118644      -220.9195
   7   2.0000      -6.157498      -167.5540
   8   2.0000      -6.150532      -167.3645
   9   2.0000      -6.149105      -167.3257
  10   2.0000      -1.471649       -40.0456
  11   2.0000      -1.206424       -32.8285
  12   2.0000      -1.097751       -29.8713
  13   2.0000      -0.928979       -25.2788
  14   2.0000      -0.847709       -23.0673
  15   2.0000      -0.787564       -21.4307
  16   2.0000      -0.702574       -19.1180
  17   2.0000      -0.700845       -19.0709
  18   2.0000      -0.663529       -18.0555
  19   2.0000      -0.602384       -16.3917
  20   2.0000      -0.592455       -16.1215
  21   2.0000      -0.547676       -14.9030
  22   2.0000      -0.537246       -14.6192
  23   2.0000      -0.512261       -13.9393
  24   2.0000      -0.491373       -13.3709
  25   2.0000      -0.489080       -13.3086
  26   2.0000      -0.437607       -11.9079
  27   2.0000      -0.420739       -11.4489
  28   2.0000      -0.407283       -11.0827
  29   0.0000       0.044117         1.2005
  30   0.0000       0.071517         1.9461
  31   0.0000       0.079216         2.1556
  32   0.0000       0.081259         2.2112
  33   0.0000       0.108052         2.9402

MULLIKEN ATOMIC CHARGES
-----------------------
   0 C :    1.011636
   1 C :   -0.208645
   2 S :    1.295855
   3 H :   -0.087664
   4 H :   -0.088926
   5 F :   -0.338707
   6 O :   -0.619640
   7 O :   -0.573254
   8 H :   -0.112968
   9 H :   -0.123637
  10 H :   -0.154050
Sum of atomic charges:    0.0000000

LOEWDIN ATOMIC CHARGES
----------------------
   0 C :    0.139477
   1 C :   -0.110330
   2 S :    1.068503
   3 H :    0.020294
   4 H :    0.028383
   5 F :   -0.232109
   6 O :   -0.470179
   7 O :   -0.444900
   8 H :   -0.003521
   9 H :    0.004387
  10 H :   -0.000005

  Mayer bond orders larger than 0.100000
B(  0-C ,  1-C ) :   1.3299 B(  0-C ,  3-H ) :   0.1140 B(  0-C ,  8-H ) :   0.7623
B(  0-C ,  9-H ) :   0.7596 B(  0-C , 10-H ) :   0.6866 B(  1-C ,  2-S ) :   0.9512
B(  1-C ,  3-H ) :   0.9434 B(  1-C ,  4-H ) :   0.9463 B(  1-C ,  8-H ) :   0.2188
B(  1-C ,  9-H ) :   0.2104 B(  1-C , 10-H ) :   0.2513 B(  2-S ,  5-F ) :   0.7849
B(  2-S ,  6-O ) :   1.5236 B(  2-S ,  7-O ) :   1.5703

FINAL SINGLE POINT ENERGY      -726.408582324828

DIPOLE MOMENT
-------------
                                X             Y             Z
Electronic contribution:     -8.29470      -5.06730      -3.23457
Nuclear contribution   :      8.31000       6.74109       2.87442
                        -----------------------------------------
Total Dipole Moment    :      0.01530       1.67379      -0.36015
                        -----------------------------------------
Magnitude (a.u.)       :      1.71216
Magnitude (Debye)      :      4.35197

Rotational constants in cm-1:     0.158705     0.080192     0.078179
Rotational constants in MHz :  4757.865601  2404.095079  2343.752507

                             ****ORCA TERMINATED NORMALLY****
TOTAL RUN TIME: 0 days 0 hours 0 minutes 27 seconds 713 msec
