                         Program Version 5.0.0 -  RELEASE  -
|  1> !LC-BLYP RIJCOSX def2-SVPD def2/J TightSCF
|  2> *xyz 0 1
|  3> C          1.36401        0.46874       -2.81376
|  4> C          0.42884        0.32140       -1.65531
|  5> C          0.96805        1.63064       -3.71575
|  6> H          0.74858       -0.40054       -1.00134
|  7> H         -0.46105        0.02333       -2.07773
|  8> H          0.31026        1.20137       -1.13495
|  9> H          1.29485       -0.46874       -3.36468
| 10> H          2.37622        0.59740       -2.43149
| 11> H          1.65923        1.70213       -4.52942
| 12> H          0.98421        2.54058       -3.15304
| 13> H         -0.01744        1.46536       -4.09838
| 14> *
| 15> %MaxCore 64000
| 16>
| 17> %pal nprocs 4
| 18> end
| 19>
| 20> %scf
| 21>   MaxIter 150
| 22> end
| 23>
| 24>
| 25>                          ****END OF INPUT****

CARTESIAN COORDINATES (ANGSTROEM)
---------------------------------
  C      1.364010    0.468740   -2.813760
  C      0.428840    0.321400   -1.655310
  C      0.968050    1.630640   -3.715750
  H      0.748580   -0.400540   -1.001340
  H     -0.461050    0.023330   -2.077730
  H      0.310260    1.201370   -1.134950
  H      1.294850   -0.468740   -3.364680
  H      2.376220    0.597400   -2.431490
  H      1.659230    1.702130   -4.529420
  H      0.984210    2.540580   -3.153040
  H     -0.017440    1.465360   -4.098380

 Total Charge           Charge          ....    0
 Multiplicity           Mult            ....    1
 Number of Electrons    NEL             ....   26
 Basis Dimension        Dim             ....  124

ORBITAL ENERGIES
----------------

  NO   OCC          E(Eh)            E(eV)
   0   2.0000     -10.072569      -274.0885
   1   2.0000     -10.064038      -273.8564
   2   2.0000     -10.048340      -273.4292
   3   2.0000      -0.896074       -24.3834
   4   2.0000      -0.792745       -21.5717
   5   2.0000      -0.686874       -18.6908
   6   2.0000      -0.579053       -15.7568
   7   2.0000      -0.551266       -15.0007
   8   2.0000      -0.505117       -13.7449
   9   2.0000      -0.491541       -13.3755
  10   2.0000      -0.436609       -11.8807
  11   2.0000      -0.431297       -11.7362
  12   2.0000      -0.425735       -11.5848
  13   0.0000       0.078881         2.1465
  14   0.0000       0.105139         2.8610
  15   0.0000       0.113056         3.0764
  16   0.0000       0.142630         3.8812
  17   0.0000       0.160788         4.3753

MULLIKEN ATOMIC CHARGES
-----------------------
   0 C :   -0.414890
   1 C :    1.175026
   2 C :    0.853973
   3 H :   -0.314420
   4 H :   -0.213587
   5 H :   -0.282528
   6 H :   -0.147400
   7 H :   -0.236910
   8 H :   -0.183317
   9 H :   -0.112675
  10 H :   -0.123273
Sum of atomic charges:   -0.0000000

LOEWDIN ATOMIC CHARGES
----------------------
   0 C :   -0.132433
   1 C :    0.105486
   2 C :    0.104700
   3 H :   -0.030677
   4 H :   -0.026863
   5 H :   -0.026069
   6 H :    0.025738
   7 H :    0.023435
   8 H :   -0.017450
   9 H :   -0.013320
  10 H :   -0.012547

  Mayer bond orders larger than 0.100000
B(  0-C ,  1-C ) :   1.2779 B(  0-C ,  2-C ) :   1.2782 B(  0-C ,  3-H ) :   0.2371
B(  0-C ,  4-H ) :   0.3077 B(  0-C ,  5-H ) :   0.2138 B(  0-C ,  6-H ) :   0.8787
B(  0-C ,  7-H ) :   0.9335 B(  0-C ,  8-H ) :   0.2129 B(  0-C ,  9-H ) :   0.1850
B(  0-C , 10-H ) :   0.2132 B(  1-C ,  3-H ) :   0.6397 B(  1-C ,  4-H ) :   0.6323
B(  1-C ,  5-H ) :   0.6655 B(  1-C ,  6-H ) :   0.1334 B(  2-C ,  8-H ) :   0.7722
B(  2-C ,  9-H ) :   0.7862 B(  2-C , 10-H ) :   0.7760

FINAL SINGLE POINT ENERGY      -118.652934057446

DIPOLE MOMENT
-------------
                                X             Y             Z
Electronic contribution:      0.36973      -0.18653      -0.01935
Nuclear contribution   :     -0.35842       0.15752       0.02695
                        -----------------------------------------
Total Dipole Moment    :      0.01130      -0.02901       0.00760
                        -----------------------------------------
Magnitude (a.u.)       :      0.03205
Magnitude (Debye)      :      0.08146

Rotational constants in cm-1:     1.019891     0.293671     0.260247
Rotational constants in MHz : 30575.551403  8804.039097  7802.009261

                             ****ORCA TERMINATED NORMALLY****
TOTAL RUN TIME: 0 days 0 hours 0 minutes 14 seconds 928 msec
