                         Program Version 5.0.0 -  RELEASE  -
|  1> !LC-BLYP RIJCOSX def2-SVPD def2/J TightSCF
|  2> *xyz 0 1
|  3> C          0.96805        1.63064       -3.71575
|  4> C         -0.50835        1.72268       -4.12430
|  5> S         -1.32861        0.14674       -4.43578
|  6> H         -0.59151        2.29496       -5.04722
|  7> H         -1.11411        2.23561       -3.37436
|  8> O         -2.57135        0.47573       -5.06834
|  9> F         -1.51496       -0.40051       -3.06342
| 10> O         -0.37793       -0.62756       -5.20114
| 11> H          1.51840        1.12197       -4.47946
| 12> H          1.05062        1.08971       -2.79625
| 13> H          1.36450        2.61606       -3.58668
| 14> *
| 15> %MaxCore 64000
| 16>
| 17> %pal nprocs 4
| 18> end
| 19>
| 20> %scf
| 21>   MaxIter 150
| 22> end
| 23>
| 24>
| 25>                          ****END OF INPUT****

CARTESIAN COORDINATES (ANGSTROEM)
---------------------------------
  C      0.968050    1.630640   -3.715750
  C     -0.508350    1.722680   -4.124300
  S     -1.328610    0.146740   -4.435780
  H     -0.591510    2.294960   -5.047220
  H     -1.114110    2.235610   -3.374360
  O     -2.571350    0.475730   -5.068340
  F     -1.514960   -0.400510   -3.063420
  O     -0.377930   -0.627560   -5.201140
  H      1.518400    1.121970   -4.479460
  H      1.050620    1.089710   -2.796250
  H      1.364500    2.616060   -3.586680

 Total Charge           Charge          ....    0
 Multiplicity           Mult            ....    1
 Number of Electrons    NEL             ....   58
 Basis Dimension        Dim             ....  176

ORBITAL ENERGIES
----------------

  NO   OCC          E(Eh)            E(eV)
   0   2.0000     -88.565967     -2410.0025
   1   2.0000     -24.574060      -668.6942
   2   2.0000     -18.977855      -516.4137
   3   2.0000     -18.974374      -516.3190
   4   2.0000     -10.149167      -276.1729
   5   2.0000     -10.107777      -275.0466
   6   2.0000      -8.115729      -220.8402
   7   2.0000      -6.154371      -167.4690
   8   2.0000      -6.147935      -167.2938
   9   2.0000      -6.146410      -167.2523
  10   2.0000      -1.424907       -38.7737
  11   2.0000      -1.220127       -33.2014
  12   2.0000      -1.123753       -30.5789
  13   2.0000      -0.930599       -25.3229
  14   2.0000      -0.828560       -22.5463
  15   2.0000      -0.780044       -21.2261
  16   2.0000      -0.688842       -18.7443
  17   2.0000      -0.669262       -18.2115
  18   2.0000      -0.654279       -17.8038
  19   2.0000      -0.603940       -16.4341
  20   2.0000      -0.585294       -15.9267
  21   2.0000      -0.564192       -15.3524
  22   2.0000      -0.541634       -14.7386
  23   2.0000      -0.512702       -13.9513
  24   2.0000      -0.507690       -13.8149
  25   2.0000      -0.485463       -13.2101
  26   2.0000      -0.447603       -12.1799
  27   2.0000      -0.434282       -11.8174
  28   2.0000      -0.426678       -11.6105
  29   0.0000       0.045649         1.2422
  30   0.0000       0.075192         2.0461
  31   0.0000       0.079236         2.1561
  32   0.0000       0.081378         2.2144
  33   0.0000       0.110223         2.9993

MULLIKEN ATOMIC CHARGES
-----------------------
   0 C :    1.037009
   1 C :   -0.195985
   2 S :    1.271682
   3 H :   -0.086080
   4 H :   -0.105222
   5 O :   -0.554662
   6 F :   -0.370381
   7 O :   -0.589578
   8 H :   -0.109476
   9 H :   -0.143002
  10 H :   -0.154305
Sum of atomic charges:   -0.0000000

LOEWDIN ATOMIC CHARGES
----------------------
   0 C :    0.126310
   1 C :   -0.100357
   2 S :    1.062687
   3 H :    0.034749
   4 H :    0.027495
   5 O :   -0.439033
   6 F :   -0.258675
   7 O :   -0.443023
   8 H :   -0.004943
   9 H :   -0.003153
  10 H :   -0.002056

  Mayer bond orders larger than 0.100000
B(  0-C ,  1-C ) :   1.3004 B(  0-C ,  3-H ) :   0.1028 B(  0-C ,  8-H ) :   0.7687
B(  0-C ,  9-H ) :   0.7478 B(  0-C , 10-H ) :   0.6790 B(  1-C ,  2-S ) :   0.9714
B(  1-C ,  3-H ) :   0.9599 B(  1-C ,  4-H ) :   0.9485 B(  1-C ,  8-H ) :   0.2214
B(  1-C ,  9-H ) :   0.2115 B(  1-C , 10-H ) :   0.2503 B(  2-S ,  5-O ) :   1.6245
B(  2-S ,  6-F ) :   0.6972 B(  2-S ,  7-O ) :   1.5776 B(  5-O ,  7-O ) :   0.1032

FINAL SINGLE POINT ENERGY      -726.433304239115

DIPOLE MOMENT
-------------
                                X             Y             Z
Electronic contribution:     -6.50568      -6.56210       0.19506
Nuclear contribution   :      7.20921       7.65416       0.78523
                        -----------------------------------------
Total Dipole Moment    :      0.70353       1.09206       0.98029
                        -----------------------------------------
Magnitude (a.u.)       :      1.62743
Magnitude (Debye)      :      4.13659

Rotational constants in cm-1:     0.153780     0.081282     0.079816
Rotational constants in MHz :  4610.199589  2436.778679  2392.820729

                             ****ORCA TERMINATED NORMALLY****
TOTAL RUN TIME: 0 days 0 hours 0 minutes 25 seconds 677 msec
