                         Program Version 5.0.0 -  RELEASE  -
|  1> !LC-BLYP RIJCOSX def2-SVPD def2/J TightSCF
|  2> *xyz 0 1
|  3> C          0.96805        1.63064       -3.71575
|  4> C         -0.50835        1.72268       -4.12430
|  5> S         -1.32861        0.14674       -4.43578
|  6> H         -0.59151        2.29496       -5.04722
|  7> H         -1.11411        2.23561       -3.37436
|  8> O         -2.57135        0.47573       -5.06834
|  9> O         -1.51496       -0.40051       -3.06342
| 10> F         -0.37793       -0.62756       -5.20114
| 11> H          1.51840        1.12197       -4.47946
| 12> H          1.05062        1.08971       -2.79625
| 13> H          1.36450        2.61606       -3.58668
| 14> *
| 15> %MaxCore 64000
| 16>
| 17> %pal nprocs 4
| 18> end
| 19>
| 20> %scf
| 21>   MaxIter 150
| 22> end
| 23>
| 24>
| 25>                          ****END OF INPUT****

CARTESIAN COORDINATES (ANGSTROEM)
---------------------------------
  C      0.968050    1.630640   -3.715750
  C     -0.508350    1.722680   -4.124300
  S     -1.328610    0.146740   -4.435780
  H     -0.591510    2.294960   -5.047220
  H     -1.114110    2.235610   -3.374360
  O     -2.571350    0.475730   -5.068340
  O     -1.514960   -0.400510   -3.063420
  F     -0.377930   -0.627560   -5.201140
  H      1.518400    1.121970   -4.479460
  H      1.050620    1.089710   -2.796250
  H      1.364500    2.616060   -3.586680

 Total Charge           Charge          ....    0
 Multiplicity           Mult            ....    1
 Number of Electrons    NEL             ....   58
 Basis Dimension        Dim             ....  176

ORBITAL ENERGIES
----------------

  NO   OCC          E(Eh)            E(eV)
   0   2.0000     -88.567950     -2410.0564
   1   2.0000     -24.596519      -669.3053
   2   2.0000     -18.978396      -516.4284
   3   2.0000     -18.958678      -515.8919
   4   2.0000     -10.150032      -276.1964
   5   2.0000     -10.111539      -275.1490
   6   2.0000      -8.117831      -220.8974
   7   2.0000      -6.156754      -167.5338
   8   2.0000      -6.149759      -167.3434
   9   2.0000      -6.148274      -167.3030
  10   2.0000      -1.461038       -39.7569
  11   2.0000      -1.211922       -32.9781
  12   2.0000      -1.100655       -29.9503
  13   2.0000      -0.932868       -25.3846
  14   2.0000      -0.840279       -22.8652
  15   2.0000      -0.790136       -21.5007
  16   2.0000      -0.708955       -19.2916
  17   2.0000      -0.694416       -18.8960
  18   2.0000      -0.653261       -17.7761
  19   2.0000      -0.603866       -16.4320
  20   2.0000      -0.585465       -15.9313
  21   2.0000      -0.560027       -15.2391
  22   2.0000      -0.544462       -14.8156
  23   2.0000      -0.516790       -14.0626
  24   2.0000      -0.501172       -13.6376
  25   2.0000      -0.487171       -13.2566
  26   2.0000      -0.439839       -11.9686
  27   2.0000      -0.421396       -11.4668
  28   2.0000      -0.410282       -11.1643
  29   0.0000       0.042905         1.1675
  30   0.0000       0.073508         2.0003
  31   0.0000       0.078443         2.1345
  32   0.0000       0.081833         2.2268
  33   0.0000       0.109257         2.9730

MULLIKEN ATOMIC CHARGES
-----------------------
   0 C :    1.021198
   1 C :   -0.177648
   2 S :    1.264513
   3 H :   -0.096738
   4 H :   -0.094097
   5 O :   -0.542242
   6 O :   -0.621879
   7 F :   -0.348478
   8 H :   -0.130003
   9 H :   -0.120237
  10 H :   -0.154387
Sum of atomic charges:   -0.0000000

LOEWDIN ATOMIC CHARGES
----------------------
   0 C :    0.125002
   1 C :   -0.098737
   2 S :    1.064495
   3 H :    0.023678
   4 H :    0.040992
   5 O :   -0.438160
   6 O :   -0.469138
   7 F :   -0.237774
   8 H :   -0.009542
   9 H :    0.000508
  10 H :   -0.001323

  Mayer bond orders larger than 0.100000
B(  0-C ,  1-C ) :   1.2889 B(  0-C ,  3-H ) :   0.1071 B(  0-C ,  8-H ) :   0.7582
B(  0-C ,  9-H ) :   0.7695 B(  0-C , 10-H ) :   0.6805 B(  1-C ,  2-S ) :   0.9747
B(  1-C ,  3-H ) :   0.9680 B(  1-C ,  4-H ) :   0.9505 B(  1-C ,  8-H ) :   0.2093
B(  1-C ,  9-H ) :   0.2101 B(  1-C , 10-H ) :   0.2530 B(  2-S ,  5-O ) :   1.6278
B(  2-S ,  6-O ) :   1.5376 B(  2-S ,  7-F ) :   0.7508

FINAL SINGLE POINT ENERGY      -726.413543439537

DIPOLE MOMENT
-------------
                                X             Y             Z
Electronic contribution:     -4.57081      -6.91889      -3.44486
Nuclear contribution   :      6.02439       7.89075       3.01280
                        -----------------------------------------
Total Dipole Moment    :      1.45358       0.97186      -0.43206
                        -----------------------------------------
Magnitude (a.u.)       :      1.80113
Magnitude (Debye)      :      4.57812

Rotational constants in cm-1:     0.153652     0.082400     0.079295
Rotational constants in MHz :  4606.361242  2470.285703  2377.214112

                             ****ORCA TERMINATED NORMALLY****
TOTAL RUN TIME: 0 days 0 hours 0 minutes 24 seconds 895 msec
