                         Program Version 5.0.0 -  RELEASE  -
|  1> !LC-BLYP RIJCOSX def2-SVPD def2/J TightSCF xyzfile
|  2>
|  3> *xyzfile 0 1 D2.xyz
|  4>
|  5> %MaxCore 64000
|  6>
|  7> %pal nprocs 4
|  8> end
|  9>
| 10> %scf
| 11>   MaxIter 150
| 12> end
| 13>
| 14>
| 15>                          ****END OF INPUT****

CARTESIAN COORDINATES (ANGSTROEM)
---------------------------------
  C      1.364014    0.468742   -2.813764
  C      0.428844    0.321402   -1.655312
  C      0.968045    1.630639   -3.715749
  C     -0.508347    1.722679   -4.124300
  S     -1.328608    0.146737   -4.435781
  H     -0.591511    2.294958   -5.047219
  H     -1.114114    2.235610   -3.374362
  H      0.748578   -0.400542   -1.001345
  H     -0.461053    0.023332   -2.077731
  H      0.310258    1.201375   -1.134948
  O     -2.571347    0.475733   -5.068341
  F     -1.514963   -0.400512   -3.063420
  H      1.294847   -0.468742   -3.364684
  H      2.376216    0.597400   -2.431495
  H      1.578688    1.520652   -4.612733
  H      1.266653    2.575988   -3.250448
  O     -0.377928   -0.627558   -5.201141

 Total Charge           Charge          ....    0
 Multiplicity           Mult            ....    1
 Number of Electrons    NEL             ....   74
 Basis Dimension        Dim             ....  248

ORBITAL ENERGIES
----------------

  NO   OCC          E(Eh)            E(eV)
   0   2.0000     -88.570371     -2410.1223
   1   2.0000     -24.580369      -668.8658
   2   2.0000     -18.980666      -516.4902
   3   2.0000     -18.977199      -516.3958
   4   2.0000     -10.147738      -276.1340
   5   2.0000     -10.110307      -275.1154
   6   2.0000     -10.086840      -274.4769
   7   2.0000     -10.047026      -273.3935
   8   2.0000      -8.119622      -220.9462
   9   2.0000      -6.158487      -167.5809
  10   2.0000      -6.151746      -167.3975
  11   2.0000      -6.150203      -167.3555
  12   2.0000      -1.437983       -39.1295
  13   2.0000      -1.224553       -33.3218
  14   2.0000      -1.126824       -30.6624
  15   2.0000      -0.947993       -25.7962
  16   2.0000      -0.887585       -24.1524
  17   2.0000      -0.822535       -22.3823
  18   2.0000      -0.805283       -21.9129
  19   2.0000      -0.711504       -19.3610
  20   2.0000      -0.695605       -18.9284
  21   2.0000      -0.678597       -18.4656
  22   2.0000      -0.655788       -17.8449
  23   2.0000      -0.610262       -16.6061
  24   2.0000      -0.592115       -16.1123
  25   2.0000      -0.585672       -15.9370
  26   2.0000      -0.566544       -15.4164
  27   2.0000      -0.537124       -14.6159
  28   2.0000      -0.519548       -14.1376
  29   2.0000      -0.507959       -13.8223
  30   2.0000      -0.501451       -13.6452
  31   2.0000      -0.458907       -12.4875
  32   2.0000      -0.454379       -12.3643
  33   2.0000      -0.441923       -12.0253
  34   2.0000      -0.434726       -11.8295
  35   2.0000      -0.429169       -11.6783
  36   2.0000      -0.416987       -11.3468
  37   0.0000       0.051420         1.3992
  38   0.0000       0.070325         1.9136
  39   0.0000       0.076362         2.0779
  40   0.0000       0.081749         2.2245
  41   0.0000       0.102305         2.7838

MULLIKEN ATOMIC CHARGES
-----------------------
   0 C :   -0.153816
   1 C :    2.574161
   2 C :    0.489918
   3 C :    0.294800
   4 S :    1.249952
   5 H :   -0.331532
   6 H :    0.133528
   7 H :   -0.175315
   8 H :   -1.593554
   9 H :   -0.199115
  10 O :   -0.584134
  11 F :   -0.534312
  12 H :   -0.010359
  13 H :   -0.410547
  14 H :   -0.049634
  15 H :   -0.093066
  16 O :   -0.606973
Sum of atomic charges:    0.0000000

LOEWDIN ATOMIC CHARGES
----------------------
   0 C :   -0.059950
   1 C :    0.138678
   2 C :   -0.036659
   3 C :   -0.040150
   4 S :    1.084797
   5 H :    0.035318
   6 H :    0.033752
   7 H :   -0.014451
   8 H :   -0.137673
   9 H :   -0.011647
  10 O :   -0.428148
  11 F :   -0.258448
  12 H :    0.018423
  13 H :    0.032166
  14 H :    0.033952
  15 H :    0.039550
  16 O :   -0.429507

  Mayer bond orders larger than 0.100000
B(  0-C ,  1-C ) :   0.8989 B(  0-C ,  2-C ) :   1.2047 B(  0-C ,  3-C ) :   0.1037
B(  0-C ,  7-H ) :   0.2902 B(  0-C ,  8-H ) :   0.6243 B(  0-C ,  9-H ) :   0.3118
B(  0-C , 12-H ) :   0.7922 B(  0-C , 13-H ) :   0.8941 B(  0-C , 14-H ) :   0.1601
B(  0-C , 15-H ) :   0.1874 B(  1-C ,  7-H ) :   0.3296 B(  1-C ,  8-H ) :  -1.7406
B(  1-C , 11-F ) :  -0.2682 B(  1-C , 12-H ) :   0.1602 B(  2-C ,  3-C ) :   1.2266
B(  2-C ,  5-H ) :   0.1932 B(  2-C ,  6-H ) :   0.1181 B(  2-C , 12-H ) :   0.1570
B(  2-C , 14-H ) :   0.7912 B(  2-C , 15-H ) :   0.7113 B(  3-C ,  4-S ) :   0.9578
B(  3-C ,  5-H ) :   0.8167 B(  3-C ,  6-H ) :   0.8530 B(  3-C ,  8-H ) :   0.1310
B(  3-C , 11-F ) :   0.1217 B(  3-C , 14-H ) :   0.1570 B(  3-C , 15-H ) :   0.1046
B(  4-S ,  8-H ) :  -0.1375 B(  4-S , 10-O ) :   1.6619 B(  4-S , 11-F ) :   0.6677
B(  4-S , 16-O ) :   1.5729 B(  7-H ,  8-H ) :   0.2979 B(  7-H ,  9-H ) :  -0.2564
B(  8-H ,  9-H ) :   0.7234 B(  8-H , 11-F ) :   0.4957 B( 10-O , 16-O ) :   0.1120
B( 12-H , 13-H ) :  -0.1316

FINAL SINGLE POINT ENERGY      -804.724601328355

DIPOLE MOMENT
-------------
                                X             Y             Z
Electronic contribution:    -10.45939      -5.50452      -6.13535
Nuclear contribution   :     11.08796       6.45140       7.05645
                        -----------------------------------------
Total Dipole Moment    :      0.62857       0.94688       0.92110
                        -----------------------------------------
Magnitude (a.u.)       :      1.46291
Magnitude (Debye)      :      3.71842

Rotational constants in cm-1:     0.100113     0.046890     0.041843
Rotational constants in MHz :  3001.313402  1405.711946  1254.411771

                             ****ORCA TERMINATED NORMALLY****
TOTAL RUN TIME: 0 days 0 hours 0 minutes 49 seconds 984 msec
