                         Program Version 5.0.0 -  RELEASE  -
|  1> !wB97X-D3 RIJCOSX def2-SVP def2/J TightSCF
|  2> *xyz -1 1
|  3> C         -1.10433        0.25137       -2.86006
|  4> C         -0.71189        0.84252       -4.21834
|  5> H          0.15463        1.49980       -4.13091
|  6> H         -1.53813        1.45922       -4.58267
|  7> C         -0.39762       -0.20587       -5.28802
|  8> O          0.61717       -0.00535       -5.99827
|  9> O         -1.13317       -1.22138       -5.34147
| 10> H         -1.95489       -0.38644       -2.98099
| 11> H         -1.34603        1.04362       -2.18269
| 12> H         -0.28606       -0.31581       -2.46809
| 13> *
| 14>
| 15> %MaxCore 64000
| 16>
| 17> %pal nprocs 4
| 18> end
| 19>
| 20> %scf
| 21>   MaxIter 150
| 22> end
| 23>
| 24>
| 25>                          ****END OF INPUT****

CARTESIAN COORDINATES (ANGSTROEM)
---------------------------------
  C     -1.104330    0.251370   -2.860060
  C     -0.711890    0.842520   -4.218340
  H      0.154630    1.499800   -4.130910
  H     -1.538130    1.459220   -4.582670
  C     -0.397620   -0.205870   -5.288020
  O      0.617170   -0.005350   -5.998270
  O     -1.133170   -1.221380   -5.341470
  H     -1.954890   -0.386440   -2.980990
  H     -1.346030    1.043620   -2.182690
  H     -0.286060   -0.315810   -2.468090

 Total Charge           Charge          ....   -1
 Multiplicity           Mult            ....    1
 Number of Electrons    NEL             ....   40
 Basis Dimension        Dim             ....   95

ORBITAL ENERGIES
----------------

  NO   OCC          E(Eh)            E(eV)
   0   2.0000     -18.939470      -515.3692
   1   2.0000     -18.937292      -515.3099
   2   2.0000     -10.143033      -276.0060
   3   2.0000     -10.117441      -275.3096
   4   2.0000     -10.098432      -274.7923
   5   2.0000      -0.892794       -24.2942
   6   2.0000      -0.795901       -21.6576
   7   2.0000      -0.701743       -19.0954
   8   2.0000      -0.566726       -15.4214
   9   2.0000      -0.403530       -10.9806
  10   2.0000      -0.382332       -10.4038
  11   2.0000      -0.338734        -9.2174
  12   2.0000      -0.309525        -8.4226
  13   2.0000      -0.295691        -8.0462
  14   2.0000      -0.281848        -7.6695
  15   2.0000      -0.249671        -6.7939
  16   2.0000      -0.234495        -6.3809
  17   2.0000      -0.106566        -2.8998
  18   2.0000      -0.104370        -2.8400
  19   2.0000      -0.089651        -2.4395
  20   0.0000       0.300457         8.1759
  21   0.0000       0.351414         9.5625
  22   0.0000       0.359900         9.7934
  23   0.0000       0.369698        10.0600
  24   0.0000       0.375587        10.2203

MULLIKEN ATOMIC CHARGES
-----------------------
   0 C :   -0.008847
   1 C :   -0.056873
   2 H :   -0.032204
   3 H :   -0.021997
   4 C :    0.055059
   5 O :   -0.449505
   6 O :   -0.452347
   7 H :    0.008867
   8 H :   -0.040087
   9 H :   -0.002066
Sum of atomic charges:   -1.0000000

LOEWDIN ATOMIC CHARGES
----------------------
   0 C :   -0.066401
   1 C :   -0.098096
   2 H :   -0.000265
   3 H :    0.006818
   4 C :   -0.045102
   5 O :   -0.405100
   6 O :   -0.408307
   7 H :    0.012801
   8 H :   -0.007060
   9 H :    0.010712

  Mayer bond orders larger than 0.100000
B(  0-C ,  1-C ) :   1.0730 B(  0-C ,  7-H ) :   0.9648 B(  0-C ,  8-H ) :   0.9672
B(  0-C ,  9-H ) :   0.9783 B(  1-C ,  2-H ) :   0.9494 B(  1-C ,  3-H ) :   0.9434
B(  1-C ,  4-C ) :   0.9139 B(  4-C ,  5-O ) :   1.8669 B(  4-C ,  6-O ) :   1.8382
B(  5-O ,  6-O ) :   0.1088

Dispersion correction           -0.001932078
FINAL SINGLE POINT ENERGY      -267.544512580650

DIPOLE MOMENT
-------------
                                X             Y             Z
Electronic contribution:      1.58401      -2.46005      -5.35676
Nuclear contribution   :     -2.09607       3.44215       6.87744
                        -----------------------------------------
Total Dipole Moment    :     -0.51206       0.98210       1.52068
                        -----------------------------------------
Magnitude (a.u.)       :      1.88127
Magnitude (Debye)      :      4.78181

Rotational constants in cm-1:     0.324698     0.133739     0.103466
Rotational constants in MHz :  9734.203431  4009.406827  3101.846422

                             ****ORCA TERMINATED NORMALLY****
TOTAL RUN TIME: 0 days 0 hours 0 minutes 14 seconds 682 msec
