                         Program Version 5.0.0 -  RELEASE  -
|  1> !wB97X-D3 RIJCOSX def2-SVP def2/J TightSCF
|  2> *xyz 1 1
|  3> C          2.23447       -2.98975       -2.39762
|  4> N          2.75680       -2.94555       -3.76503
|  5> C          1.98721       -2.59045       -4.81898
|  6> N          0.74322       -3.01749       -4.91352
|  7> N          2.49964       -1.84860       -5.80324
|  8> H          3.30978       -1.29282       -5.55895
|  9> H          1.80103       -1.30430       -6.28913
| 10> H          3.71612       -2.62880       -3.82953
| 11> H          0.39583       -3.62775       -4.18502
| 12> H          0.03920       -2.45438       -5.37137
| 13> C          2.19120       -1.61950       -1.71549
| 14> H          2.87278       -3.66637       -1.82801
| 15> H          1.24619       -3.44744       -2.40784
| 16> H          1.56387       -0.96046       -2.27853
| 17> H          3.18033       -1.21449       -1.66568
| 18> H          1.79916       -1.72608       -0.72562
| 19> *
| 20>
| 21> %MaxCore 64000
| 22>
| 23> %pal nprocs 4
| 24> end
| 25>
| 26> %scf
| 27>   MaxIter 150
| 28> end
| 29>
| 30>
| 31>                          ****END OF INPUT****

CARTESIAN COORDINATES (ANGSTROEM)
---------------------------------
  C      2.234470   -2.989750   -2.397620
  N      2.756800   -2.945550   -3.765030
  C      1.987210   -2.590450   -4.818980
  N      0.743220   -3.017490   -4.913520
  N      2.499640   -1.848600   -5.803240
  H      3.309780   -1.292820   -5.558950
  H      1.801030   -1.304300   -6.289130
  H      3.716120   -2.628800   -3.829530
  H      0.395830   -3.627750   -4.185020
  H      0.039200   -2.454380   -5.371370
  C      2.191200   -1.619500   -1.715490
  H      2.872780   -3.666370   -1.828010
  H      1.246190   -3.447440   -2.407840
  H      1.563870   -0.960460   -2.278530
  H      3.180330   -1.214490   -1.665680
  H      1.799160   -1.726080   -0.725620

 Total Charge           Charge          ....    1
 Multiplicity           Mult            ....    1
 Number of Electrons    NEL             ....   48
 Basis Dimension        Dim             ....  134

ORBITAL ENERGIES
----------------

  NO   OCC          E(Eh)            E(eV)
   0   2.0000     -14.667131      -399.1129
   1   2.0000     -14.662658      -398.9912
   2   2.0000     -14.658390      -398.8751
   3   2.0000     -10.632403      -289.3224
   4   2.0000     -10.498641      -285.6826
   5   2.0000     -10.430770      -283.8357
   6   2.0000      -1.333404       -36.2838
   7   2.0000      -1.216162       -33.0935
   8   2.0000      -1.210968       -32.9521
   9   2.0000      -1.038944       -28.2711
  10   2.0000      -0.949501       -25.8372
  11   2.0000      -0.911466       -24.8023
  12   2.0000      -0.891402       -24.2563
  13   2.0000      -0.845162       -22.9980
  14   2.0000      -0.804574       -21.8936
  15   2.0000      -0.786408       -21.3992
  16   2.0000      -0.752119       -20.4662
  17   2.0000      -0.723383       -19.6842
  18   2.0000      -0.702767       -19.1233
  19   2.0000      -0.668062       -18.1789
  20   2.0000      -0.631492       -17.1838
  21   2.0000      -0.611621       -16.6431
  22   2.0000      -0.583424       -15.8758
  23   2.0000      -0.543435       -14.7876
  24   0.0000      -0.106335        -2.8935
  25   0.0000      -0.052082        -1.4172
  26   0.0000      -0.019122        -0.5203
  27   0.0000      -0.004261        -0.1160
  28   0.0000       0.013258         0.3608

MULLIKEN ATOMIC CHARGES
-----------------------
   0 C :   -0.012372
   1 N :   -0.175458
   2 C :    0.086842
   3 N :   -0.057723
   4 N :   -0.038775
   5 H :    0.174849
   6 H :    0.176190
   7 H :    0.170557
   8 H :    0.183074
   9 H :    0.188153
  10 C :   -0.038269
  11 H :    0.096881
  12 H :    0.059571
  13 H :    0.039249
  14 H :    0.059777
  15 H :    0.087452
Sum of atomic charges:    1.0000000

LOEWDIN ATOMIC CHARGES
----------------------
   0 C :    0.040899
   1 N :    0.006145
   2 C :    0.158275
   3 N :    0.058698
   4 N :    0.043600
   5 H :    0.108793
   6 H :    0.110948
   7 H :    0.102642
   8 H :    0.110893
   9 H :    0.115811
  10 C :   -0.051813
  11 H :    0.050620
  12 H :    0.030495
  13 H :    0.025918
  14 H :    0.035307
  15 H :    0.052770

  Mayer bond orders larger than 0.100000
B(  0-C ,  1-N ) :   0.9262 B(  0-C , 10-C ) :   1.0765 B(  0-C , 11-H ) :   0.9530
B(  0-C , 12-H ) :   0.9607 B(  1-N ,  2-C ) :   1.3491 B(  1-N ,  7-H ) :   0.9120
B(  2-C ,  3-N ) :   1.4139 B(  2-C ,  4-N ) :   1.3818 B(  3-N ,  8-H ) :   0.9235
B(  3-N ,  9-H ) :   0.9247 B(  4-N ,  5-H ) :   0.9271 B(  4-N ,  6-H ) :   0.9281
B( 10-C , 13-H ) :   0.9711 B( 10-C , 14-H ) :   0.9723 B( 10-C , 15-H ) :   0.9647

Dispersion correction           -0.003912956
FINAL SINGLE POINT ENERGY      -284.106941906536

DIPOLE MOMENT
-------------
                                X             Y             Z
Electronic contribution:      0.15747      -1.62672      -5.24290
Nuclear contribution   :     -0.59121       2.30298       4.63196
                        -----------------------------------------
Total Dipole Moment    :     -0.43374       0.67626      -0.61094
                        -----------------------------------------
Magnitude (a.u.)       :      1.00931
Magnitude (Debye)      :      2.56547

Rotational constants in cm-1:     0.205874     0.074757     0.066901
Rotational constants in MHz :  6171.937773  2241.151057  2005.629823

                             ****ORCA TERMINATED NORMALLY****
TOTAL RUN TIME: 0 days 0 hours 0 minutes 23 seconds 150 msec
