                         Program Version 5.0.0 -  RELEASE  -
|  1> !wB97X-D3 RIJCOSX def2-SVP def2/J TightSCF
|  2> *xyz 0 1
|  3> C         -1.10433        0.25137       -2.86006
|  4> C         -0.71189        0.84252       -4.21834
|  5> H          0.15463        1.49980       -4.13091
|  6> H         -1.53813        1.45922       -4.58267
|  7> C         -0.39762       -0.20587       -5.28802
|  8> F          0.61717       -0.00535       -5.99827
|  9> O         -1.13317       -1.22138       -5.34147
| 10> H         -1.95489       -0.38644       -2.98099
| 11> H         -1.34603        1.04362       -2.18269
| 12> H         -0.28606       -0.31581       -2.46809
| 13> *
| 14>
| 15> %MaxCore 64000
| 16>
| 17> %pal nprocs 4
| 18> end
| 19>
| 20> %scf
| 21>   MaxIter 150
| 22> end
| 23>
| 24>
| 25>                          ****END OF INPUT****

CARTESIAN COORDINATES (ANGSTROEM)
---------------------------------
  C     -1.104330    0.251370   -2.860060
  C     -0.711890    0.842520   -4.218340
  H      0.154630    1.499800   -4.130910
  H     -1.538130    1.459220   -4.582670
  C     -0.397620   -0.205870   -5.288020
  F      0.617170   -0.005350   -5.998270
  O     -1.133170   -1.221380   -5.341470
  H     -1.954890   -0.386440   -2.980990
  H     -1.346030    1.043620   -2.182690
  H     -0.286060   -0.315810   -2.468090

 Total Charge           Charge          ....    0
 Multiplicity           Mult            ....    1
 Number of Electrons    NEL             ....   40
 Basis Dimension        Dim             ....   95

ORBITAL ENERGIES
----------------

  NO   OCC          E(Eh)            E(eV)
   0   2.0000     -24.858789      -676.4420
   1   2.0000     -19.240941      -523.5726
   2   2.0000     -10.463325      -284.7215
   3   2.0000     -10.318324      -280.7759
   4   2.0000     -10.291476      -280.0453
   5   2.0000      -1.414852       -38.5001
   6   2.0000      -1.132980       -30.8300
   7   2.0000      -0.907480       -24.6938
   8   2.0000      -0.793809       -21.6006
   9   2.0000      -0.738231       -20.0883
  10   2.0000      -0.650327       -17.6963
  11   2.0000      -0.636002       -17.3065
  12   2.0000      -0.604362       -16.4455
  13   2.0000      -0.564094       -15.3498
  14   2.0000      -0.529244       -14.4015
  15   2.0000      -0.490853       -13.3568
  16   2.0000      -0.470070       -12.7913
  17   2.0000      -0.468420       -12.7464
  18   2.0000      -0.438437       -11.9305
  19   2.0000      -0.384231       -10.4554
  20   0.0000       0.064731         1.7614
  21   0.0000       0.146609         3.9894
  22   0.0000       0.191700         5.2164
  23   0.0000       0.199172         5.4197
  24   0.0000       0.216028         5.8784

MULLIKEN ATOMIC CHARGES
-----------------------
   0 C :   -0.025884
   1 C :   -0.144080
   2 H :    0.046348
   3 H :    0.076639
   4 C :    0.266459
   5 F :   -0.082011
   6 O :   -0.271505
   7 H :    0.058289
   8 H :    0.036729
   9 H :    0.039016
Sum of atomic charges:   -0.0000000

LOEWDIN ATOMIC CHARGES
----------------------
   0 C :   -0.041051
   1 C :   -0.080183
   2 H :    0.030683
   3 H :    0.052172
   4 C :    0.112739
   5 F :    0.040859
   6 O :   -0.204724
   7 H :    0.033397
   8 H :    0.028460
   9 H :    0.027649

  Mayer bond orders larger than 0.100000
B(  0-C ,  1-C ) :   1.0801 B(  0-C ,  7-H ) :   0.9706 B(  0-C ,  8-H ) :   0.9716
B(  0-C ,  9-H ) :   0.9816 B(  1-C ,  2-H ) :   0.9481 B(  1-C ,  3-H ) :   0.9324
B(  1-C ,  4-C ) :   0.9886 B(  4-C ,  5-F ) :   1.1947 B(  4-C ,  6-O ) :   2.0705

Dispersion correction           -0.001898312
FINAL SINGLE POINT ENERGY      -292.097372571548

DIPOLE MOMENT
-------------
                                X             Y             Z
Electronic contribution:      3.59985      -2.39674      -7.75959
Nuclear contribution   :     -3.36368       3.36392       8.24820
                        -----------------------------------------
Total Dipole Moment    :      0.23617       0.96718       0.48860
                        -----------------------------------------
Magnitude (a.u.)       :      1.10903
Magnitude (Debye)      :      2.81893

Rotational constants in cm-1:     0.315013     0.126712     0.098430
Rotational constants in MHz :  9443.861322  3798.734540  2950.846388

                             ****ORCA TERMINATED NORMALLY****
TOTAL RUN TIME: 0 days 0 hours 0 minutes 13 seconds 440 msec
