                         Program Version 5.0.0 -  RELEASE  -
|  1> !wB97X-D3 RIJCOSX def2-SVP def2/J TightSCF
|  2> *xyz 0 1
|  3> C          2.23447       -2.98975       -2.39762
|  4> C          2.75680       -2.94555       -3.76503
|  5> C          1.98721       -2.59045       -4.81898
|  6> N          0.74322       -3.01749       -4.91352
|  7> N          2.49964       -1.84860       -5.80324
|  8> H          3.30978       -1.29282       -5.55895
|  9> H          1.80103       -1.30430       -6.28913
| 10> H          3.71612       -2.62880       -3.82953
| 11> H          0.39583       -3.62775       -4.18502
| 12> H          0.03920       -2.45438       -5.37137
| 13> C          2.19120       -1.61950       -1.71549
| 14> H          2.87278       -3.66637       -1.82801
| 15> H          1.24619       -3.44744       -2.40784
| 16> H          1.56387       -0.96046       -2.27853
| 17> H          3.18033       -1.21449       -1.66568
| 18> H          1.79916       -1.72608       -0.72562
| 19> *
| 20>
| 21> %MaxCore 64000
| 22>
| 23> %pal nprocs 4
| 24> end
| 25>
| 26> %scf
| 27>   MaxIter 150
| 28> end
| 29>
| 30>
| 31>                          ****END OF INPUT****

CARTESIAN COORDINATES (ANGSTROEM)
---------------------------------
  C      2.234470   -2.989750   -2.397620
  C      2.756800   -2.945550   -3.765030
  C      1.987210   -2.590450   -4.818980
  N      0.743220   -3.017490   -4.913520
  N      2.499640   -1.848600   -5.803240
  H      3.309780   -1.292820   -5.558950
  H      1.801030   -1.304300   -6.289130
  H      3.716120   -2.628800   -3.829530
  H      0.395830   -3.627750   -4.185020
  H      0.039200   -2.454380   -5.371370
  C      2.191200   -1.619500   -1.715490
  H      2.872780   -3.666370   -1.828010
  H      1.246190   -3.447440   -2.407840
  H      1.563870   -0.960460   -2.278530
  H      3.180330   -1.214490   -1.665680
  H      1.799160   -1.726080   -0.725620

 Total Charge           Charge          ....    0
 Multiplicity           Mult            ....    1
 Number of Electrons    NEL             ....   48
 Basis Dimension        Dim             ....  134

ORBITAL ENERGIES
----------------

  NO   OCC          E(Eh)            E(eV)
   0   2.0000     -14.436610      -392.8401
   1   2.0000     -14.430764      -392.6810
   2   2.0000     -10.333168      -281.1798
   3   2.0000     -10.261920      -279.2411
   4   2.0000     -10.255407      -279.0638
   5   2.0000     -10.204120      -277.6682
   6   2.0000      -1.075089       -29.2546
   7   2.0000      -0.980349       -26.6767
   8   2.0000      -0.878808       -23.9136
   9   2.0000      -0.794614       -21.6225
  10   2.0000      -0.719577       -19.5807
  11   2.0000      -0.679034       -18.4775
  12   2.0000      -0.641436       -17.4544
  13   2.0000      -0.604265       -16.4429
  14   2.0000      -0.563850       -15.3431
  15   2.0000      -0.547701       -14.9037
  16   2.0000      -0.508583       -13.8392
  17   2.0000      -0.488592       -13.2953
  18   2.0000      -0.465267       -12.6605
  19   2.0000      -0.451954       -12.2983
  20   2.0000      -0.417216       -11.3530
  21   2.0000      -0.409411       -11.1406
  22   2.0000      -0.363929        -9.9030
  23   2.0000      -0.238037        -6.4773
  24   0.0000       0.122021         3.3204
  25   0.0000       0.151568         4.1244
  26   0.0000       0.171556         4.6683
  27   0.0000       0.175721         4.7816
  28   0.0000       0.192724         5.2443

MULLIKEN ATOMIC CHARGES
-----------------------
   0 C :   -0.030416
   1 C :   -0.147585
   2 C :   -0.073508
   3 N :   -0.095535
   4 N :   -0.084681
   5 H :    0.127583
   6 H :    0.105498
   7 H :   -0.081059
   8 H :    0.130956
   9 H :    0.113682
  10 C :    0.020618
  11 H :    0.011920
  12 H :   -0.021848
  13 H :    0.000942
  14 H :    0.010240
  15 H :    0.013194
Sum of atomic charges:    0.0000000

LOEWDIN ATOMIC CHARGES
----------------------
   0 C :   -0.042079
   1 C :   -0.235337
   2 C :    0.026701
   3 N :   -0.014426
   4 N :   -0.026873
   5 H :    0.079955
   6 H :    0.064736
   7 H :   -0.014091
   8 H :    0.081927
   9 H :    0.066279
  10 C :   -0.057815
  11 H :    0.019558
  12 H :    0.005259
  13 H :    0.012566
  14 H :    0.018060
  15 H :    0.015580

  Mayer bond orders larger than 0.100000
B(  0-C ,  1-C ) :   1.0840 B(  0-C , 10-C ) :   1.0694 B(  0-C , 11-H ) :   0.9413
B(  0-C , 12-H ) :   0.9521 B(  1-C ,  2-C ) :   1.6689 B(  1-C ,  7-H ) :   0.9365
B(  2-C ,  3-N ) :   1.2620 B(  2-C ,  4-N ) :   1.2085 B(  3-N ,  8-H ) :   0.9467
B(  3-N ,  9-H ) :   0.9460 B(  4-N ,  5-H ) :   0.9458 B(  4-N ,  6-H ) :   0.9563
B( 10-C , 13-H ) :   0.9750 B( 10-C , 14-H ) :   0.9728 B( 10-C , 15-H ) :   0.9689

Dispersion correction           -0.003907135
FINAL SINGLE POINT ENERGY      -267.636487662016

DIPOLE MOMENT
-------------
                                X             Y             Z
Electronic contribution:     -0.41797      -1.32334      -5.10409
Nuclear contribution   :     -0.44240       2.20379       4.66256
                        -----------------------------------------
Total Dipole Moment    :     -0.86037       0.88044      -0.44153
                        -----------------------------------------
Magnitude (a.u.)       :      1.30781
Magnitude (Debye)      :      3.32419

Rotational constants in cm-1:     0.209447     0.075194     0.066975
Rotational constants in MHz :  6279.068019  2254.272519  2007.845458

                             ****ORCA TERMINATED NORMALLY****
TOTAL RUN TIME: 0 days 0 hours 0 minutes 24 seconds 653 msec
