                         Program Version 5.0.0 -  RELEASE  -
|  1> !wB97X-D3 RIJCOSX def2-SVP def2/J TightSCF
|  2> *xyz 0 1
|  3> C         -1.10433        0.25137       -2.86006
|  4> C         -0.71189        0.84252       -4.21834
|  5> H          0.15463        1.49980       -4.13091
|  6> H         -1.53813        1.45922       -4.58267
|  7> C         -0.39762       -0.20587       -5.28802
|  8> O          0.61717       -0.00535       -5.99827
|  9> F         -1.13317       -1.22138       -5.34147
| 10> H         -1.95489       -0.38644       -2.98099
| 11> H         -1.34603        1.04362       -2.18269
| 12> H         -0.28606       -0.31581       -2.46809
| 13> *
| 14>
| 15> %MaxCore 64000
| 16>
| 17> %pal nprocs 4
| 18> end
| 19>
| 20> %scf
| 21>   MaxIter 150
| 22> end
| 23>
| 24>
| 25>                          ****END OF INPUT****

CARTESIAN COORDINATES (ANGSTROEM)
---------------------------------
  C     -1.104330    0.251370   -2.860060
  C     -0.711890    0.842520   -4.218340
  H      0.154630    1.499800   -4.130910
  H     -1.538130    1.459220   -4.582670
  C     -0.397620   -0.205870   -5.288020
  O      0.617170   -0.005350   -5.998270
  F     -1.133170   -1.221380   -5.341470
  H     -1.954890   -0.386440   -2.980990
  H     -1.346030    1.043620   -2.182690
  H     -0.286060   -0.315810   -2.468090

 Total Charge           Charge          ....    0
 Multiplicity           Mult            ....    1
 Number of Electrons    NEL             ....   40
 Basis Dimension        Dim             ....   95

ORBITAL ENERGIES
----------------

  NO   OCC          E(Eh)            E(eV)
   0   2.0000     -24.860167      -676.4795
   1   2.0000     -19.239142      -523.5237
   2   2.0000     -10.462287      -284.6933
   3   2.0000     -10.317270      -280.7472
   4   2.0000     -10.297212      -280.2014
   5   2.0000      -1.415650       -38.5218
   6   2.0000      -1.131418       -30.7874
   7   2.0000      -0.911832       -24.8122
   8   2.0000      -0.788609       -21.4591
   9   2.0000      -0.745749       -20.2929
  10   2.0000      -0.652815       -17.7640
  11   2.0000      -0.643182       -17.5019
  12   2.0000      -0.593868       -16.1600
  13   2.0000      -0.564951       -15.3731
  14   2.0000      -0.530620       -14.4389
  15   2.0000      -0.496230       -13.5031
  16   2.0000      -0.478864       -13.0305
  17   2.0000      -0.471848       -12.8396
  18   2.0000      -0.438242       -11.9252
  19   2.0000      -0.379062       -10.3148
  20   0.0000       0.067314         1.8317
  21   0.0000       0.141440         3.8488
  22   0.0000       0.189841         5.1658
  23   0.0000       0.200289         5.4501
  24   0.0000       0.216577         5.8934

MULLIKEN ATOMIC CHARGES
-----------------------
   0 C :   -0.051246
   1 C :   -0.137047
   2 H :    0.072516
   3 H :    0.069238
   4 C :    0.265042
   5 O :   -0.267336
   6 F :   -0.084392
   7 H :    0.043463
   8 H :    0.043969
   9 H :    0.045793
Sum of atomic charges:   -0.0000000

LOEWDIN ATOMIC CHARGES
----------------------
   0 C :   -0.053054
   1 C :   -0.075686
   2 H :    0.047189
   3 H :    0.046515
   4 C :    0.111299
   5 O :   -0.201843
   6 F :    0.039912
   7 H :    0.025967
   8 H :    0.031471
   9 H :    0.028229

  Mayer bond orders larger than 0.100000
B(  0-C ,  1-C ) :   1.0584 B(  0-C ,  7-H ) :   0.9745 B(  0-C ,  8-H ) :   0.9713
B(  0-C ,  9-H ) :   0.9807 B(  1-C ,  2-H ) :   0.9557 B(  1-C ,  3-H ) :   0.9361
B(  1-C ,  4-C ) :   0.9958 B(  4-C ,  5-O ) :   2.0852 B(  4-C ,  6-F ) :   1.1847

Dispersion correction           -0.001893142
FINAL SINGLE POINT ENERGY      -292.096198891164

DIPOLE MOMENT
-------------
                                X             Y             Z
Electronic contribution:      0.70211      -4.40123      -6.65087
Nuclear contribution   :     -1.45527       4.68977       7.53208
                        -----------------------------------------
Total Dipole Moment    :     -0.75316       0.28854       0.88121
                        -----------------------------------------
Magnitude (a.u.)       :      1.19459
Magnitude (Debye)      :      3.03639

Rotational constants in cm-1:     0.298240     0.132464     0.099915
Rotational constants in MHz :  8940.998095  3971.171647  2995.369122

                             ****ORCA TERMINATED NORMALLY****
TOTAL RUN TIME: 0 days 0 hours 0 minutes 14 seconds 126 msec
