                         Program Version 5.0.0 -  RELEASE  -
|  1> !wB97X-D3 RIJCOSX def2-SVP def2/J TightSCF
|  2> *xyz 0 1
|  3> C          2.23447       -2.98975       -2.39762
|  4> N          2.75680       -2.94555       -3.76503
|  5> C          1.98721       -2.59045       -4.81898
|  6> C          0.74322       -3.01749       -4.91352
|  7> N          2.49964       -1.84860       -5.80324
|  8> H          3.30978       -1.29282       -5.55895
|  9> H          1.80103       -1.30430       -6.28913
| 10> H          3.71612       -2.62880       -3.82953
| 11> H          0.39583       -3.62775       -4.18502
| 12> H          0.03920       -2.45438       -5.37137
| 13> C          2.19120       -1.61950       -1.71549
| 14> H          2.87278       -3.66637       -1.82801
| 15> H          1.24619       -3.44744       -2.40784
| 16> H          1.56387       -0.96046       -2.27853
| 17> H          3.18033       -1.21449       -1.66568
| 18> H          1.79916       -1.72608       -0.72562
| 19> *
| 20>
| 21> %MaxCore 64000
| 22>
| 23> %pal nprocs 4
| 24> end
| 25>
| 26> %scf
| 27>   MaxIter 150
| 28> end
| 29>
| 30>
| 31>                          ****END OF INPUT****

CARTESIAN COORDINATES (ANGSTROEM)
---------------------------------
  C      2.234470   -2.989750   -2.397620
  N      2.756800   -2.945550   -3.765030
  C      1.987210   -2.590450   -4.818980
  C      0.743220   -3.017490   -4.913520
  N      2.499640   -1.848600   -5.803240
  H      3.309780   -1.292820   -5.558950
  H      1.801030   -1.304300   -6.289130
  H      3.716120   -2.628800   -3.829530
  H      0.395830   -3.627750   -4.185020
  H      0.039200   -2.454380   -5.371370
  C      2.191200   -1.619500   -1.715490
  H      2.872780   -3.666370   -1.828010
  H      1.246190   -3.447440   -2.407840
  H      1.563870   -0.960460   -2.278530
  H      3.180330   -1.214490   -1.665680
  H      1.799160   -1.726080   -0.725620

 Total Charge           Charge          ....    0
 Multiplicity           Mult            ....    1
 Number of Electrons    NEL             ....   48
 Basis Dimension        Dim             ....  134

ORBITAL ENERGIES
----------------

  NO   OCC          E(Eh)            E(eV)
   0   2.0000     -14.430953      -392.6862
   1   2.0000     -14.429555      -392.6481
   2   2.0000     -10.330067      -281.0954
   3   2.0000     -10.319295      -280.8023
   4   2.0000     -10.277762      -279.6721
   5   2.0000     -10.199845      -277.5519
   6   2.0000      -1.072636       -29.1879
   7   2.0000      -0.991112       -26.9695
   8   2.0000      -0.862188       -23.4613
   9   2.0000      -0.817049       -22.2330
  10   2.0000      -0.743614       -20.2348
  11   2.0000      -0.660810       -17.9816
  12   2.0000      -0.642396       -17.4805
  13   2.0000      -0.609183       -16.5767
  14   2.0000      -0.559223       -15.2172
  15   2.0000      -0.544238       -14.8095
  16   2.0000      -0.512694       -13.9511
  17   2.0000      -0.490809       -13.3556
  18   2.0000      -0.487625       -13.2690
  19   2.0000      -0.463184       -12.6039
  20   2.0000      -0.450816       -12.2673
  21   2.0000      -0.439797       -11.9675
  22   2.0000      -0.340067        -9.2537
  23   2.0000      -0.256412        -6.9773
  24   0.0000       0.128274         3.4905
  25   0.0000       0.151984         4.1357
  26   0.0000       0.167780         4.5655
  27   0.0000       0.179660         4.8888
  28   0.0000       0.198045         5.3891

MULLIKEN ATOMIC CHARGES
-----------------------
   0 C :    0.053292
   1 N :   -0.219423
   2 C :    0.002675
   3 C :   -0.132820
   4 N :   -0.093726
   5 H :    0.097443
   6 H :    0.127618
   7 H :    0.103955
   8 H :   -0.031338
   9 H :   -0.031284
  10 C :   -0.033047
  11 H :    0.028854
  12 H :    0.046780
  13 H :    0.034187
  14 H :    0.016422
  15 H :    0.030412
Sum of atomic charges:    0.0000000

LOEWDIN ATOMIC CHARGES
----------------------
   0 C :    0.040315
   1 N :   -0.049463
   2 C :    0.036402
   3 C :   -0.236901
   4 N :   -0.031164
   5 H :    0.058423
   6 H :    0.082616
   7 H :    0.060554
   8 H :   -0.005782
   9 H :   -0.005535
  10 C :   -0.067795
  11 H :    0.020190
  12 H :    0.029578
  13 H :    0.024863
  14 H :    0.016916
  15 H :    0.026783

  Mayer bond orders larger than 0.100000
B(  0-C ,  1-N ) :   0.9932 B(  0-C , 10-C ) :   1.0847 B(  0-C , 11-H ) :   0.9635
B(  0-C , 12-H ) :   0.9573 B(  1-N ,  2-C ) :   1.1493 B(  1-N ,  7-H ) :   0.9405
B(  2-C ,  3-C ) :   1.7652 B(  2-C ,  4-N ) :   1.2055 B(  3-C ,  8-H ) :   0.9535
B(  3-C ,  9-H ) :   0.9579 B(  4-N ,  5-H ) :   0.9502 B(  4-N ,  6-H ) :   0.9477
B( 10-C , 13-H ) :   0.9714 B( 10-C , 14-H ) :   0.9735 B( 10-C , 15-H ) :   0.9685

Dispersion correction           -0.003916130
FINAL SINGLE POINT ENERGY      -267.631725876525

DIPOLE MOMENT
-------------
                                X             Y             Z
Electronic contribution:      1.56197      -1.17955      -3.87106
Nuclear contribution   :     -0.86957       2.18853       4.41892
                        -----------------------------------------
Total Dipole Moment    :      0.69241       1.00898       0.54786
                        -----------------------------------------
Magnitude (a.u.)       :      1.34075
Magnitude (Debye)      :      3.40792

Rotational constants in cm-1:     0.214718     0.075736     0.068547
Rotational constants in MHz :  6437.075121  2270.519635  2054.974198

                             ****ORCA TERMINATED NORMALLY****
TOTAL RUN TIME: 0 days 0 hours 0 minutes 24 seconds 409 msec
