                         Program Version 5.0.0 -  RELEASE  -
|  1> !wB97X-D3 RIJCOSX def2-SVP def2/J TightSCF
|  2> *xyz 0 1
|  3> C          2.23447       -2.98975       -2.39762
|  4> N          2.75680       -2.94555       -3.76503
|  5> C          1.98721       -2.59045       -4.81898
|  6> N          0.74322       -3.01749       -4.91352
|  7> C          2.49964       -1.84860       -5.80324
|  8> H          3.30978       -1.29282       -5.55895
|  9> H          1.80103       -1.30430       -6.28913
| 10> H          3.71612       -2.62880       -3.82953
| 11> H          0.39583       -3.62775       -4.18502
| 12> H          0.03920       -2.45438       -5.37137
| 13> C          2.19120       -1.61950       -1.71549
| 14> H          2.87278       -3.66637       -1.82801
| 15> H          1.24619       -3.44744       -2.40784
| 16> H          1.56387       -0.96046       -2.27853
| 17> H          3.18033       -1.21449       -1.66568
| 18> H          1.79916       -1.72608       -0.72562
| 19> *
| 20>
| 21> %MaxCore 64000
| 22>
| 23> %pal nprocs 4
| 24> end
| 25>
| 26> %scf
| 27>   MaxIter 150
| 28> end
| 29>
| 30>
| 31>                          ****END OF INPUT****

CARTESIAN COORDINATES (ANGSTROEM)
---------------------------------
  C      2.234470   -2.989750   -2.397620
  N      2.756800   -2.945550   -3.765030
  C      1.987210   -2.590450   -4.818980
  N      0.743220   -3.017490   -4.913520
  C      2.499640   -1.848600   -5.803240
  H      3.309780   -1.292820   -5.558950
  H      1.801030   -1.304300   -6.289130
  H      3.716120   -2.628800   -3.829530
  H      0.395830   -3.627750   -4.185020
  H      0.039200   -2.454380   -5.371370
  C      2.191200   -1.619500   -1.715490
  H      2.872780   -3.666370   -1.828010
  H      1.246190   -3.447440   -2.407840
  H      1.563870   -0.960460   -2.278530
  H      3.180330   -1.214490   -1.665680
  H      1.799160   -1.726080   -0.725620

 Total Charge           Charge          ....    0
 Multiplicity           Mult            ....    1
 Number of Electrons    NEL             ....   48
 Basis Dimension        Dim             ....  134

ORBITAL ENERGIES
----------------

  NO   OCC          E(Eh)            E(eV)
   0   2.0000     -14.433313      -392.7504
   1   2.0000     -14.429657      -392.6509
   2   2.0000     -10.333703      -281.1943
   3   2.0000     -10.328726      -281.0589
   4   2.0000     -10.281913      -279.7851
   5   2.0000     -10.194579      -277.4086
   6   2.0000      -1.074564       -29.2404
   7   2.0000      -0.990903       -26.9638
   8   2.0000      -0.874769       -23.8037
   9   2.0000      -0.810844       -22.0642
  10   2.0000      -0.732938       -19.9443
  11   2.0000      -0.700725       -19.0677
  12   2.0000      -0.637881       -17.3576
  13   2.0000      -0.589036       -16.0285
  14   2.0000      -0.587128       -15.9766
  15   2.0000      -0.535626       -14.5751
  16   2.0000      -0.525159       -14.2903
  17   2.0000      -0.496919       -13.5218
  18   2.0000      -0.469683       -12.7807
  19   2.0000      -0.458597       -12.4791
  20   2.0000      -0.458547       -12.4777
  21   2.0000      -0.446825       -12.1587
  22   2.0000      -0.342813        -9.3284
  23   2.0000      -0.251211        -6.8358
  24   0.0000       0.127037         3.4568
  25   0.0000       0.148005         4.0274
  26   0.0000       0.157963         4.2984
  27   0.0000       0.177734         4.8364
  28   0.0000       0.190393         5.1809

MULLIKEN ATOMIC CHARGES
-----------------------
   0 C :    0.024909
   1 N :   -0.203266
   2 C :   -0.031178
   3 N :   -0.114696
   4 C :   -0.079332
   5 H :   -0.050466
   6 H :   -0.045949
   7 H :    0.127328
   8 H :    0.112225
   9 H :    0.139161
  10 C :   -0.022877
  11 H :    0.034966
  12 H :    0.016407
  13 H :    0.035310
  14 H :    0.028576
  15 H :    0.028883
Sum of atomic charges:   -0.0000000

LOEWDIN ATOMIC CHARGES
----------------------
   0 C :    0.028773
   1 N :   -0.050676
   2 C :    0.042652
   3 N :   -0.014372
   4 C :   -0.261718
   5 H :   -0.012136
   6 H :   -0.007703
   7 H :    0.080104
   8 H :    0.064929
   9 H :    0.085057
  10 C :   -0.066503
  11 H :    0.022561
  12 H :    0.014780
  13 H :    0.025730
  14 H :    0.022979
  15 H :    0.025543

  Mayer bond orders larger than 0.100000
B(  0-C ,  1-N ) :   1.0117 B(  0-C , 10-C ) :   1.0684 B(  0-C , 11-H ) :   0.9623
B(  0-C , 12-H ) :   0.9606 B(  1-N ,  2-C ) :   1.1674 B(  1-N ,  7-H ) :   0.9333
B(  2-C ,  3-N ) :   1.2115 B(  2-C ,  4-C ) :   1.7576 B(  3-N ,  8-H ) :   0.9568
B(  3-N ,  9-H ) :   0.9478 B(  4-C ,  5-H ) :   0.9510 B(  4-C ,  6-H ) :   0.9553
B( 10-C , 13-H ) :   0.9725 B( 10-C , 14-H ) :   0.9736 B( 10-C , 15-H ) :   0.9680

Dispersion correction           -0.003936280
FINAL SINGLE POINT ENERGY      -267.626899469476

DIPOLE MOMENT
-------------
                                X             Y             Z
Electronic contribution:     -0.17253      -2.41570      -2.94648
Nuclear contribution   :     -0.49695       2.43650       4.23017
                        -----------------------------------------
Total Dipole Moment    :     -0.66949       0.02080       1.28369
                        -----------------------------------------
Magnitude (a.u.)       :      1.44793
Magnitude (Debye)      :      3.68034

Rotational constants in cm-1:     0.211102     0.077011     0.069221
Rotational constants in MHz :  6328.667765  2308.731604  2075.192956

                             ****ORCA TERMINATED NORMALLY****
TOTAL RUN TIME: 0 days 0 hours 0 minutes 24 seconds 699 msec
