                         Program Version 5.0.0 -  RELEASE  -
|  1> !wB97X-D3 RIJCOSX def2-SVP def2/J TightSCF xyzfile
|  2>
|  3> *xyzfile 0 1 D2.xyz
|  4>
|  5> %MaxCore 64000
|  6>
|  7> %pal nprocs 18
|  8> end
|  9>
| 10> %scf
| 11>   MaxIter 150
| 12> end
| 13>
| 14>
| 15>                          ****END OF INPUT****

CARTESIAN COORDINATES (ANGSTROEM)
---------------------------------
  C      2.234473   -2.989754   -2.397622
  N      2.756799   -2.945553   -3.765029
  C     -1.104325    0.251374   -2.860056
  C     -0.711893    0.842517   -4.218344
  H      0.154626    1.499800   -4.130909
  H     -1.538134    1.459222   -4.582671
  C     -0.397624   -0.205875   -5.288018
  C      1.987208   -2.590451   -4.818975
  C      0.743221   -3.017493   -4.913524
  N      2.499636   -1.848598   -5.803241
  H      3.309780   -1.292818   -5.558947
  H      1.801025   -1.304298   -6.289129
  H      3.716116   -2.628797   -3.829533
  H      0.395828   -3.627747   -4.185024
  H      0.039201   -2.454383   -5.371367
  F      0.617165   -0.005348   -5.998273
  O     -1.133173   -1.221380   -5.341465
  C      2.191199   -1.619503   -1.715492
  H      2.872783   -3.666368   -1.828014
  H      1.246188   -3.447444   -2.407842
  C      1.298729   -0.554314   -2.359773
  H      1.872917   -1.787955   -0.681310
  H      3.216809   -1.238432   -1.654428
  C     -0.196255   -0.863365   -2.325763
  H      1.612531   -0.371346   -3.393065
  H      1.480944    0.388638   -1.834444
  H     -0.404105   -1.761825   -2.909448
  H     -0.490439   -1.087880   -1.294131
  H     -1.143842    1.066711   -2.129680
  H     -2.114401   -0.156834   -2.930323

 Total Charge           Charge          ....    0
 Multiplicity           Mult            ....    1
 Number of Electrons    NEL             ....  102
 Basis Dimension        Dim             ....  267

ORBITAL ENERGIES
----------------

  NO   OCC          E(Eh)            E(eV)
   0   2.0000     -24.882613      -677.0903
   1   2.0000     -19.252379      -523.8839
   2   2.0000     -14.422076      -392.4446
   3   2.0000     -14.415150      -392.2562
   4   2.0000     -10.475929      -285.0645
   5   2.0000     -10.323064      -280.9048
   6   2.0000     -10.316365      -280.7226
   7   2.0000     -10.314643      -280.6757
   8   2.0000     -10.302076      -280.3337
   9   2.0000     -10.291061      -280.0340
  10   2.0000     -10.289186      -279.9830
  11   2.0000     -10.283582      -279.8305
  12   2.0000     -10.177457      -276.9427
  13   2.0000      -1.439029       -39.1580
  14   2.0000      -1.149928       -31.2911
  15   2.0000      -1.063109       -28.9287
  16   2.0000      -0.983632       -26.7660
  17   2.0000      -0.934540       -25.4301
  18   2.0000      -0.894503       -24.3407
  19   2.0000      -0.841775       -22.9059
  20   2.0000      -0.812320       -22.1043
  21   2.0000      -0.795286       -21.6408
  22   2.0000      -0.767562       -20.8864
  23   2.0000      -0.723647       -19.6914
  24   2.0000      -0.692011       -18.8306
  25   2.0000      -0.672450       -18.2983
  26   2.0000      -0.648987       -17.6598
  27   2.0000      -0.645685       -17.5700
  28   2.0000      -0.630888       -17.1673
  29   2.0000      -0.623562       -16.9680
  30   2.0000      -0.593230       -16.1426
  31   2.0000      -0.582507       -15.8508
  32   2.0000      -0.570714       -15.5299
  33   2.0000      -0.547035       -14.8856
  34   2.0000      -0.542410       -14.7597
  35   2.0000      -0.521801       -14.1989
  36   2.0000      -0.512634       -13.9495
  37   2.0000      -0.505123       -13.7451
  38   2.0000      -0.491632       -13.3780
  39   2.0000      -0.478266       -13.0143
  40   2.0000      -0.469489       -12.7754
  41   2.0000      -0.460343       -12.5266
  42   2.0000      -0.453754       -12.3473
  43   2.0000      -0.447463       -12.1761
  44   2.0000      -0.437398       -11.9022
  45   2.0000      -0.423128       -11.5139
  46   2.0000      -0.412924       -11.2362
  47   2.0000      -0.410575       -11.1723
  48   2.0000      -0.376448       -10.2437
  49   2.0000      -0.330494        -8.9932
  50   2.0000      -0.242064        -6.5869
  51   0.0000       0.048502         1.3198
  52   0.0000       0.125955         3.4274
  53   0.0000       0.144085         3.9207
  54   0.0000       0.154215         4.1964
  55   0.0000       0.158288         4.3072

MULLIKEN ATOMIC CHARGES
-----------------------
   0 C :    0.109035
   1 N :   -0.204719
   2 C :   -0.005093
   3 C :   -0.081780
   4 H :    0.043441
   5 H :    0.077090
   6 C :    0.284291
   7 C :   -0.068881
   8 C :   -0.111058
   9 N :   -0.087814
  10 H :    0.091085
  11 H :    0.114853
  12 H :    0.099684
  13 H :   -0.041546
  14 H :   -0.005662
  15 F :   -0.090941
  16 O :   -0.244031
  17 C :   -0.033990
  18 H :    0.026486
  19 H :    0.042354
  20 C :   -0.027125
  21 H :    0.019214
  22 H :    0.011172
  23 C :   -0.065292
  24 H :   -0.004014
  25 H :    0.015412
  26 H :    0.040652
  27 H :    0.019472
  28 H :    0.031250
  29 H :    0.046456
Sum of atomic charges:   -0.0000000

LOEWDIN ATOMIC CHARGES
----------------------
   0 C :    0.042030
   1 N :   -0.050449
   2 C :   -0.026459
   3 C :   -0.070208
   4 H :    0.029991
   5 H :    0.055993
   6 C :    0.130267
   7 C :    0.017378
   8 C :   -0.229997
   9 N :   -0.038329
  10 H :    0.052431
  11 H :    0.054320
  12 H :    0.058254
  13 H :   -0.010080
  14 H :   -0.023051
  15 F :    0.061971
  16 O :   -0.156934
  17 C :   -0.049297
  18 H :    0.022811
  19 H :    0.028223
  20 C :   -0.043742
  21 H :    0.024915
  22 H :    0.018713
  23 C :   -0.045979
  24 H :    0.010043
  25 H :    0.021318
  26 H :    0.028201
  27 H :    0.025214
  28 H :    0.027688
  29 H :    0.034764

  Mayer bond orders larger than 0.100000
B(  0-C ,  1-N ) :   1.0029 B(  0-C , 17-C ) :   1.0677 B(  0-C , 18-H ) :   0.9565
B(  0-C , 19-H ) :   0.9534 B(  1-N ,  7-C ) :   1.1412 B(  1-N , 12-H ) :   0.9363
B(  2-C ,  3-C ) :   1.0622 B(  2-C , 23-C ) :   1.0943 B(  2-C , 28-H ) :   0.9498
B(  2-C , 29-H ) :   0.9442 B(  3-C ,  4-H ) :   0.9384 B(  3-C ,  5-H ) :   0.9232
B(  3-C ,  6-C ) :   0.9940 B(  6-C , 15-F ) :   1.1270 B(  6-C , 16-O ) :   2.0040
B(  7-C ,  8-C ) :   1.7818 B(  7-C ,  9-N ) :   1.2012 B(  8-C , 13-H ) :   0.9402
B(  8-C , 14-H ) :   0.9318 B(  9-N , 10-H ) :   0.9507 B(  9-N , 11-H ) :   0.9412
B( 17-C , 20-C ) :   1.0835 B( 17-C , 21-H ) :   0.9418 B( 17-C , 22-H ) :   0.9464
B( 20-C , 23-C ) :   1.0611 B( 20-C , 24-H ) :   0.9237 B( 20-C , 25-H ) :   0.9484
B( 23-C , 26-H ) :   0.9301 B( 23-C , 27-H ) :   0.9454

Dispersion correction           -0.015856260
FINAL SINGLE POINT ENERGY      -637.071496447349

DIPOLE MOMENT
-------------
                                X             Y             Z
Electronic contribution:     -1.43254       2.22050     -13.63575
Nuclear contribution   :      2.00823      -0.28769      14.57028
                        -----------------------------------------
Total Dipole Moment    :      0.57569       1.93281       0.93453
                        -----------------------------------------
Magnitude (a.u.)       :      2.22273
Magnitude (Debye)      :      5.64973

Rotational constants in cm-1:     0.033070     0.023715     0.016943
Rotational constants in MHz :   991.423248   710.957140   507.940500

                             ****ORCA TERMINATED NORMALLY****
TOTAL RUN TIME: 0 days 0 hours 0 minutes 47 seconds 506 msec
