                         Program Version 5.0.0 -  RELEASE  -
|  1> !wB97X-D3 RIJCOSX def2-SVP def2/J TightSCF xyzfile
|  2>
|  3> *xyzfile 0 1 D3.xyz
|  4>
|  5> %MaxCore 64000
|  6>
|  7> %pal nprocs 18
|  8> end
|  9>
| 10> %scf
| 11>   MaxIter 150
| 12> end
| 13>
| 14>
| 15>                          ****END OF INPUT****

CARTESIAN COORDINATES (ANGSTROEM)
---------------------------------
  C      2.234473   -2.989754   -2.397622
  N      2.756799   -2.945553   -3.765029
  C     -1.104325    0.251374   -2.860056
  C     -0.711893    0.842517   -4.218344
  H      0.154626    1.499800   -4.130909
  H     -1.538134    1.459222   -4.582671
  C     -0.397624   -0.205875   -5.288018
  C      1.987208   -2.590451   -4.818975
  N      0.743221   -3.017493   -4.913524
  C      2.499636   -1.848598   -5.803241
  H      3.309780   -1.292818   -5.558947
  H      1.801025   -1.304298   -6.289129
  H      3.716116   -2.628797   -3.829533
  H      0.395828   -3.627747   -4.185024
  H      0.039201   -2.454383   -5.371367
  F      0.617165   -0.005348   -5.998273
  O     -1.133173   -1.221380   -5.341465
  C      2.191199   -1.619503   -1.715492
  H      2.872783   -3.666368   -1.828014
  H      1.246188   -3.447444   -2.407842
  C      1.298729   -0.554314   -2.359773
  H      1.872917   -1.787955   -0.681310
  H      3.216809   -1.238432   -1.654428
  C     -0.196255   -0.863365   -2.325763
  H      1.612531   -0.371346   -3.393065
  H      1.480944    0.388638   -1.834444
  H     -0.404105   -1.761825   -2.909448
  H     -0.490439   -1.087880   -1.294131
  H     -1.143842    1.066711   -2.129680
  H     -2.114401   -0.156834   -2.930323

 Total Charge           Charge          ....    0
 Multiplicity           Mult            ....    1
 Number of Electrons    NEL             ....  102
 Basis Dimension        Dim             ....  267

ORBITAL ENERGIES
----------------

  NO   OCC          E(Eh)            E(eV)
   0   2.0000     -24.875886      -676.9073
   1   2.0000     -19.266469      -524.2673
   2   2.0000     -14.422114      -392.4457
   3   2.0000     -14.406670      -392.0254
   4   2.0000     -10.487006      -285.3659
   5   2.0000     -10.328272      -281.0466
   6   2.0000     -10.323155      -280.9073
   7   2.0000     -10.322372      -280.8860
   8   2.0000     -10.309050      -280.5235
   9   2.0000     -10.293686      -280.1054
  10   2.0000     -10.293255      -280.0937
  11   2.0000     -10.292752      -280.0800
  12   2.0000     -10.181314      -277.0476
  13   2.0000      -1.434216       -39.0270
  14   2.0000      -1.164026       -31.6748
  15   2.0000      -1.063366       -28.9357
  16   2.0000      -0.979014       -26.6403
  17   2.0000      -0.941302       -25.6141
  18   2.0000      -0.900346       -24.4997
  19   2.0000      -0.852442       -23.1961
  20   2.0000      -0.815404       -22.1883
  21   2.0000      -0.792879       -21.5753
  22   2.0000      -0.757529       -20.6134
  23   2.0000      -0.723016       -19.6743
  24   2.0000      -0.698101       -18.9963
  25   2.0000      -0.683439       -18.5973
  26   2.0000      -0.664443       -18.0804
  27   2.0000      -0.644951       -17.5500
  28   2.0000      -0.632181       -17.2025
  29   2.0000      -0.624160       -16.9843
  30   2.0000      -0.595019       -16.1913
  31   2.0000      -0.581706       -15.8290
  32   2.0000      -0.573047       -15.5934
  33   2.0000      -0.560390       -15.2490
  34   2.0000      -0.547844       -14.9076
  35   2.0000      -0.533722       -14.5233
  36   2.0000      -0.512343       -13.9416
  37   2.0000      -0.507795       -13.8178
  38   2.0000      -0.486516       -13.2388
  39   2.0000      -0.476711       -12.9720
  40   2.0000      -0.473141       -12.8748
  41   2.0000      -0.463650       -12.6166
  42   2.0000      -0.455534       -12.3957
  43   2.0000      -0.451736       -12.2924
  44   2.0000      -0.437134       -11.8950
  45   2.0000      -0.427573       -11.6349
  46   2.0000      -0.424262       -11.5448
  47   2.0000      -0.417857       -11.3705
  48   2.0000      -0.402770       -10.9599
  49   2.0000      -0.328758        -8.9460
  50   2.0000      -0.240121        -6.5340
  51   0.0000       0.038999         1.0612
  52   0.0000       0.126292         3.4366
  53   0.0000       0.144501         3.9321
  54   0.0000       0.146338         3.9821
  55   0.0000       0.162547         4.4231

MULLIKEN ATOMIC CHARGES
-----------------------
   0 C :    0.080093
   1 N :   -0.188385
   2 C :   -0.006289
   3 C :   -0.084470
   4 H :    0.054982
   5 H :    0.080791
   6 C :    0.301629
   7 C :   -0.078368
   8 N :   -0.100590
   9 C :   -0.080550
  10 H :   -0.061342
  11 H :   -0.043988
  12 H :    0.122821
  13 H :    0.110142
  14 H :    0.130963
  15 F :   -0.057653
  16 O :   -0.289166
  17 C :   -0.019660
  18 H :    0.032064
  19 H :    0.016560
  20 C :   -0.042806
  21 H :    0.017395
  22 H :    0.021317
  23 C :   -0.064677
  24 H :    0.020837
  25 H :    0.019695
  26 H :    0.003421
  27 H :    0.022966
  28 H :    0.036301
  29 H :    0.045969
Sum of atomic charges:   -0.0000000

LOEWDIN ATOMIC CHARGES
----------------------
   0 C :    0.030890
   1 N :   -0.049781
   2 C :   -0.026781
   3 C :   -0.069258
   4 H :    0.035531
   5 H :    0.058032
   6 C :    0.144505
   7 C :    0.036048
   8 N :   -0.010697
   9 C :   -0.277782
  10 H :   -0.017731
  11 H :   -0.024425
  12 H :    0.077966
  13 H :    0.059659
  14 H :    0.042559
  15 F :    0.084618
  16 O :   -0.183922
  17 C :   -0.049187
  18 H :    0.024838
  19 H :    0.015522
  20 C :   -0.046834
  21 H :    0.023457
  22 H :    0.023851
  23 C :   -0.047512
  24 H :    0.019458
  25 H :    0.023851
  26 H :    0.012602
  27 H :    0.026220
  28 H :    0.030219
  29 H :    0.034083

  Mayer bond orders larger than 0.100000
B(  0-C ,  1-N ) :   1.0199 B(  0-C , 17-C ) :   1.0525 B(  0-C , 18-H ) :   0.9557
B(  0-C , 19-H ) :   0.9565 B(  1-N ,  7-C ) :   1.1686 B(  1-N , 12-H ) :   0.9291
B(  2-C ,  3-C ) :   1.0611 B(  2-C , 23-C ) :   1.0922 B(  2-C , 28-H ) :   0.9497
B(  2-C , 29-H ) :   0.9450 B(  3-C ,  4-H ) :   0.9392 B(  3-C ,  5-H ) :   0.9219
B(  3-C ,  6-C ) :   0.9944 B(  6-C , 15-F ) :   1.1782 B(  6-C , 16-O ) :   1.9457
B(  7-C ,  8-N ) :   1.2506 B(  7-C ,  9-C ) :   1.7311 B(  8-N , 13-H ) :   0.9504
B(  8-N , 14-H ) :   0.9049 B(  9-C , 10-H ) :   0.9477 B(  9-C , 11-H ) :   0.9527
B( 14-H , 16-O ) :   0.1081 B( 17-C , 20-C ) :   1.0813 B( 17-C , 21-H ) :   0.9416
B( 17-C , 22-H ) :   0.9461 B( 20-C , 23-C ) :   1.0602 B( 20-C , 24-H ) :   0.9218
B( 20-C , 25-H ) :   0.9473 B( 23-C , 26-H ) :   0.9298 B( 23-C , 27-H ) :   0.9454

Dispersion correction           -0.015940473
FINAL SINGLE POINT ENERGY      -637.078467126207

DIPOLE MOMENT
-------------
                                X             Y             Z
Electronic contribution:     -2.88103       1.30931     -12.80797
Nuclear contribution   :      2.27881      -0.10762      14.43322
                        -----------------------------------------
Total Dipole Moment    :     -0.60222       1.20169       1.62525
                        -----------------------------------------
Magnitude (a.u.)       :      2.10907
Magnitude (Debye)      :      5.36082

Rotational constants in cm-1:     0.033336     0.023673     0.017062
Rotational constants in MHz :   999.388459   709.685364   511.514310

                             ****ORCA TERMINATED NORMALLY****
TOTAL RUN TIME: 0 days 0 hours 0 minutes 32 seconds 812 msec
