                         Program Version 5.0.0 -  RELEASE  -
|  1> !wB97X-D3 RIJCOSX def2-SVP def2/J TightSCF xyzfile
|  2>
|  3> *xyzfile 0 1 D4.xyz
|  4>
|  5> %MaxCore 64000
|  6>
|  7> %pal nprocs 18
|  8> end
|  9>
| 10> %scf
| 11>   MaxIter 150
| 12> end
| 13>
| 14>
| 15>                          ****END OF INPUT****

CARTESIAN COORDINATES (ANGSTROEM)
---------------------------------
  C      2.234473   -2.989754   -2.397622
  C      2.756799   -2.945553   -3.765029
  C     -1.104325    0.251374   -2.860056
  C     -0.711893    0.842517   -4.218344
  H      0.154626    1.499800   -4.130909
  H     -1.538134    1.459222   -4.582671
  C     -0.397624   -0.205875   -5.288018
  C      1.987208   -2.590451   -4.818975
  N      0.743221   -3.017493   -4.913524
  N      2.499636   -1.848598   -5.803241
  H      3.309780   -1.292818   -5.558947
  H      1.801025   -1.304298   -6.289129
  H      3.716116   -2.628797   -3.829533
  H      0.395828   -3.627747   -4.185024
  H      0.039201   -2.454383   -5.371367
  O      0.617165   -0.005348   -5.998273
  F     -1.133173   -1.221380   -5.341465
  C      2.191199   -1.619503   -1.715492
  H      2.872783   -3.666368   -1.828014
  H      1.246188   -3.447444   -2.407842
  C      1.298729   -0.554314   -2.359773
  H      1.872917   -1.787955   -0.681310
  H      3.216809   -1.238432   -1.654428
  C     -0.196255   -0.863365   -2.325763
  H      1.612531   -0.371346   -3.393065
  H      1.480944    0.388638   -1.834444
  H     -0.404105   -1.761825   -2.909448
  H     -0.490439   -1.087880   -1.294131
  H     -1.143842    1.066711   -2.129680
  H     -2.114401   -0.156834   -2.930323

 Total Charge           Charge          ....    0
 Multiplicity           Mult            ....    1
 Number of Electrons    NEL             ....  102
 Basis Dimension        Dim             ....  267

ORBITAL ENERGIES
----------------

  NO   OCC          E(Eh)            E(eV)
   0   2.0000     -24.902045      -677.6191
   1   2.0000     -19.278981      -524.6077
   2   2.0000     -14.422663      -392.4606
   3   2.0000     -14.402363      -391.9082
   4   2.0000     -10.498093      -285.6676
   5   2.0000     -10.332863      -281.1715
   6   2.0000     -10.320786      -280.8429
   7   2.0000     -10.312777      -280.6249
   8   2.0000     -10.293729      -280.1066
   9   2.0000     -10.282087      -279.7898
  10   2.0000     -10.268979      -279.4331
  11   2.0000     -10.258248      -279.1411
  12   2.0000     -10.192653      -277.3562
  13   2.0000      -1.459880       -39.7254
  14   2.0000      -1.173582       -31.9348
  15   2.0000      -1.060335       -28.8532
  16   2.0000      -0.963882       -26.2286
  17   2.0000      -0.946683       -25.7606
  18   2.0000      -0.899497       -24.4766
  19   2.0000      -0.860359       -23.4116
  20   2.0000      -0.811992       -22.0954
  21   2.0000      -0.795135       -21.6367
  22   2.0000      -0.760975       -20.7072
  23   2.0000      -0.720100       -19.5949
  24   2.0000      -0.703549       -19.1445
  25   2.0000      -0.686055       -18.6685
  26   2.0000      -0.675370       -18.3778
  27   2.0000      -0.662252       -18.0208
  28   2.0000      -0.627939       -17.0871
  29   2.0000      -0.616057       -16.7638
  30   2.0000      -0.587963       -15.9993
  31   2.0000      -0.585350       -15.9282
  32   2.0000      -0.576083       -15.6760
  33   2.0000      -0.546879       -14.8813
  34   2.0000      -0.539653       -14.6847
  35   2.0000      -0.535823       -14.5805
  36   2.0000      -0.528794       -14.3892
  37   2.0000      -0.501539       -13.6476
  38   2.0000      -0.494456       -13.4548
  39   2.0000      -0.488942       -13.3048
  40   2.0000      -0.479498       -13.0478
  41   2.0000      -0.458417       -12.4742
  42   2.0000      -0.454201       -12.3594
  43   2.0000      -0.438920       -11.9436
  44   2.0000      -0.429961       -11.6998
  45   2.0000      -0.417864       -11.3707
  46   2.0000      -0.409253       -11.1363
  47   2.0000      -0.398087       -10.8325
  48   2.0000      -0.394843       -10.7442
  49   2.0000      -0.345574        -9.4035
  50   2.0000      -0.226747        -6.1701
  51   0.0000       0.030769         0.8373
  52   0.0000       0.122902         3.3443
  53   0.0000       0.147371         4.0102
  54   0.0000       0.157872         4.2959
  55   0.0000       0.163447         4.4476

MULLIKEN ATOMIC CHARGES
-----------------------
   0 C :    0.014309
   1 C :   -0.134443
   2 C :   -0.038968
   3 C :   -0.067035
   4 H :    0.077555
   5 H :    0.075843
   6 C :    0.280132
   7 C :   -0.110107
   8 N :   -0.086857
   9 N :   -0.072393
  10 H :    0.120125
  11 H :    0.107867
  12 H :   -0.089012
  13 H :    0.129549
  14 H :    0.105010
  15 O :   -0.272898
  16 F :   -0.082806
  17 C :    0.022818
  18 H :    0.009522
  19 H :   -0.026216
  20 C :   -0.034766
  21 H :    0.001953
  22 H :    0.008004
  23 C :   -0.062764
  24 H :    0.018058
  25 H :    0.013182
  26 H :   -0.013640
  27 H :    0.029312
  28 H :    0.042627
  29 H :    0.036038
Sum of atomic charges:   -0.0000000

LOEWDIN ATOMIC CHARGES
----------------------
   0 C :   -0.040528
   1 C :   -0.244720
   2 C :   -0.039112
   3 C :   -0.064010
   4 H :    0.050523
   5 H :    0.053401
   6 C :    0.132100
   7 C :    0.025503
   8 N :   -0.013428
   9 N :   -0.027454
  10 H :    0.075000
  11 H :    0.037475
  12 H :   -0.015581
  13 H :    0.076059
  14 H :    0.033825
  15 O :   -0.172911
  16 F :    0.069500
  17 C :   -0.037537
  18 H :    0.022267
  19 H :    0.003522
  20 C :   -0.045431
  21 H :    0.014540
  22 H :    0.021840
  23 C :   -0.048020
  24 H :    0.016859
  25 H :    0.021196
  26 H :    0.005943
  27 H :    0.029408
  28 H :    0.033111
  29 H :    0.026662

  Mayer bond orders larger than 0.100000
B(  0-C ,  1-C ) :   1.0834 B(  0-C , 17-C ) :   1.0586 B(  0-C , 18-H ) :   0.9305
B(  0-C , 19-H ) :   0.9476 B(  1-C ,  7-C ) :   1.6628 B(  1-C , 12-H ) :   0.9325
B(  2-C ,  3-C ) :   1.0431 B(  2-C , 23-C ) :   1.0825 B(  2-C , 28-H ) :   0.9464
B(  2-C , 29-H ) :   0.9514 B(  3-C ,  4-H ) :   0.9438 B(  3-C ,  5-H ) :   0.9256
B(  3-C ,  6-C ) :   0.9982 B(  6-C , 15-O ) :   1.9867 B(  6-C , 16-F ) :   1.1311
B(  7-C ,  8-N ) :   1.2633 B(  7-C ,  9-N ) :   1.2371 B(  8-N , 13-H ) :   0.9406
B(  8-N , 14-H ) :   0.9341 B(  9-N , 10-H ) :   0.9476 B(  9-N , 11-H ) :   0.9301
B( 17-C , 20-C ) :   1.0826 B( 17-C , 21-H ) :   0.9420 B( 17-C , 22-H ) :   0.9433
B( 20-C , 23-C ) :   1.0596 B( 20-C , 24-H ) :   0.9244 B( 20-C , 25-H ) :   0.9474
B( 23-C , 26-H ) :   0.9310 B( 23-C , 27-H ) :   0.9447

Dispersion correction           -0.015911782
FINAL SINGLE POINT ENERGY      -637.093402204066

DIPOLE MOMENT
-------------
                                X             Y             Z
Electronic contribution:     -6.07976       0.23176     -13.59004
Nuclear contribution   :      4.38568       1.15960      13.97148
                        -----------------------------------------
Total Dipole Moment    :     -1.69408       1.39136       0.38143
                        -----------------------------------------
Magnitude (a.u.)       :      2.22515
Magnitude (Debye)      :      5.65588

Rotational constants in cm-1:     0.032892     0.023844     0.017123
Rotational constants in MHz :   986.091711   714.821905   513.334630

                             ****ORCA TERMINATED NORMALLY****
TOTAL RUN TIME: 0 days 0 hours 0 minutes 43 seconds 332 msec
