                         Program Version 5.0.0 -  RELEASE  -
|  1> !PBE D3BJ RIJCOSX def2-TZVPD def2/J TightSCF
|  2> *xyz -1 1
|  3> C          0.61188        1.65763       -4.50029
|  4> C          1.69499        1.54179       -5.57045
|  5> H          2.69733        1.73466       -5.18400
|  6> H          1.50666        2.27224       -6.35808
|  7> S          1.78029       -0.03313       -6.42874
|  8> O          2.56929        0.21366       -7.60736
|  9> O          0.41688       -0.46297       -6.61859
| 10> O          2.50513       -0.93326       -5.48257
| 11> H         -0.34424        1.45871       -4.93752
| 12> H          0.61845        2.64655       -4.09174
| 13> H          0.80247        0.94882       -3.72173
| 14> *
| 15> %MaxCore 64000
| 16>
| 17> %pal nprocs 4
| 18> end
| 19>
| 20> %scf
| 21>   MaxIter 150
| 22> end
| 23>
| 24>
| 25>                          ****END OF INPUT****

CARTESIAN COORDINATES (ANGSTROEM)
---------------------------------
  C      0.611880    1.657630   -4.500290
  C      1.694990    1.541790   -5.570450
  H      2.697330    1.734660   -5.184000
  H      1.506660    2.272240   -6.358080
  S      1.780290   -0.033130   -6.428740
  O      2.569290    0.213660   -7.607360
  O      0.416880   -0.462970   -6.618590
  O      2.505130   -0.933260   -5.482570
  H     -0.344240    1.458710   -4.937520
  H      0.618450    2.646550   -4.091740
  H      0.802470    0.948820   -3.721730

 Total Charge           Charge          ....   -1
 Multiplicity           Mult            ....    1
 Number of Electrons    NEL             ....   58
 Basis Dimension        Dim             ....  285

ORBITAL ENERGIES
----------------

  NO   OCC          E(Eh)            E(eV)
   0   2.0000     -88.009700     -2394.8657
   1   2.0000     -18.532451      -504.2936
   2   2.0000     -18.531750      -504.2745
   3   2.0000     -18.514327      -503.8005
   4   2.0000      -9.740139      -265.0427
   5   2.0000      -9.734316      -264.8842
   6   2.0000      -7.605107      -206.9455
   7   2.0000      -5.625989      -153.0909
   8   2.0000      -5.625032      -153.0649
   9   2.0000      -5.624680      -153.0553
  10   2.0000      -0.833449       -22.6793
  11   2.0000      -0.712055       -19.3760
  12   2.0000      -0.679997       -18.5037
  13   2.0000      -0.558877       -15.2078
  14   2.0000      -0.441664       -12.0183
  15   2.0000      -0.322272        -8.7695
  16   2.0000      -0.267351        -7.2750
  17   2.0000      -0.260348        -7.0844
  18   2.0000      -0.225327        -6.1315
  19   2.0000      -0.208105        -5.6628
  20   2.0000      -0.204141        -5.5550
  21   2.0000      -0.183456        -4.9921
  22   2.0000      -0.168503        -4.5852
  23   2.0000      -0.103646        -2.8204
  24   2.0000      -0.102864        -2.7991
  25   2.0000      -0.072945        -1.9849
  26   2.0000      -0.069037        -1.8786
  27   2.0000      -0.050424        -1.3721
  28   2.0000      -0.017360        -0.4724
  29   0.0000       0.109779         2.9873
  30   0.0000       0.134004         3.6464
  31   0.0000       0.140338         3.8188
  32   0.0000       0.148772         4.0483
  33   0.0000       0.165976         4.5164

MULLIKEN ATOMIC CHARGES
-----------------------
   0 C :   -0.871100
   1 C :   -0.233543
   2 H :    0.180853
   3 H :    0.195643
   4 S :    1.025530
   5 O :   -0.635067
   6 O :   -0.647072
   7 O :   -0.702501
   8 H :    0.232667
   9 H :    0.221111
  10 H :    0.233480
Sum of atomic charges:   -1.0000000

LOEWDIN ATOMIC CHARGES
----------------------
   0 C :   -0.149149
   1 C :   -0.338716
   2 H :    0.082558
   3 H :    0.076798
   4 S :    0.293096
   5 O :   -0.364489
   6 O :   -0.358119
   7 O :   -0.404842
   8 H :    0.054840
   9 H :    0.046889
  10 H :    0.061134

  Mayer bond orders larger than 0.100000
B(  0-C ,  1-C ) :   0.8430 B(  0-C ,  8-H ) :   0.9852 B(  0-C ,  9-H ) :   0.9639
B(  0-C , 10-H ) :   0.9824 B(  1-C ,  2-H ) :   0.9697 B(  1-C ,  3-H ) :   0.9636
B(  1-C ,  4-S ) :   0.8494 B(  1-C ,  5-O ) :   0.1534 B(  1-C ,  6-O ) :   0.1095
B(  1-C ,  7-O ) :   0.1355 B(  4-S ,  5-O ) :   1.5558 B(  4-S ,  6-O ) :   1.5508
B(  4-S ,  7-O ) :   1.4942

Dispersion correction           -0.009639369
FINAL SINGLE POINT ENERGY      -702.813720021109

DIPOLE MOMENT
-------------
                                X             Y             Z
Electronic contribution:      2.25330      -5.71750      -5.04636
Nuclear contribution   :     -2.69163       7.29476       5.86550
                        -----------------------------------------
Total Dipole Moment    :     -0.43833       1.57726       0.81914
                        -----------------------------------------
Magnitude (a.u.)       :      1.83053
Magnitude (Debye)      :      4.65285

Rotational constants in cm-1:     0.163060     0.082831     0.081111
Rotational constants in MHz :  4888.419330  2483.225008  2431.646841

                             ****ORCA TERMINATED NORMALLY****
TOTAL RUN TIME: 0 days 0 hours 0 minutes 10 seconds 650 msec
