                         Program Version 5.0.0 -  RELEASE  -
|  1> !PBE D3BJ RIJCOSX def2-TZVPD def2/J TightSCF
|  2> *xyz 1 1
|  3> C          1.96337       -1.74915       -1.89689
|  4> N          2.73849       -2.01517       -3.09711
|  5> C          4.04974       -2.15472       -3.15204
|  6> N          4.65821       -1.98629       -4.31866
|  7> N          4.76423       -2.45444       -2.05049
|  8> H          4.28736       -2.77626       -1.21750
|  9> H          5.75082       -2.65835       -2.12599
| 10> H          2.34518       -1.69027       -3.97145
| 11> H          4.10900       -1.59268       -5.07176
| 12> H          5.64910       -2.15646       -4.42724
| 13> C          2.08852       -0.30091       -1.41520
| 14> H          2.23127       -2.45162       -1.10264
| 15> H          0.93025       -1.97780       -2.15544
| 16> H          1.82118        0.36368       -2.21003
| 17> H          3.09792       -0.11068       -1.11551
| 18> H          1.43391       -0.14382       -0.58352
| 19> *
| 20> %MaxCore 64000
| 21>
| 22> %pal nprocs 4
| 23> end
| 24>
| 25> %scf
| 26>   MaxIter 150
| 27> end
| 28>
| 29>
| 30>                          ****END OF INPUT****

CARTESIAN COORDINATES (ANGSTROEM)
---------------------------------
  C      1.963370   -1.749150   -1.896890
  N      2.738490   -2.015170   -3.097110
  C      4.049740   -2.154720   -3.152040
  N      4.658210   -1.986290   -4.318660
  N      4.764230   -2.454440   -2.050490
  H      4.287360   -2.776260   -1.217500
  H      5.750820   -2.658350   -2.125990
  H      2.345180   -1.690270   -3.971450
  H      4.109000   -1.592680   -5.071760
  H      5.649100   -2.156460   -4.427240
  C      2.088520   -0.300910   -1.415200
  H      2.231270   -2.451620   -1.102640
  H      0.930250   -1.977800   -2.155440
  H      1.821180    0.363680   -2.210030
  H      3.097920   -0.110680   -1.115510
  H      1.433910   -0.143820   -0.583520

 Total Charge           Charge          ....    1
 Multiplicity           Mult            ....    1
 Number of Electrons    NEL             ....   48
 Basis Dimension        Dim             ....  312

ORBITAL ENERGIES
----------------

  NO   OCC          E(Eh)            E(eV)
   0   2.0000     -14.208653      -386.6371
   1   2.0000     -14.207610      -386.6087
   2   2.0000     -14.205711      -386.5571
   3   2.0000     -10.203188      -277.6429
   4   2.0000     -10.088573      -274.5240
   5   2.0000     -10.016637      -272.5665
   6   2.0000      -1.132273       -30.8107
   7   2.0000      -1.027990       -27.9730
   8   2.0000      -1.015883       -27.6436
   9   2.0000      -0.862228       -23.4624
  10   2.0000      -0.781762       -21.2728
  11   2.0000      -0.746848       -20.3228
  12   2.0000      -0.729561       -19.8524
  13   2.0000      -0.691772       -18.8241
  14   2.0000      -0.645187       -17.5564
  15   2.0000      -0.638114       -17.3640
  16   2.0000      -0.608408       -16.5556
  17   2.0000      -0.579598       -15.7717
  18   2.0000      -0.554153       -15.0793
  19   2.0000      -0.520104       -14.1527
  20   2.0000      -0.489042       -13.3075
  21   2.0000      -0.470257       -12.7963
  22   2.0000      -0.436550       -11.8791
  23   2.0000      -0.412683       -11.2297
  24   0.0000      -0.202943        -5.5224
  25   0.0000      -0.185932        -5.0595
  26   0.0000      -0.153536        -4.1779
  27   0.0000      -0.143415        -3.9025
  28   0.0000      -0.120507        -3.2791

MULLIKEN ATOMIC CHARGES
-----------------------
   0 C :   -0.406311
   1 N :   -0.020621
   2 C :    0.513731
   3 N :   -0.186050
   4 N :   -0.183246
   5 H :    0.167224
   6 H :    0.159715
   7 H :    0.182630
   8 H :    0.159616
   9 H :    0.162402
  10 C :   -0.770503
  11 H :    0.231913
  12 H :    0.223760
  13 H :    0.256939
  14 H :    0.253013
  15 H :    0.255785
Sum of atomic charges:    1.0000000

LOEWDIN ATOMIC CHARGES
----------------------
   0 C :   -0.206325
   1 N :    0.090070
   2 C :   -0.461407
   3 N :    0.220684
   4 N :    0.229578
   5 H :    0.125232
   6 H :    0.134573
   7 H :    0.163378
   8 H :    0.137179
   9 H :    0.139483
  10 C :   -0.053075
  11 H :    0.119222
  12 H :    0.130548
  13 H :    0.077581
  14 H :    0.070287
  15 H :    0.082990

  Mayer bond orders larger than 0.100000
B(  0-C ,  1-N ) :   0.9465 B(  0-C , 10-C ) :   0.8545 B(  0-C , 11-H ) :   0.9046
B(  0-C , 12-H ) :   0.9640 B(  1-N ,  2-C ) :   1.2577 B(  1-N ,  3-N ) :   0.1233
B(  1-N ,  7-H ) :   0.9589 B(  2-C ,  3-N ) :   1.1244 B(  2-C ,  4-N ) :   1.1799
B(  3-N ,  8-H ) :   0.9953 B(  3-N ,  9-H ) :   1.0177 B(  4-N ,  5-H ) :   0.9559
B(  4-N ,  6-H ) :   1.0278 B( 10-C , 13-H ) :   0.9740 B( 10-C , 14-H ) :   0.9740
B( 10-C , 15-H ) :   0.9812

Dispersion correction           -0.012419522
FINAL SINGLE POINT ENERGY      -284.156530478774

DIPOLE MOMENT
-------------
                                X             Y             Z
Electronic contribution:      2.99334      -2.69477      -3.06972
Nuclear contribution   :     -2.17768       2.37118       2.44574
                        -----------------------------------------
Total Dipole Moment    :      0.81566      -0.32359      -0.62398
                        -----------------------------------------
Magnitude (a.u.)       :      1.07674
Magnitude (Debye)      :      2.73685

Rotational constants in cm-1:     0.215650     0.075183     0.066454
Rotational constants in MHz :  6465.033740  2253.919004  1992.232519

                             ****ORCA TERMINATED NORMALLY****
TOTAL RUN TIME: 0 days 0 hours 0 minutes 12 seconds 860 msec
