                         Program Version 5.0.0 -  RELEASE  -
|  1> !PBE D3BJ RIJCOSX def2-TZVPD def2/J TightSCF xyzfile
|  2>
|  3> *xyzfile 0 1 B.xyz
|  4>
|  5> %MaxCore 64000
|  6>
|  7> %pal nprocs 4
|  8> end
|  9>
| 10> %scf
| 11>   MaxIter 150
| 12> end
| 13>
| 14>
| 15>                          ****END OF INPUT****

CARTESIAN COORDINATES (ANGSTROEM)
---------------------------------
  C      1.963365   -1.749150   -1.896887
  N      2.738490   -2.015170   -3.097113
  C      0.611877    1.657634   -4.500288
  C      1.694991    1.541794   -5.570447
  H      2.697326    1.734659   -5.183996
  H      1.506656    2.272239   -6.358076
  S      1.780287   -0.033128   -6.428739
  C      4.049736   -2.154717   -3.152044
  N      4.658206   -1.986293   -4.318655
  N      4.764231   -2.454435   -2.050491
  H      4.287363   -2.776259   -1.217496
  H      5.750825   -2.658351   -2.125988
  H      2.345176   -1.690274   -3.971447
  H      4.109004   -1.592677   -5.071760
  H      5.649095   -2.156462   -4.427237
  O      2.569287    0.213657   -7.607360
  O      0.416880   -0.462969   -6.618595
  C      2.088520   -0.300912   -1.415204
  H      2.231272   -2.451616   -1.102643
  H      0.930249   -1.977801   -2.155438
  C      0.680356    0.655418   -3.348038
  H     -0.356865    1.549231   -4.991128
  H      0.650228    2.675438   -4.096000
  C      1.968993    0.733582   -2.535654
  H      3.051356   -0.168602   -0.911868
  H      1.316501   -0.136231   -0.657252
  O      2.505129   -0.933263   -5.482570
  H      2.824195    0.624726   -3.208464
  H      2.058919    1.730331   -2.093112
  H      0.542252   -0.344731   -3.766662
  H     -0.174219    0.829692   -2.685182

 Total Charge           Charge          ....    0
 Multiplicity           Mult            ....    1
 Number of Electrons    NEL             ....  120
 Basis Dimension        Dim             ....  689

ORBITAL ENERGIES
----------------

  NO   OCC          E(Eh)            E(eV)
   0   2.0000     -88.158499     -2398.9147
   1   2.0000     -18.692206      -508.6408
   2   2.0000     -18.671487      -508.0770
   3   2.0000     -18.670134      -508.0402
   4   2.0000     -14.069556      -382.8521
   5   2.0000     -14.041638      -382.0924
   6   2.0000     -14.039919      -382.0456
   7   2.0000     -10.050841      -273.4973
   8   2.0000      -9.953141      -270.8387
   9   2.0000      -9.905031      -269.5296
  10   2.0000      -9.885694      -269.0034
  11   2.0000      -9.873817      -268.6802
  12   2.0000      -9.869425      -268.5607
  13   2.0000      -9.868952      -268.5478
  14   2.0000      -7.754188      -211.0022
  15   2.0000      -5.775577      -157.1614
  16   2.0000      -5.774200      -157.1240
  17   2.0000      -5.773095      -157.0939
  18   2.0000      -0.984213       -26.7818
  19   2.0000      -0.978387       -26.6233
  20   2.0000      -0.878688       -23.9103
  21   2.0000      -0.864984       -23.5374
  22   2.0000      -0.850832       -23.1523
  23   2.0000      -0.850137       -23.1334
  24   2.0000      -0.749148       -20.3853
  25   2.0000      -0.711491       -19.3607
  26   2.0000      -0.667800       -18.1718
  27   2.0000      -0.633791       -17.2463
  28   2.0000      -0.608946       -16.5703
  29   2.0000      -0.579753       -15.7759
  30   2.0000      -0.570423       -15.5220
  31   2.0000      -0.539250       -14.6737
  32   2.0000      -0.516675       -14.0594
  33   2.0000      -0.502384       -13.6706
  34   2.0000      -0.491645       -13.3783
  35   2.0000      -0.469558       -12.7773
  36   2.0000      -0.451363       -12.2822
  37   2.0000      -0.434073       -11.8117
  38   2.0000      -0.428623       -11.6634
  39   2.0000      -0.420498       -11.4423
  40   2.0000      -0.404669       -11.0116
  41   2.0000      -0.390321       -10.6212
  42   2.0000      -0.378175       -10.2907
  43   2.0000      -0.370717       -10.0877
  44   2.0000      -0.353045        -9.6068
  45   2.0000      -0.345937        -9.4134
  46   2.0000      -0.335064        -9.1175
  47   2.0000      -0.326788        -8.8924
  48   2.0000      -0.321290        -8.7427
  49   2.0000      -0.295232        -8.0337
  50   2.0000      -0.291871        -7.9422
  51   2.0000      -0.288809        -7.8589
  52   2.0000      -0.274460        -7.4684
  53   2.0000      -0.261167        -7.1067
  54   2.0000      -0.258285        -7.0283
  55   2.0000      -0.251014        -6.8304
  56   2.0000      -0.220005        -5.9866
  57   2.0000      -0.209632        -5.7044
  58   2.0000      -0.206757        -5.6261
  59   2.0000      -0.176386        -4.7997
  60   0.0000      -0.062245        -1.6938
  61   0.0000      -0.055410        -1.5078
  62   0.0000      -0.031727        -0.8633
  63   0.0000      -0.007292        -0.1984
  64   0.0000      -0.002422        -0.0659

MULLIKEN ATOMIC CHARGES
-----------------------
   0 C :   -0.811576
   1 N :    0.092815
   2 C :   -0.367485
   3 C :   -0.503884
   4 H :    0.237397
   5 H :    0.177827
   6 S :    0.929632
   7 C :    0.372345
   8 N :   -0.101788
   9 N :   -0.175526
  10 H :    0.158576
  11 H :    0.137812
  12 H :    0.431156
  13 H :    0.296323
  14 H :    0.094464
  15 O :   -0.635677
  16 O :   -0.641847
  17 C :   -0.037680
  18 H :    0.218364
  19 H :    0.260196
  20 C :   -0.325290
  21 H :    0.155620
  22 H :    0.155528
  23 C :   -0.234287
  24 H :    0.135476
  25 H :    0.189598
  26 O :   -0.875878
  27 H :    0.151044
  28 H :    0.161153
  29 H :    0.219983
  30 H :    0.135609
Sum of atomic charges:   -0.0000000

LOEWDIN ATOMIC CHARGES
----------------------
   0 C :   -0.172151
   1 N :    0.102088
   2 C :   -0.229486
   3 C :   -0.258151
   4 H :    0.092168
   5 H :    0.098673
   6 S :    0.392398
   7 C :   -0.467447
   8 N :    0.215456
   9 N :    0.198856
  10 H :    0.109302
  11 H :    0.117612
  12 H :    0.081326
  13 H :    0.075564
  14 H :    0.126754
  15 O :   -0.307280
  16 O :   -0.297460
  17 C :   -0.181836
  18 H :    0.110042
  19 H :    0.126263
  20 C :   -0.215989
  21 H :    0.110556
  22 H :    0.111832
  23 C :   -0.208950
  24 H :    0.105338
  25 H :    0.115638
  26 O :   -0.391007
  27 H :    0.102165
  28 H :    0.120108
  29 H :    0.098165
  30 H :    0.119449

  Mayer bond orders larger than 0.100000
B(  0-C ,  1-N ) :   1.0169 B(  0-C ,  7-C ) :  -0.1176 B(  0-C ,  9-N ) :   0.1009
B(  0-C , 17-C ) :   0.8110 B(  0-C , 18-H ) :   0.9001 B(  0-C , 19-H ) :   0.9453
B(  0-C , 20-C ) :   0.2287 B(  1-N ,  7-C ) :   1.2298 B(  1-N , 12-H ) :   0.7915
B(  2-C ,  3-C ) :   1.0316 B(  2-C ,  6-S ) :   0.1114 B(  2-C , 20-C ) :   1.1401
B(  2-C , 21-H ) :   0.8993 B(  2-C , 22-H ) :   0.9320 B(  2-C , 23-C ) :   0.2607
B(  2-C , 29-H ) :   0.1051 B(  3-C ,  4-H ) :   0.8816 B(  3-C ,  5-H ) :   0.9493
B(  3-C ,  6-S ) :   0.7740 B(  3-C , 15-O ) :   0.1852 B(  3-C , 16-O ) :   0.1251
B(  3-C , 23-C ) :   0.1470 B(  3-C , 26-O ) :   0.1222 B(  6-S , 15-O ) :   1.4859
B(  6-S , 16-O ) :   1.5513 B(  6-S , 26-O ) :   1.6095 B(  7-C ,  8-N ) :   1.1849
B(  7-C ,  9-N ) :   1.1338 B(  8-N , 13-H ) :   0.8682 B(  8-N , 14-H ) :   1.0481
B(  9-N , 10-H ) :   0.9506 B(  9-N , 11-H ) :   1.0356 B( 17-C , 20-C ) :   0.1359
B( 17-C , 23-C ) :   1.0989 B( 17-C , 24-H ) :   0.9177 B( 17-C , 25-H ) :   0.9487
B( 20-C , 23-C ) :   0.5422 B( 20-C , 29-H ) :   0.9265 B( 20-C , 30-H ) :   0.8887
B( 23-C , 27-H ) :   1.0105 B( 23-C , 28-H ) :   0.9047 B( 23-C , 29-H ) :  -0.1073

Dispersion correction           -0.037590724
FINAL SINGLE POINT ENERGY     -1064.489192376842

DIPOLE MOMENT
-------------
                                X             Y             Z
Electronic contribution:      2.18705      -4.97703     -14.35260
Nuclear contribution   :      0.44641       3.59123      19.13564
                        -----------------------------------------
Total Dipole Moment    :      2.63347      -1.38580       4.78304
                        -----------------------------------------
Magnitude (a.u.)       :      5.63321
Magnitude (Debye)      :     14.31847

Rotational constants in cm-1:     0.029186     0.014646     0.011115
Rotational constants in MHz :   874.975540   439.070287   333.231642

                             ****ORCA TERMINATED NORMALLY****
TOTAL RUN TIME: 0 days 0 hours 1 minutes 26 seconds 947 msec
