                         Program Version 5.0.0 -  RELEASE  -
|  1> !PBE D3BJ RIJCOSX def2-TZVPD def2/J TightSCF
|  2> *xyz 0 1
|  3> C          0.61188        1.65763       -4.50029
|  4> C          1.69499        1.54179       -5.57045
|  5> H          2.69733        1.73466       -5.18400
|  6> H          1.50666        2.27224       -6.35808
|  7> S          1.78029       -0.03313       -6.42874
|  8> F          2.56929        0.21366       -7.60736
|  9> O          0.41688       -0.46297       -6.61859
| 10> O          2.50513       -0.93326       -5.48257
| 11> H         -0.34424        1.45871       -4.93752
| 12> H          0.61845        2.64655       -4.09174
| 13> H          0.80247        0.94882       -3.72173
| 14> *
| 15> %MaxCore 64000
| 16>
| 17> %pal nprocs 4
| 18> end
| 19>
| 20> %scf
| 21>   MaxIter 150
| 22> end
| 23>
| 24>
| 25>                          ****END OF INPUT****

CARTESIAN COORDINATES (ANGSTROEM)
---------------------------------
  C      0.611880    1.657630   -4.500290
  C      1.694990    1.541790   -5.570450
  H      2.697330    1.734660   -5.184000
  H      1.506660    2.272240   -6.358080
  S      1.780290   -0.033130   -6.428740
  F      2.569290    0.213660   -7.607360
  O      0.416880   -0.462970   -6.618590
  O      2.505130   -0.933260   -5.482570
  H     -0.344240    1.458710   -4.937520
  H      0.618450    2.646550   -4.091740
  H      0.802470    0.948820   -3.721730

 Total Charge           Charge          ....    0
 Multiplicity           Mult            ....    1
 Number of Electrons    NEL             ....   58
 Basis Dimension        Dim             ....  285

ORBITAL ENERGIES
----------------

  NO   OCC          E(Eh)            E(eV)
   0   2.0000     -88.268647     -2401.9120
   1   2.0000     -24.375592      -663.2936
   2   2.0000     -18.764531      -510.6088
   3   2.0000     -18.746401      -510.1155
   4   2.0000      -9.940952      -270.5071
   5   2.0000      -9.898224      -269.3444
   6   2.0000      -7.864533      -214.0048
   7   2.0000      -5.888813      -160.2428
   8   2.0000      -5.882351      -160.0669
   9   2.0000      -5.882124      -160.0607
  10   2.0000      -1.279684       -34.8220
  11   2.0000      -1.013582       -27.5810
  12   2.0000      -0.913914       -24.8689
  13   2.0000      -0.749007       -20.3815
  14   2.0000      -0.670168       -18.2362
  15   2.0000      -0.612121       -16.6567
  16   2.0000      -0.524684       -14.2774
  17   2.0000      -0.522197       -14.2097
  18   2.0000      -0.498051       -13.5527
  19   2.0000      -0.444083       -12.0841
  20   2.0000      -0.429802       -11.6955
  21   2.0000      -0.392098       -10.6695
  22   2.0000      -0.385280       -10.4840
  23   2.0000      -0.364082        -9.9072
  24   2.0000      -0.345491        -9.4013
  25   2.0000      -0.336146        -9.1470
  26   2.0000      -0.291961        -7.9447
  27   2.0000      -0.273537        -7.4433
  28   2.0000      -0.256654        -6.9839
  29   0.0000      -0.030570        -0.8319
  30   0.0000      -0.012759        -0.3472
  31   0.0000       0.006747         0.1836
  32   0.0000       0.012919         0.3515
  33   0.0000       0.019924         0.5422

MULLIKEN ATOMIC CHARGES
-----------------------
   0 C :   -0.888505
   1 C :   -0.210544
   2 H :    0.233249
   3 H :    0.244401
   4 S :    0.975853
   5 F :   -0.072456
   6 O :   -0.499615
   7 O :   -0.539193
   8 H :    0.268933
   9 H :    0.221228
  10 H :    0.266648
Sum of atomic charges:   -0.0000000

LOEWDIN ATOMIC CHARGES
----------------------
   0 C :   -0.100955
   1 C :   -0.295578
   2 H :    0.101610
   3 H :    0.094565
   4 S :    0.540545
   5 F :   -0.034775
   6 O :   -0.245292
   7 O :   -0.284634
   8 H :    0.071459
   9 H :    0.074816
  10 H :    0.078237

  Mayer bond orders larger than 0.100000
B(  0-C ,  1-C ) :   0.9148 B(  0-C ,  8-H ) :   0.9514 B(  0-C ,  9-H ) :   0.9619
B(  0-C , 10-H ) :   0.9545 B(  1-C ,  2-H ) :   0.9302 B(  1-C ,  3-H ) :   0.8993
B(  1-C ,  4-S ) :   0.8441 B(  1-C ,  7-O ) :   0.1048 B(  4-S ,  5-F ) :   1.0848
B(  4-S ,  6-O ) :   1.7549 B(  4-S ,  7-O ) :   1.6922 B(  6-O ,  7-O ) :   0.1244

Dispersion correction           -0.009229727
FINAL SINGLE POINT ENERGY      -727.318017298791

DIPOLE MOMENT
-------------
                                X             Y             Z
Electronic contribution:      3.84938      -5.72554      -7.52620
Nuclear contribution   :     -3.66946       7.33549       7.42434
                        -----------------------------------------
Total Dipole Moment    :      0.17992       1.60995      -0.10186
                        -----------------------------------------
Magnitude (a.u.)       :      1.62317
Magnitude (Debye)      :      4.12576

Rotational constants in cm-1:     0.158379     0.080294     0.077843
Rotational constants in MHz :  4748.076444  2407.152850  2333.668303

                             ****ORCA TERMINATED NORMALLY****
TOTAL RUN TIME: 0 days 0 hours 0 minutes 10 seconds 940 msec
