                         Program Version 5.0.0 -  RELEASE  -
|  1> !PBE D3BJ RIJCOSX def2-TZVPD def2/J TightSCF
|  2> *xyz 0 1
|  3> C          1.96337       -1.74915       -1.89689
|  4> C          2.73849       -2.01517       -3.09711
|  5> C          4.04974       -2.15472       -3.15204
|  6> N          4.65821       -1.98629       -4.31866
|  7> N          4.76423       -2.45444       -2.05049
|  8> H          4.28736       -2.77626       -1.21750
|  9> H          5.75082       -2.65835       -2.12599
| 10> H          2.34518       -1.69027       -3.97145
| 11> H          4.10900       -1.59268       -5.07176
| 12> H          5.64910       -2.15646       -4.42724
| 13> C          2.08852       -0.30091       -1.41520
| 14> H          2.23127       -2.45162       -1.10264
| 15> H          0.93025       -1.97780       -2.15544
| 16> H          1.82118        0.36368       -2.21003
| 17> H          3.09792       -0.11068       -1.11551
| 18> H          1.43391       -0.14382       -0.58352
| 19> *
| 20> %MaxCore 64000
| 21>
| 22> %pal nprocs 4
| 23> end
| 24>
| 25> %scf
| 26>   MaxIter 150
| 27> end
| 28>
| 29>
| 30>                          ****END OF INPUT****

CARTESIAN COORDINATES (ANGSTROEM)
---------------------------------
  C      1.963370   -1.749150   -1.896890
  C      2.738490   -2.015170   -3.097110
  C      4.049740   -2.154720   -3.152040
  N      4.658210   -1.986290   -4.318660
  N      4.764230   -2.454440   -2.050490
  H      4.287360   -2.776260   -1.217500
  H      5.750820   -2.658350   -2.125990
  H      2.345180   -1.690270   -3.971450
  H      4.109000   -1.592680   -5.071760
  H      5.649100   -2.156460   -4.427240
  C      2.088520   -0.300910   -1.415200
  H      2.231270   -2.451620   -1.102640
  H      0.930250   -1.977800   -2.155440
  H      1.821180    0.363680   -2.210030
  H      3.097920   -0.110680   -1.115510
  H      1.433910   -0.143820   -0.583520

 Total Charge           Charge          ....    0
 Multiplicity           Mult            ....    1
 Number of Electrons    NEL             ....   48
 Basis Dimension        Dim             ....  312

ORBITAL ENERGIES
----------------

  NO   OCC          E(Eh)            E(eV)
   0   2.0000     -13.987746      -380.6259
   1   2.0000     -13.985331      -380.5602
   2   2.0000      -9.918442      -269.8945
   3   2.0000      -9.856468      -268.2081
   4   2.0000      -9.843518      -267.8557
   5   2.0000      -9.803547      -266.7681
   6   2.0000      -0.879126       -23.9222
   7   2.0000      -0.796318       -21.6689
   8   2.0000      -0.700751       -19.0684
   9   2.0000      -0.626767       -17.0552
  10   2.0000      -0.556976       -15.1561
  11   2.0000      -0.524529       -14.2732
  12   2.0000      -0.491703       -13.3799
  13   2.0000      -0.458730       -12.4827
  14   2.0000      -0.426871       -11.6158
  15   2.0000      -0.391145       -10.6436
  16   2.0000      -0.372115       -10.1258
  17   2.0000      -0.339235        -9.2311
  18   2.0000      -0.335167        -9.1203
  19   2.0000      -0.313312        -8.5257
  20   2.0000      -0.285940        -7.7808
  21   2.0000      -0.276234        -7.5167
  22   2.0000      -0.224131        -6.0989
  23   2.0000      -0.130790        -3.5590
  24   0.0000      -0.021098        -0.5741
  25   0.0000       0.006413         0.1745
  26   0.0000       0.013112         0.3568
  27   0.0000       0.023472         0.6387
  28   0.0000       0.040482         1.1016

MULLIKEN ATOMIC CHARGES
-----------------------
   0 C :   -0.183641
   1 C :   -0.527169
   2 C :    0.292790
   3 N :   -0.241699
   4 N :   -0.246709
   5 H :    0.143358
   6 H :    0.097008
   7 H :    0.234428
   8 H :    0.137451
   9 H :    0.108884
  10 C :   -0.856698
  11 H :    0.251645
  12 H :    0.094071
  13 H :    0.256309
  14 H :    0.225354
  15 H :    0.214618
Sum of atomic charges:   -0.0000000

LOEWDIN ATOMIC CHARGES
----------------------
   0 C :   -0.285582
   1 C :   -0.155495
   2 C :   -0.560415
   3 N :    0.122178
   4 N :    0.142476
   5 H :    0.098429
   6 H :    0.093160
   7 H :    0.066476
   8 H :    0.107973
   9 H :    0.096470
  10 C :   -0.101489
  11 H :    0.093968
  12 H :    0.100510
  13 H :    0.065219
  14 H :    0.060378
  15 H :    0.055742

  Mayer bond orders larger than 0.100000
B(  0-C ,  1-C ) :   0.8764 B(  0-C ,  2-C ) :   0.1386 B(  0-C , 10-C ) :   0.6575
B(  0-C , 11-H ) :   0.9294 B(  0-C , 12-H ) :   1.0880 B(  1-C ,  2-C ) :   1.4440
B(  1-C ,  7-H ) :   1.0429 B(  1-C , 10-C ) :   0.1824 B(  2-C ,  3-N ) :   1.1089
B(  2-C ,  4-N ) :   1.0214 B(  2-C ,  7-H ) :  -0.1769 B(  3-N ,  8-H ) :   1.0013
B(  3-N ,  9-H ) :   1.0656 B(  4-N ,  5-H ) :   0.9715 B(  4-N ,  6-H ) :   1.0848
B( 10-C , 13-H ) :   0.9918 B( 10-C , 14-H ) :   0.9965 B( 10-C , 15-H ) :   0.9839

Dispersion correction           -0.012877387
FINAL SINGLE POINT ENERGY      -267.675230960171

DIPOLE MOMENT
-------------
                                X             Y             Z
Electronic contribution:      3.28819      -2.43908      -2.53643
Nuclear contribution   :     -2.31778       2.31977       2.35294
                        -----------------------------------------
Total Dipole Moment    :      0.97041      -0.11931      -0.18349
                        -----------------------------------------
Magnitude (a.u.)       :      0.99478
Magnitude (Debye)      :      2.52854

Rotational constants in cm-1:     0.219415     0.075373     0.066689
Rotational constants in MHz :  6577.897266  2259.621393  1999.290981

                             ****ORCA TERMINATED NORMALLY****
TOTAL RUN TIME: 0 days 0 hours 0 minutes 15 seconds 176 msec
