                         Program Version 5.0.0 -  RELEASE  -
|  1> !PBE D3BJ RIJCOSX def2-TZVPD def2/J TightSCF
|  2> *xyz 0 1
|  3> C          0.61188        1.65763       -4.50029
|  4> C          1.69499        1.54179       -5.57045
|  5> H          2.69733        1.73466       -5.18400
|  6> H          1.50666        2.27224       -6.35808
|  7> S          1.78029       -0.03313       -6.42874
|  8> O          2.56929        0.21366       -7.60736
|  9> F          0.41688       -0.46297       -6.61859
| 10> O          2.50513       -0.93326       -5.48257
| 11> H         -0.34424        1.45871       -4.93752
| 12> H          0.61845        2.64655       -4.09174
| 13> H          0.80247        0.94882       -3.72173
| 14> *
| 15> %MaxCore 64000
| 16>
| 17> %pal nprocs 4
| 18> end
| 19>
| 20> %scf
| 21>   MaxIter 150
| 22> end
| 23>
| 24>
| 25>                          ****END OF INPUT****

CARTESIAN COORDINATES (ANGSTROEM)
---------------------------------
  C      0.611880    1.657630   -4.500290
  C      1.694990    1.541790   -5.570450
  H      2.697330    1.734660   -5.184000
  H      1.506660    2.272240   -6.358080
  S      1.780290   -0.033130   -6.428740
  O      2.569290    0.213660   -7.607360
  F      0.416880   -0.462970   -6.618590
  O      2.505130   -0.933260   -5.482570
  H     -0.344240    1.458710   -4.937520
  H      0.618450    2.646550   -4.091740
  H      0.802470    0.948820   -3.721730

 Total Charge           Charge          ....    0
 Multiplicity           Mult            ....    1
 Number of Electrons    NEL             ....   58
 Basis Dimension        Dim             ....  285

ORBITAL ENERGIES
----------------

  NO   OCC          E(Eh)            E(eV)
   0   2.0000     -88.268492     -2401.9078
   1   2.0000     -24.375279      -663.2851
   2   2.0000     -18.764206      -510.6000
   3   2.0000     -18.746681      -510.1231
   4   2.0000      -9.940737      -270.5012
   5   2.0000      -9.902950      -269.4730
   6   2.0000      -7.864395      -214.0011
   7   2.0000      -5.888845      -160.2436
   8   2.0000      -5.882082      -160.0596
   9   2.0000      -5.881962      -160.0563
  10   2.0000      -1.278365       -34.7861
  11   2.0000      -1.014618       -27.6091
  12   2.0000      -0.913810       -24.8660
  13   2.0000      -0.752534       -20.4775
  14   2.0000      -0.666603       -18.1392
  15   2.0000      -0.616783       -16.7835
  16   2.0000      -0.535043       -14.5592
  17   2.0000      -0.520829       -14.1725
  18   2.0000      -0.489579       -13.3221
  19   2.0000      -0.445399       -12.1199
  20   2.0000      -0.424815       -11.5598
  21   2.0000      -0.402139       -10.9428
  22   2.0000      -0.389240       -10.5918
  23   2.0000      -0.367362        -9.9964
  24   2.0000      -0.351784        -9.5725
  25   2.0000      -0.334651        -9.1063
  26   2.0000      -0.291635        -7.9358
  27   2.0000      -0.273244        -7.4353
  28   2.0000      -0.256901        -6.9906
  29   0.0000      -0.037187        -1.0119
  30   0.0000      -0.004506        -0.1226
  31   0.0000       0.007789         0.2119
  32   0.0000       0.009806         0.2668
  33   0.0000       0.017594         0.4788

MULLIKEN ATOMIC CHARGES
-----------------------
   0 C :   -0.905315
   1 C :   -0.164506
   2 H :    0.213302
   3 H :    0.240974
   4 S :    0.966293
   5 O :   -0.484222
   6 F :   -0.091791
   7 O :   -0.540891
   8 H :    0.276290
   9 H :    0.216971
  10 H :    0.272895
Sum of atomic charges:   -0.0000000

LOEWDIN ATOMIC CHARGES
----------------------
   0 C :   -0.112479
   1 C :   -0.286534
   2 H :    0.111624
   3 H :    0.097738
   4 S :    0.538468
   5 O :   -0.246595
   6 F :   -0.033527
   7 O :   -0.283600
   8 H :    0.066689
   9 H :    0.073340
  10 H :    0.074878

  Mayer bond orders larger than 0.100000
B(  0-C ,  1-C ) :   0.8490 B(  0-C ,  8-H ) :   0.9303 B(  0-C ,  9-H ) :   0.9784
B(  0-C , 10-H ) :   0.9710 B(  1-C ,  2-H ) :   0.9420 B(  1-C ,  3-H ) :   0.9353
B(  1-C ,  4-S ) :   0.8339 B(  1-C ,  5-O ) :   0.1201 B(  4-S ,  5-O ) :   1.7644
B(  4-S ,  6-F ) :   1.0868 B(  4-S ,  7-O ) :   1.6982 B(  5-O ,  7-O ) :   0.1159

Dispersion correction           -0.009174978
FINAL SINGLE POINT ENERGY      -727.317810807476

DIPOLE MOMENT
-------------
                                X             Y             Z
Electronic contribution:      0.30342      -6.83060      -5.87509
Nuclear contribution   :     -1.42658       8.04056       6.39401
                        -----------------------------------------
Total Dipole Moment    :     -1.12317       1.20996       0.51893
                        -----------------------------------------
Magnitude (a.u.)       :      1.73055
Magnitude (Debye)      :      4.39870

Rotational constants in cm-1:     0.153659     0.082363     0.078978
Rotational constants in MHz :  4606.587369  2469.179541  2367.702074

                             ****ORCA TERMINATED NORMALLY****
TOTAL RUN TIME: 0 days 0 hours 0 minutes 11 seconds 172 msec
