                         Program Version 5.0.0 -  RELEASE  -
|  1> !PBE D3BJ RIJCOSX def2-TZVPD def2/J TightSCF
|  2> *xyz 0 1
|  3> C          1.96337       -1.74915       -1.89689
|  4> N          2.73849       -2.01517       -3.09711
|  5> C          4.04974       -2.15472       -3.15204
|  6> C          4.65821       -1.98629       -4.31866
|  7> N          4.76423       -2.45444       -2.05049
|  8> H          4.28736       -2.77626       -1.21750
|  9> H          5.75082       -2.65835       -2.12599
| 10> H          2.34518       -1.69027       -3.97145
| 11> H          4.10900       -1.59268       -5.07176
| 12> H          5.64910       -2.15646       -4.42724
| 13> C          2.08852       -0.30091       -1.41520
| 14> H          2.23127       -2.45162       -1.10264
| 15> H          0.93025       -1.97780       -2.15544
| 16> H          1.82118        0.36368       -2.21003
| 17> H          3.09792       -0.11068       -1.11551
| 18> H          1.43391       -0.14382       -0.58352
| 19> *
| 20> %MaxCore 64000
| 21>
| 22> %pal nprocs 4
| 23> end
| 24>
| 25> %scf
| 26>   MaxIter 150
| 27> end
| 28>
| 29>
| 30>                          ****END OF INPUT****

CARTESIAN COORDINATES (ANGSTROEM)
---------------------------------
  C      1.963370   -1.749150   -1.896890
  N      2.738490   -2.015170   -3.097110
  C      4.049740   -2.154720   -3.152040
  C      4.658210   -1.986290   -4.318660
  N      4.764230   -2.454440   -2.050490
  H      4.287360   -2.776260   -1.217500
  H      5.750820   -2.658350   -2.125990
  H      2.345180   -1.690270   -3.971450
  H      4.109000   -1.592680   -5.071760
  H      5.649100   -2.156460   -4.427240
  C      2.088520   -0.300910   -1.415200
  H      2.231270   -2.451620   -1.102640
  H      0.930250   -1.977800   -2.155440
  H      1.821180    0.363680   -2.210030
  H      3.097920   -0.110680   -1.115510
  H      1.433910   -0.143820   -0.583520

 Total Charge           Charge          ....    0
 Multiplicity           Mult            ....    1
 Number of Electrons    NEL             ....   48
 Basis Dimension        Dim             ....  312

ORBITAL ENERGIES
----------------

  NO   OCC          E(Eh)            E(eV)
   0   2.0000     -13.986583      -380.5943
   1   2.0000     -13.985704      -380.5703
   2   2.0000      -9.920428      -269.9486
   3   2.0000      -9.919118      -269.9129
   4   2.0000      -9.868348      -268.5314
   5   2.0000      -9.794376      -266.5185
   6   2.0000      -0.887093       -24.1390
   7   2.0000      -0.807529       -21.9740
   8   2.0000      -0.700610       -19.0646
   9   2.0000      -0.633776       -17.2459
  10   2.0000      -0.568793       -15.4776
  11   2.0000      -0.543632       -14.7930
  12   2.0000      -0.484358       -13.1800
  13   2.0000      -0.446926       -12.1615
  14   2.0000      -0.432065       -11.7571
  15   2.0000      -0.390879       -10.6364
  16   2.0000      -0.385476       -10.4893
  17   2.0000      -0.355747        -9.6804
  18   2.0000      -0.338325        -9.2063
  19   2.0000      -0.331049        -9.0083
  20   2.0000      -0.316377        -8.6091
  21   2.0000      -0.313616        -8.5339
  22   2.0000      -0.214068        -5.8251
  23   2.0000      -0.133596        -3.6353
  24   0.0000      -0.019717        -0.5365
  25   0.0000       0.005983         0.1628
  26   0.0000       0.011842         0.3222
  27   0.0000       0.016188         0.4405
  28   0.0000       0.041712         1.1350

MULLIKEN ATOMIC CHARGES
-----------------------
   0 C :   -0.352667
   1 N :   -0.046636
   2 C :    0.753991
   3 C :   -1.241688
   4 N :   -0.242308
   5 H :    0.118923
   6 H :    0.122257
   7 H :    0.145036
   8 H :    0.226232
   9 H :    0.199431
  10 C :   -0.778035
  11 H :    0.200840
  12 H :    0.184586
  13 H :    0.216107
  14 H :    0.231844
  15 H :    0.262087
Sum of atomic charges:   -0.0000000

LOEWDIN ATOMIC CHARGES
----------------------
   0 C :   -0.245900
   1 N :    0.021618
   2 C :   -0.583894
   3 C :    0.002605
   4 N :    0.137081
   5 H :    0.086845
   6 H :    0.105753
   7 H :    0.139947
   8 H :    0.008107
   9 H :    0.006409
  10 C :   -0.082490
  11 H :    0.102891
  12 H :    0.110343
  13 H :    0.066639
  14 H :    0.062696
  15 H :    0.061351

  Mayer bond orders larger than 0.100000
B(  0-C ,  1-N ) :   0.9226 B(  0-C , 10-C ) :   0.8173 B(  0-C , 11-H ) :   0.9252
B(  0-C , 12-H ) :   0.9940 B(  1-N ,  2-C ) :   1.1409 B(  1-N ,  3-C ) :   0.1040
B(  1-N ,  7-H ) :   0.9200 B(  2-C ,  3-C ) :   1.0172 B(  2-C ,  4-N ) :   0.9864
B(  3-C ,  8-H ) :   0.9881 B(  3-C ,  9-H ) :   1.1284 B(  4-N ,  5-H ) :   1.0135
B(  4-N ,  6-H ) :   1.0337 B( 10-C , 13-H ) :   0.9985 B( 10-C , 14-H ) :   1.0060
B( 10-C , 15-H ) :   0.9778

Dispersion correction           -0.012775246
FINAL SINGLE POINT ENERGY      -267.669423095727

DIPOLE MOMENT
-------------
                                X             Y             Z
Electronic contribution:      1.40856      -2.33945      -1.22335
Nuclear contribution   :     -1.91052       2.32590       2.09379
                        -----------------------------------------
Total Dipole Moment    :     -0.50197      -0.01355       0.87044
                        -----------------------------------------
Magnitude (a.u.)       :      1.00490
Magnitude (Debye)      :      2.55425

Rotational constants in cm-1:     0.219448     0.077923     0.068804
Rotational constants in MHz :  6578.886179  2336.083179  2062.700476

                             ****ORCA TERMINATED NORMALLY****
TOTAL RUN TIME: 0 days 0 hours 0 minutes 14 seconds 984 msec
