                         Program Version 5.0.0 -  RELEASE  -
|  1> !PBE D3BJ RIJCOSX def2-TZVPD def2/J TightSCF
|  2> *xyz 0 1
|  3> C          0.61188        1.65763       -4.50029
|  4> C          1.69499        1.54179       -5.57045
|  5> H          2.69733        1.73466       -5.18400
|  6> H          1.50666        2.27224       -6.35808
|  7> S          1.78029       -0.03313       -6.42874
|  8> O          2.56929        0.21366       -7.60736
|  9> O          0.41688       -0.46297       -6.61859
| 10> F          2.50513       -0.93326       -5.48257
| 11> H         -0.34424        1.45871       -4.93752
| 12> H          0.61845        2.64655       -4.09174
| 13> H          0.80247        0.94882       -3.72173
| 14> *
| 15> %MaxCore 64000
| 16>
| 17> %pal nprocs 4
| 18> end
| 19>
| 20> %scf
| 21>   MaxIter 150
| 22> end
| 23>
| 24>
| 25>                          ****END OF INPUT****

CARTESIAN COORDINATES (ANGSTROEM)
---------------------------------
  C      0.611880    1.657630   -4.500290
  C      1.694990    1.541790   -5.570450
  H      2.697330    1.734660   -5.184000
  H      1.506660    2.272240   -6.358080
  S      1.780290   -0.033130   -6.428740
  O      2.569290    0.213660   -7.607360
  O      0.416880   -0.462970   -6.618590
  F      2.505130   -0.933260   -5.482570
  H     -0.344240    1.458710   -4.937520
  H      0.618450    2.646550   -4.091740
  H      0.802470    0.948820   -3.721730

 Total Charge           Charge          ....    0
 Multiplicity           Mult            ....    1
 Number of Electrons    NEL             ....   58
 Basis Dimension        Dim             ....  285

ORBITAL ENERGIES
----------------

  NO   OCC          E(Eh)            E(eV)
   0   2.0000     -88.265434     -2401.8246
   1   2.0000     -24.348237      -662.5492
   2   2.0000     -18.764431      -510.6061
   3   2.0000     -18.763630      -510.5843
   4   2.0000      -9.939659      -270.4719
   5   2.0000      -9.898235      -269.3447
   6   2.0000      -7.861488      -213.9220
   7   2.0000      -5.885936      -160.1645
   8   2.0000      -5.879451      -159.9880
   9   2.0000      -5.878908      -159.9732
  10   2.0000      -1.236072       -33.6352
  11   2.0000      -1.025578       -27.9074
  12   2.0000      -0.940347       -25.5881
  13   2.0000      -0.749178       -20.3862
  14   2.0000      -0.652596       -17.7581
  15   2.0000      -0.604949       -16.4615
  16   2.0000      -0.512970       -13.9586
  17   2.0000      -0.492035       -13.3890
  18   2.0000      -0.487815       -13.2741
  19   2.0000      -0.442948       -12.0532
  20   2.0000      -0.425072       -11.5668
  21   2.0000      -0.405521       -11.0348
  22   2.0000      -0.386100       -10.5063
  23   2.0000      -0.360644        -9.8136
  24   2.0000      -0.356995        -9.7143
  25   2.0000      -0.336619        -9.1599
  26   2.0000      -0.296342        -8.0639
  27   2.0000      -0.292399        -7.9566
  28   2.0000      -0.277369        -7.5476
  29   0.0000      -0.031410        -0.8547
  30   0.0000      -0.003360        -0.0914
  31   0.0000       0.006445         0.1754
  32   0.0000       0.010794         0.2937
  33   0.0000       0.019518         0.5311

MULLIKEN ATOMIC CHARGES
-----------------------
   0 C :   -0.865062
   1 C :   -0.208396
   2 H :    0.246762
   3 H :    0.226123
   4 S :    0.980442
   5 O :   -0.494359
   6 O :   -0.503441
   7 F :   -0.134378
   8 H :    0.266923
   9 H :    0.220068
  10 H :    0.265319
Sum of atomic charges:   -0.0000000

LOEWDIN ATOMIC CHARGES
----------------------
   0 C :   -0.111348
   1 C :   -0.286942
   2 H :    0.100744
   3 H :    0.106299
   4 S :    0.541646
   5 O :   -0.247945
   6 O :   -0.243225
   7 F :   -0.074875
   8 H :    0.070418
   9 H :    0.072729
  10 H :    0.072499

  Mayer bond orders larger than 0.100000
B(  0-C ,  1-C ) :   0.8825 B(  0-C ,  8-H ) :   0.9733 B(  0-C ,  9-H ) :   0.9734
B(  0-C , 10-H ) :   0.9375 B(  1-C ,  2-H ) :   0.9132 B(  1-C ,  3-H ) :   0.9365
B(  1-C ,  4-S ) :   0.8439 B(  1-C ,  5-O ) :   0.1262 B(  4-S ,  5-O ) :   1.7522
B(  4-S ,  6-O ) :   1.7524 B(  4-S ,  7-F ) :   1.0182 B(  5-O ,  6-O ) :   0.1200

Dispersion correction           -0.009198964
FINAL SINGLE POINT ENERGY      -727.340579257912

DIPOLE MOMENT
-------------
                                X             Y             Z
Electronic contribution:      3.76417      -7.64407      -3.98482
Nuclear contribution   :     -3.60260       8.53062       5.21025
                        -----------------------------------------
Total Dipole Moment    :      0.16156       0.88655       1.22543
                        -----------------------------------------
Magnitude (a.u.)       :      1.52110
Magnitude (Debye)      :      3.86632

Rotational constants in cm-1:     0.154011     0.080858     0.079602
Rotational constants in MHz :  4617.134198  2424.070332  2386.404775

                             ****ORCA TERMINATED NORMALLY****
TOTAL RUN TIME: 0 days 0 hours 0 minutes 10 seconds 382 msec
