                         Program Version 5.0.0 -  RELEASE  -
|  1> !PBE D3BJ RIJCOSX def2-TZVPD def2/J TightSCF
|  2> *xyz 0 1
|  3> C          1.96337       -1.74915       -1.89689
|  4> N          2.73849       -2.01517       -3.09711
|  5> C          4.04974       -2.15472       -3.15204
|  6> N          4.65821       -1.98629       -4.31866
|  7> C          4.76423       -2.45444       -2.05049
|  8> H          4.28736       -2.77626       -1.21750
|  9> H          5.75082       -2.65835       -2.12599
| 10> H          2.34518       -1.69027       -3.97145
| 11> H          4.10900       -1.59268       -5.07176
| 12> H          5.64910       -2.15646       -4.42724
| 13> C          2.08852       -0.30091       -1.41520
| 14> H          2.23127       -2.45162       -1.10264
| 15> H          0.93025       -1.97780       -2.15544
| 16> H          1.82118        0.36368       -2.21003
| 17> H          3.09792       -0.11068       -1.11551
| 18> H          1.43391       -0.14382       -0.58352
| 19> *
| 20> %MaxCore 64000
| 21>
| 22> %pal nprocs 4
| 23> end
| 24>
| 25> %scf
| 26>   MaxIter 150
| 27> end
| 28>
| 29>
| 30>                          ****END OF INPUT****

CARTESIAN COORDINATES (ANGSTROEM)
---------------------------------
  C      1.963370   -1.749150   -1.896890
  N      2.738490   -2.015170   -3.097110
  C      4.049740   -2.154720   -3.152040
  N      4.658210   -1.986290   -4.318660
  C      4.764230   -2.454440   -2.050490
  H      4.287360   -2.776260   -1.217500
  H      5.750820   -2.658350   -2.125990
  H      2.345180   -1.690270   -3.971450
  H      4.109000   -1.592680   -5.071760
  H      5.649100   -2.156460   -4.427240
  C      2.088520   -0.300910   -1.415200
  H      2.231270   -2.451620   -1.102640
  H      0.930250   -1.977800   -2.155440
  H      1.821180    0.363680   -2.210030
  H      3.097920   -0.110680   -1.115510
  H      1.433910   -0.143820   -0.583520

 Total Charge           Charge          ....    0
 Multiplicity           Mult            ....    1
 Number of Electrons    NEL             ....   48
 Basis Dimension        Dim             ....  312

ORBITAL ENERGIES
----------------

  NO   OCC          E(Eh)            E(eV)
   0   2.0000     -13.990720      -380.7069
   1   2.0000     -13.987644      -380.6231
   2   2.0000      -9.920635      -269.9542
   3   2.0000      -9.914461      -269.7862
   4   2.0000      -9.862034      -268.3596
   5   2.0000      -9.794961      -266.5344
   6   2.0000      -0.892710       -24.2919
   7   2.0000      -0.811335       -22.0775
   8   2.0000      -0.684961       -18.6387
   9   2.0000      -0.638785       -17.3822
  10   2.0000      -0.582174       -15.8418
  11   2.0000      -0.507667       -13.8143
  12   2.0000      -0.495725       -13.4894
  13   2.0000      -0.474087       -12.9006
  14   2.0000      -0.420852       -11.4520
  15   2.0000      -0.392281       -10.6745
  16   2.0000      -0.371790       -10.1169
  17   2.0000      -0.352210        -9.5841
  18   2.0000      -0.336457        -9.1555
  19   2.0000      -0.323791        -8.8108
  20   2.0000      -0.319233        -8.6868
  21   2.0000      -0.304618        -8.2891
  22   2.0000      -0.211853        -5.7648
  23   2.0000      -0.135556        -3.6887
  24   0.0000      -0.020898        -0.5687
  25   0.0000       0.004236         0.1153
  26   0.0000       0.015364         0.4181
  27   0.0000       0.018437         0.5017
  28   0.0000       0.044017         1.1978

MULLIKEN ATOMIC CHARGES
-----------------------
   0 C :   -0.315540
   1 N :   -0.103499
   2 C :    0.744087
   3 N :   -0.218693
   4 C :   -1.244934
   5 H :    0.210468
   6 H :    0.240888
   7 H :    0.143531
   8 H :    0.113117
   9 H :    0.127918
  10 C :   -0.827424
  11 H :    0.207492
  12 H :    0.192733
  13 H :    0.223163
  14 H :    0.253583
  15 H :    0.253108
Sum of atomic charges:    0.0000000

LOEWDIN ATOMIC CHARGES
----------------------
   0 C :   -0.240189
   1 N :    0.018747
   2 C :   -0.586030
   3 N :    0.128222
   4 C :    0.010581
   5 H :    0.000851
   6 H :    0.004025
   7 H :    0.131431
   8 H :    0.095829
   9 H :    0.110690
  10 C :   -0.081309
  11 H :    0.108937
  12 H :    0.110096
  13 H :    0.063363
  14 H :    0.061898
  15 H :    0.062859

  Mayer bond orders larger than 0.100000
B(  0-C ,  1-N ) :   0.8864 B(  0-C ,  4-C ) :   0.1096 B(  0-C , 10-C ) :   0.8183
B(  0-C , 11-H ) :   0.9094 B(  0-C , 12-H ) :   0.9523 B(  1-N ,  2-C ) :   1.0483
B(  1-N ,  7-H ) :   0.9852 B(  2-C ,  3-N ) :   0.9767 B(  2-C ,  4-C ) :   1.1657
B(  3-N ,  4-C ) :   0.1236 B(  3-N ,  8-H ) :   1.0435 B(  3-N ,  9-H ) :   1.0228
B(  4-C ,  5-H ) :   1.0108 B(  4-C ,  6-H ) :   1.0366 B( 10-C , 13-H ) :   0.9877
B( 10-C , 14-H ) :   1.0142 B( 10-C , 15-H ) :   0.9640

Dispersion correction           -0.012840197
FINAL SINGLE POINT ENERGY      -267.669040252387

DIPOLE MOMENT
-------------
                                X             Y             Z
Electronic contribution:      1.34286      -1.83735      -3.40979
Nuclear contribution   :     -1.88803       2.22658       2.57497
                        -----------------------------------------
Total Dipole Moment    :     -0.54517       0.38923      -0.83482
                        -----------------------------------------
Magnitude (a.u.)       :      1.07034
Magnitude (Debye)      :      2.72059

Rotational constants in cm-1:     0.226509     0.075782     0.067928
Rotational constants in MHz :  6790.555051  2271.890226  2036.439218

                             ****ORCA TERMINATED NORMALLY****
TOTAL RUN TIME: 0 days 0 hours 0 minutes 14 seconds 993 msec
