                         Program Version 5.0.0 -  RELEASE  -
|  1> !PBE D3BJ RIJCOSX def2-TZVPD def2/J TightSCF xyzfile
|  2>
|  3> *xyzfile 0 1 D1.xyz
|  4>
|  5> %MaxCore 64000
|  6>
|  7> %pal nprocs 4
|  8> end
|  9>
| 10> %scf
| 11>   MaxIter 150
| 12> end
| 13>
| 14>
| 15>                          ****END OF INPUT****

CARTESIAN COORDINATES (ANGSTROEM)
---------------------------------
  C      1.963365   -1.749150   -1.896887
  C      2.738490   -2.015170   -3.097113
  C      0.611877    1.657634   -4.500288
  C      1.694991    1.541794   -5.570447
  H      2.697326    1.734659   -5.183996
  H      1.506656    2.272239   -6.358076
  S      1.780287   -0.033128   -6.428739
  C      4.049736   -2.154717   -3.152044
  N      4.658206   -1.986293   -4.318655
  N      4.764231   -2.454435   -2.050491
  H      4.287363   -2.776259   -1.217496
  H      5.750825   -2.658351   -2.125988
  H      2.345176   -1.690274   -3.971447
  H      4.109004   -1.592677   -5.071760
  H      5.649095   -2.156462   -4.427237
  F      2.569287    0.213657   -7.607360
  O      0.416880   -0.462969   -6.618595
  C      2.088520   -0.300912   -1.415204
  H      2.231272   -2.451616   -1.102643
  H      0.930249   -1.977801   -2.155438
  C      0.680356    0.655418   -3.348038
  H     -0.356865    1.549231   -4.991128
  H      0.650228    2.675438   -4.096000
  C      1.968993    0.733582   -2.535654
  H      3.051356   -0.168602   -0.911868
  H      1.316501   -0.136231   -0.657252
  O      2.505129   -0.933263   -5.482570
  H      2.824195    0.624726   -3.208464
  H      2.058919    1.730331   -2.093112
  H      0.542252   -0.344731   -3.766662
  H     -0.174219    0.829692   -2.685182

 Total Charge           Charge          ....    0
 Multiplicity           Mult            ....    1
 Number of Electrons    NEL             ....  120
 Basis Dimension        Dim             ....  689

ORBITAL ENERGIES
----------------

  NO   OCC          E(Eh)            E(eV)
   0   2.0000     -88.277514     -2402.1533
   1   2.0000     -24.382615      -663.4847
   2   2.0000     -18.772981      -510.8388
   3   2.0000     -18.761185      -510.5178
   4   2.0000     -13.971156      -380.1745
   5   2.0000     -13.956859      -379.7854
   6   2.0000      -9.941468      -270.5211
   7   2.0000      -9.905474      -269.5417
   8   2.0000      -9.897964      -269.3373
   9   2.0000      -9.875432      -268.7242
  10   2.0000      -9.864634      -268.4303
  11   2.0000      -9.854848      -268.1641
  12   2.0000      -9.844175      -267.8736
  13   2.0000      -9.775269      -265.9986
  14   2.0000      -7.873900      -214.2597
  15   2.0000      -5.898231      -160.4990
  16   2.0000      -5.891697      -160.3212
  17   2.0000      -5.891414      -160.3135
  18   2.0000      -1.287256       -35.0280
  19   2.0000      -1.025122       -27.8950
  20   2.0000      -0.931563       -25.3491
  21   2.0000      -0.858444       -23.3594
  22   2.0000      -0.775948       -21.1146
  23   2.0000      -0.761104       -20.7107
  24   2.0000      -0.718667       -19.5559
  25   2.0000      -0.685221       -18.6458
  26   2.0000      -0.657308       -17.8863
  27   2.0000      -0.625256       -17.0141
  28   2.0000      -0.589484       -16.0407
  29   2.0000      -0.557742       -15.1769
  30   2.0000      -0.539416       -14.6782
  31   2.0000      -0.527497       -14.3539
  32   2.0000      -0.522865       -14.2279
  33   2.0000      -0.495624       -13.4866
  34   2.0000      -0.492890       -13.4122
  35   2.0000      -0.474421       -12.9097
  36   2.0000      -0.447944       -12.1892
  37   2.0000      -0.441531       -12.0147
  38   2.0000      -0.434321       -11.8185
  39   2.0000      -0.417335       -11.3563
  40   2.0000      -0.413705       -11.2575
  41   2.0000      -0.396781       -10.7970
  42   2.0000      -0.387095       -10.5334
  43   2.0000      -0.379454       -10.3255
  44   2.0000      -0.367293        -9.9945
  45   2.0000      -0.352064        -9.5801
  46   2.0000      -0.340279        -9.2595
  47   2.0000      -0.334259        -9.0956
  48   2.0000      -0.324457        -8.8289
  49   2.0000      -0.316355        -8.6084
  50   2.0000      -0.304541        -8.2870
  51   2.0000      -0.295131        -8.0309
  52   2.0000      -0.288322        -7.8456
  53   2.0000      -0.282724        -7.6933
  54   2.0000      -0.274940        -7.4815
  55   2.0000      -0.272334        -7.4106
  56   2.0000      -0.258804        -7.0424
  57   2.0000      -0.246148        -6.6980
  58   2.0000      -0.204181        -5.5561
  59   2.0000      -0.111475        -3.0334
  60   0.0000      -0.034498        -0.9387
  61   0.0000      -0.018287        -0.4976
  62   0.0000      -0.009860        -0.2683
  63   0.0000       0.000058         0.0016
  64   0.0000       0.007877         0.2143

MULLIKEN ATOMIC CHARGES
-----------------------
   0 C :   -0.240014
   1 C :   -0.679341
   2 C :   -0.360289
   3 C :   -0.484050
   4 H :    0.305678
   5 H :    0.234270
   6 S :    0.835921
   7 C :   -0.453096
   8 N :   -0.172114
   9 N :   -0.219013
  10 H :    0.161707
  11 H :    0.088145
  12 H :    1.006559
  13 H :    0.271404
  14 H :    0.052284
  15 F :   -0.078003
  16 O :   -0.539272
  17 C :   -0.237726
  18 H :    0.286663
  19 H :    0.126741
  20 C :   -0.237880
  21 H :    0.157933
  22 H :    0.165614
  23 C :   -0.324069
  24 H :    0.135807
  25 H :    0.151199
  26 O :   -0.643735
  27 H :    0.213165
  28 H :    0.155401
  29 H :    0.144387
  30 H :    0.175724
Sum of atomic charges:    0.0000000

LOEWDIN ATOMIC CHARGES
----------------------
   0 C :   -0.227541
   1 C :   -0.148010
   2 C :   -0.215849
   3 C :   -0.232954
   4 H :    0.105479
   5 H :    0.101102
   6 S :    0.601912
   7 C :   -0.543269
   8 N :    0.129581
   9 N :    0.139973
  10 H :    0.094790
  11 H :    0.089131
  12 H :    0.022021
  13 H :    0.056818
  14 H :    0.095302
  15 F :   -0.024137
  16 O :   -0.219242
  17 C :   -0.197565
  18 H :    0.097237
  19 H :    0.104052
  20 C :   -0.206530
  21 H :    0.112429
  22 H :    0.122404
  23 C :   -0.211116
  24 H :    0.106668
  25 H :    0.103759
  26 O :   -0.301896
  27 H :    0.103547
  28 H :    0.113597
  29 H :    0.104802
  30 H :    0.123504

  Mayer bond orders larger than 0.100000
B(  0-C ,  1-C ) :   0.6796 B(  0-C ,  7-C ) :   0.2591 B(  0-C , 17-C ) :   0.8000
B(  0-C , 18-H ) :   0.8990 B(  0-C , 19-H ) :   0.9360 B(  0-C , 20-C ) :   0.1751
B(  1-C ,  7-C ) :   1.7322 B(  1-C ,  8-N ) :  -0.1326 B(  1-C , 12-H ) :   0.3813
B(  1-C , 23-C ) :   0.2710 B(  1-C , 26-O ) :   0.2848 B(  2-C ,  3-C ) :   1.0961
B(  2-C ,  6-S ) :   0.1221 B(  2-C , 20-C ) :   1.0871 B(  2-C , 21-H ) :   0.9055
B(  2-C , 22-H ) :   0.9174 B(  2-C , 23-C ) :   0.2362 B(  3-C ,  4-H ) :   0.8530
B(  3-C ,  5-H ) :   0.8682 B(  3-C ,  6-S ) :   0.7706 B(  3-C , 16-O ) :   0.1241
B(  3-C , 23-C ) :   0.1681 B(  3-C , 26-O ) :   0.1103 B(  6-S , 15-F ) :   1.0216
B(  6-S , 16-O ) :   1.7301 B(  6-S , 26-O ) :   1.8431 B(  7-C ,  8-N ) :   1.1753
B(  7-C ,  9-N ) :   1.0644 B(  7-C , 12-H ) :  -0.2692 B(  7-C , 17-C ) :   0.1960
B(  8-N , 13-H ) :   0.8972 B(  8-N , 14-H ) :   1.0940 B(  9-N , 10-H ) :   0.9582
B(  9-N , 11-H ) :   1.0778 B( 12-H , 26-O ) :  -0.4027 B( 17-C , 20-C ) :   0.2082
B( 17-C , 23-C ) :   1.1206 B( 17-C , 24-H ) :   0.9224 B( 17-C , 25-H ) :   0.8893
B( 20-C , 23-C ) :   0.5407 B( 20-C , 29-H ) :   0.9785 B( 20-C , 30-H ) :   0.8712
B( 23-C , 27-H ) :   1.0034 B( 23-C , 28-H ) :   0.9350

Dispersion correction           -0.037812192
FINAL SINGLE POINT ENERGY     -1072.340305075548

DIPOLE MOMENT
-------------
                                X             Y             Z
Electronic contribution:      0.71312      -1.10460     -23.52595
Nuclear contribution   :      0.18720       2.58739      22.98820
                        -----------------------------------------
Total Dipole Moment    :      0.90032       1.48280      -0.53775
                        -----------------------------------------
Magnitude (a.u.)       :      1.81616
Magnitude (Debye)      :      4.61632

Rotational constants in cm-1:     0.028798     0.014448     0.010940
Rotational constants in MHz :   863.355869   433.126694   327.985023

                             ****ORCA TERMINATED NORMALLY****
TOTAL RUN TIME: 0 days 0 hours 1 minutes 31 seconds 132 msec
