                         Program Version 5.0.0 -  RELEASE  -
|  1> !PBE D3BJ RIJCOSX def2-TZVPD def2/J TightSCF xyzfile
|  2>
|  3> *xyzfile 0 1 D2.xyz
|  4>
|  5> %MaxCore 64000
|  6>
|  7> %pal nprocs 4
|  8> end
|  9>
| 10> %scf
| 11>   MaxIter 150
| 12> end
| 13>
| 14>
| 15>                          ****END OF INPUT****

CARTESIAN COORDINATES (ANGSTROEM)
---------------------------------
  C      1.963365   -1.749150   -1.896887
  N      2.738490   -2.015170   -3.097113
  C      0.611877    1.657634   -4.500288
  C      1.694991    1.541794   -5.570447
  H      2.697326    1.734659   -5.183996
  H      1.506656    2.272239   -6.358076
  S      1.780287   -0.033128   -6.428739
  C      4.049736   -2.154717   -3.152044
  C      4.658206   -1.986293   -4.318655
  N      4.764231   -2.454435   -2.050491
  H      4.287363   -2.776259   -1.217496
  H      5.750825   -2.658351   -2.125988
  H      2.345176   -1.690274   -3.971447
  H      4.109004   -1.592677   -5.071760
  H      5.649095   -2.156462   -4.427237
  F      2.569287    0.213657   -7.607360
  O      0.416880   -0.462969   -6.618595
  C      2.088520   -0.300912   -1.415204
  H      2.231272   -2.451616   -1.102643
  H      0.930249   -1.977801   -2.155438
  C      0.680356    0.655418   -3.348038
  H     -0.356865    1.549231   -4.991128
  H      0.650228    2.675438   -4.096000
  C      1.968993    0.733582   -2.535654
  H      3.051356   -0.168602   -0.911868
  H      1.316501   -0.136231   -0.657252
  O      2.505129   -0.933263   -5.482570
  H      2.824195    0.624726   -3.208464
  H      2.058919    1.730331   -2.093112
  H      0.542252   -0.344731   -3.766662
  H     -0.174219    0.829692   -2.685182

 Total Charge           Charge          ....    0
 Multiplicity           Mult            ....    1
 Number of Electrons    NEL             ....  120
 Basis Dimension        Dim             ....  689

ORBITAL ENERGIES
----------------

  NO   OCC          E(Eh)            E(eV)
   0   2.0000     -88.280508     -2402.2348
   1   2.0000     -24.384770      -663.5433
   2   2.0000     -18.774789      -510.8880
   3   2.0000     -18.760867      -510.5091
   4   2.0000     -13.968015      -380.0890
   5   2.0000     -13.956723      -379.7817
   6   2.0000      -9.944927      -270.6152
   7   2.0000      -9.913252      -269.7533
   8   2.0000      -9.904456      -269.5139
   9   2.0000      -9.897650      -269.3287
  10   2.0000      -9.889082      -269.0956
  11   2.0000      -9.879725      -268.8410
  12   2.0000      -9.874976      -268.7118
  13   2.0000      -9.766586      -265.7623
  14   2.0000      -7.876673      -214.3352
  15   2.0000      -5.900764      -160.5679
  16   2.0000      -5.894636      -160.4012
  17   2.0000      -5.894275      -160.3914
  18   2.0000      -1.288843       -35.0712
  19   2.0000      -1.026923       -27.9440
  20   2.0000      -0.932567       -25.3764
  21   2.0000      -0.865773       -23.5589
  22   2.0000      -0.789569       -21.4853
  23   2.0000      -0.767548       -20.8860
  24   2.0000      -0.721781       -19.6407
  25   2.0000      -0.691019       -18.8036
  26   2.0000      -0.656430       -17.8624
  27   2.0000      -0.631304       -17.1786
  28   2.0000      -0.595851       -16.2139
  29   2.0000      -0.565476       -15.3874
  30   2.0000      -0.543035       -14.7767
  31   2.0000      -0.533119       -14.5069
  32   2.0000      -0.525569       -14.3015
  33   2.0000      -0.508077       -13.8255
  34   2.0000      -0.501498       -13.6465
  35   2.0000      -0.465791       -12.6748
  36   2.0000      -0.450603       -12.2615
  37   2.0000      -0.448253       -12.1976
  38   2.0000      -0.428668       -11.6647
  39   2.0000      -0.423413       -11.5216
  40   2.0000      -0.417508       -11.3610
  41   2.0000      -0.409869       -11.1531
  42   2.0000      -0.393172       -10.6987
  43   2.0000      -0.386176       -10.5084
  44   2.0000      -0.370541       -10.0829
  45   2.0000      -0.354901        -9.6574
  46   2.0000      -0.342820        -9.3286
  47   2.0000      -0.340137        -9.2556
  48   2.0000      -0.329181        -8.9575
  49   2.0000      -0.319154        -8.6846
  50   2.0000      -0.313729        -8.5370
  51   2.0000      -0.310368        -8.4455
  52   2.0000      -0.302814        -8.2400
  53   2.0000      -0.290804        -7.9132
  54   2.0000      -0.288858        -7.8602
  55   2.0000      -0.281969        -7.6728
  56   2.0000      -0.280579        -7.6349
  57   2.0000      -0.259475        -7.0607
  58   2.0000      -0.193781        -5.2731
  59   2.0000      -0.112964        -3.0739
  60   0.0000      -0.035505        -0.9661
  61   0.0000      -0.022334        -0.6077
  62   0.0000      -0.009041        -0.2460
  63   0.0000      -0.002930        -0.0797
  64   0.0000       0.006874         0.1871

MULLIKEN ATOMIC CHARGES
-----------------------
   0 C :   -0.751536
   1 N :    0.038480
   2 C :   -0.358267
   3 C :   -0.499674
   4 H :    0.315021
   5 H :    0.235909
   6 S :    0.852004
   7 C :    0.677141
   8 C :   -1.522688
   9 N :   -0.226839
  10 H :    0.120931
  11 H :    0.130039
  12 H :    0.327832
  13 H :    0.637679
  14 H :    0.210612
  15 F :   -0.075154
  16 O :   -0.547000
  17 C :   -0.134565
  18 H :    0.208369
  19 H :    0.213592
  20 C :   -0.311786
  21 H :    0.157485
  22 H :    0.161827
  23 C :   -0.314121
  24 H :    0.166001
  25 H :    0.189907
  26 O :   -0.649515
  27 H :    0.247381
  28 H :    0.152077
  29 H :    0.194151
  30 H :    0.154707
Sum of atomic charges:   -0.0000000

LOEWDIN ATOMIC CHARGES
----------------------
   0 C :   -0.194447
   1 N :    0.038982
   2 C :   -0.214619
   3 C :   -0.231489
   4 H :    0.107170
   5 H :    0.101930
   6 S :    0.603873
   7 C :   -0.566935
   8 C :    0.006110
   9 N :    0.134275
  10 H :    0.082986
  11 H :    0.102067
  12 H :    0.075609
  13 H :   -0.026605
  14 H :    0.008676
  15 F :   -0.014955
  16 O :   -0.223400
  17 C :   -0.185383
  18 H :    0.105887
  19 H :    0.113094
  20 C :   -0.210970
  21 H :    0.113186
  22 H :    0.123516
  23 C :   -0.207044
  24 H :    0.107203
  25 H :    0.107409
  26 O :   -0.302109
  27 H :    0.104602
  28 H :    0.116954
  29 H :    0.100932
  30 H :    0.123494

  Mayer bond orders larger than 0.100000
B(  0-C ,  1-N ) :   1.0398 B(  0-C ,  9-N ) :   0.1094 B(  0-C , 17-C ) :   0.7715
B(  0-C , 18-H ) :   0.9204 B(  0-C , 19-H ) :   0.9832 B(  0-C , 20-C ) :   0.1826
B(  1-N ,  7-C ) :   1.0281 B(  1-N , 12-H ) :   0.7715 B(  2-C ,  3-C ) :   1.0817
B(  2-C ,  6-S ) :   0.1235 B(  2-C , 20-C ) :   1.1065 B(  2-C , 21-H ) :   0.9041
B(  2-C , 22-H ) :   0.9167 B(  2-C , 23-C ) :   0.2330 B(  3-C ,  4-H ) :   0.8552
B(  3-C ,  5-H ) :   0.8750 B(  3-C ,  6-S ) :   0.7634 B(  3-C , 15-F ) :   0.1028
B(  3-C , 16-O ) :   0.1121 B(  3-C , 23-C ) :   0.1809 B(  6-S , 15-F ) :   1.0324
B(  6-S , 16-O ) :   1.7268 B(  6-S , 26-O ) :   1.8477 B(  7-C ,  8-C ) :   1.1280
B(  7-C ,  9-N ) :   1.0282 B(  7-C , 12-H ) :  -0.1013 B(  7-C , 14-H ) :  -0.1525
B(  8-C , 13-H ) :   0.6505 B(  8-C , 14-H ) :   1.1290 B(  8-C , 26-O ) :   0.2067
B(  9-N , 10-H ) :   1.0084 B(  9-N , 11-H ) :   1.0223 B( 13-H , 26-O ) :  -0.2181
B( 16-O , 26-O ) :   0.1016 B( 17-C , 20-C ) :   0.1918 B( 17-C , 23-C ) :   1.1636
B( 17-C , 24-H ) :   0.9113 B( 17-C , 25-H ) :   0.9785 B( 20-C , 23-C ) :   0.5335
B( 20-C , 29-H ) :   0.9591 B( 20-C , 30-H ) :   0.8972 B( 23-C , 27-H ) :   0.9746
B( 23-C , 28-H ) :   0.9040

Dispersion correction           -0.037628914
FINAL SINGLE POINT ENERGY     -1072.335113798645

DIPOLE MOMENT
-------------
                                X             Y             Z
Electronic contribution:     -0.89247      -0.91255     -22.50908
Nuclear contribution   :      0.43347       2.59110      22.83150
                        -----------------------------------------
Total Dipole Moment    :     -0.45901       1.67855       0.32242
                        -----------------------------------------
Magnitude (a.u.)       :      1.76979
Magnitude (Debye)      :      4.49845

Rotational constants in cm-1:     0.029257     0.014415     0.010996
Rotational constants in MHz :   877.098782   432.159206   329.643335

                             ****ORCA TERMINATED NORMALLY****
TOTAL RUN TIME: 0 days 0 hours 1 minutes 25 seconds 985 msec
