                         Program Version 5.0.0 -  RELEASE  -
|  1> !PBE D3BJ RIJCOSX def2-TZVPD def2/J TightSCF xyzfile
|  2>
|  3> *xyzfile 0 1 D3.xyz
|  4>
|  5> %MaxCore 64000
|  6>
|  7> %pal nprocs 4
|  8> end
|  9>
| 10> %scf
| 11>   MaxIter 150
| 12> end
| 13>
| 14>
| 15>                          ****END OF INPUT****

CARTESIAN COORDINATES (ANGSTROEM)
---------------------------------
  C      1.963365   -1.749150   -1.896887
  N      2.738490   -2.015170   -3.097113
  C      0.611877    1.657634   -4.500288
  C      1.694991    1.541794   -5.570447
  H      2.697326    1.734659   -5.183996
  H      1.506656    2.272239   -6.358076
  S      1.780287   -0.033128   -6.428739
  C      4.049736   -2.154717   -3.152044
  N      4.658206   -1.986293   -4.318655
  C      4.764231   -2.454435   -2.050491
  H      4.287363   -2.776259   -1.217496
  H      5.750825   -2.658351   -2.125988
  H      2.345176   -1.690274   -3.971447
  H      4.109004   -1.592677   -5.071760
  H      5.649095   -2.156462   -4.427237
  F      2.569287    0.213657   -7.607360
  O      0.416880   -0.462969   -6.618595
  C      2.088520   -0.300912   -1.415204
  H      2.231272   -2.451616   -1.102643
  H      0.930249   -1.977801   -2.155438
  C      0.680356    0.655418   -3.348038
  H     -0.356865    1.549231   -4.991128
  H      0.650228    2.675438   -4.096000
  C      1.968993    0.733582   -2.535654
  H      3.051356   -0.168602   -0.911868
  H      1.316501   -0.136231   -0.657252
  O      2.505129   -0.933263   -5.482570
  H      2.824195    0.624726   -3.208464
  H      2.058919    1.730331   -2.093112
  H      0.542252   -0.344731   -3.766662
  H     -0.174219    0.829692   -2.685182

 Total Charge           Charge          ....    0
 Multiplicity           Mult            ....    1
 Number of Electrons    NEL             ....  120
 Basis Dimension        Dim             ....  689

ORBITAL ENERGIES
----------------

  NO   OCC          E(Eh)            E(eV)
   0   2.0000     -88.296394     -2402.6670
   1   2.0000     -24.398859      -663.9267
   2   2.0000     -18.788977      -511.2741
   3   2.0000     -18.781788      -511.0784
   4   2.0000     -13.957687      -379.8080
   5   2.0000     -13.955054      -379.7363
   6   2.0000      -9.955558      -270.9045
   7   2.0000      -9.919364      -269.9196
   8   2.0000      -9.898048      -269.3396
   9   2.0000      -9.898029      -269.3391
  10   2.0000      -9.892052      -269.1764
  11   2.0000      -9.880463      -268.8611
  12   2.0000      -9.869744      -268.5694
  13   2.0000      -9.774429      -265.9757
  14   2.0000      -7.892496      -214.7657
  15   2.0000      -5.916695      -161.0014
  16   2.0000      -5.910594      -160.8354
  17   2.0000      -5.909902      -160.8166
  18   2.0000      -1.303138       -35.4602
  19   2.0000      -1.042716       -28.3737
  20   2.0000      -0.950748       -25.8712
  21   2.0000      -0.866435       -23.5769
  22   2.0000      -0.787574       -21.4310
  23   2.0000      -0.775026       -21.0895
  24   2.0000      -0.725210       -19.7340
  25   2.0000      -0.692153       -18.8344
  26   2.0000      -0.658225       -17.9112
  27   2.0000      -0.623510       -16.9666
  28   2.0000      -0.613722       -16.7002
  29   2.0000      -0.577154       -15.7051
  30   2.0000      -0.549530       -14.9535
  31   2.0000      -0.541928       -14.7466
  32   2.0000      -0.531320       -14.4579
  33   2.0000      -0.514290       -13.9946
  34   2.0000      -0.485324       -13.2063
  35   2.0000      -0.473177       -12.8758
  36   2.0000      -0.464708       -12.6453
  37   2.0000      -0.456232       -12.4147
  38   2.0000      -0.445168       -12.1136
  39   2.0000      -0.429540       -11.6884
  40   2.0000      -0.413747       -11.2586
  41   2.0000      -0.409080       -11.1316
  42   2.0000      -0.393693       -10.7129
  43   2.0000      -0.381170       -10.3722
  44   2.0000      -0.376514       -10.2455
  45   2.0000      -0.367899       -10.0110
  46   2.0000      -0.346584        -9.4310
  47   2.0000      -0.342154        -9.3105
  48   2.0000      -0.326530        -8.8853
  49   2.0000      -0.323567        -8.8047
  50   2.0000      -0.319878        -8.7043
  51   2.0000      -0.308466        -8.3938
  52   2.0000      -0.306287        -8.3345
  53   2.0000      -0.299094        -8.1388
  54   2.0000      -0.290141        -7.8951
  55   2.0000      -0.288729        -7.8567
  56   2.0000      -0.287139        -7.8135
  57   2.0000      -0.275845        -7.5061
  58   2.0000      -0.186790        -5.0828
  59   2.0000      -0.114211        -3.1078
  60   0.0000      -0.047724        -1.2986
  61   0.0000      -0.029373        -0.7993
  62   0.0000      -0.010366        -0.2821
  63   0.0000      -0.002171        -0.0591
  64   0.0000      -0.000861        -0.0234

MULLIKEN ATOMIC CHARGES
-----------------------
   0 C :   -0.758849
   1 N :   -0.015813
   2 C :   -0.365684
   3 C :   -0.488041
   4 H :    0.311286
   5 H :    0.237056
   6 S :    0.861841
   7 C :    0.707585
   8 N :   -0.142432
   9 C :   -1.414238
  10 H :    0.243018
  11 H :    0.268282
  12 H :    0.454294
  13 H :    0.264342
  14 H :    0.067915
  15 F :   -0.072539
  16 O :   -0.526495
  17 C :   -0.152101
  18 H :    0.200289
  19 H :    0.232604
  20 C :   -0.282892
  21 H :    0.159378
  22 H :    0.166984
  23 C :   -0.326605
  24 H :    0.183066
  25 H :    0.198969
  26 O :   -0.712155
  27 H :    0.221354
  28 H :    0.148488
  29 H :    0.180731
  30 H :    0.150363
Sum of atomic charges:   -0.0000000

LOEWDIN ATOMIC CHARGES
----------------------
   0 C :   -0.188838
   1 N :    0.035878
   2 C :   -0.213820
   3 C :   -0.230316
   4 H :    0.107118
   5 H :    0.103429
   6 S :    0.607988
   7 C :   -0.573701
   8 N :    0.132078
   9 C :    0.005303
  10 H :   -0.004763
  11 H :   -0.001400
  12 H :    0.070097
  13 H :    0.048041
  14 H :    0.109317
  15 F :   -0.015315
  16 O :   -0.214929
  17 C :   -0.180873
  18 H :    0.111766
  19 H :    0.113048
  20 C :   -0.211204
  21 H :    0.113705
  22 H :    0.124794
  23 C :   -0.208476
  24 H :    0.107823
  25 H :    0.109930
  26 O :   -0.302405
  27 H :    0.103503
  28 H :    0.117166
  29 H :    0.100378
  30 H :    0.124678

  Mayer bond orders larger than 0.100000
B(  0-C ,  1-N ) :   0.9809 B(  0-C ,  9-C ) :   0.1171 B(  0-C , 12-H ) :  -0.1034
B(  0-C , 17-C ) :   0.8060 B(  0-C , 18-H ) :   0.9404 B(  0-C , 19-H ) :   0.9291
B(  0-C , 20-C ) :   0.1935 B(  1-N ,  7-C ) :   0.9705 B(  1-N ,  9-C ) :   0.1011
B(  1-N , 12-H ) :   0.7009 B(  2-C ,  3-C ) :   1.0847 B(  2-C ,  6-S ) :   0.1214
B(  2-C , 20-C ) :   1.1032 B(  2-C , 21-H ) :   0.9069 B(  2-C , 22-H ) :   0.9166
B(  2-C , 23-C ) :   0.2358 B(  3-C ,  4-H ) :   0.8526 B(  3-C ,  5-H ) :   0.8673
B(  3-C ,  6-S ) :   0.7667 B(  3-C , 16-O ) :   0.1172 B(  3-C , 23-C ) :   0.1736
B(  6-S , 15-F ) :   1.0364 B(  6-S , 16-O ) :   1.7406 B(  6-S , 26-O ) :   1.8251
B(  7-C ,  8-N ) :   1.0168 B(  7-C ,  9-C ) :   1.0503 B(  8-N ,  9-C ) :   0.1260
B(  8-N , 13-H ) :   0.9008 B(  8-N , 14-H ) :   1.0519 B(  9-C , 10-H ) :   1.0054
B(  9-C , 11-H ) :   1.0419 B( 17-C , 20-C ) :   0.1852 B( 17-C , 23-C ) :   1.1996
B( 17-C , 24-H ) :   0.9035 B( 17-C , 25-H ) :   0.9456 B( 20-C , 23-C ) :   0.5357
B( 20-C , 29-H ) :   0.9676 B( 20-C , 30-H ) :   0.8905 B( 23-C , 27-H ) :   0.9920
B( 23-C , 28-H ) :   0.9047

Dispersion correction           -0.037580982
FINAL SINGLE POINT ENERGY     -1072.345985437614

DIPOLE MOMENT
-------------
                                X             Y             Z
Electronic contribution:     -1.13471      -0.32209     -24.50926
Nuclear contribution   :      0.44707       2.53104      23.12246
                        -----------------------------------------
Total Dipole Moment    :     -0.68764       2.20896      -1.38679
                        -----------------------------------------
Magnitude (a.u.)       :      2.69732
Magnitude (Debye)      :      6.85604

Rotational constants in cm-1:     0.028906     0.014696     0.011110
Rotational constants in MHz :   866.591909   440.585554   333.081943

                             ****ORCA TERMINATED NORMALLY****
TOTAL RUN TIME: 0 days 0 hours 1 minutes 31 seconds 54 msec
