                         Program Version 5.0.0 -  RELEASE  -
|  1> !PBE D3BJ RIJCOSX def2-TZVPD def2/J TightSCF xyzfile
|  2>
|  3> *xyzfile 0 1 D4.xyz
|  4>
|  5> %MaxCore 64000
|  6>
|  7> %pal nprocs 4
|  8> end
|  9>
| 10> %scf
| 11>   MaxIter 150
| 12> end
| 13>
| 14>
| 15>                          ****END OF INPUT****

CARTESIAN COORDINATES (ANGSTROEM)
---------------------------------
  C      1.963365   -1.749150   -1.896887
  C      2.738490   -2.015170   -3.097113
  C      0.611877    1.657634   -4.500288
  C      1.694991    1.541794   -5.570447
  H      2.697326    1.734659   -5.183996
  H      1.506656    2.272239   -6.358076
  S      1.780287   -0.033128   -6.428739
  C      4.049736   -2.154717   -3.152044
  N      4.658206   -1.986293   -4.318655
  N      4.764231   -2.454435   -2.050491
  H      4.287363   -2.776259   -1.217496
  H      5.750825   -2.658351   -2.125988
  H      2.345176   -1.690274   -3.971447
  H      4.109004   -1.592677   -5.071760
  H      5.649095   -2.156462   -4.427237
  O      2.569287    0.213657   -7.607360
  F      0.416880   -0.462969   -6.618595
  C      2.088520   -0.300912   -1.415204
  H      2.231272   -2.451616   -1.102643
  H      0.930249   -1.977801   -2.155438
  C      0.680356    0.655418   -3.348038
  H     -0.356865    1.549231   -4.991128
  H      0.650228    2.675438   -4.096000
  C      1.968993    0.733582   -2.535654
  H      3.051356   -0.168602   -0.911868
  H      1.316501   -0.136231   -0.657252
  O      2.505129   -0.933263   -5.482570
  H      2.824195    0.624726   -3.208464
  H      2.058919    1.730331   -2.093112
  H      0.542252   -0.344731   -3.766662
  H     -0.174219    0.829692   -2.685182

 Total Charge           Charge          ....    0
 Multiplicity           Mult            ....    1
 Number of Electrons    NEL             ....  120
 Basis Dimension        Dim             ....  689

ORBITAL ENERGIES
----------------

  NO   OCC          E(Eh)            E(eV)
   0   2.0000     -88.278485     -2402.1797
   1   2.0000     -24.383232      -663.5015
   2   2.0000     -18.772339      -510.8213
   3   2.0000     -18.759550      -510.4733
   4   2.0000     -13.971510      -380.1841
   5   2.0000     -13.956499      -379.7756
   6   2.0000      -9.941549      -270.5233
   7   2.0000      -9.909480      -269.6507
   8   2.0000      -9.898382      -269.3487
   9   2.0000      -9.883067      -268.9319
  10   2.0000      -9.868680      -268.5404
  11   2.0000      -9.857551      -268.2376
  12   2.0000      -9.846406      -267.9343
  13   2.0000      -9.774673      -265.9824
  14   2.0000      -7.874728      -214.2823
  15   2.0000      -5.899059      -160.5216
  16   2.0000      -5.892768      -160.3504
  17   2.0000      -5.892008      -160.3297
  18   2.0000      -1.286316       -35.0024
  19   2.0000      -1.026121       -27.9222
  20   2.0000      -0.931010       -25.3341
  21   2.0000      -0.858446       -23.3595
  22   2.0000      -0.775924       -21.1140
  23   2.0000      -0.765833       -20.8394
  24   2.0000      -0.720468       -19.6049
  25   2.0000      -0.684125       -18.6160
  26   2.0000      -0.658963       -17.9313
  27   2.0000      -0.629102       -17.1187
  28   2.0000      -0.590876       -16.0786
  29   2.0000      -0.560286       -15.2462
  30   2.0000      -0.539816       -14.6891
  31   2.0000      -0.535402       -14.5690
  32   2.0000      -0.523020       -14.2321
  33   2.0000      -0.497127       -13.5275
  34   2.0000      -0.491011       -13.3611
  35   2.0000      -0.472556       -12.8589
  36   2.0000      -0.447100       -12.1662
  37   2.0000      -0.443179       -12.0595
  38   2.0000      -0.428517       -11.6605
  39   2.0000      -0.423632       -11.5276
  40   2.0000      -0.416227       -11.3261
  41   2.0000      -0.397292       -10.8109
  42   2.0000      -0.390734       -10.6324
  43   2.0000      -0.385125       -10.4798
  44   2.0000      -0.373045       -10.1511
  45   2.0000      -0.348751        -9.4900
  46   2.0000      -0.342520        -9.3204
  47   2.0000      -0.336374        -9.1532
  48   2.0000      -0.329250        -8.9594
  49   2.0000      -0.319784        -8.7018
  50   2.0000      -0.308336        -8.3902
  51   2.0000      -0.296627        -8.0716
  52   2.0000      -0.293836        -7.9957
  53   2.0000      -0.287790        -7.8312
  54   2.0000      -0.278164        -7.5692
  55   2.0000      -0.273241        -7.4353
  56   2.0000      -0.261737        -7.1222
  57   2.0000      -0.240045        -6.5320
  58   2.0000      -0.204098        -5.5538
  59   2.0000      -0.111882        -3.0445
  60   0.0000      -0.039658        -1.0792
  61   0.0000      -0.011398        -0.3101
  62   0.0000      -0.009901        -0.2694
  63   0.0000      -0.003006        -0.0818
  64   0.0000       0.006944         0.1890

MULLIKEN ATOMIC CHARGES
-----------------------
   0 C :   -0.239116
   1 C :   -0.667971
   2 C :   -0.383379
   3 C :   -0.416786
   4 H :    0.289653
   5 H :    0.194342
   6 S :    0.835375
   7 C :   -0.457572
   8 N :   -0.167114
   9 N :   -0.219847
  10 H :    0.160420
  11 H :    0.089698
  12 H :    0.999359
  13 H :    0.260887
  14 H :    0.056465
  15 O :   -0.525279
  16 F :   -0.114673
  17 C :   -0.235834
  18 H :    0.282820
  19 H :    0.120267
  20 C :   -0.140002
  21 H :    0.162679
  22 H :    0.168168
  23 C :   -0.321171
  24 H :    0.139212
  25 H :    0.151802
  26 O :   -0.637570
  27 H :    0.199784
  28 H :    0.159996
  29 H :    0.093772
  30 H :    0.161613
Sum of atomic charges:   -0.0000000

LOEWDIN ATOMIC CHARGES
----------------------
   0 C :   -0.230069
   1 C :   -0.153041
   2 C :   -0.226708
   3 C :   -0.222885
   4 H :    0.115330
   5 H :    0.104278
   6 S :    0.600760
   7 C :   -0.543220
   8 N :    0.135028
   9 N :    0.140243
  10 H :    0.094609
  11 H :    0.089674
  12 H :    0.017127
  13 H :    0.062765
  14 H :    0.097481
  15 O :   -0.231511
  16 F :   -0.012621
  17 C :   -0.197364
  18 H :    0.096957
  19 H :    0.101967
  20 C :   -0.212067
  21 H :    0.108180
  22 H :    0.120800
  23 C :   -0.208980
  24 H :    0.107403
  25 H :    0.103572
  26 O :   -0.300997
  27 H :    0.104969
  28 H :    0.114793
  29 H :    0.100727
  30 H :    0.122800

  Mayer bond orders larger than 0.100000
B(  0-C ,  1-C ) :   0.6738 B(  0-C ,  7-C ) :   0.2594 B(  0-C , 17-C ) :   0.7989
B(  0-C , 18-H ) :   0.9043 B(  0-C , 19-H ) :   0.9345 B(  0-C , 20-C ) :   0.1804
B(  1-C ,  7-C ) :   1.7358 B(  1-C ,  8-N ) :  -0.1316 B(  1-C , 12-H ) :   0.4557
B(  1-C , 23-C ) :   0.2622 B(  1-C , 26-O ) :   0.3308 B(  2-C ,  3-C ) :   1.0302
B(  2-C ,  6-S ) :   0.1166 B(  2-C , 20-C ) :   1.0239 B(  2-C , 21-H ) :   0.9363
B(  2-C , 22-H ) :   0.9252 B(  2-C , 23-C ) :   0.2462 B(  3-C ,  4-H ) :   0.8693
B(  3-C ,  5-H ) :   0.9591 B(  3-C ,  6-S ) :   0.7662 B(  3-C , 15-O ) :   0.1425
B(  3-C , 23-C ) :   0.1649 B(  3-C , 26-O ) :   0.1115 B(  6-S , 15-O ) :   1.6715
B(  6-S , 16-F ) :   1.0631 B(  6-S , 26-O ) :   1.8697 B(  7-C ,  8-N ) :   1.1741
B(  7-C ,  9-N ) :   1.0683 B(  7-C , 12-H ) :  -0.2789 B(  7-C , 17-C ) :   0.1972
B(  8-N , 13-H ) :   0.9004 B(  8-N , 14-H ) :   1.0898 B(  9-N , 10-H ) :   0.9587
B(  9-N , 11-H ) :   1.0770 B( 12-H , 26-O ) :  -0.4799 B( 17-C , 20-C ) :   0.2102
B( 17-C , 23-C ) :   1.1247 B( 17-C , 24-H ) :   0.9180 B( 17-C , 25-H ) :   0.8873
B( 20-C , 23-C ) :   0.6005 B( 20-C , 29-H ) :   0.9623 B( 20-C , 30-H ) :   0.8920
B( 23-C , 27-H ) :   1.0088 B( 23-C , 28-H ) :   0.9273

Dispersion correction           -0.037702067
FINAL SINGLE POINT ENERGY     -1072.339504709788

DIPOLE MOMENT
-------------
                                X             Y             Z
Electronic contribution:     -2.94828      -2.24611     -21.78498
Nuclear contribution   :      2.64598       3.36033      21.85869
                        -----------------------------------------
Total Dipole Moment    :     -0.30230       1.11422       0.07371
                        -----------------------------------------
Magnitude (a.u.)       :      1.15685
Magnitude (Debye)      :      2.94048

Rotational constants in cm-1:     0.028973     0.014435     0.011026
Rotational constants in MHz :   868.588266   432.748309   330.548534

                             ****ORCA TERMINATED NORMALLY****
TOTAL RUN TIME: 0 days 0 hours 1 minutes 31 seconds 351 msec
