                         Program Version 5.0.0 -  RELEASE  -
|  1> !PBE D3BJ RIJCOSX def2-TZVPD def2/J TightSCF xyzfile
|  2>
|  3> *xyzfile 0 1 D5.xyz
|  4>
|  5> %MaxCore 64000
|  6>
|  7> %pal nprocs 4
|  8> end
|  9>
| 10> %scf
| 11>   MaxIter 150
| 12> end
| 13>
| 14>
| 15>                          ****END OF INPUT****

CARTESIAN COORDINATES (ANGSTROEM)
---------------------------------
  C      1.963365   -1.749150   -1.896887
  N      2.738490   -2.015170   -3.097113
  C      0.611877    1.657634   -4.500288
  C      1.694991    1.541794   -5.570447
  H      2.697326    1.734659   -5.183996
  H      1.506656    2.272239   -6.358076
  S      1.780287   -0.033128   -6.428739
  C      4.049736   -2.154717   -3.152044
  C      4.658206   -1.986293   -4.318655
  N      4.764231   -2.454435   -2.050491
  H      4.287363   -2.776259   -1.217496
  H      5.750825   -2.658351   -2.125988
  H      2.345176   -1.690274   -3.971447
  H      4.109004   -1.592677   -5.071760
  H      5.649095   -2.156462   -4.427237
  O      2.569287    0.213657   -7.607360
  F      0.416880   -0.462969   -6.618595
  C      2.088520   -0.300912   -1.415204
  H      2.231272   -2.451616   -1.102643
  H      0.930249   -1.977801   -2.155438
  C      0.680356    0.655418   -3.348038
  H     -0.356865    1.549231   -4.991128
  H      0.650228    2.675438   -4.096000
  C      1.968993    0.733582   -2.535654
  H      3.051356   -0.168602   -0.911868
  H      1.316501   -0.136231   -0.657252
  O      2.505129   -0.933263   -5.482570
  H      2.824195    0.624726   -3.208464
  H      2.058919    1.730331   -2.093112
  H      0.542252   -0.344731   -3.766662
  H     -0.174219    0.829692   -2.685182

 Total Charge           Charge          ....    0
 Multiplicity           Mult            ....    1
 Number of Electrons    NEL             ....  120
 Basis Dimension        Dim             ....  689

ORBITAL ENERGIES
----------------

  NO   OCC          E(Eh)            E(eV)
   0   2.0000     -88.279401     -2402.2046
   1   2.0000     -24.384143      -663.5263
   2   2.0000     -18.773834      -510.8620
   3   2.0000     -18.761944      -510.5384
   4   2.0000     -13.968156      -380.0928
   5   2.0000     -13.956633      -379.7793
   6   2.0000      -9.944140      -270.5938
   7   2.0000      -9.916871      -269.8518
   8   2.0000      -9.906841      -269.5788
   9   2.0000      -9.897456      -269.3235
  10   2.0000      -9.896431      -269.2956
  11   2.0000      -9.883683      -268.9487
  12   2.0000      -9.877722      -268.7865
  13   2.0000      -9.766800      -265.7681
  14   2.0000      -7.875664      -214.3077
  15   2.0000      -5.900127      -160.5506
  16   2.0000      -5.893547      -160.3716
  17   2.0000      -5.892996      -160.3566
  18   2.0000      -1.287568       -35.0365
  19   2.0000      -1.027060       -27.9477
  20   2.0000      -0.932514       -25.3750
  21   2.0000      -0.866183       -23.5700
  22   2.0000      -0.790192       -21.5022
  23   2.0000      -0.772064       -21.0089
  24   2.0000      -0.723512       -19.6878
  25   2.0000      -0.689711       -18.7680
  26   2.0000      -0.658158       -17.9094
  27   2.0000      -0.634468       -17.2647
  28   2.0000      -0.597219       -16.2512
  29   2.0000      -0.567782       -15.4501
  30   2.0000      -0.543441       -14.7878
  31   2.0000      -0.540289       -14.7020
  32   2.0000      -0.527762       -14.3611
  33   2.0000      -0.513349       -13.9689
  34   2.0000      -0.493998       -13.4424
  35   2.0000      -0.466859       -12.7039
  36   2.0000      -0.451233       -12.2787
  37   2.0000      -0.445119       -12.1123
  38   2.0000      -0.429072       -11.6756
  39   2.0000      -0.426134       -11.5957
  40   2.0000      -0.419188       -11.4067
  41   2.0000      -0.411808       -11.2059
  42   2.0000      -0.397116       -10.8061
  43   2.0000      -0.385439       -10.4883
  44   2.0000      -0.378082       -10.2881
  45   2.0000      -0.352583        -9.5943
  46   2.0000      -0.350883        -9.5480
  47   2.0000      -0.344043        -9.3619
  48   2.0000      -0.335300        -9.1240
  49   2.0000      -0.320370        -8.7177
  50   2.0000      -0.317786        -8.6474
  51   2.0000      -0.308010        -8.3814
  52   2.0000      -0.297696        -8.1007
  53   2.0000      -0.292132        -7.9493
  54   2.0000      -0.289149        -7.8682
  55   2.0000      -0.285696        -7.7742
  56   2.0000      -0.279035        -7.5929
  57   2.0000      -0.266676        -7.2566
  58   2.0000      -0.194379        -5.2893
  59   2.0000      -0.112872        -3.0714
  60   0.0000      -0.040940        -1.1140
  61   0.0000      -0.016307        -0.4437
  62   0.0000      -0.011226        -0.3055
  63   0.0000      -0.007358        -0.2002
  64   0.0000       0.006394         0.1740

MULLIKEN ATOMIC CHARGES
-----------------------
   0 C :   -0.755427
   1 N :    0.030600
   2 C :   -0.384457
   3 C :   -0.435041
   4 H :    0.294112
   5 H :    0.194965
   6 S :    0.843371
   7 C :    0.699418
   8 C :   -1.573438
   9 N :   -0.228298
  10 H :    0.119862
  11 H :    0.130425
  12 H :    0.342988
  13 H :    0.685583
  14 H :    0.201229
  15 O :   -0.515233
  16 F :   -0.115886
  17 C :   -0.139687
  18 H :    0.209775
  19 H :    0.204918
  20 C :   -0.211576
  21 H :    0.161481
  22 H :    0.164993
  23 C :   -0.316285
  24 H :    0.168710
  25 H :    0.192347
  26 O :   -0.648545
  27 H :    0.241106
  28 H :    0.156207
  29 H :    0.139142
  30 H :    0.142643
Sum of atomic charges:   -0.0000000

LOEWDIN ATOMIC CHARGES
----------------------
   0 C :   -0.196535
   1 N :    0.034862
   2 C :   -0.225558
   3 C :   -0.222271
   4 H :    0.116710
   5 H :    0.104940
   6 S :    0.600663
   7 C :   -0.567259
   8 C :    0.012764
   9 N :    0.134078
  10 H :    0.082577
  11 H :    0.102349
  12 H :    0.070798
  13 H :   -0.020162
  14 H :    0.011162
  15 O :   -0.221309
  16 F :   -0.017110
  17 C :   -0.185071
  18 H :    0.105759
  19 H :    0.111224
  20 C :   -0.216813
  21 H :    0.108964
  22 H :    0.121806
  23 C :   -0.204888
  24 H :    0.107927
  25 H :    0.107241
  26 O :   -0.300272
  27 H :    0.105990
  28 H :    0.118157
  29 H :    0.096549
  30 H :    0.122729

  Mayer bond orders larger than 0.100000
B(  0-C ,  1-N ) :   1.0410 B(  0-C ,  9-N ) :   0.1104 B(  0-C , 17-C ) :   0.7653
B(  0-C , 18-H ) :   0.9174 B(  0-C , 19-H ) :   0.9904 B(  0-C , 20-C ) :   0.1830
B(  1-N ,  7-C ) :   1.0300 B(  1-N , 12-H ) :   0.7679 B(  2-C ,  3-C ) :   1.0147
B(  2-C ,  6-S ) :   0.1175 B(  2-C , 20-C ) :   1.0460 B(  2-C , 21-H ) :   0.9360
B(  2-C , 22-H ) :   0.9244 B(  2-C , 23-C ) :   0.2429 B(  3-C ,  4-H ) :   0.8760
B(  3-C ,  5-H ) :   0.9654 B(  3-C ,  6-S ) :   0.7663 B(  3-C , 15-O ) :   0.1505
B(  3-C , 23-C ) :   0.1743 B(  6-S , 15-O ) :   1.6767 B(  6-S , 16-F ) :   1.0452
B(  6-S , 26-O ) :   1.8496 B(  7-C ,  8-C ) :   1.0966 B(  7-C ,  9-N ) :   1.0271
B(  7-C , 14-H ) :  -0.1604 B(  8-C , 13-H ) :   0.5824 B(  8-C , 14-H ) :   1.1452
B(  8-C , 26-O ) :   0.2292 B(  9-N , 10-H ) :   1.0097 B(  9-N , 11-H ) :   1.0217
B( 13-H , 26-O ) :  -0.1937 B( 17-C , 20-C ) :   0.1910 B( 17-C , 23-C ) :   1.1709
B( 17-C , 24-H ) :   0.9108 B( 17-C , 25-H ) :   0.9775 B( 20-C , 23-C ) :   0.5952
B( 20-C , 29-H ) :   0.9452 B( 20-C , 30-H ) :   0.9197 B( 23-C , 27-H ) :   0.9787
B( 23-C , 28-H ) :   0.8932

Dispersion correction           -0.037522203
FINAL SINGLE POINT ENERGY     -1072.334610530008

DIPOLE MOMENT
-------------
                                X             Y             Z
Electronic contribution:     -4.54502      -2.06996     -20.76941
Nuclear contribution   :      2.89225       3.36404      21.70199
                        -----------------------------------------
Total Dipole Moment    :     -1.65277       1.29407       0.93258
                        -----------------------------------------
Magnitude (a.u.)       :      2.29695
Magnitude (Debye)      :      5.83839

Rotational constants in cm-1:     0.029431     0.014408     0.011084
Rotational constants in MHz :   882.306106   431.946714   332.288152

                             ****ORCA TERMINATED NORMALLY****
TOTAL RUN TIME: 0 days 0 hours 1 minutes 24 seconds 432 msec
