                         Program Version 5.0.0 -  RELEASE  -
|  1> !PBE D3BJ RIJCOSX def2-TZVPD def2/J TightSCF xyzfile
|  2>
|  3> *xyzfile 0 1 D6.xyz
|  4>
|  5> %MaxCore 64000
|  6>
|  7> %pal nprocs 4
|  8> end
|  9>
| 10> %scf
| 11>   MaxIter 150
| 12> end
| 13>
| 14>
| 15>                          ****END OF INPUT****

CARTESIAN COORDINATES (ANGSTROEM)
---------------------------------
  C      1.963365   -1.749150   -1.896887
  N      2.738490   -2.015170   -3.097113
  C      0.611877    1.657634   -4.500288
  C      1.694991    1.541794   -5.570447
  H      2.697326    1.734659   -5.183996
  H      1.506656    2.272239   -6.358076
  S      1.780287   -0.033128   -6.428739
  C      4.049736   -2.154717   -3.152044
  N      4.658206   -1.986293   -4.318655
  C      4.764231   -2.454435   -2.050491
  H      4.287363   -2.776259   -1.217496
  H      5.750825   -2.658351   -2.125988
  H      2.345176   -1.690274   -3.971447
  H      4.109004   -1.592677   -5.071760
  H      5.649095   -2.156462   -4.427237
  O      2.569287    0.213657   -7.607360
  F      0.416880   -0.462969   -6.618595
  C      2.088520   -0.300912   -1.415204
  H      2.231272   -2.451616   -1.102643
  H      0.930249   -1.977801   -2.155438
  C      0.680356    0.655418   -3.348038
  H     -0.356865    1.549231   -4.991128
  H      0.650228    2.675438   -4.096000
  C      1.968993    0.733582   -2.535654
  H      3.051356   -0.168602   -0.911868
  H      1.316501   -0.136231   -0.657252
  O      2.505129   -0.933263   -5.482570
  H      2.824195    0.624726   -3.208464
  H      2.058919    1.730331   -2.093112
  H      0.542252   -0.344731   -3.766662
  H     -0.174219    0.829692   -2.685182

 Total Charge           Charge          ....    0
 Multiplicity           Mult            ....    1
 Number of Electrons    NEL             ....  120
 Basis Dimension        Dim             ....  689

ORBITAL ENERGIES
----------------

  NO   OCC          E(Eh)            E(eV)
   0   2.0000     -88.296161     -2402.6607
   1   2.0000     -24.398230      -663.9096
   2   2.0000     -18.788328      -511.2564
   3   2.0000     -18.781489      -511.0703
   4   2.0000     -13.957854      -379.8125
   5   2.0000     -13.954739      -379.7278
   6   2.0000      -9.955226      -270.8955
   7   2.0000      -9.923084      -270.0208
   8   2.0000      -9.900628      -269.4098
   9   2.0000      -9.899597      -269.3817
  10   2.0000      -9.898281      -269.3459
  11   2.0000      -9.884572      -268.9729
  12   2.0000      -9.872691      -268.6496
  13   2.0000      -9.774834      -265.9867
  14   2.0000      -7.892261      -214.7593
  15   2.0000      -5.916614      -160.9992
  16   2.0000      -5.910429      -160.8310
  17   2.0000      -5.909459      -160.8045
  18   2.0000      -1.301449       -35.4142
  19   2.0000      -1.043342       -28.3908
  20   2.0000      -0.950462       -25.8634
  21   2.0000      -0.866780       -23.5863
  22   2.0000      -0.788539       -21.4572
  23   2.0000      -0.778934       -21.1959
  24   2.0000      -0.726433       -19.7672
  25   2.0000      -0.690543       -18.7906
  26   2.0000      -0.662307       -18.0223
  27   2.0000      -0.625571       -17.0227
  28   2.0000      -0.614534       -16.7223
  29   2.0000      -0.579514       -15.7694
  30   2.0000      -0.553047       -15.0492
  31   2.0000      -0.547537       -14.8992
  32   2.0000      -0.529191       -14.4000
  33   2.0000      -0.516699       -14.0601
  34   2.0000      -0.483069       -13.1450
  35   2.0000      -0.473292       -12.8789
  36   2.0000      -0.458598       -12.4791
  37   2.0000      -0.457613       -12.4523
  38   2.0000      -0.447349       -12.1730
  39   2.0000      -0.433831       -11.8051
  40   2.0000      -0.417187       -11.3522
  41   2.0000      -0.410690       -11.1754
  42   2.0000      -0.395552       -10.7635
  43   2.0000      -0.386267       -10.5109
  44   2.0000      -0.382571       -10.4103
  45   2.0000      -0.363393        -9.8884
  46   2.0000      -0.350782        -9.5453
  47   2.0000      -0.348841        -9.4924
  48   2.0000      -0.332009        -9.0344
  49   2.0000      -0.325827        -8.8662
  50   2.0000      -0.317462        -8.6386
  51   2.0000      -0.314097        -8.5470
  52   2.0000      -0.305613        -8.3161
  53   2.0000      -0.300476        -8.1764
  54   2.0000      -0.292524        -7.9600
  55   2.0000      -0.291550        -7.9335
  56   2.0000      -0.286861        -7.8059
  57   2.0000      -0.277420        -7.5490
  58   2.0000      -0.187065        -5.0903
  59   2.0000      -0.114648        -3.1197
  60   0.0000      -0.052289        -1.4229
  61   0.0000      -0.022200        -0.6041
  62   0.0000      -0.013729        -0.3736
  63   0.0000      -0.005010        -0.1363
  64   0.0000      -0.003014        -0.0820

MULLIKEN ATOMIC CHARGES
-----------------------
   0 C :   -0.761794
   1 N :   -0.027216
   2 C :   -0.394177
   3 C :   -0.425798
   4 H :    0.295519
   5 H :    0.200019
   6 S :    0.857477
   7 C :    0.711818
   8 N :   -0.141222
   9 C :   -1.411199
  10 H :    0.241734
  11 H :    0.268738
  12 H :    0.476901
  13 H :    0.256585
  14 H :    0.071566
  15 O :   -0.510448
  16 F :   -0.108313
  17 C :   -0.153994
  18 H :    0.201108
  19 H :    0.223370
  20 C :   -0.181782
  21 H :    0.164407
  22 H :    0.169258
  23 C :   -0.328130
  24 H :    0.186196
  25 H :    0.199572
  26 O :   -0.708207
  27 H :    0.213530
  28 H :    0.152561
  29 H :    0.124801
  30 H :    0.137120
Sum of atomic charges:   -0.0000000

LOEWDIN ATOMIC CHARGES
----------------------
   0 C :   -0.190824
   1 N :    0.032141
   2 C :   -0.224900
   3 C :   -0.220477
   4 H :    0.116852
   5 H :    0.106577
   6 S :    0.605773
   7 C :   -0.573962
   8 N :    0.137452
   9 C :    0.005603
  10 H :   -0.005018
  11 H :   -0.000849
  12 H :    0.065330
  13 H :    0.053941
  14 H :    0.111226
  15 O :   -0.220748
  16 F :   -0.010447
  17 C :   -0.180519
  18 H :    0.111685
  19 H :    0.111226
  20 C :   -0.216925
  21 H :    0.109441
  22 H :    0.123061
  23 C :   -0.206261
  24 H :    0.108558
  25 H :    0.109849
  26 O :   -0.301245
  27 H :    0.104969
  28 H :    0.118424
  29 H :    0.096092
  30 H :    0.123976

  Mayer bond orders larger than 0.100000
B(  0-C ,  1-N ) :   0.9812 B(  0-C ,  9-C ) :   0.1168 B(  0-C , 12-H ) :  -0.1051
B(  0-C , 17-C ) :   0.8010 B(  0-C , 18-H ) :   0.9390 B(  0-C , 19-H ) :   0.9346
B(  0-C , 20-C ) :   0.1925 B(  1-N ,  7-C ) :   0.9725 B(  1-N ,  9-C ) :   0.1038
B(  1-N , 12-H ) :   0.6976 B(  2-C ,  3-C ) :   1.0175 B(  2-C ,  6-S ) :   0.1155
B(  2-C , 20-C ) :   1.0411 B(  2-C , 21-H ) :   0.9380 B(  2-C , 22-H ) :   0.9242
B(  2-C , 23-C ) :   0.2457 B(  3-C ,  4-H ) :   0.8722 B(  3-C ,  5-H ) :   0.9574
B(  3-C ,  6-S ) :   0.7640 B(  3-C , 15-O ) :   0.1419 B(  3-C , 23-C ) :   0.1692
B(  6-S , 15-O ) :   1.6902 B(  6-S , 16-F ) :   1.0668 B(  6-S , 26-O ) :   1.8423
B(  7-C ,  8-N ) :   1.0063 B(  7-C ,  9-C ) :   1.0490 B(  8-N ,  9-C ) :   0.1318
B(  8-N , 13-H ) :   0.9026 B(  8-N , 14-H ) :   1.0491 B(  9-C , 10-H ) :   1.0073
B(  9-C , 11-H ) :   1.0409 B( 17-C , 20-C ) :   0.1840 B( 17-C , 23-C ) :   1.2052
B( 17-C , 24-H ) :   0.9035 B( 17-C , 25-H ) :   0.9448 B( 20-C , 23-C ) :   0.5956
B( 20-C , 28-H ) :  -0.1013 B( 20-C , 29-H ) :   0.9540 B( 20-C , 30-H ) :   0.9135
B( 23-C , 27-H ) :   0.9978 B( 23-C , 28-H ) :   0.8953

Dispersion correction           -0.037472493
FINAL SINGLE POINT ENERGY     -1072.345769623033

DIPOLE MOMENT
-------------
                                X             Y             Z
Electronic contribution:     -4.78985      -1.47150     -22.76000
Nuclear contribution   :      2.90585       3.30398      21.99296
                        -----------------------------------------
Total Dipole Moment    :     -1.88399       1.83248      -0.76704
                        -----------------------------------------
Magnitude (a.u.)       :      2.73784
Magnitude (Debye)      :      6.95904

Rotational constants in cm-1:     0.029065     0.014689     0.011200
Rotational constants in MHz :   871.338526   440.374927   335.770911

                             ****ORCA TERMINATED NORMALLY****
TOTAL RUN TIME: 0 days 0 hours 2 minutes 3 seconds 375 msec
