                         Program Version 5.0.0 -  RELEASE  -
|  1> !PBE D3BJ RIJCOSX def2-TZVPD def2/J TightSCF xyzfile
|  2>
|  3> *xyzfile 0 1 D7.xyz
|  4>
|  5> %MaxCore 64000
|  6>
|  7> %pal nprocs 4
|  8> end
|  9>
| 10> %scf
| 11>   MaxIter 150
| 12> end
| 13>
| 14>
| 15>                          ****END OF INPUT****

CARTESIAN COORDINATES (ANGSTROEM)
---------------------------------
  C      1.963365   -1.749150   -1.896887
  C      2.738490   -2.015170   -3.097113
  C      0.611877    1.657634   -4.500288
  C      1.694991    1.541794   -5.570447
  H      2.697326    1.734659   -5.183996
  H      1.506656    2.272239   -6.358076
  S      1.780287   -0.033128   -6.428739
  C      4.049736   -2.154717   -3.152044
  N      4.658206   -1.986293   -4.318655
  N      4.764231   -2.454435   -2.050491
  H      4.287363   -2.776259   -1.217496
  H      5.750825   -2.658351   -2.125988
  H      2.345176   -1.690274   -3.971447
  H      4.109004   -1.592677   -5.071760
  H      5.649095   -2.156462   -4.427237
  O      2.569287    0.213657   -7.607360
  O      0.416880   -0.462969   -6.618595
  C      2.088520   -0.300912   -1.415204
  H      2.231272   -2.451616   -1.102643
  H      0.930249   -1.977801   -2.155438
  C      0.680356    0.655418   -3.348038
  H     -0.356865    1.549231   -4.991128
  H      0.650228    2.675438   -4.096000
  C      1.968993    0.733582   -2.535654
  H      3.051356   -0.168602   -0.911868
  H      1.316501   -0.136231   -0.657252
  F      2.505129   -0.933263   -5.482570
  H      2.824195    0.624726   -3.208464
  H      2.058919    1.730331   -2.093112
  H      0.542252   -0.344731   -3.766662
  H     -0.174219    0.829692   -2.685182

 Total Charge           Charge          ....    0
 Multiplicity           Mult            ....    1
 Number of Electrons    NEL             ....  120
 Basis Dimension        Dim             ....  689

ORBITAL ENERGIES
----------------

  NO   OCC          E(Eh)            E(eV)
   0   2.0000     -88.267467     -2401.8799
   1   2.0000     -24.358529      -662.8293
   2   2.0000     -18.766636      -510.6661
   3   2.0000     -18.766517      -510.6629
   4   2.0000     -13.989577      -380.6758
   5   2.0000     -13.984657      -380.5419
   6   2.0000      -9.936018      -270.3728
   7   2.0000      -9.920832      -269.9596
   8   2.0000      -9.902650      -269.4648
   9   2.0000      -9.884167      -268.9619
  10   2.0000      -9.876253      -268.7465
  11   2.0000      -9.867410      -268.5059
  12   2.0000      -9.860308      -268.3126
  13   2.0000      -9.801247      -266.7055
  14   2.0000      -7.864058      -213.9919
  15   2.0000      -5.888703      -160.2397
  16   2.0000      -5.881801      -160.0519
  17   2.0000      -5.881341      -160.0394
  18   2.0000      -1.251014       -34.0418
  19   2.0000      -1.029588       -28.0165
  20   2.0000      -0.942993       -25.6601
  21   2.0000      -0.881333       -23.9823
  22   2.0000      -0.798860       -21.7381
  23   2.0000      -0.761694       -20.7268
  24   2.0000      -0.727573       -19.7983
  25   2.0000      -0.685595       -18.6560
  26   2.0000      -0.665511       -18.1095
  27   2.0000      -0.630833       -17.1658
  28   2.0000      -0.602586       -16.3972
  29   2.0000      -0.565959       -15.4005
  30   2.0000      -0.532450       -14.4887
  31   2.0000      -0.519699       -14.1417
  32   2.0000      -0.515886       -14.0380
  33   2.0000      -0.503208       -13.6930
  34   2.0000      -0.491446       -13.3729
  35   2.0000      -0.488955       -13.3051
  36   2.0000      -0.455781       -12.4024
  37   2.0000      -0.440641       -11.9905
  38   2.0000      -0.438382       -11.9290
  39   2.0000      -0.424544       -11.5524
  40   2.0000      -0.418246       -11.3810
  41   2.0000      -0.405329       -11.0296
  42   2.0000      -0.398126       -10.8335
  43   2.0000      -0.385127       -10.4798
  44   2.0000      -0.375256       -10.2112
  45   2.0000      -0.352880        -9.6024
  46   2.0000      -0.350003        -9.5241
  47   2.0000      -0.347832        -9.4650
  48   2.0000      -0.339622        -9.2416
  49   2.0000      -0.323802        -8.8111
  50   2.0000      -0.313121        -8.5205
  51   2.0000      -0.303479        -8.2581
  52   2.0000      -0.296671        -8.0728
  53   2.0000      -0.291537        -7.9331
  54   2.0000      -0.283397        -7.7116
  55   2.0000      -0.280478        -7.6322
  56   2.0000      -0.273021        -7.4293
  57   2.0000      -0.269213        -7.3257
  58   2.0000      -0.225933        -6.1479
  59   2.0000      -0.133728        -3.6389
  60   0.0000      -0.029592        -0.8052
  61   0.0000      -0.018517        -0.5039
  62   0.0000      -0.008426        -0.2293
  63   0.0000      -0.003972        -0.1081
  64   0.0000       0.005727         0.1558

MULLIKEN ATOMIC CHARGES
-----------------------
   0 C :   -0.229172
   1 C :   -0.600624
   2 C :   -0.286584
   3 C :   -0.446748
   4 H :    0.299301
   5 H :    0.207569
   6 S :    0.812993
   7 C :   -0.390043
   8 N :   -0.189796
   9 N :   -0.220705
  10 H :    0.164869
  11 H :    0.093574
  12 H :    0.845963
  13 H :    0.240544
  14 H :    0.056024
  15 O :   -0.525166
  16 O :   -0.536439
  17 C :   -0.243771
  18 H :    0.290153
  19 H :    0.127297
  20 C :   -0.275815
  21 H :    0.154039
  22 H :    0.176536
  23 C :   -0.262532
  24 H :    0.145286
  25 H :    0.147103
  26 F :   -0.187523
  27 H :    0.189133
  28 H :    0.152687
  29 H :    0.135299
  30 H :    0.156547
Sum of atomic charges:   -0.0000000

LOEWDIN ATOMIC CHARGES
----------------------
   0 C :   -0.225262
   1 C :   -0.147991
   2 C :   -0.223870
   3 C :   -0.228264
   4 H :    0.103935
   5 H :    0.111928
   6 S :    0.568447
   7 C :   -0.540170
   8 N :    0.136844
   9 N :    0.147252
  10 H :    0.098533
  11 H :    0.093825
  12 H :    0.036789
  13 H :    0.077679
  14 H :    0.103361
  15 O :   -0.238430
  16 O :   -0.223134
  17 C :   -0.196035
  18 H :    0.100074
  19 H :    0.106065
  20 C :   -0.210022
  21 H :    0.112461
  22 H :    0.120247
  23 C :   -0.212244
  24 H :    0.107685
  25 H :    0.106344
  26 F :   -0.128699
  27 H :    0.100984
  28 H :    0.116248
  29 H :    0.101134
  30 H :    0.124286

  Mayer bond orders larger than 0.100000
B(  0-C ,  1-C ) :   0.6611 B(  0-C ,  7-C ) :   0.2351 B(  0-C , 17-C ) :   0.8103
B(  0-C , 18-H ) :   0.8937 B(  0-C , 19-H ) :   0.9515 B(  0-C , 20-C ) :   0.1571
B(  1-C ,  7-C ) :   1.6998 B(  1-C , 12-H ) :   0.4518 B(  1-C , 23-C ) :   0.2484
B(  1-C , 26-F ) :   0.2190 B(  2-C ,  3-C ) :   1.0462 B(  2-C ,  6-S ) :   0.1287
B(  2-C , 20-C ) :   1.1010 B(  2-C , 21-H ) :   0.9195 B(  2-C , 22-H ) :   0.9227
B(  2-C , 23-C ) :   0.1928 B(  3-C ,  4-H ) :   0.8499 B(  3-C ,  5-H ) :   0.9109
B(  3-C ,  6-S ) :   0.8019 B(  3-C , 15-O ) :   0.1353 B(  3-C , 16-O ) :   0.1017
B(  3-C , 23-C ) :   0.1722 B(  3-C , 26-F ) :   0.1119 B(  6-S , 15-O ) :   1.6103
B(  6-S , 16-O ) :   1.6664 B(  6-S , 26-F ) :   1.1909 B(  7-C ,  8-N ) :   1.0972
B(  7-C ,  9-N ) :   1.0689 B(  7-C , 12-H ) :  -0.2074 B(  7-C , 17-C ) :   0.1847
B(  8-N , 13-H ) :   0.9381 B(  8-N , 14-H ) :   1.0962 B(  9-N , 10-H ) :   0.9547
B(  9-N , 11-H ) :   1.0767 B( 12-H , 26-F ) :  -0.2617 B( 15-O , 16-O ) :   0.1138
B( 17-C , 20-C ) :   0.2156 B( 17-C , 23-C ) :   1.1406 B( 17-C , 24-H ) :   0.9196
B( 17-C , 25-H ) :   0.8850 B( 20-C , 23-C ) :   0.4715 B( 20-C , 29-H ) :   1.0055
B( 20-C , 30-H ) :   0.8736 B( 23-C , 27-H ) :   1.0317 B( 23-C , 28-H ) :   0.9304
B( 23-C , 29-H ) :  -0.1093

Dispersion correction           -0.037371291
FINAL SINGLE POINT ENERGY     -1072.356066898247

DIPOLE MOMENT
-------------
                                X             Y             Z
Electronic contribution:      0.76103      -3.19089     -19.47611
Nuclear contribution   :      0.26049       3.89757      20.56096
                        -----------------------------------------
Total Dipole Moment    :      1.02152       0.70668       1.08486
                        -----------------------------------------
Magnitude (a.u.)       :      1.64919
Magnitude (Debye)      :      4.19190

Rotational constants in cm-1:     0.029090     0.014735     0.011139
Rotational constants in MHz :   872.086433   441.731892   333.928051

                             ****ORCA TERMINATED NORMALLY****
TOTAL RUN TIME: 0 days 0 hours 1 minutes 41 seconds 2 msec
