                         Program Version 5.0.0 -  RELEASE  -
|  1> !PBE D3BJ RIJCOSX def2-TZVPD def2/J TightSCF xyzfile
|  2>
|  3> *xyzfile 0 1 D8.xyz
|  4>
|  5> %MaxCore 64000
|  6>
|  7> %pal nprocs 4
|  8> end
|  9>
| 10> %scf
| 11>   MaxIter 150
| 12> end
| 13>
| 14>
| 15>                          ****END OF INPUT****

CARTESIAN COORDINATES (ANGSTROEM)
---------------------------------
  C      1.963365   -1.749150   -1.896887
  N      2.738490   -2.015170   -3.097113
  C      0.611877    1.657634   -4.500288
  C      1.694991    1.541794   -5.570447
  H      2.697326    1.734659   -5.183996
  H      1.506656    2.272239   -6.358076
  S      1.780287   -0.033128   -6.428739
  C      4.049736   -2.154717   -3.152044
  C      4.658206   -1.986293   -4.318655
  N      4.764231   -2.454435   -2.050491
  H      4.287363   -2.776259   -1.217496
  H      5.750825   -2.658351   -2.125988
  H      2.345176   -1.690274   -3.971447
  H      4.109004   -1.592677   -5.071760
  H      5.649095   -2.156462   -4.427237
  O      2.569287    0.213657   -7.607360
  O      0.416880   -0.462969   -6.618595
  C      2.088520   -0.300912   -1.415204
  H      2.231272   -2.451616   -1.102643
  H      0.930249   -1.977801   -2.155438
  C      0.680356    0.655418   -3.348038
  H     -0.356865    1.549231   -4.991128
  H      0.650228    2.675438   -4.096000
  C      1.968993    0.733582   -2.535654
  H      3.051356   -0.168602   -0.911868
  H      1.316501   -0.136231   -0.657252
  F      2.505129   -0.933263   -5.482570
  H      2.824195    0.624726   -3.208464
  H      2.058919    1.730331   -2.093112
  H      0.542252   -0.344731   -3.766662
  H     -0.174219    0.829692   -2.685182

 Total Charge           Charge          ....    0
 Multiplicity           Mult            ....    1
 Number of Electrons    NEL             ....  120
 Basis Dimension        Dim             ....  689

ORBITAL ENERGIES
----------------

  NO   OCC          E(Eh)            E(eV)
   0   2.0000     -88.269019     -2401.9221
   1   2.0000     -24.359438      -662.8540
   2   2.0000     -18.768525      -510.7175
   3   2.0000     -18.766790      -510.6703
   4   2.0000     -13.986673      -380.5967
   5   2.0000     -13.984177      -380.5288
   6   2.0000      -9.939257      -270.4609
   7   2.0000      -9.921555      -269.9792
   8   2.0000      -9.920676      -269.9553
   9   2.0000      -9.910618      -269.6816
  10   2.0000      -9.898632      -269.3555
  11   2.0000      -9.892024      -269.1756
  12   2.0000      -9.888185      -269.0712
  13   2.0000      -9.792819      -266.4762
  14   2.0000      -7.865529      -214.0319
  15   2.0000      -5.890154      -160.2792
  16   2.0000      -5.883365      -160.0945
  17   2.0000      -5.882762      -160.0781
  18   2.0000      -1.251731       -34.0613
  19   2.0000      -1.030614       -28.0444
  20   2.0000      -0.943977       -25.6869
  21   2.0000      -0.889116       -24.1941
  22   2.0000      -0.810402       -22.0522
  23   2.0000      -0.769293       -20.9335
  24   2.0000      -0.729047       -19.8384
  25   2.0000      -0.696519       -18.9532
  26   2.0000      -0.654753       -17.8167
  27   2.0000      -0.644992       -17.5511
  28   2.0000      -0.608814       -16.5667
  29   2.0000      -0.574932       -15.6447
  30   2.0000      -0.540336       -14.7033
  31   2.0000      -0.537095       -14.6151
  32   2.0000      -0.512361       -13.9421
  33   2.0000      -0.507514       -13.8102
  34   2.0000      -0.494929       -13.4677
  35   2.0000      -0.481177       -13.0935
  36   2.0000      -0.452991       -12.3265
  37   2.0000      -0.447687       -12.1822
  38   2.0000      -0.438799       -11.9403
  39   2.0000      -0.435368       -11.8470
  40   2.0000      -0.421685       -11.4746
  41   2.0000      -0.412088       -11.2135
  42   2.0000      -0.398594       -10.8463
  43   2.0000      -0.391673       -10.6580
  44   2.0000      -0.380203       -10.3458
  45   2.0000      -0.360488        -9.8094
  46   2.0000      -0.355487        -9.6733
  47   2.0000      -0.350877        -9.5479
  48   2.0000      -0.341183        -9.2840
  49   2.0000      -0.333059        -9.0630
  50   2.0000      -0.327409        -8.9092
  51   2.0000      -0.320585        -8.7236
  52   2.0000      -0.306304        -8.3350
  53   2.0000      -0.304234        -8.2786
  54   2.0000      -0.296881        -8.0785
  55   2.0000      -0.292662        -7.9637
  56   2.0000      -0.290154        -7.8955
  57   2.0000      -0.280700        -7.6382
  58   2.0000      -0.215089        -5.8529
  59   2.0000      -0.135710        -3.6929
  60   0.0000      -0.028785        -0.7833
  61   0.0000      -0.019636        -0.5343
  62   0.0000      -0.011439        -0.3113
  63   0.0000      -0.006531        -0.1777
  64   0.0000       0.002522         0.0686

MULLIKEN ATOMIC CHARGES
-----------------------
   0 C :   -0.747086
   1 N :    0.008663
   2 C :   -0.288721
   3 C :   -0.467276
   4 H :    0.308601
   5 H :    0.207997
   6 S :    0.838431
   7 C :    0.681262
   8 C :   -1.550903
   9 N :   -0.227866
  10 H :    0.122915
  11 H :    0.133362
  12 H :    0.352013
  13 H :    0.634055
  14 H :    0.210691
  15 O :   -0.517837
  16 O :   -0.542124
  17 C :   -0.118647
  18 H :    0.207531
  19 H :    0.208325
  20 C :   -0.334185
  21 H :    0.154265
  22 H :    0.174842
  23 C :   -0.273674
  24 H :    0.167746
  25 H :    0.188169
  26 F :   -0.216120
  27 H :    0.222556
  28 H :    0.149904
  29 H :    0.180050
  30 H :    0.133061
Sum of atomic charges:   -0.0000000

LOEWDIN ATOMIC CHARGES
----------------------
   0 C :   -0.191663
   1 N :    0.038394
   2 C :   -0.222960
   3 C :   -0.226770
   4 H :    0.105732
   5 H :    0.112842
   6 S :    0.568764
   7 C :   -0.563480
   8 C :    0.014783
   9 N :    0.141866
  10 H :    0.087066
  11 H :    0.106228
  12 H :    0.092893
  13 H :   -0.009171
  14 H :    0.015535
  15 O :   -0.229192
  16 O :   -0.227362
  17 C :   -0.183888
  18 H :    0.108713
  19 H :    0.114909
  20 C :   -0.213960
  21 H :    0.113251
  22 H :    0.121336
  23 C :   -0.207849
  24 H :    0.108406
  25 H :    0.110083
  26 F :   -0.128804
  27 H :    0.102591
  28 H :    0.119712
  29 H :    0.097568
  30 H :    0.124425

  Mayer bond orders larger than 0.100000
B(  0-C ,  1-N ) :   1.0432 B(  0-C ,  7-C ) :  -0.1035 B(  0-C ,  9-N ) :   0.1143
B(  0-C , 17-C ) :   0.7635 B(  0-C , 18-H ) :   0.9225 B(  0-C , 19-H ) :   0.9847
B(  0-C , 20-C ) :   0.1573 B(  1-N ,  7-C ) :   1.0295 B(  1-N , 12-H ) :   0.7360
B(  2-C ,  3-C ) :   1.0129 B(  2-C ,  6-S ) :   0.1295 B(  2-C , 20-C ) :   1.1241
B(  2-C , 21-H ) :   0.9189 B(  2-C , 22-H ) :   0.9199 B(  2-C , 23-C ) :   0.1938
B(  3-C ,  4-H ) :   0.8609 B(  3-C ,  5-H ) :   0.9138 B(  3-C ,  6-S ) :   0.7795
B(  3-C , 15-O ) :   0.1463 B(  3-C , 20-C ) :   0.1154 B(  3-C , 23-C ) :   0.1837
B(  3-C , 26-F ) :   0.1057 B(  6-S , 15-O ) :   1.6199 B(  6-S , 16-O ) :   1.6760
B(  6-S , 26-F ) :   1.1946 B(  7-C ,  8-C ) :   1.1582 B(  7-C ,  9-N ) :   1.0374
B(  7-C , 14-H ) :  -0.1496 B(  8-C , 13-H ) :   0.5929 B(  8-C , 14-H ) :   1.1303
B(  8-C , 26-F ) :   0.2179 B(  9-N , 10-H ) :   1.0066 B(  9-N , 11-H ) :   1.0184
B( 13-H , 26-F ) :  -0.1095 B( 15-O , 16-O ) :   0.1106 B( 17-C , 20-C ) :   0.1990
B( 17-C , 23-C ) :   1.1840 B( 17-C , 24-H ) :   0.9156 B( 17-C , 25-H ) :   0.9808
B( 17-C , 27-H ) :   0.1004 B( 20-C , 23-C ) :   0.4539 B( 20-C , 29-H ) :   0.9838
B( 20-C , 30-H ) :   0.8996 B( 23-C , 27-H ) :   1.0064 B( 23-C , 28-H ) :   0.8968
B( 23-C , 29-H ) :  -0.1511

Dispersion correction           -0.037189537
FINAL SINGLE POINT ENERGY     -1072.351175445631

DIPOLE MOMENT
-------------
                                X             Y             Z
Electronic contribution:     -0.86414      -2.99635     -18.42768
Nuclear contribution   :      0.50676       3.90127      20.40426
                        -----------------------------------------
Total Dipole Moment    :     -0.35738       0.90492       1.97658
                        -----------------------------------------
Magnitude (a.u.)       :      2.20307
Magnitude (Debye)      :      5.59975

Rotational constants in cm-1:     0.029548     0.014706     0.011197
Rotational constants in MHz :   885.834387   440.871746   335.667619

                             ****ORCA TERMINATED NORMALLY****
TOTAL RUN TIME: 0 days 0 hours 1 minutes 42 seconds 794 msec
