                         Program Version 5.0.0 -  RELEASE  -
|  1> !PBE D3BJ RIJCOSX def2-TZVPD def2/J TightSCF xyzfile
|  2>
|  3> *xyzfile 0 1 D9.xyz
|  4>
|  5> %MaxCore 64000
|  6>
|  7> %pal nprocs 4
|  8> end
|  9>
| 10> %scf
| 11>   MaxIter 150
| 12> end
| 13>
| 14>
| 15>                          ****END OF INPUT****

CARTESIAN COORDINATES (ANGSTROEM)
---------------------------------
  C      1.963365   -1.749150   -1.896887
  N      2.738490   -2.015170   -3.097113
  C      0.611877    1.657634   -4.500288
  C      1.694991    1.541794   -5.570447
  H      2.697326    1.734659   -5.183996
  H      1.506656    2.272239   -6.358076
  S      1.780287   -0.033128   -6.428739
  C      4.049736   -2.154717   -3.152044
  N      4.658206   -1.986293   -4.318655
  C      4.764231   -2.454435   -2.050491
  H      4.287363   -2.776259   -1.217496
  H      5.750825   -2.658351   -2.125988
  H      2.345176   -1.690274   -3.971447
  H      4.109004   -1.592677   -5.071760
  H      5.649095   -2.156462   -4.427237
  O      2.569287    0.213657   -7.607360
  O      0.416880   -0.462969   -6.618595
  C      2.088520   -0.300912   -1.415204
  H      2.231272   -2.451616   -1.102643
  H      0.930249   -1.977801   -2.155438
  C      0.680356    0.655418   -3.348038
  H     -0.356865    1.549231   -4.991128
  H      0.650228    2.675438   -4.096000
  C      1.968993    0.733582   -2.535654
  H      3.051356   -0.168602   -0.911868
  H      1.316501   -0.136231   -0.657252
  F      2.505129   -0.933263   -5.482570
  H      2.824195    0.624726   -3.208464
  H      2.058919    1.730331   -2.093112
  H      0.542252   -0.344731   -3.766662
  H     -0.174219    0.829692   -2.685182

 Total Charge           Charge          ....    0
 Multiplicity           Mult            ....    1
 Number of Electrons    NEL             ....  120
 Basis Dimension        Dim             ....  689

ORBITAL ENERGIES
----------------

  NO   OCC          E(Eh)            E(eV)
   0   2.0000     -88.282373     -2402.2855
   1   2.0000     -24.380654      -663.4313
   2   2.0000     -18.781027      -511.0577
   3   2.0000     -18.780544      -511.0446
   4   2.0000     -13.985492      -380.5646
   5   2.0000     -13.983351      -380.5063
   6   2.0000      -9.949070      -270.7279
   7   2.0000      -9.919855      -269.9330
   8   2.0000      -9.916005      -269.8282
   9   2.0000      -9.915217      -269.8068
  10   2.0000      -9.901046      -269.4212
  11   2.0000      -9.892495      -269.1885
  12   2.0000      -9.882891      -268.9271
  13   2.0000      -9.794378      -266.5186
  14   2.0000      -7.879054      -214.4000
  15   2.0000      -5.903906      -160.6534
  16   2.0000      -5.896665      -160.4564
  17   2.0000      -5.896200      -160.4438
  18   2.0000      -1.272324       -34.6217
  19   2.0000      -1.044253       -28.4156
  20   2.0000      -0.956962       -26.0403
  21   2.0000      -0.892747       -24.2929
  22   2.0000      -0.811886       -22.0925
  23   2.0000      -0.775096       -21.0914
  24   2.0000      -0.729814       -19.8592
  25   2.0000      -0.695343       -18.9213
  26   2.0000      -0.668160       -18.1816
  27   2.0000      -0.632890       -17.2218
  28   2.0000      -0.629169       -17.1206
  29   2.0000      -0.579354       -15.7650
  30   2.0000      -0.546962       -14.8836
  31   2.0000      -0.538918       -14.6647
  32   2.0000      -0.522990       -14.2313
  33   2.0000      -0.511190       -13.9102
  34   2.0000      -0.494952       -13.4683
  35   2.0000      -0.488520       -13.2933
  36   2.0000      -0.469209       -12.7678
  37   2.0000      -0.455426       -12.3928
  38   2.0000      -0.451360       -12.2821
  39   2.0000      -0.433477       -11.7955
  40   2.0000      -0.423204       -11.5160
  41   2.0000      -0.416463       -11.3325
  42   2.0000      -0.400375       -10.8948
  43   2.0000      -0.394294       -10.7293
  44   2.0000      -0.383978       -10.4486
  45   2.0000      -0.364978        -9.9315
  46   2.0000      -0.356638        -9.7046
  47   2.0000      -0.355855        -9.6833
  48   2.0000      -0.339721        -9.2443
  49   2.0000      -0.329916        -8.9775
  50   2.0000      -0.329013        -8.9529
  51   2.0000      -0.322561        -8.7773
  52   2.0000      -0.313542        -8.5319
  53   2.0000      -0.307032        -8.3548
  54   2.0000      -0.302246        -8.2245
  55   2.0000      -0.299184        -8.1412
  56   2.0000      -0.293550        -7.9879
  57   2.0000      -0.288869        -7.8605
  58   2.0000      -0.211026        -5.7423
  59   2.0000      -0.135113        -3.6766
  60   0.0000      -0.040360        -1.0983
  61   0.0000      -0.019020        -0.5176
  62   0.0000      -0.013810        -0.3758
  63   0.0000      -0.010015        -0.2725
  64   0.0000       0.000274         0.0074

MULLIKEN ATOMIC CHARGES
-----------------------
   0 C :   -0.754847
   1 N :   -0.060075
   2 C :   -0.290565
   3 C :   -0.462094
   4 H :    0.308941
   5 H :    0.209979
   6 S :    0.824811
   7 C :    0.710448
   8 N :   -0.155093
   9 C :   -1.397620
  10 H :    0.243808
  11 H :    0.265709
  12 H :    0.465507
  13 H :    0.236216
  14 H :    0.071840
  15 O :   -0.515253
  16 O :   -0.525920
  17 C :   -0.140703
  18 H :    0.202916
  19 H :    0.228675
  20 C :   -0.306515
  21 H :    0.157288
  22 H :    0.177527
  23 C :   -0.278994
  24 H :    0.178269
  25 H :    0.197862
  26 F :   -0.225423
  27 H :    0.190528
  28 H :    0.145869
  29 H :    0.166524
  30 H :    0.130383
Sum of atomic charges:   -0.0000000

LOEWDIN ATOMIC CHARGES
----------------------
   0 C :   -0.186134
   1 N :    0.034750
   2 C :   -0.222260
   3 C :   -0.226337
   4 H :    0.105319
   5 H :    0.114026
   6 S :    0.570327
   7 C :   -0.571781
   8 N :    0.139095
   9 C :    0.015953
  10 H :    0.000705
  11 H :    0.004372
  12 H :    0.087269
  13 H :    0.068500
  14 H :    0.116288
  15 O :   -0.229482
  16 O :   -0.220435
  17 C :   -0.179382
  18 H :    0.114399
  19 H :    0.114863
  20 C :   -0.214360
  21 H :    0.113696
  22 H :    0.122445
  23 C :   -0.209482
  24 H :    0.109192
  25 H :    0.112345
  26 F :   -0.127183
  27 H :    0.101059
  28 H :    0.119825
  29 H :    0.096945
  30 H :    0.125462

  Mayer bond orders larger than 0.100000
B(  0-C ,  1-N ) :   1.0119 B(  0-C ,  9-C ) :   0.1183 B(  0-C , 12-H ) :  -0.1070
B(  0-C , 17-C ) :   0.8083 B(  0-C , 18-H ) :   0.9333 B(  0-C , 19-H ) :   0.9279
B(  0-C , 20-C ) :   0.1667 B(  1-N ,  7-C ) :   0.9424 B(  1-N ,  9-C ) :   0.1006
B(  1-N , 12-H ) :   0.6824 B(  2-C ,  3-C ) :   1.0173 B(  2-C ,  6-S ) :   0.1242
B(  2-C , 20-C ) :   1.1220 B(  2-C , 21-H ) :   0.9210 B(  2-C , 22-H ) :   0.9226
B(  2-C , 23-C ) :   0.1987 B(  3-C ,  4-H ) :   0.8530 B(  3-C ,  5-H ) :   0.9081
B(  3-C ,  6-S ) :   0.7894 B(  3-C , 15-O ) :   0.1338 B(  3-C , 20-C ) :   0.1153
B(  3-C , 23-C ) :   0.1751 B(  6-S , 15-O ) :   1.6348 B(  6-S , 16-O ) :   1.6923
B(  6-S , 26-F ) :   1.1715 B(  7-C ,  8-N ) :   0.9576 B(  7-C ,  9-C ) :   1.0647
B(  8-N ,  9-C ) :   0.1235 B(  8-N , 13-H ) :   0.9336 B(  8-N , 14-H ) :   1.0540
B(  9-C , 10-H ) :   0.9979 B(  9-C , 11-H ) :   1.0388 B( 15-O , 16-O ) :   0.1172
B( 17-C , 20-C ) :   0.1947 B( 17-C , 23-C ) :   1.2188 B( 17-C , 24-H ) :   0.9086
B( 17-C , 25-H ) :   0.9478 B( 17-C , 27-H ) :   0.1128 B( 20-C , 23-C ) :   0.4550
B( 20-C , 29-H ) :   0.9928 B( 20-C , 30-H ) :   0.8903 B( 23-C , 27-H ) :   1.0269
B( 23-C , 28-H ) :   0.8968 B( 23-C , 29-H ) :  -0.1498

Dispersion correction           -0.037146808
FINAL SINGLE POINT ENERGY     -1072.353924122618

DIPOLE MOMENT
-------------
                                X             Y             Z
Electronic contribution:     -1.05890      -2.43609     -20.39743
Nuclear contribution   :      0.52036       3.84122      20.69523
                        -----------------------------------------
Total Dipole Moment    :     -0.53854       1.40513       0.29780
                        -----------------------------------------
Magnitude (a.u.)       :      1.53399
Magnitude (Debye)      :      3.89908

Rotational constants in cm-1:     0.029184     0.014996     0.011314
Rotational constants in MHz :   874.907122   449.569665   339.178205

                             ****ORCA TERMINATED NORMALLY****
TOTAL RUN TIME: 0 days 0 hours 2 minutes 19 seconds 380 msec
