                         Program Version 5.0.0 -  RELEASE  -
|  1> !CAM-B3LYP RIJCOSX def2-SVPD def2/J TightSCF
|  2> *xyz -1 1
|  3> C          1.36401        0.46874       -2.81376
|  4> C          0.96805        1.63064       -3.71575
|  5> C         -0.50835        1.72268       -4.12430
|  6> S         -1.32861        0.14674       -4.43578
|  7> H         -0.59151        2.29496       -5.04722
|  8> H         -1.11411        2.23561       -3.37436
|  9> O         -2.57135        0.47573       -5.06834
| 10> O         -1.51496       -0.40051       -3.06342
| 11> H          1.57869        1.52065       -4.61273
| 12> H          1.26665        2.57599       -3.25045
| 13> O         -0.37793       -0.62756       -5.20114
| 14> H          1.07115       -0.45339       -3.27071
| 15> H          0.87480        0.56905       -1.86745
| 16> H          2.42423        0.47442       -2.66954
| 17> *
| 18> %MaxCore 64000
| 19>
| 20> %pal nprocs 4
| 21> end
| 22>
| 23> %scf
| 24>   MaxIter 150
| 25> end
| 26>
| 27>
| 28>                          ****END OF INPUT****

CARTESIAN COORDINATES (ANGSTROEM)
---------------------------------
  C      1.364010    0.468740   -2.813760
  C      0.968050    1.630640   -3.715750
  C     -0.508350    1.722680   -4.124300
  S     -1.328610    0.146740   -4.435780
  H     -0.591510    2.294960   -5.047220
  H     -1.114110    2.235610   -3.374360
  O     -2.571350    0.475730   -5.068340
  O     -1.514960   -0.400510   -3.063420
  H      1.578690    1.520650   -4.612730
  H      1.266650    2.575990   -3.250450
  O     -0.377930   -0.627560   -5.201140
  H      1.071150   -0.453390   -3.270710
  H      0.874800    0.569050   -1.867450
  H      2.424230    0.474420   -2.669540

 Total Charge           Charge          ....   -1
 Multiplicity           Mult            ....    1
 Number of Electrons    NEL             ....   66
 Basis Dimension        Dim             ....  212

ORBITAL ENERGIES
----------------

  NO   OCC          E(Eh)            E(eV)
   0   2.0000     -88.966340     -2420.8972
   1   2.0000     -19.003067      -517.0997
   2   2.0000     -19.000908      -517.0410
   3   2.0000     -18.983966      -516.5800
   4   2.0000     -10.127828      -275.5922
   5   2.0000     -10.121132      -275.4100
   6   2.0000     -10.100500      -274.8486
   7   2.0000      -8.019311      -218.2165
   8   2.0000      -5.989317      -162.9776
   9   2.0000      -5.989093      -162.9715
  10   2.0000      -5.988674      -162.9601
  11   2.0000      -1.023550       -27.8522
  12   2.0000      -0.884083       -24.0571
  13   2.0000      -0.852595       -23.2003
  14   2.0000      -0.731270       -19.8989
  15   2.0000      -0.639871       -17.4118
  16   2.0000      -0.541575       -14.7370
  17   2.0000      -0.454054       -12.3554
  18   2.0000      -0.405685       -11.0393
  19   2.0000      -0.390061       -10.6141
  20   2.0000      -0.369905       -10.0656
  21   2.0000      -0.354128        -9.6363
  22   2.0000      -0.335450        -9.1281
  23   2.0000      -0.317923        -8.6511
  24   2.0000      -0.289786        -7.8855
  25   2.0000      -0.282446        -7.6858
  26   2.0000      -0.261770        -7.1231
  27   2.0000      -0.227600        -6.1933
  28   2.0000      -0.223208        -6.0738
  29   2.0000      -0.191867        -5.2210
  30   2.0000      -0.178717        -4.8631
  31   2.0000      -0.165700        -4.5089
  32   2.0000      -0.137672        -3.7462
  33   0.0000       0.165397         4.5007
  34   0.0000       0.188218         5.1217
  35   0.0000       0.194970         5.3054
  36   0.0000       0.198787         5.4093
  37   0.0000       0.218947         5.9578

MULLIKEN ATOMIC CHARGES
-----------------------
   0 C :    0.951887
   1 C :   -0.136549
   2 C :    0.278620
   3 S :    1.269941
   4 H :   -0.140188
   5 H :   -0.052369
   6 O :   -0.811542
   7 O :   -0.827744
   8 H :   -0.044134
   9 H :   -0.236619
  10 O :   -0.804930
  11 H :   -0.116882
  12 H :   -0.110659
  13 H :   -0.218833
Sum of atomic charges:   -1.0000000

LOEWDIN ATOMIC CHARGES
----------------------
   0 C :    0.108854
   1 C :   -0.089793
   2 C :   -0.086230
   3 S :    0.859854
   4 H :   -0.001668
   5 H :    0.006606
   6 O :   -0.566727
   7 O :   -0.591086
   8 H :    0.012840
   9 H :    0.005520
  10 O :   -0.566714
  11 H :   -0.039999
  12 H :   -0.018279
  13 H :   -0.033177

  Mayer bond orders larger than 0.100000
B(  0-C ,  1-C ) :   1.2973 B(  0-C ,  8-H ) :   0.1056 B(  0-C ,  9-H ) :   0.1042
B(  0-C , 11-H ) :   0.7767 B(  0-C , 12-H ) :   0.7164 B(  0-C , 13-H ) :   0.6757
B(  1-C ,  2-C ) :   1.2461 B(  1-C ,  4-H ) :   0.1619 B(  1-C ,  5-H ) :   0.1541
B(  1-C ,  8-H ) :   0.8508 B(  1-C ,  9-H ) :   0.8302 B(  1-C , 11-H ) :   0.2208
B(  1-C , 12-H ) :   0.2259 B(  1-C , 13-H ) :   0.2542 B(  2-C ,  3-S ) :   0.8953
B(  2-C ,  4-H ) :   0.8798 B(  2-C ,  5-H ) :   0.8908 B(  2-C ,  8-H ) :   0.1232
B(  2-C ,  9-H ) :   0.1318 B(  3-S ,  6-O ) :   1.3905 B(  3-S ,  7-O ) :   1.2567
B(  3-S , 10-O ) :   1.2801

FINAL SINGLE POINT ENERGY      -741.929368276745

DIPOLE MOMENT
-------------
                                X             Y             Z
Electronic contribution:     -8.28506      -4.38439      -4.06497
Nuclear contribution   :      9.76868       5.90538       4.47074
                        -----------------------------------------
Total Dipole Moment    :      1.48362       1.52098       0.40577
                        -----------------------------------------
Magnitude (a.u.)       :      2.16314
Magnitude (Debye)      :      5.49826

Rotational constants in cm-1:     0.135183     0.058485     0.054837
Rotational constants in MHz :  4052.676901  1753.343161  1643.972690

                             ****ORCA TERMINATED NORMALLY****
TOTAL RUN TIME: 0 days 0 hours 0 minutes 36 seconds 774 msec
