                         Program Version 5.0.0 -  RELEASE  -
|  1> !CAM-B3LYP RIJCOSX def2-SVPD def2/J TightSCF
|  2> *xyz 1 1
|  3> C          1.36401        0.46874       -2.81376
|  4> N          0.42884        0.32140       -1.65531
|  5> C          0.96805        1.63064       -3.71575
|  6> C         -0.50835        1.72268       -4.12430
|  7> H          0.74858       -0.40054       -1.00134
|  8> H         -0.46105        0.02333       -2.07773
|  9> H          0.31026        1.20137       -1.13495
| 10> H          1.29485       -0.46874       -3.36468
| 11> H          2.37622        0.59740       -2.43149
| 12> H          1.57869        1.52065       -4.61273
| 13> H          1.26665        2.57599       -3.25045
| 14> H         -0.65192        2.57663       -4.75283
| 15> H         -1.11549        1.81835       -3.24844
| 16> H         -0.78702        0.83723       -4.65648
| 17> *
| 18> %MaxCore 64000
| 19>
| 20> %pal nprocs 4
| 21> end
| 22>
| 23> %scf
| 24>   MaxIter 150
| 25> end
| 26>
| 27>
| 28>                          ****END OF INPUT****

CARTESIAN COORDINATES (ANGSTROEM)
---------------------------------
  C      1.364010    0.468740   -2.813760
  N      0.428840    0.321400   -1.655310
  C      0.968050    1.630640   -3.715750
  C     -0.508350    1.722680   -4.124300
  H      0.748580   -0.400540   -1.001340
  H     -0.461050    0.023330   -2.077730
  H      0.310260    1.201370   -1.134950
  H      1.294850   -0.468740   -3.364680
  H      2.376220    0.597400   -2.431490
  H      1.578690    1.520650   -4.612730
  H      1.266650    2.575990   -3.250450
  H     -0.651920    2.576630   -4.752830
  H     -1.115490    1.818350   -3.248440
  H     -0.787020    0.837230   -4.656480

 Total Charge           Charge          ....    1
 Multiplicity           Mult            ....    1
 Number of Electrons    NEL             ....   34
 Basis Dimension        Dim             ....  160

ORBITAL ENERGIES
----------------

  NO   OCC          E(Eh)            E(eV)
   0   2.0000     -14.734711      -400.9519
   1   2.0000     -10.507640      -285.9274
   2   2.0000     -10.437126      -284.0086
   3   2.0000     -10.409902      -283.2678
   4   2.0000      -1.284653       -34.9572
   5   2.0000      -1.049542       -28.5595
   6   2.0000      -0.960552       -26.1380
   7   2.0000      -0.877829       -23.8869
   8   2.0000      -0.865460       -23.5504
   9   2.0000      -0.843435       -22.9510
  10   2.0000      -0.754637       -20.5347
  11   2.0000      -0.708421       -19.2771
  12   2.0000      -0.677988       -18.4490
  13   2.0000      -0.655199       -17.8289
  14   2.0000      -0.599036       -16.3006
  15   2.0000      -0.589637       -16.0449
  16   2.0000      -0.577208       -15.7066
  17   0.0000      -0.153645        -4.1809
  18   0.0000      -0.094252        -2.5647
  19   0.0000      -0.092222        -2.5095
  20   0.0000      -0.085051        -2.3144
  21   0.0000      -0.056240        -1.5304

MULLIKEN ATOMIC CHARGES
-----------------------
   0 C :    0.705827
   1 N :   -0.575978
   2 C :   -0.180109
   3 C :    0.941276
   4 H :    0.264754
   5 H :    0.373401
   6 H :    0.347961
   7 H :   -0.091732
   8 H :   -0.193825
   9 H :   -0.079595
  10 H :   -0.113822
  11 H :   -0.180011
  12 H :   -0.141447
  13 H :   -0.076698
Sum of atomic charges:    1.0000000

LOEWDIN ATOMIC CHARGES
----------------------
   0 C :    0.088378
   1 N :    0.335197
   2 C :   -0.044618
   3 C :    0.148224
   4 H :    0.106336
   5 H :    0.090003
   6 H :    0.111451
   7 H :    0.054591
   8 H :    0.052781
   9 H :    0.043897
  10 H :    0.036252
  11 H :    0.007038
  12 H :   -0.027190
  13 H :   -0.002339

  Mayer bond orders larger than 0.100000
B(  0-C ,  1-N ) :   0.8228 B(  0-C ,  2-C ) :   1.1868 B(  0-C ,  7-H ) :   0.8072
B(  0-C ,  8-H ) :   0.8940 B(  0-C ,  9-H ) :   0.1659 B(  0-C , 10-H ) :   0.1057
B(  1-N ,  4-H ) :   0.8520 B(  1-N ,  5-H ) :   0.7839 B(  1-N ,  6-H ) :   0.8165
B(  1-N ,  7-H ) :   0.1334 B(  2-C ,  3-C ) :   1.2889 B(  2-C ,  7-H ) :   0.1186
B(  2-C ,  9-H ) :   0.8572 B(  2-C , 10-H ) :   0.9125 B(  2-C , 11-H ) :   0.2373
B(  2-C , 12-H ) :   0.1902 B(  2-C , 13-H ) :   0.2053 B(  3-C , 11-H ) :   0.7631
B(  3-C , 12-H ) :   0.7856 B(  3-C , 13-H ) :   0.7692

FINAL SINGLE POINT ENERGY      -174.625492482582

DIPOLE MOMENT
-------------
                                X             Y             Z
Electronic contribution:      0.76838      -1.08554       1.95801
Nuclear contribution   :     -0.79558       0.15863      -0.24664
                        -----------------------------------------
Total Dipole Moment    :     -0.02720      -0.92691       1.71137
                        -----------------------------------------
Magnitude (a.u.)       :      1.94645
Magnitude (Debye)      :      4.94749

Rotational constants in cm-1:     0.425244     0.165801     0.135024
Rotational constants in MHz : 12748.492920  4970.589839  4047.903558

                             ****ORCA TERMINATED NORMALLY****
TOTAL RUN TIME: 0 days 0 hours 0 minutes 19 seconds 395 msec
