                         Program Version 5.0.0 -  RELEASE  -
|  1> !CAM-B3LYP RIJCOSX def2-SVPD def2/J TightSCF xyzfile
|  2>
|  3> *xyzfile 0 1 B.xyz
|  4>
|  5> %MaxCore 64000
|  6>
|  7> %pal nprocs 4
|  8> end
|  9>
| 10> %scf
| 11>   MaxIter 150
| 12> end
| 13>
| 14>
| 15>                          ****END OF INPUT****

CARTESIAN COORDINATES (ANGSTROEM)
---------------------------------
  C      1.364014    0.468742   -2.813764
  N      0.428844    0.321402   -1.655312
  C      0.968045    1.630639   -3.715749
  C     -0.508347    1.722679   -4.124300
  S     -1.328608    0.146737   -4.435781
  H     -0.591511    2.294958   -5.047219
  H     -1.114114    2.235610   -3.374362
  H      0.748578   -0.400542   -1.001345
  H     -0.461053    0.023332   -2.077731
  H      0.310258    1.201375   -1.134948
  O     -2.571347    0.475733   -5.068341
  O     -1.514963   -0.400512   -3.063420
  H      1.294847   -0.468742   -3.364684
  H      2.376216    0.597400   -2.431495
  H      1.578688    1.520652   -4.612733
  H      1.266653    2.575988   -3.250448
  O     -0.377928   -0.627558   -5.201141

 Total Charge           Charge          ....    0
 Multiplicity           Mult            ....    1
 Number of Electrons    NEL             ....   74
 Basis Dimension        Dim             ....  248

ORBITAL ENERGIES
----------------

  NO   OCC          E(Eh)            E(eV)
   0   2.0000     -89.131198     -2425.3832
   1   2.0000     -19.171340      -521.6787
   2   2.0000     -19.156021      -521.2618
   3   2.0000     -19.153650      -521.1973
   4   2.0000     -14.541312      -395.6892
   5   2.0000     -10.353770      -281.7404
   6   2.0000     -10.305259      -280.4204
   7   2.0000     -10.284255      -279.8488
   8   2.0000      -8.183889      -222.6949
   9   2.0000      -6.154467      -167.4716
  10   2.0000      -6.153386      -167.4421
  11   2.0000      -6.153018      -167.4321
  12   2.0000      -1.188245       -32.3338
  13   2.0000      -1.108975       -30.1768
  14   2.0000      -1.037377       -28.2285
  15   2.0000      -1.035184       -28.1688
  16   2.0000      -0.906885       -24.6776
  17   2.0000      -0.818975       -22.2854
  18   2.0000      -0.732659       -19.9367
  19   2.0000      -0.702872       -19.1261
  20   2.0000      -0.688047       -18.7227
  21   2.0000      -0.622478       -16.9385
  22   2.0000      -0.599184       -16.3046
  23   2.0000      -0.563419       -15.3314
  24   2.0000      -0.546892       -14.8817
  25   2.0000      -0.537987       -14.6394
  26   2.0000      -0.505828       -13.7643
  27   2.0000      -0.496694       -13.5157
  28   2.0000      -0.473814       -12.8931
  29   2.0000      -0.464425       -12.6376
  30   2.0000      -0.446882       -12.1603
  31   2.0000      -0.395077       -10.7506
  32   2.0000      -0.386441       -10.5156
  33   2.0000      -0.355350        -9.6696
  34   2.0000      -0.344531        -9.3752
  35   2.0000      -0.333553        -9.0764
  36   2.0000      -0.304854        -8.2955
  37   0.0000      -0.010326        -0.2810
  38   0.0000       0.034304         0.9335
  39   0.0000       0.038023         1.0347
  40   0.0000       0.061974         1.6864
  41   0.0000       0.077622         2.1122

MULLIKEN ATOMIC CHARGES
-----------------------
   0 C :    0.738629
   1 N :   -0.181131
   2 C :    0.380753
   3 C :    0.336721
   4 S :    1.373943
   5 H :   -0.303924
   6 H :    0.042595
   7 H :    0.253319
   8 H :   -0.116096
   9 H :    0.371572
  10 O :   -0.763190
  11 O :   -0.866424
  12 H :    0.023526
  13 H :   -0.374550
  14 H :    0.013547
  15 H :   -0.162882
  16 O :   -0.766410
Sum of atomic charges:    0.0000000

LOEWDIN ATOMIC CHARGES
----------------------
   0 C :    0.092768
   1 N :    0.328161
   2 C :   -0.014541
   3 C :   -0.058787
   4 S :    0.945151
   5 H :    0.020091
   6 H :    0.015599
   7 H :    0.095881
   8 H :   -0.116720
   9 H :    0.097915
  10 O :   -0.503845
  11 O :   -0.513993
  12 H :    0.035914
  13 H :    0.035012
  14 H :    0.040678
  15 H :    0.025485
  16 O :   -0.524769

  Mayer bond orders larger than 0.100000
B(  0-C ,  1-N ) :   0.8767 B(  0-C ,  2-C ) :   1.1918 B(  0-C , 12-H ) :   0.7785
B(  0-C , 13-H ) :   0.8241 B(  0-C , 14-H ) :   0.1705 B(  0-C , 15-H ) :   0.1498
B(  1-N ,  7-H ) :   0.8223 B(  1-N ,  8-H ) :   1.2502 B(  1-N ,  9-H ) :   0.7785
B(  1-N , 12-H ) :   0.1392 B(  1-N , 13-H ) :   0.1100 B(  2-C ,  3-C ) :   1.2279
B(  2-C ,  5-H ) :   0.1749 B(  2-C ,  6-H ) :   0.1245 B(  2-C , 12-H ) :   0.1265
B(  2-C , 14-H ) :   0.7730 B(  2-C , 15-H ) :   0.7570 B(  3-C ,  4-S ) :   0.8924
B(  3-C ,  5-H ) :   0.8307 B(  3-C ,  6-H ) :   0.8700 B(  3-C , 11-O ) :   0.1307
B(  3-C , 14-H ) :   0.1374 B(  3-C , 15-H ) :   0.1031 B(  4-S ,  5-H ) :   0.1067
B(  4-S , 10-O ) :   1.4674 B(  4-S , 11-O ) :   1.0667 B(  4-S , 16-O ) :   1.3316
B(  8-H , 11-O ) :   0.2911

FINAL SINGLE POINT ENERGY      -797.741144711715

DIPOLE MOMENT
-------------
                                X             Y             Z
Electronic contribution:     -6.83803      -4.07268      -4.23827
Nuclear contribution   :      9.95459       5.57517       7.68169
                        -----------------------------------------
Total Dipole Moment    :      3.11656       1.50249       3.44341
                        -----------------------------------------
Magnitude (a.u.)       :      4.88134
Magnitude (Debye)      :     12.40739

Rotational constants in cm-1:     0.102119     0.045768     0.041299
Rotational constants in MHz :  3061.441288  1372.093000  1238.124534

                             ****ORCA TERMINATED NORMALLY****
TOTAL RUN TIME: 0 days 0 hours 1 minutes 15 seconds 890 msec
