                         Program Version 5.0.0 -  RELEASE  -
|  1> !CAM-B3LYP RIJCOSX def2-SVPD def2/J TightSCF
|  2> *xyz 0 1
|  3> C          1.36401        0.46874       -2.81376
|  4> C          0.96805        1.63064       -3.71575
|  5> C         -0.50835        1.72268       -4.12430
|  6> S         -1.32861        0.14674       -4.43578
|  7> H         -0.59151        2.29496       -5.04722
|  8> H         -1.11411        2.23561       -3.37436
|  9> F         -2.57135        0.47573       -5.06834
| 10> O         -1.51496       -0.40051       -3.06342
| 11> H          1.57869        1.52065       -4.61273
| 12> H          1.26665        2.57599       -3.25045
| 13> O         -0.37793       -0.62756       -5.20114
| 14> H          1.07115       -0.45339       -3.27071
| 15> H          0.87480        0.56905       -1.86745
| 16> H          2.42423        0.47442       -2.66954
| 17> *
| 18> %MaxCore 64000
| 19>
| 20> %pal nprocs 4
| 21> end
| 22>
| 23> %scf
| 24>   MaxIter 150
| 25> end
| 26>
| 27>
| 28>                          ****END OF INPUT****

CARTESIAN COORDINATES (ANGSTROEM)
---------------------------------
  C      1.364010    0.468740   -2.813760
  C      0.968050    1.630640   -3.715750
  C     -0.508350    1.722680   -4.124300
  S     -1.328610    0.146740   -4.435780
  H     -0.591510    2.294960   -5.047220
  H     -1.114110    2.235610   -3.374360
  F     -2.571350    0.475730   -5.068340
  O     -1.514960   -0.400510   -3.063420
  H      1.578690    1.520650   -4.612730
  H      1.266650    2.575990   -3.250450
  O     -0.377930   -0.627560   -5.201140
  H      1.071150   -0.453390   -3.270710
  H      0.874800    0.569050   -1.867450
  H      2.424230    0.474420   -2.669540

 Total Charge           Charge          ....    0
 Multiplicity           Mult            ....    1
 Number of Electrons    NEL             ....   66
 Basis Dimension        Dim             ....  212

ORBITAL ENERGIES
----------------

  NO   OCC          E(Eh)            E(eV)
   0   2.0000     -89.223734     -2427.9012
   1   2.0000     -24.901895      -677.6150
   2   2.0000     -19.232656      -523.3472
   3   2.0000     -19.216031      -522.8948
   4   2.0000     -10.320891      -280.8457
   5   2.0000     -10.285812      -279.8912
   6   2.0000     -10.243909      -278.7509
   7   2.0000      -8.277666      -225.2467
   8   2.0000      -6.251676      -170.1168
   9   2.0000      -6.245254      -169.9420
  10   2.0000      -6.243935      -169.9061
  11   2.0000      -1.473242       -40.0890
  12   2.0000      -1.194466       -32.5031
  13   2.0000      -1.085354       -29.5340
  14   2.0000      -0.907652       -24.6985
  15   2.0000      -0.838175       -22.8079
  16   2.0000      -0.789209       -21.4755
  17   2.0000      -0.714764       -19.4497
  18   2.0000      -0.675914       -18.3926
  19   2.0000      -0.659269       -17.9396
  20   2.0000      -0.629466       -17.1286
  21   2.0000      -0.569141       -15.4871
  22   2.0000      -0.557271       -15.1641
  23   2.0000      -0.528957       -14.3936
  24   2.0000      -0.523298       -14.2397
  25   2.0000      -0.490682       -13.3521
  26   2.0000      -0.461143       -12.5483
  27   2.0000      -0.443439       -12.0666
  28   2.0000      -0.432691       -11.7741
  29   2.0000      -0.417219       -11.3531
  30   2.0000      -0.401170       -10.9164
  31   2.0000      -0.384650       -10.4669
  32   2.0000      -0.375969       -10.2306
  33   0.0000       0.024871         0.6768
  34   0.0000       0.048020         1.3067
  35   0.0000       0.060284         1.6404
  36   0.0000       0.063288         1.7222
  37   0.0000       0.084925         2.3109

MULLIKEN ATOMIC CHARGES
-----------------------
   0 C :    0.972280
   1 C :   -0.129099
   2 C :    0.235259
   3 S :    1.463237
   4 H :   -0.082882
   5 H :    0.002201
   6 F :   -0.449806
   7 O :   -0.681747
   8 H :   -0.021573
   9 H :   -0.205424
  10 O :   -0.661779
  11 H :   -0.142086
  12 H :   -0.097648
  13 H :   -0.200934
Sum of atomic charges:   -0.0000000

LOEWDIN ATOMIC CHARGES
----------------------
   0 C :    0.130599
   1 C :   -0.059214
   2 C :   -0.050888
   3 S :    1.123933
   4 H :    0.015374
   5 H :    0.025059
   6 F :   -0.248574
   7 O :   -0.483012
   8 H :    0.028438
   9 H :    0.032024
  10 O :   -0.461108
  11 H :   -0.034617
  12 H :   -0.006977
  13 H :   -0.011038

  Mayer bond orders larger than 0.100000
B(  0-C ,  1-C ) :   1.3111 B(  0-C ,  8-H ) :   0.1010 B(  0-C , 11-H ) :   0.7741
B(  0-C , 12-H ) :   0.7188 B(  0-C , 13-H ) :   0.6835 B(  1-C ,  2-C ) :   1.2953
B(  1-C ,  4-H ) :   0.1697 B(  1-C ,  5-H ) :   0.1433 B(  1-C ,  8-H ) :   0.8498
B(  1-C ,  9-H ) :   0.8337 B(  1-C , 11-H ) :   0.2082 B(  1-C , 12-H ) :   0.2197
B(  1-C , 13-H ) :   0.2446 B(  2-C ,  3-S ) :   0.9263 B(  2-C ,  4-H ) :   0.8497
B(  2-C ,  5-H ) :   0.8883 B(  2-C ,  8-H ) :   0.1254 B(  2-C ,  9-H ) :   0.1316
B(  3-S ,  6-F ) :   0.7131 B(  3-S ,  7-O ) :   1.4589 B(  3-S , 10-O ) :   1.4799

FINAL SINGLE POINT ENERGY      -766.408334248051

DIPOLE MOMENT
-------------
                                X             Y             Z
Electronic contribution:    -11.75585      -4.25643      -5.81642
Nuclear contribution   :     11.77809       5.83971       5.48704
                        -----------------------------------------
Total Dipole Moment    :      0.02223       1.58328      -0.32938
                        -----------------------------------------
Magnitude (a.u.)       :      1.61734
Magnitude (Debye)      :      4.11094

Rotational constants in cm-1:     0.133968     0.056186     0.052650
Rotational constants in MHz :  4016.256208  1684.422248  1578.415210

                             ****ORCA TERMINATED NORMALLY****
TOTAL RUN TIME: 0 days 0 hours 0 minutes 36 seconds 677 msec
