                         Program Version 5.0.0 -  RELEASE  -
|  1> !CAM-B3LYP RIJCOSX def2-SVPD def2/J TightSCF
|  2> *xyz 0 1
|  3> C          1.36401        0.46874       -2.81376
|  4> C          0.42884        0.32140       -1.65531
|  5> C          0.96805        1.63064       -3.71575
|  6> C         -0.50835        1.72268       -4.12430
|  7> H          0.74858       -0.40054       -1.00134
|  8> H         -0.46105        0.02333       -2.07773
|  9> H          0.31026        1.20137       -1.13495
| 10> H          1.29485       -0.46874       -3.36468
| 11> H          2.37622        0.59740       -2.43149
| 12> H          1.57869        1.52065       -4.61273
| 13> H          1.26665        2.57599       -3.25045
| 14> H         -0.65192        2.57663       -4.75283
| 15> H         -1.11549        1.81835       -3.24844
| 16> H         -0.78702        0.83723       -4.65648
| 17> *
| 18> %MaxCore 64000
| 19>
| 20> %pal nprocs 4
| 21> end
| 22>
| 23> %scf
| 24>   MaxIter 150
| 25> end
| 26>
| 27>
| 28>                          ****END OF INPUT****

CARTESIAN COORDINATES (ANGSTROEM)
---------------------------------
  C      1.364010    0.468740   -2.813760
  C      0.428840    0.321400   -1.655310
  C      0.968050    1.630640   -3.715750
  C     -0.508350    1.722680   -4.124300
  H      0.748580   -0.400540   -1.001340
  H     -0.461050    0.023330   -2.077730
  H      0.310260    1.201370   -1.134950
  H      1.294850   -0.468740   -3.364680
  H      2.376220    0.597400   -2.431490
  H      1.578690    1.520650   -4.612730
  H      1.266650    2.575990   -3.250450
  H     -0.651920    2.576630   -4.752830
  H     -1.115490    1.818350   -3.248440
  H     -0.787020    0.837230   -4.656480

 Total Charge           Charge          ....    0
 Multiplicity           Mult            ....    1
 Number of Electrons    NEL             ....   34
 Basis Dimension        Dim             ....  160

ORBITAL ENERGIES
----------------

  NO   OCC          E(Eh)            E(eV)
   0   2.0000     -10.247175      -278.8398
   1   2.0000     -10.243812      -278.7483
   2   2.0000     -10.239184      -278.6224
   3   2.0000     -10.219808      -278.0951
   4   2.0000      -0.879656       -23.9367
   5   2.0000      -0.802576       -21.8392
   6   2.0000      -0.721161       -19.6238
   7   2.0000      -0.633171       -17.2295
   8   2.0000      -0.541888       -14.7455
   9   2.0000      -0.533238       -14.5102
  10   2.0000      -0.494335       -13.4515
  11   2.0000      -0.455706       -12.4004
  12   2.0000      -0.450995       -12.2722
  13   2.0000      -0.432084       -11.7576
  14   2.0000      -0.391587       -10.6556
  15   2.0000      -0.383641       -10.4394
  16   2.0000      -0.379936       -10.3386
  17   0.0000       0.054090         1.4719
  18   0.0000       0.080171         2.1816
  19   0.0000       0.081606         2.2206
  20   0.0000       0.094811         2.5799
  21   0.0000       0.126211         3.4344

MULLIKEN ATOMIC CHARGES
-----------------------
   0 C :   -0.117583
   1 C :    1.188653
   2 C :   -0.184355
   3 C :    0.869329
   4 H :   -0.425666
   5 H :   -0.143016
   6 H :   -0.236840
   7 H :   -0.084829
   8 H :   -0.212953
   9 H :   -0.172063
  10 H :   -0.081413
  11 H :   -0.217199
  12 H :   -0.092978
  13 H :   -0.089087
Sum of atomic charges:    0.0000000

LOEWDIN ATOMIC CHARGES
----------------------
   0 C :   -0.077863
   1 C :    0.118922
   2 C :   -0.080157
   3 C :    0.123702
   4 H :   -0.034779
   5 H :   -0.039421
   6 H :   -0.024244
   7 H :    0.023685
   8 H :    0.020515
   9 H :    0.011908
  10 H :    0.021012
  11 H :   -0.020150
  12 H :   -0.028207
  13 H :   -0.014922

  Mayer bond orders larger than 0.100000
B(  0-C ,  1-C ) :   1.2541 B(  0-C ,  2-C ) :   1.1913 B(  0-C ,  4-H ) :   0.2481
B(  0-C ,  5-H ) :   0.2840 B(  0-C ,  6-H ) :   0.2472 B(  0-C ,  7-H ) :   0.8237
B(  0-C ,  8-H ) :   0.9017 B(  0-C ,  9-H ) :   0.1539 B(  0-C , 10-H ) :   0.1351
B(  1-C ,  4-H ) :   0.6230 B(  1-C ,  5-H ) :   0.6849 B(  1-C ,  6-H ) :   0.6550
B(  1-C ,  7-H ) :   0.1382 B(  2-C ,  3-C ) :   1.2884 B(  2-C ,  7-H ) :   0.1414
B(  2-C ,  9-H ) :   0.8875 B(  2-C , 10-H ) :   0.8841 B(  2-C , 11-H ) :   0.2442
B(  2-C , 12-H ) :   0.1979 B(  2-C , 13-H ) :   0.2080 B(  3-C , 11-H ) :   0.7293
B(  3-C , 12-H ) :   0.8071 B(  3-C , 13-H ) :   0.7723 B(  4-H ,  6-H ) :  -0.1096

FINAL SINGLE POINT ENERGY      -158.224739688201

DIPOLE MOMENT
-------------
                                X             Y             Z
Electronic contribution:      0.84511       0.05424      -0.18779
Nuclear contribution   :     -0.83100      -0.05970       0.18742
                        -----------------------------------------
Total Dipole Moment    :      0.01411      -0.00545      -0.00038
                        -----------------------------------------
Magnitude (a.u.)       :      0.01513
Magnitude (Debye)      :      0.03846

Rotational constants in cm-1:     0.433656     0.172838     0.140497
Rotational constants in MHz : 13000.688694  5181.547473  4211.992439

                             ****ORCA TERMINATED NORMALLY****
TOTAL RUN TIME: 0 days 0 hours 0 minutes 17 seconds 780 msec
