                         Program Version 5.0.0 -  RELEASE  -
|  1> !CAM-B3LYP RIJCOSX def2-SVPD def2/J TightSCF
|  2> *xyz 0 1
|  3> C          1.36401        0.46874       -2.81376
|  4> C          0.96805        1.63064       -3.71575
|  5> C         -0.50835        1.72268       -4.12430
|  6> S         -1.32861        0.14674       -4.43578
|  7> H         -0.59151        2.29496       -5.04722
|  8> H         -1.11411        2.23561       -3.37436
|  9> O         -2.57135        0.47573       -5.06834
| 10> F         -1.51496       -0.40051       -3.06342
| 11> H          1.57869        1.52065       -4.61273
| 12> H          1.26665        2.57599       -3.25045
| 13> O         -0.37793       -0.62756       -5.20114
| 14> H          1.07115       -0.45339       -3.27071
| 15> H          0.87480        0.56905       -1.86745
| 16> H          2.42423        0.47442       -2.66954
| 17> *
| 18> %MaxCore 64000
| 19>
| 20> %pal nprocs 4
| 21> end
| 22>
| 23> %scf
| 24>   MaxIter 150
| 25> end
| 26>
| 27>
| 28>                          ****END OF INPUT****

CARTESIAN COORDINATES (ANGSTROEM)
---------------------------------
  C      1.364010    0.468740   -2.813760
  C      0.968050    1.630640   -3.715750
  C     -0.508350    1.722680   -4.124300
  S     -1.328610    0.146740   -4.435780
  H     -0.591510    2.294960   -5.047220
  H     -1.114110    2.235610   -3.374360
  O     -2.571350    0.475730   -5.068340
  F     -1.514960   -0.400510   -3.063420
  H      1.578690    1.520650   -4.612730
  H      1.266650    2.575990   -3.250450
  O     -0.377930   -0.627560   -5.201140
  H      1.071150   -0.453390   -3.270710
  H      0.874800    0.569050   -1.867450
  H      2.424230    0.474420   -2.669540

 Total Charge           Charge          ....    0
 Multiplicity           Mult            ....    1
 Number of Electrons    NEL             ....   66
 Basis Dimension        Dim             ....  212

ORBITAL ENERGIES
----------------

  NO   OCC          E(Eh)            E(eV)
   0   2.0000     -89.221037     -2427.8278
   1   2.0000     -24.873215      -676.8346
   2   2.0000     -19.234746      -523.4041
   3   2.0000     -19.230998      -523.3021
   4   2.0000     -10.319924      -280.8194
   5   2.0000     -10.287747      -279.9438
   6   2.0000     -10.258481      -279.1475
   7   2.0000      -8.274728      -225.1668
   8   2.0000      -6.248683      -170.0353
   9   2.0000      -6.242553      -169.8685
  10   2.0000      -6.241139      -169.8300
  11   2.0000      -1.425569       -38.7917
  12   2.0000      -1.208049       -32.8727
  13   2.0000      -1.111571       -30.2474
  14   2.0000      -0.912070       -24.8187
  15   2.0000      -0.830246       -22.5922
  16   2.0000      -0.777926       -21.1684
  17   2.0000      -0.712844       -19.3975
  18   2.0000      -0.645122       -17.5547
  19   2.0000      -0.642602       -17.4861
  20   2.0000      -0.625802       -17.0289
  21   2.0000      -0.575895       -15.6709
  22   2.0000      -0.550285       -14.9740
  23   2.0000      -0.536391       -14.5959
  24   2.0000      -0.526714       -14.3326
  25   2.0000      -0.506288       -13.7768
  26   2.0000      -0.470964       -12.8156
  27   2.0000      -0.451484       -12.2855
  28   2.0000      -0.447859       -12.1869
  29   2.0000      -0.422675       -11.5016
  30   2.0000      -0.413689       -11.2570
  31   2.0000      -0.397095       -10.8055
  32   2.0000      -0.391413       -10.6509
  33   0.0000       0.027965         0.7610
  34   0.0000       0.052393         1.4257
  35   0.0000       0.059528         1.6198
  36   0.0000       0.061113         1.6630
  37   0.0000       0.081400         2.2150

MULLIKEN ATOMIC CHARGES
-----------------------
   0 C :    0.958957
   1 C :   -0.077169
   2 C :    0.240684
   3 S :    1.406526
   4 H :   -0.088775
   5 H :   -0.006297
   6 O :   -0.666389
   7 F :   -0.403995
   8 H :   -0.017330
   9 H :   -0.201092
  10 O :   -0.671104
  11 H :   -0.166794
  12 H :   -0.114696
  13 H :   -0.192526
Sum of atomic charges:   -0.0000000

LOEWDIN ATOMIC CHARGES
----------------------
   0 C :    0.126274
   1 C :   -0.068658
   2 C :   -0.039997
   3 S :    1.112274
   4 H :    0.030326
   5 H :    0.024457
   6 O :   -0.454789
   7 F :   -0.272029
   8 H :    0.029349
   9 H :    0.029419
  10 O :   -0.458937
  11 H :   -0.038600
  12 H :   -0.010632
  13 H :   -0.008457

  Mayer bond orders larger than 0.100000
B(  0-C ,  1-C ) :   1.3109 B(  0-C ,  8-H ) :   0.1032 B(  0-C , 11-H ) :   0.7791
B(  0-C , 12-H ) :   0.7172 B(  0-C , 13-H ) :   0.7006 B(  1-C ,  2-C ) :   1.2821
B(  1-C ,  4-H ) :   0.1492 B(  1-C ,  5-H ) :   0.1454 B(  1-C ,  8-H ) :   0.8543
B(  1-C ,  9-H ) :   0.8300 B(  1-C , 11-H ) :   0.2033 B(  1-C , 12-H ) :   0.2159
B(  1-C , 13-H ) :   0.2406 B(  2-C ,  3-S ) :   0.9542 B(  2-C ,  4-H ) :   0.8720
B(  2-C ,  5-H ) :   0.8936 B(  2-C ,  8-H ) :   0.1287 B(  2-C ,  9-H ) :   0.1215
B(  3-S ,  6-O ) :   1.6045 B(  3-S ,  7-F ) :   0.6193 B(  3-S , 10-O ) :   1.5139

FINAL SINGLE POINT ENERGY      -766.433063096918

DIPOLE MOMENT
-------------
                                X             Y             Z
Electronic contribution:     -9.87811      -5.75325      -2.33448
Nuclear contribution   :     10.64200       6.78206       3.33086
                        -----------------------------------------
Total Dipole Moment    :      0.76389       1.02880       0.99639
                        -----------------------------------------
Magnitude (a.u.)       :      1.62319
Magnitude (Debye)      :      4.12582

Rotational constants in cm-1:     0.128573     0.057881     0.053975
Rotational constants in MHz :  3854.523324  1735.233387  1618.120420

                             ****ORCA TERMINATED NORMALLY****
TOTAL RUN TIME: 0 days 0 hours 0 minutes 38 seconds 797 msec
