                         Program Version 5.0.0 -  RELEASE  -
|  1> !CAM-B3LYP RIJCOSX def2-SVPD def2/J TightSCF
|  2> *xyz 0 1
|  3> C          1.36401        0.46874       -2.81376
|  4> C          0.96805        1.63064       -3.71575
|  5> C         -0.50835        1.72268       -4.12430
|  6> S         -1.32861        0.14674       -4.43578
|  7> H         -0.59151        2.29496       -5.04722
|  8> H         -1.11411        2.23561       -3.37436
|  9> O         -2.57135        0.47573       -5.06834
| 10> O         -1.51496       -0.40051       -3.06342
| 11> H          1.57869        1.52065       -4.61273
| 12> H          1.26665        2.57599       -3.25045
| 13> F         -0.37793       -0.62756       -5.20114
| 14> H          1.07115       -0.45339       -3.27071
| 15> H          0.87480        0.56905       -1.86745
| 16> H          2.42423        0.47442       -2.66954
| 17> *
| 18> %MaxCore 64000
| 19>
| 20> %pal nprocs 4
| 21> end
| 22>
| 23> %scf
| 24>   MaxIter 150
| 25> end
| 26>
| 27>
| 28>                          ****END OF INPUT****

CARTESIAN COORDINATES (ANGSTROEM)
---------------------------------
  C      1.364010    0.468740   -2.813760
  C      0.968050    1.630640   -3.715750
  C     -0.508350    1.722680   -4.124300
  S     -1.328610    0.146740   -4.435780
  H     -0.591510    2.294960   -5.047220
  H     -1.114110    2.235610   -3.374360
  O     -2.571350    0.475730   -5.068340
  O     -1.514960   -0.400510   -3.063420
  H      1.578690    1.520650   -4.612730
  H      1.266650    2.575990   -3.250450
  F     -0.377930   -0.627560   -5.201140
  H      1.071150   -0.453390   -3.270710
  H      0.874800    0.569050   -1.867450
  H      2.424230    0.474420   -2.669540

 Total Charge           Charge          ....    0
 Multiplicity           Mult            ....    1
 Number of Electrons    NEL             ....   66
 Basis Dimension        Dim             ....  212

ORBITAL ENERGIES
----------------

  NO   OCC          E(Eh)            E(eV)
   0   2.0000     -89.222446     -2427.8662
   1   2.0000     -24.896535      -677.4692
   2   2.0000     -19.234908      -523.4085
   3   2.0000     -19.214242      -522.8461
   4   2.0000     -10.320416      -280.8328
   5   2.0000     -10.290834      -280.0278
   6   2.0000     -10.257301      -279.1153
   7   2.0000      -8.276317      -225.2100
   8   2.0000      -6.250557      -170.0863
   9   2.0000      -6.243815      -169.9028
  10   2.0000      -6.242511      -169.8674
  11   2.0000      -1.463212       -39.8160
  12   2.0000      -1.198549       -32.6142
  13   2.0000      -1.087111       -29.5818
  14   2.0000      -0.913602       -24.8604
  15   2.0000      -0.834512       -22.7082
  16   2.0000      -0.792558       -21.5666
  17   2.0000      -0.717057       -19.5121
  18   2.0000      -0.670507       -18.2454
  19   2.0000      -0.668408       -18.1883
  20   2.0000      -0.620133       -16.8747
  21   2.0000      -0.569968       -15.5096
  22   2.0000      -0.555020       -15.1028
  23   2.0000      -0.538670       -14.6580
  24   2.0000      -0.520289       -14.1578
  25   2.0000      -0.501875       -13.6567
  26   2.0000      -0.463664       -12.6169
  27   2.0000      -0.454098       -12.3566
  28   2.0000      -0.447497       -12.1770
  29   2.0000      -0.423315       -11.5190
  30   2.0000      -0.402598       -10.9553
  31   2.0000      -0.386060       -10.5052
  32   2.0000      -0.374562       -10.1924
  33   0.0000       0.022343         0.6080
  34   0.0000       0.051962         1.4140
  35   0.0000       0.058603         1.5947
  36   0.0000       0.061497         1.6734
  37   0.0000       0.081556         2.2193

MULLIKEN ATOMIC CHARGES
-----------------------
   0 C :    0.997635
   1 C :   -0.104181
   2 C :    0.255587
   3 S :    1.396205
   4 H :   -0.097744
   5 H :   -0.000576
   6 O :   -0.655545
   7 O :   -0.682671
   8 H :   -0.044769
   9 H :   -0.207583
  10 F :   -0.400485
  11 H :   -0.159869
  12 H :   -0.100174
  13 H :   -0.195830
Sum of atomic charges:   -0.0000000

LOEWDIN ATOMIC CHARGES
----------------------
   0 C :    0.126225
   1 C :   -0.073099
   2 C :   -0.038330
   3 S :    1.115369
   4 H :    0.018910
   5 H :    0.038079
   6 O :   -0.454473
   7 O :   -0.481765
   8 H :    0.022825
   9 H :    0.030793
  10 F :   -0.252690
  11 H :   -0.037954
  12 H :   -0.003556
  13 H :   -0.010333

  Mayer bond orders larger than 0.100000
B(  0-C ,  1-C ) :   1.3068 B(  0-C , 11-H ) :   0.7672 B(  0-C , 12-H ) :   0.7214
B(  0-C , 13-H ) :   0.6842 B(  1-C ,  2-C ) :   1.2522 B(  1-C ,  4-H ) :   0.1560
B(  1-C ,  5-H ) :   0.1502 B(  1-C ,  8-H ) :   0.8564 B(  1-C ,  9-H ) :   0.8353
B(  1-C , 11-H ) :   0.2098 B(  1-C , 12-H ) :   0.2270 B(  1-C , 13-H ) :   0.2451
B(  2-C ,  3-S ) :   0.9624 B(  2-C ,  4-H ) :   0.8889 B(  2-C ,  5-H ) :   0.8849
B(  2-C ,  8-H ) :   0.1192 B(  2-C ,  9-H ) :   0.1308 B(  3-S ,  6-O ) :   1.6039
B(  3-S ,  7-O ) :   1.4892 B(  3-S , 10-F ) :   0.6655

FINAL SINGLE POINT ENERGY      -766.412340252934

DIPOLE MOMENT
-------------
                                X             Y             Z
Electronic contribution:     -7.93327      -6.12073      -5.98953
Nuclear contribution   :      9.41919       7.02624       5.62986
                        -----------------------------------------
Total Dipole Moment    :      1.48593       0.90550      -0.35967
                        -----------------------------------------
Magnitude (a.u.)       :      1.77687
Magnitude (Debye)      :      4.51645

Rotational constants in cm-1:     0.128702     0.057313     0.054552
Rotational constants in MHz :  3858.395793  1718.208003  1635.420361

                             ****ORCA TERMINATED NORMALLY****
TOTAL RUN TIME: 0 days 0 hours 0 minutes 36 seconds 601 msec
