                         Program Version 5.0.0 -  RELEASE  -
|  1> !CAM-B3LYP RIJCOSX def2-SVPD def2/J TightSCF xyzfile
|  2>
|  3> *xyzfile 0 1 D2.xyz
|  4>
|  5> %MaxCore 64000
|  6>
|  7> %pal nprocs 4
|  8> end
|  9>
| 10> %scf
| 11>   MaxIter 150
| 12> end
| 13>
| 14>
| 15>                          ****END OF INPUT****

CARTESIAN COORDINATES (ANGSTROEM)
---------------------------------
  C      1.364014    0.468742   -2.813764
  C      0.428844    0.321402   -1.655312
  C      0.968045    1.630639   -3.715749
  C     -0.508347    1.722679   -4.124300
  S     -1.328608    0.146737   -4.435781
  H     -0.591511    2.294958   -5.047219
  H     -1.114114    2.235610   -3.374362
  H      0.748578   -0.400542   -1.001345
  H     -0.461053    0.023332   -2.077731
  H      0.310258    1.201375   -1.134948
  O     -2.571347    0.475733   -5.068341
  F     -1.514963   -0.400512   -3.063420
  H      1.294847   -0.468742   -3.364684
  H      2.376216    0.597400   -2.431495
  H      1.578688    1.520652   -4.612733
  H      1.266653    2.575988   -3.250448
  O     -0.377928   -0.627558   -5.201141

 Total Charge           Charge          ....    0
 Multiplicity           Mult            ....    1
 Number of Electrons    NEL             ....   74
 Basis Dimension        Dim             ....  248

ORBITAL ENERGIES
----------------

  NO   OCC          E(Eh)            E(eV)
   0   2.0000     -89.225183     -2427.9407
   1   2.0000     -24.880171      -677.0239
   2   2.0000     -19.237909      -523.4901
   3   2.0000     -19.234352      -523.3933
   4   2.0000     -10.321612      -280.8653
   5   2.0000     -10.283736      -279.8347
   6   2.0000     -10.259735      -279.1816
   7   2.0000     -10.219524      -278.0874
   8   2.0000      -8.278724      -225.2755
   9   2.0000      -6.252848      -170.1486
  10   2.0000      -6.246479      -169.9753
  11   2.0000      -6.245026      -169.9358
  12   2.0000      -1.439579       -39.1729
  13   2.0000      -1.212661       -32.9982
  14   2.0000      -1.114672       -30.3318
  15   2.0000      -0.920590       -25.0505
  16   2.0000      -0.860790       -23.4233
  17   2.0000      -0.796068       -21.6621
  18   2.0000      -0.775266       -21.0961
  19   2.0000      -0.680043       -18.5049
  20   2.0000      -0.667166       -18.1545
  21   2.0000      -0.651013       -17.7150
  22   2.0000      -0.626149       -17.0384
  23   2.0000      -0.575565       -15.6619
  24   2.0000      -0.557620       -15.1736
  25   2.0000      -0.552284       -15.0284
  26   2.0000      -0.536464       -14.5979
  27   2.0000      -0.503386       -13.6978
  28   2.0000      -0.485438       -13.2095
  29   2.0000      -0.474924       -12.9233
  30   2.0000      -0.468089       -12.7374
  31   2.0000      -0.425855       -11.5881
  32   2.0000      -0.421834       -11.4787
  33   2.0000      -0.408960       -11.1284
  34   2.0000      -0.402460       -10.9515
  35   2.0000      -0.396710       -10.7950
  36   2.0000      -0.385897       -10.5008
  37   0.0000       0.029823         0.8115
  38   0.0000       0.050625         1.3776
  39   0.0000       0.057684         1.5697
  40   0.0000       0.061643         1.6774
  41   0.0000       0.077558         2.1105

MULLIKEN ATOMIC CHARGES
-----------------------
   0 C :   -0.203151
   1 C :    2.437643
   2 C :    0.459100
   3 C :    0.254269
   4 S :    1.473542
   5 H :   -0.303583
   6 H :    0.150885
   7 H :   -0.169999
   8 H :   -1.438494
   9 H :   -0.186054
  10 O :   -0.681532
  11 F :   -0.607802
  12 H :    0.011988
  13 H :   -0.393176
  14 H :   -0.040725
  15 H :   -0.080269
  16 O :   -0.682642
Sum of atomic charges:    0.0000000

LOEWDIN ATOMIC CHARGES
----------------------
   0 C :   -0.049037
   1 C :    0.149582
   2 C :   -0.025957
   3 C :   -0.027177
   4 S :    1.137161
   5 H :    0.029938
   6 H :    0.028136
   7 H :   -0.019218
   8 H :   -0.135359
   9 H :   -0.016360
  10 O :   -0.448558
  11 F :   -0.276981
  12 H :    0.014434
  13 H :    0.026604
  14 H :    0.028571
  15 H :    0.034117
  16 O :   -0.449896

  Mayer bond orders larger than 0.100000
B(  0-C ,  1-C ) :   0.9177 B(  0-C ,  2-C ) :   1.1959 B(  0-C ,  7-H ) :   0.2747
B(  0-C ,  8-H ) :   0.5815 B(  0-C ,  9-H ) :   0.3033 B(  0-C , 12-H ) :   0.8180
B(  0-C , 13-H ) :   0.9126 B(  0-C , 14-H ) :   0.1551 B(  0-C , 15-H ) :   0.1817
B(  1-C ,  7-H ) :   0.3585 B(  1-C ,  8-H ) :  -1.3919 B(  1-C , 11-F ) :  -0.2490
B(  1-C , 12-H ) :   0.1465 B(  2-C ,  3-C ) :   1.2277 B(  2-C ,  5-H ) :   0.1899
B(  2-C ,  6-H ) :   0.1148 B(  2-C , 12-H ) :   0.1473 B(  2-C , 14-H ) :   0.8058
B(  2-C , 15-H ) :   0.7324 B(  3-C ,  4-S ) :   0.9717 B(  3-C ,  5-H ) :   0.8417
B(  3-C ,  6-H ) :   0.8587 B(  3-C ,  8-H ) :   0.1143 B(  3-C , 11-F ) :   0.1290
B(  3-C , 14-H ) :   0.1519 B(  4-S ,  8-H ) :  -0.1362 B(  4-S , 10-O ) :   1.5838
B(  4-S , 11-F ) :   0.6189 B(  4-S , 16-O ) :   1.5194 B(  7-H ,  8-H ) :   0.3011
B(  7-H ,  9-H ) :  -0.2381 B(  8-H ,  9-H ) :   0.6612 B(  8-H , 11-F ) :   0.4185
B( 12-H , 13-H ) :  -0.1152

FINAL SINGLE POINT ENERGY      -805.652297193239

DIPOLE MOMENT
-------------
                                X             Y             Z
Electronic contribution:    -10.46117      -5.50555      -6.12800
Nuclear contribution   :     11.08796       6.45140       7.05645
                        -----------------------------------------
Total Dipole Moment    :      0.62680       0.94585       0.92846
                        -----------------------------------------
Magnitude (a.u.)       :      1.46613
Magnitude (Debye)      :      3.72660

Rotational constants in cm-1:     0.100113     0.046890     0.041843
Rotational constants in MHz :  3001.313402  1405.711946  1254.411771

                             ****ORCA TERMINATED NORMALLY****
TOTAL RUN TIME: 0 days 0 hours 1 minutes 3 seconds 615 msec
