                         Program Version 5.0.0 -  RELEASE  -
|  1> !wB97X-D3 RIJCOSX def2-SVP def2/J TightSCF
|  2> *xyz -1 1
|  3> C         -0.96015       -0.52236       -0.48987
|  4> O          0.26170       -0.58031        0.13861
|  5> H         -0.85050       -0.82220       -1.51113
|  6> H         -1.33436        0.47929       -0.45044
|  7> H         -1.64624       -1.17908        0.00297
|  8> *
|  9>
| 10> %MaxCore 64000
| 11>
| 12> %pal nprocs 18
| 13> end
| 14>
| 15> %scf
| 16>   MaxIter 150
| 17> end
| 18>
| 19>
| 20>                          ****END OF INPUT****

CARTESIAN COORDINATES (ANGSTROEM)
---------------------------------
  C     -0.960150   -0.522360   -0.489870
  O      0.261700   -0.580310    0.138610
  H     -0.850500   -0.822200   -1.511130
  H     -1.334360    0.479290   -0.450440
  H     -1.646240   -1.179080    0.002970

 Total Charge           Charge          ....   -1
 Multiplicity           Mult            ....    1
 Number of Electrons    NEL             ....   18
 Basis Dimension        Dim             ....   43

ORBITAL ENERGIES
----------------

  NO   OCC          E(Eh)            E(eV)
   0   2.0000     -18.809609      -511.8355
   1   2.0000     -10.044658      -273.3290
   2   2.0000      -0.703789       -19.1511
   3   2.0000      -0.469438       -12.7741
   4   2.0000      -0.266954        -7.2642
   5   2.0000      -0.266921        -7.2633
   6   2.0000      -0.136559        -3.7160
   7   2.0000       0.020177         0.5491
   8   2.0000       0.020187         0.5493
   9   0.0000       0.370378        10.0785
  10   0.0000       0.445181        12.1140
  11   0.0000       0.445193        12.1143
  12   0.0000       0.536984        14.6121
  13   0.0000       0.814983        22.1768

MULLIKEN ATOMIC CHARGES
-----------------------
   0 C :    0.294443
   1 O :   -0.817840
   2 H :   -0.158901
   3 H :   -0.158883
   4 H :   -0.158818
Sum of atomic charges:   -1.0000000

LOEWDIN ATOMIC CHARGES
----------------------
   0 C :   -0.009811
   1 O :   -0.747074
   2 H :   -0.081045
   3 H :   -0.081050
   4 H :   -0.081020

  Mayer bond orders larger than 0.100000
B(  0-C ,  1-O ) :   1.3909 B(  0-C ,  2-H ) :   0.9155 B(  0-C ,  3-H ) :   0.9155
B(  0-C ,  4-H ) :   0.9155

Dispersion correction           -0.000091947
FINAL SINGLE POINT ENERGY      -114.929885441748

DIPOLE MOMENT
-------------
                                X             Y             Z
Electronic contribution:      1.89641      -0.08996       0.97545
Nuclear contribution   :     -2.56864       0.12183      -1.32123
                        -----------------------------------------
Total Dipole Moment    :     -0.67223       0.03187      -0.34578
                        -----------------------------------------
Magnitude (a.u.)       :      0.75662
Magnitude (Debye)      :      1.92317

Rotational constants in cm-1:     5.477744     0.932677     0.932677
Rotational constants in MHz : 164218.635293 27960.967920 27960.945417

                             ****ORCA TERMINATED NORMALLY****
TOTAL RUN TIME: 0 days 0 hours 0 minutes 2 seconds 878 msec
