                         Program Version 5.0.0 -  RELEASE  -
|  1> !wB97X-D3 RIJCOSX def2-SVP def2/J TightSCF
|  2> *xyz 1 1
|  3> C          4.36645       -0.13321       -1.41606
|  4> C          3.05650       -0.32080       -0.70738
|  5> N          2.38983        0.71129       -0.24391
|  6> N          2.51600       -1.50772       -0.55023
|  7> H          2.96768       -2.32291       -0.95631
|  8> H          1.54987       -1.49063       -0.24988
|  9> H          2.74307        1.64947       -0.41280
| 10> H          1.44036        0.50278        0.03703
| 11> H          4.74975       -1.08632       -1.71533
| 12> H          5.06373        0.34075       -0.75722
| 13> H          4.21960        0.47966       -2.28077
| 14> *
| 15>
| 16> %MaxCore 64000
| 17>
| 18> %pal nprocs 18
| 19> end
| 20>
| 21> %scf
| 22>   MaxIter 150
| 23> end
| 24>
| 25>
| 26>                          ****END OF INPUT****

CARTESIAN COORDINATES (ANGSTROEM)
---------------------------------
  C      4.366450   -0.133210   -1.416060
  C      3.056500   -0.320800   -0.707380
  N      2.389830    0.711290   -0.243910
  N      2.516000   -1.507720   -0.550230
  H      2.967680   -2.322910   -0.956310
  H      1.549870   -1.490630   -0.249880
  H      2.743070    1.649470   -0.412800
  H      1.440360    0.502780    0.037030
  H      4.749750   -1.086320   -1.715330
  H      5.063730    0.340750   -0.757220
  H      4.219600    0.479660   -2.280770

 Total Charge           Charge          ....    1
 Multiplicity           Mult            ....    1
 Number of Electrons    NEL             ....   32
 Basis Dimension        Dim             ....   91

ORBITAL ENERGIES
----------------

  NO   OCC          E(Eh)            E(eV)
   0   2.0000     -14.689675      -399.7264
   1   2.0000     -14.687603      -399.6700
   2   2.0000     -10.622404      -289.0503
   3   2.0000     -10.491130      -285.4782
   4   2.0000      -1.329984       -36.1907
   5   2.0000      -1.219770       -33.1916
   6   2.0000      -1.067926       -29.0597
   7   2.0000      -0.944499       -25.7011
   8   2.0000      -0.887844       -24.1595
   9   2.0000      -0.874894       -23.8071
  10   2.0000      -0.809661       -22.0320
  11   2.0000      -0.768472       -20.9112
  12   2.0000      -0.719958       -19.5910
  13   2.0000      -0.702614       -19.1191
  14   2.0000      -0.677823       -18.4445
  15   2.0000      -0.592851       -16.1323
  16   0.0000      -0.128951        -3.5089
  17   0.0000      -0.065283        -1.7765
  18   0.0000      -0.020008        -0.5445
  19   0.0000      -0.003209        -0.0873
  20   0.0000       0.019684         0.5356

MULLIKEN ATOMIC CHARGES
-----------------------
   0 C :    0.057499
   1 C :   -0.092859
   2 N :   -0.027953
   3 N :   -0.025687
   4 H :    0.205839
   5 H :    0.182431
   6 H :    0.203493
   7 H :    0.182445
   8 H :    0.077101
   9 H :    0.119163
  10 H :    0.118528
Sum of atomic charges:    1.0000000

LOEWDIN ATOMIC CHARGES
----------------------
   0 C :   -0.027592
   1 C :    0.159039
   2 N :    0.088953
   3 N :    0.092948
   4 H :    0.127394
   5 H :    0.112700
   6 H :    0.127886
   7 H :    0.112218
   8 H :    0.058764
   9 H :    0.074085
  10 H :    0.073604

  Mayer bond orders larger than 0.100000
B(  0-C ,  1-C ) :   1.0411 B(  0-C ,  8-H ) :   0.9446 B(  0-C ,  9-H ) :   0.9410
B(  0-C , 10-H ) :   0.9407 B(  1-C ,  2-N ) :   1.4950 B(  1-C ,  3-N ) :   1.5079
B(  2-N ,  6-H ) :   0.9226 B(  2-N ,  7-H ) :   0.9273 B(  3-N ,  4-H ) :   0.9153
B(  3-N ,  5-H ) :   0.9272

Dispersion correction           -0.001655572
FINAL SINGLE POINT ENERGY      -189.522814745152

DIPOLE MOMENT
-------------
                                X             Y             Z
Electronic contribution:     -1.75389      -0.25496       1.09112
Nuclear contribution   :      1.22976       0.25273      -1.15956
                        -----------------------------------------
Total Dipole Moment    :     -0.52413      -0.00223      -0.06844
                        -----------------------------------------
Magnitude (a.u.)       :      0.52858
Magnitude (Debye)      :      1.34355

Rotational constants in cm-1:     0.347067     0.291236     0.163306
Rotational constants in MHz : 10404.811357  8731.035118  4895.793931

                             ****ORCA TERMINATED NORMALLY****
TOTAL RUN TIME: 0 days 0 hours 0 minutes 4 seconds 879 msec
