                         Program Version 5.0.0 -  RELEASE  -
|  1> !wB97X-D3 RIJCOSX def2-SVP def2/J TightSCF
|  2> *xyz 0 1
|  3> C         -0.96015       -0.52236       -0.48987
|  4> F          0.26170       -0.58031        0.13861
|  5> H         -0.85050       -0.82220       -1.51113
|  6> H         -1.33436        0.47929       -0.45044
|  7> H         -1.64624       -1.17908        0.00297
|  8> *
|  9>
| 10> %MaxCore 64000
| 11>
| 12> %pal nprocs 18
| 13> end
| 14>
| 15> %scf
| 16>   MaxIter 150
| 17> end
| 18>
| 19>
| 20>                          ****END OF INPUT****

CARTESIAN COORDINATES (ANGSTROEM)
---------------------------------
  C     -0.960150   -0.522360   -0.489870
  F      0.261700   -0.580310    0.138610
  H     -0.850500   -0.822200   -1.511130
  H     -1.334360    0.479290   -0.450440
  H     -1.646240   -1.179080    0.002970

 Total Charge           Charge          ....    0
 Multiplicity           Mult            ....    1
 Number of Electrons    NEL             ....   18
 Basis Dimension        Dim             ....   43

ORBITAL ENERGIES
----------------

  NO   OCC          E(Eh)            E(eV)
   0   2.0000     -24.758383      -673.7098
   1   2.0000     -10.352032      -281.6931
   2   2.0000      -1.275468       -34.7072
   3   2.0000      -0.807012       -21.9599
   4   2.0000      -0.581962       -15.8360
   5   2.0000      -0.581954       -15.8358
   6   2.0000      -0.581569       -15.8253
   7   2.0000      -0.435761       -11.8577
   8   2.0000      -0.435748       -11.8573
   9   0.0000       0.165189         4.4950
  10   0.0000       0.216476         5.8906
  11   0.0000       0.225691         6.1414
  12   0.0000       0.225701         6.1416
  13   0.0000       0.544487        14.8162

MULLIKEN ATOMIC CHARGES
-----------------------
   0 C :    0.228911
   1 F :   -0.303414
   2 H :    0.024814
   3 H :    0.024805
   4 H :    0.024885
Sum of atomic charges:   -0.0000000

LOEWDIN ATOMIC CHARGES
----------------------
   0 C :    0.128200
   1 F :   -0.160383
   2 H :    0.010727
   3 H :    0.010711
   4 H :    0.010746

  Mayer bond orders larger than 0.100000
B(  0-C ,  1-F ) :   0.9678 B(  0-C ,  2-H ) :   0.9829 B(  0-C ,  3-H ) :   0.9829
B(  0-C ,  4-H ) :   0.9829

Dispersion correction           -0.000132016
FINAL SINGLE POINT ENERGY      -139.592156530367

DIPOLE MOMENT
-------------
                                X             Y             Z
Electronic contribution:      2.60606      -0.12368       1.34046
Nuclear contribution   :     -3.25854       0.15455      -1.67609
                        -----------------------------------------
Total Dipole Moment    :     -0.65248       0.03086      -0.33563
                        -----------------------------------------
Magnitude (a.u.)       :      0.73439
Magnitude (Debye)      :      1.86667

Rotational constants in cm-1:     5.477744     0.868130     0.868129
Rotational constants in MHz : 164218.635293 26025.869915 26025.850419

                             ****ORCA TERMINATED NORMALLY****
TOTAL RUN TIME: 0 days 0 hours 0 minutes 2 seconds 779 msec
