                         Program Version 5.0.0 -  RELEASE  -
|  1> !wB97X-D3 RIJCOSX def2-SVP def2/J TightSCF
|  2> *xyz 0 1
|  3> C          4.36645       -0.13321       -1.41606
|  4> C          3.05650       -0.32080       -0.70738
|  5> C          2.38983        0.71129       -0.24391
|  6> N          2.51600       -1.50772       -0.55023
|  7> H          2.96768       -2.32291       -0.95631
|  8> H          1.54987       -1.49063       -0.24988
|  9> H          2.74307        1.64947       -0.41280
| 10> H          1.44036        0.50278        0.03703
| 11> H          4.74975       -1.08632       -1.71533
| 12> H          5.06373        0.34075       -0.75722
| 13> H          4.21960        0.47966       -2.28077
| 14> *
| 15>
| 16> %MaxCore 64000
| 17>
| 18> %pal nprocs 18
| 19> end
| 20>
| 21> %scf
| 22>   MaxIter 150
| 23> end
| 24>
| 25>
| 26>                          ****END OF INPUT****

CARTESIAN COORDINATES (ANGSTROEM)
---------------------------------
  C      4.366450   -0.133210   -1.416060
  C      3.056500   -0.320800   -0.707380
  C      2.389830    0.711290   -0.243910
  N      2.516000   -1.507720   -0.550230
  H      2.967680   -2.322910   -0.956310
  H      1.549870   -1.490630   -0.249880
  H      2.743070    1.649470   -0.412800
  H      1.440360    0.502780    0.037030
  H      4.749750   -1.086320   -1.715330
  H      5.063730    0.340750   -0.757220
  H      4.219600    0.479660   -2.280770

 Total Charge           Charge          ....    0
 Multiplicity           Mult            ....    1
 Number of Electrons    NEL             ....   32
 Basis Dimension        Dim             ....   91

ORBITAL ENERGIES
----------------

  NO   OCC          E(Eh)            E(eV)
   0   2.0000     -14.428399      -392.6167
   1   2.0000     -10.303360      -280.3687
   2   2.0000     -10.280432      -279.7448
   3   2.0000     -10.210408      -277.8393
   4   2.0000      -1.034995       -28.1636
   5   2.0000      -0.860102       -23.4046
   6   2.0000      -0.795352       -21.6426
   7   2.0000      -0.661800       -18.0085
   8   2.0000      -0.629134       -17.1196
   9   2.0000      -0.564280       -15.3548
  10   2.0000      -0.529762       -14.4156
  11   2.0000      -0.494923       -13.4675
  12   2.0000      -0.481510       -13.1026
  13   2.0000      -0.449380       -12.2282
  14   2.0000      -0.428139       -11.6503
  15   2.0000      -0.267042        -7.2666
  16   0.0000       0.136117         3.7039
  17   0.0000       0.147335         4.0092
  18   0.0000       0.186803         5.0832
  19   0.0000       0.193375         5.2620
  20   0.0000       0.228147         6.2082

MULLIKEN ATOMIC CHARGES
-----------------------
   0 C :    0.084903
   1 C :   -0.204094
   2 C :   -0.065800
   3 N :   -0.104547
   4 H :    0.121625
   5 H :    0.127700
   6 H :   -0.024802
   7 H :   -0.040020
   8 H :    0.001875
   9 H :    0.051871
  10 H :    0.051290
Sum of atomic charges:    0.0000000

LOEWDIN ATOMIC CHARGES
----------------------
   0 C :   -0.043763
   1 C :    0.005387
   2 C :   -0.190993
   3 N :   -0.016298
   4 H :    0.072268
   5 H :    0.080732
   6 H :   -0.000253
   7 H :   -0.007713
   8 H :    0.019503
   9 H :    0.041184
  10 H :    0.039946

  Mayer bond orders larger than 0.100000
B(  0-C ,  1-C ) :   1.0118 B(  0-C ,  8-H ) :   0.9596 B(  0-C ,  9-H ) :   0.9632
B(  0-C , 10-H ) :   0.9624 B(  1-C ,  2-C ) :   1.8628 B(  1-C ,  3-N ) :   1.2592
B(  2-C ,  6-H ) :   0.9633 B(  2-C ,  7-H ) :   0.9570 B(  3-N ,  4-H ) :   0.9489
B(  3-N ,  5-H ) :   0.9459

Dispersion correction           -0.001655156
FINAL SINGLE POINT ENERGY      -173.063199911972

DIPOLE MOMENT
-------------
                                X             Y             Z
Electronic contribution:     -0.98159      -1.21664       0.64413
Nuclear contribution   :      1.07959       0.48266      -1.05101
                        -----------------------------------------
Total Dipole Moment    :      0.09800      -0.73398      -0.40688
                        -----------------------------------------
Magnitude (a.u.)       :      0.84491
Magnitude (Debye)      :      2.14760

Rotational constants in cm-1:     0.369235     0.294626     0.169175
Rotational constants in MHz : 11069.394850  8832.653024  5071.734673

                             ****ORCA TERMINATED NORMALLY****
TOTAL RUN TIME: 0 days 0 hours 0 minutes 4 seconds 732 msec
