                         Program Version 5.0.0 -  RELEASE  -
|  1> !wB97X-D3 RIJCOSX def2-SVP def2/J TightSCF
|  2> *xyz 0 1
|  3> C          4.36645       -0.13321       -1.41606
|  4> C          3.05650       -0.32080       -0.70738
|  5> N          2.38983        0.71129       -0.24391
|  6> C          2.51600       -1.50772       -0.55023
|  7> H          2.96768       -2.32291       -0.95631
|  8> H          1.54987       -1.49063       -0.24988
|  9> H          2.74307        1.64947       -0.41280
| 10> H          1.44036        0.50278        0.03703
| 11> H          4.74975       -1.08632       -1.71533
| 12> H          5.06373        0.34075       -0.75722
| 13> H          4.21960        0.47966       -2.28077
| 14> *
| 15>
| 16> %MaxCore 64000
| 17>
| 18> %pal nprocs 18
| 19> end
| 20>
| 21> %scf
| 22>   MaxIter 150
| 23> end
| 24>
| 25>
| 26>                          ****END OF INPUT****

CARTESIAN COORDINATES (ANGSTROEM)
---------------------------------
  C      4.366450   -0.133210   -1.416060
  C      3.056500   -0.320800   -0.707380
  N      2.389830    0.711290   -0.243910
  C      2.516000   -1.507720   -0.550230
  H      2.967680   -2.322910   -0.956310
  H      1.549870   -1.490630   -0.249880
  H      2.743070    1.649470   -0.412800
  H      1.440360    0.502780    0.037030
  H      4.749750   -1.086320   -1.715330
  H      5.063730    0.340750   -0.757220
  H      4.219600    0.479660   -2.280770

 Total Charge           Charge          ....    0
 Multiplicity           Mult            ....    1
 Number of Electrons    NEL             ....   32
 Basis Dimension        Dim             ....   91

ORBITAL ENERGIES
----------------

  NO   OCC          E(Eh)            E(eV)
   0   2.0000     -14.427560      -392.5939
   1   2.0000     -10.303975      -280.3854
   2   2.0000     -10.280153      -279.7372
   3   2.0000     -10.214654      -277.9549
   4   2.0000      -1.035461       -28.1763
   5   2.0000      -0.859252       -23.3814
   6   2.0000      -0.796917       -21.6852
   7   2.0000      -0.662214       -18.0198
   8   2.0000      -0.629698       -17.1350
   9   2.0000      -0.564401       -15.3581
  10   2.0000      -0.531723       -14.4689
  11   2.0000      -0.492644       -13.4055
  12   2.0000      -0.484074       -13.1723
  13   2.0000      -0.449499       -12.2315
  14   2.0000      -0.427036       -11.6202
  15   2.0000      -0.270542        -7.3618
  16   0.0000       0.137749         3.7483
  17   0.0000       0.151099         4.1116
  18   0.0000       0.185921         5.0592
  19   0.0000       0.198978         5.4145
  20   0.0000       0.212774         5.7899

MULLIKEN ATOMIC CHARGES
-----------------------
   0 C :    0.088963
   1 C :   -0.195359
   2 N :   -0.106169
   3 C :   -0.066896
   4 H :   -0.022366
   5 H :   -0.038881
   6 H :    0.120342
   7 H :    0.127821
   8 H :    0.027903
   9 H :    0.032302
  10 H :    0.032339
Sum of atomic charges:   -0.0000000

LOEWDIN ATOMIC CHARGES
----------------------
   0 C :   -0.044088
   1 C :    0.006128
   2 N :   -0.019579
   3 C :   -0.185063
   4 H :    0.000156
   5 H :   -0.007106
   6 H :    0.073552
   7 H :    0.080409
   8 H :    0.036806
   9 H :    0.029036
  10 H :    0.029748

  Mayer bond orders larger than 0.100000
B(  0-C ,  1-C ) :   1.0299 B(  0-C ,  8-H ) :   0.9579 B(  0-C ,  9-H ) :   0.9569
B(  0-C , 10-H ) :   0.9567 B(  1-C ,  2-N ) :   1.2548 B(  1-C ,  3-C ) :   1.8625
B(  2-N ,  6-H ) :   0.9543 B(  2-N ,  7-H ) :   0.9456 B(  3-C ,  4-H ) :   0.9532
B(  3-C ,  5-H ) :   0.9579

Dispersion correction           -0.001666998
FINAL SINGLE POINT ENERGY      -173.066214027336

DIPOLE MOMENT
-------------
                                X             Y             Z
Electronic contribution:     -1.12968       0.84154       0.94786
Nuclear contribution   :      1.10788      -0.01499      -1.11971
                        -----------------------------------------
Total Dipole Moment    :     -0.02180       0.82655      -0.17185
                        -----------------------------------------
Magnitude (a.u.)       :      0.84451
Magnitude (Debye)      :      2.14657

Rotational constants in cm-1:     0.367851     0.295709     0.169239
Rotational constants in MHz : 11027.892768  8865.123922  5073.656136

                             ****ORCA TERMINATED NORMALLY****
TOTAL RUN TIME: 0 days 0 hours 0 minutes 4 seconds 833 msec
