                         Program Version 5.0.0 -  RELEASE  -
|  1> !B3LYP D3BJ RIJCOSX def2-SVPD def2/J TightSCF
|  2> *xyz -1 1
|  3> C          4.90646       -3.10282       -5.95484
|  4> C          3.51177       -2.80621       -6.49228
|  5> H          2.73604       -3.37345       -5.97374
|  6> H          3.44490       -3.04083       -7.55528
|  7> S          3.00462       -1.09621       -6.38926
|  8> O          4.12886       -0.32965       -6.95372
|  9> O          1.78128       -1.00078       -7.13640
| 10> O          2.85155       -0.78368       -4.95679
| 11> H          5.62703       -2.52424       -6.49422
| 12> H          5.12164       -4.14387       -6.07654
| 13> H          4.95004       -2.84862       -4.91639
| 14> *
| 15>
| 16> %MaxCore 64000
| 17>
| 18> %pal nprocs 4
| 19> end
| 20>
| 21> %scf
| 22>   MaxIter 150
| 23> end
| 24>
| 25>
| 26>                          ****END OF INPUT****

CARTESIAN COORDINATES (ANGSTROEM)
---------------------------------
  C      4.906460   -3.102820   -5.954840
  C      3.511770   -2.806210   -6.492280
  H      2.736040   -3.373450   -5.973740
  H      3.444900   -3.040830   -7.555280
  S      3.004620   -1.096210   -6.389260
  O      4.128860   -0.329650   -6.953720
  O      1.781280   -1.000780   -7.136400
  O      2.851550   -0.783680   -4.956790
  H      5.627030   -2.524240   -6.494220
  H      5.121640   -4.143870   -6.076540
  H      4.950040   -2.848620   -4.916390

 Total Charge           Charge          ....   -1
 Multiplicity           Mult            ....    1
 Number of Electrons    NEL             ....   58
 Basis Dimension        Dim             ....  176

ORBITAL ENERGIES
----------------

  NO   OCC          E(Eh)            E(eV)
   0   2.0000     -88.879928     -2418.5458
   1   2.0000     -18.922382      -514.9042
   2   2.0000     -18.910868      -514.5909
   3   2.0000     -18.910539      -514.5819
   4   2.0000     -10.049280      -273.4548
   5   2.0000     -10.042595      -273.2729
   6   2.0000      -7.933851      -215.8911
   7   2.0000      -5.902794      -160.6232
   8   2.0000      -5.902694      -160.6205
   9   2.0000      -5.902051      -160.6030
  10   2.0000      -0.928607       -25.2687
  11   2.0000      -0.787852       -21.4385
  12   2.0000      -0.766979       -20.8705
  13   2.0000      -0.631265       -17.1776
  14   2.0000      -0.508585       -13.8393
  15   2.0000      -0.381662       -10.3855
  16   2.0000      -0.322463        -8.7747
  17   2.0000      -0.316055        -8.6003
  18   2.0000      -0.279550        -7.6070
  19   2.0000      -0.264223        -7.1899
  20   2.0000      -0.257687        -7.0120
  21   2.0000      -0.234315        -6.3760
  22   2.0000      -0.218153        -5.9363
  23   2.0000      -0.150853        -4.1049
  24   2.0000      -0.150341        -4.0910
  25   2.0000      -0.115811        -3.1514
  26   2.0000      -0.107746        -2.9319
  27   2.0000      -0.102520        -2.7897
  28   2.0000      -0.064501        -1.7552
  29   0.0000       0.140403         3.8206
  30   0.0000       0.167931         4.5696
  31   0.0000       0.178059         4.8452
  32   0.0000       0.184777         5.0280
  33   0.0000       0.205454         5.5907

MULLIKEN ATOMIC CHARGES
-----------------------
   0 C :    0.995946
   1 C :   -0.190506
   2 H :   -0.153327
   3 H :   -0.120206
   4 S :    1.345401
   5 O :   -0.831181
   6 O :   -0.788459
   7 O :   -0.829749
   8 H :   -0.117154
   9 H :   -0.188131
  10 H :   -0.122635
Sum of atomic charges:   -1.0000000

LOEWDIN ATOMIC CHARGES
----------------------
   0 C :    0.113144
   1 C :   -0.135156
   2 H :    0.002249
   3 H :   -0.000723
   4 S :    0.857106
   5 O :   -0.588975
   6 O :   -0.573704
   7 O :   -0.592780
   8 H :   -0.024729
   9 H :   -0.037174
  10 H :   -0.019259

  Mayer bond orders larger than 0.100000
B(  0-C ,  1-C ) :   1.2616 B(  0-C ,  8-H ) :   0.7768 B(  0-C ,  9-H ) :   0.6762
B(  0-C , 10-H ) :   0.7645 B(  1-C ,  2-H ) :   0.9537 B(  1-C ,  3-H ) :   0.9579
B(  1-C ,  4-S ) :   0.9176 B(  1-C ,  8-H ) :   0.2252 B(  1-C ,  9-H ) :   0.2566
B(  1-C , 10-H ) :   0.2171 B(  4-S ,  5-O ) :   1.2621 B(  4-S ,  6-O ) :   1.3287
B(  4-S ,  7-O ) :   1.2592

Dispersion correction           -0.016731904
FINAL SINGLE POINT ENERGY      -702.589749143016

DIPOLE MOMENT
-------------
                                X             Y             Z
Electronic contribution:     -4.33428       6.32936      -0.66295
Nuclear contribution   :      5.05690      -8.21735       0.57889
                        -----------------------------------------
Total Dipole Moment    :      0.72262      -1.88799      -0.08405
                        -----------------------------------------
Magnitude (a.u.)       :      2.02331
Magnitude (Debye)      :      5.14283

Rotational constants in cm-1:     0.162547     0.083494     0.081672
Rotational constants in MHz :  4873.033504  2503.090885  2448.458543

                             ****ORCA TERMINATED NORMALLY****
TOTAL RUN TIME: 0 days 0 hours 0 minutes 16 seconds 145 msec
