                         Program Version 5.0.0 -  RELEASE  -
|  1> !B3LYP D3BJ RIJCOSX def2-SVPD def2/J TightSCF
|  2> *xyz 1 1
|  3> C          4.49059        1.15590       -2.46929
|  4> N          4.30539        1.22276       -3.90832
|  5> C          4.63192        2.24637       -4.67096
|  6> N          4.54169        2.14399       -5.98714
|  7> N          5.08409        3.39358       -4.11855
|  8> H          4.92067        3.57050       -3.13587
|  9> H          5.25465        4.19739       -4.70696
| 10> H          3.82453        0.44911       -4.35093
| 11> H          4.34337        1.24932       -6.41665
| 12> H          4.67671        2.95662       -6.57411
| 13> C          5.94213        0.93950       -2.03689
| 14> H          3.86431        0.32853       -2.13661
| 15> H          4.07623        2.04999       -1.98901
| 16> H          6.32982        0.06401       -2.51451
| 17> H          5.98308        0.81426       -0.97504
| 18> H          6.52865        1.78889       -2.31873
| 19> *
| 20>
| 21> %MaxCore 64000
| 22>
| 23> %pal nprocs 4
| 24> end
| 25>
| 26> %scf
| 27>   MaxIter 150
| 28> end
| 29>
| 30>
| 31>                          ****END OF INPUT****

CARTESIAN COORDINATES (ANGSTROEM)
---------------------------------
  C      4.490590    1.155900   -2.469290
  N      4.305390    1.222760   -3.908320
  C      4.631920    2.246370   -4.670960
  N      4.541690    2.143990   -5.987140
  N      5.084090    3.393580   -4.118550
  H      4.920670    3.570500   -3.135870
  H      5.254650    4.197390   -4.706960
  H      3.824530    0.449110   -4.350930
  H      4.343370    1.249320   -6.416650
  H      4.676710    2.956620   -6.574110
  C      5.942130    0.939500   -2.036890
  H      3.864310    0.328530   -2.136610
  H      4.076230    2.049990   -1.989010
  H      6.329820    0.064010   -2.514510
  H      5.983080    0.814260   -0.975040
  H      6.528650    1.788890   -2.318730

 Total Charge           Charge          ....    1
 Multiplicity           Mult            ....    1
 Number of Electrons    NEL             ....   48
 Basis Dimension        Dim             ....  200

ORBITAL ENERGIES
----------------

  NO   OCC          E(Eh)            E(eV)
   0   2.0000     -14.554556      -396.0496
   1   2.0000     -14.554052      -396.0359
   2   2.0000     -14.551975      -395.9794
   3   2.0000     -10.518244      -286.2160
   4   2.0000     -10.390859      -282.7496
   5   2.0000     -10.318667      -280.7852
   6   2.0000      -1.207639       -32.8615
   7   2.0000      -1.098617       -29.8949
   8   2.0000      -1.082955       -29.4687
   9   2.0000      -0.924597       -25.1596
  10   2.0000      -0.841633       -22.9020
  11   2.0000      -0.799492       -21.7553
  12   2.0000      -0.787270       -21.4227
  13   2.0000      -0.742429       -20.2025
  14   2.0000      -0.694027       -18.8854
  15   2.0000      -0.692100       -18.8330
  16   2.0000      -0.661086       -17.9891
  17   2.0000      -0.626125       -17.0377
  18   2.0000      -0.603801       -16.4302
  19   2.0000      -0.558974       -15.2104
  20   2.0000      -0.531904       -14.4738
  21   2.0000      -0.512697       -13.9512
  22   2.0000      -0.477547       -12.9947
  23   2.0000      -0.452551       -12.3145
  24   0.0000      -0.171688        -4.6719
  25   0.0000      -0.156643        -4.2625
  26   0.0000      -0.123260        -3.3541
  27   0.0000      -0.117438        -3.1956
  28   0.0000      -0.094226        -2.5640

MULLIKEN ATOMIC CHARGES
-----------------------
   0 C :    0.426337
   1 N :   -0.287049
   2 C :    1.290423
   3 N :    0.074993
   4 N :    0.093991
   5 H :   -0.060395
   6 H :   -0.207766
   7 H :   -0.259565
   8 H :   -0.092548
   9 H :   -0.083232
  10 C :    0.890246
  11 H :   -0.411791
  12 H :   -0.073298
  13 H :   -0.124223
  14 H :   -0.066861
  15 H :   -0.109264
Sum of atomic charges:    1.0000000

LOEWDIN ATOMIC CHARGES
----------------------
   0 C :    0.041562
   1 N :    0.045535
   2 C :   -0.036226
   3 N :    0.267702
   4 N :    0.288020
   5 H :    0.015072
   6 H :    0.033965
   7 H :    0.060473
   8 H :    0.040330
   9 H :    0.039453
  10 C :    0.170532
  11 H :    0.038669
  12 H :    0.026479
  13 H :   -0.006867
  14 H :    0.000428
  15 H :   -0.025126

  Mayer bond orders larger than 0.100000
B(  0-C ,  1-N ) :   0.9427 B(  0-C ,  2-C ) :  -0.1115 B(  0-C ,  7-H ) :  -0.1520
B(  0-C , 10-C ) :   1.2622 B(  0-C , 11-H ) :   0.8352 B(  0-C , 12-H ) :   0.8542
B(  0-C , 13-H ) :   0.2664 B(  0-C , 14-H ) :   0.1701 B(  0-C , 15-H ) :   0.2083
B(  1-N ,  2-C ) :   1.0388 B(  1-N ,  3-N ) :   0.2503 B(  1-N ,  4-N ) :   0.2240
B(  1-N ,  7-H ) :   1.2878 B(  1-N , 11-H ) :   0.1886 B(  1-N , 12-H ) :   0.1043
B(  2-C ,  3-N ) :   0.8762 B(  2-C ,  4-N ) :   0.9314 B(  2-C ,  5-H ) :  -0.1325
B(  2-C ,  6-H ) :  -0.1807 B(  2-C ,  7-H ) :  -0.2672 B(  2-C ,  8-H ) :  -0.1773
B(  2-C ,  9-H ) :  -0.1483 B(  3-N ,  4-N ) :   0.1559 B(  3-N ,  8-H ) :   1.2062
B(  3-N ,  9-H ) :   1.2349 B(  4-N ,  5-H ) :   1.0999 B(  4-N ,  6-H ) :   1.2827
B(  5-H ,  6-H ) :  -0.2118 B(  8-H ,  9-H ) :  -0.1846 B( 10-C , 13-H ) :   0.7599
B( 10-C , 14-H ) :   0.7977 B( 10-C , 15-H ) :   0.7772

Dispersion correction           -0.020389671
FINAL SINGLE POINT ENERGY      -284.058720207363

DIPOLE MOMENT
-------------
                                X             Y             Z
Electronic contribution:     -1.80872       1.57663      -4.45800
Nuclear contribution   :      1.34333      -1.11039       3.43667
                        -----------------------------------------
Total Dipole Moment    :     -0.46540       0.46624      -1.02133
                        -----------------------------------------
Magnitude (a.u.)       :      1.21535
Magnitude (Debye)      :      3.08918

Rotational constants in cm-1:     0.227161     0.075356     0.065003
Rotational constants in MHz :  6810.114531  2259.122204  1948.738523

                             ****ORCA TERMINATED NORMALLY****
TOTAL RUN TIME: 0 days 0 hours 0 minutes 20 seconds 637 msec
