                         Program Version 5.0.0 -  RELEASE  -
|  1> !B3LYP D3BJ RIJCOSX def2-SVPD def2/J TightSCF
|  2> *xyz 0 1
|  3> C          4.90646       -3.10282       -5.95484
|  4> C          3.51177       -2.80621       -6.49228
|  5> H          2.73604       -3.37345       -5.97374
|  6> H          3.44490       -3.04083       -7.55528
|  7> S          3.00462       -1.09621       -6.38926
|  8> F          4.12886       -0.32965       -6.95372
|  9> O          1.78128       -1.00078       -7.13640
| 10> O          2.85155       -0.78368       -4.95679
| 11> H          5.62703       -2.52424       -6.49422
| 12> H          5.12164       -4.14387       -6.07654
| 13> H          4.95004       -2.84862       -4.91639
| 14> *
| 15>
| 16> %MaxCore 64000
| 17>
| 18> %pal nprocs 4
| 19> end
| 20>
| 21> %scf
| 22>   MaxIter 150
| 23> end
| 24>
| 25>
| 26>                          ****END OF INPUT****

CARTESIAN COORDINATES (ANGSTROEM)
---------------------------------
  C      4.906460   -3.102820   -5.954840
  C      3.511770   -2.806210   -6.492280
  H      2.736040   -3.373450   -5.973740
  H      3.444900   -3.040830   -7.555280
  S      3.004620   -1.096210   -6.389260
  F      4.128860   -0.329650   -6.953720
  O      1.781280   -1.000780   -7.136400
  O      2.851550   -0.783680   -4.956790
  H      5.627030   -2.524240   -6.494220
  H      5.121640   -4.143870   -6.076540
  H      4.950040   -2.848620   -4.916390

 Total Charge           Charge          ....    0
 Multiplicity           Mult            ....    1
 Number of Electrons    NEL             ....   58
 Basis Dimension        Dim             ....  176

ORBITAL ENERGIES
----------------

  NO   OCC          E(Eh)            E(eV)
   0   2.0000     -89.137580     -2425.5569
   1   2.0000     -24.802235      -674.9031
   2   2.0000     -19.156069      -521.2631
   3   2.0000     -19.144111      -520.9377
   4   2.0000     -10.251197      -278.9492
   5   2.0000     -10.211227      -277.8616
   6   2.0000      -8.192345      -222.9250
   7   2.0000      -6.165289      -167.7661
   8   2.0000      -6.159080      -167.5971
   9   2.0000      -6.157596      -167.5567
  10   2.0000      -1.352912       -36.8146
  11   2.0000      -1.113580       -30.3020
  12   2.0000      -1.011099       -27.5134
  13   2.0000      -0.828021       -22.5316
  14   2.0000      -0.727952       -19.8086
  15   2.0000      -0.679158       -18.4808
  16   2.0000      -0.589676       -16.0459
  17   2.0000      -0.573168       -15.5967
  18   2.0000      -0.549156       -14.9433
  19   2.0000      -0.500929       -13.6310
  20   2.0000      -0.482297       -13.1240
  21   2.0000      -0.459220       -12.4960
  22   2.0000      -0.442790       -12.0489
  23   2.0000      -0.416961       -11.3461
  24   2.0000      -0.404811       -11.0155
  25   2.0000      -0.385620       -10.4933
  26   2.0000      -0.341506        -9.2928
  27   2.0000      -0.330189        -8.9849
  28   2.0000      -0.314373        -8.5545
  29   0.0000      -0.010562        -0.2874
  30   0.0000       0.025712         0.6997
  31   0.0000       0.033298         0.9061
  32   0.0000       0.035648         0.9700
  33   0.0000       0.046532         1.2662

MULLIKEN ATOMIC CHARGES
-----------------------
   0 C :    1.006858
   1 C :   -0.206641
   2 H :   -0.098133
   3 H :   -0.073907
   4 S :    1.491587
   5 F :   -0.420639
   6 O :   -0.645532
   7 O :   -0.691616
   8 H :   -0.113336
   9 H :   -0.151463
  10 H :   -0.097178
Sum of atomic charges:    0.0000000

LOEWDIN ATOMIC CHARGES
----------------------
   0 C :    0.142854
   1 C :   -0.087024
   2 H :    0.035525
   3 H :    0.019740
   4 S :    1.119380
   5 F :   -0.269310
   6 O :   -0.459577
   7 O :   -0.477079
   8 H :   -0.012882
   9 H :   -0.007037
  10 H :   -0.004589

  Mayer bond orders larger than 0.100000
B(  0-C ,  1-C ) :   1.2830 B(  0-C ,  8-H ) :   0.7714 B(  0-C ,  9-H ) :   0.6843
B(  0-C , 10-H ) :   0.7742 B(  1-C ,  2-H ) :   0.9537 B(  1-C ,  3-H ) :   0.9609
B(  1-C ,  4-S ) :   0.9840 B(  1-C ,  8-H ) :   0.2106 B(  1-C ,  9-H ) :   0.2463
B(  1-C , 10-H ) :   0.2106 B(  4-S ,  5-F ) :   0.6320 B(  4-S ,  6-O ) :   1.5473
B(  4-S ,  7-O ) :   1.4818

Dispersion correction           -0.015893933
FINAL SINGLE POINT ENERGY      -727.086564078045

DIPOLE MOMENT
-------------
                                X             Y             Z
Electronic contribution:     -2.96740       8.13369      -1.74798
Nuclear contribution   :      4.18919      -9.36357       1.23251
                        -----------------------------------------
Total Dipole Moment    :      1.22179      -1.22988      -0.51547
                        -----------------------------------------
Magnitude (a.u.)       :      1.80862
Magnitude (Debye)      :      4.59714

Rotational constants in cm-1:     0.153152     0.082513     0.079874
Rotational constants in MHz :  4591.373714  2473.673397  2394.575279

                             ****ORCA TERMINATED NORMALLY****
TOTAL RUN TIME: 0 days 0 hours 0 minutes 15 seconds 525 msec
