                         Program Version 5.0.0 -  RELEASE  -
|  1> !B3LYP D3BJ RIJCOSX def2-SVPD def2/J TightSCF
|  2> *xyz 0 1
|  3> C          4.49059        1.15590       -2.46929
|  4> C          4.30539        1.22276       -3.90832
|  5> C          4.63192        2.24637       -4.67096
|  6> N          4.54169        2.14399       -5.98714
|  7> N          5.08409        3.39358       -4.11855
|  8> H          4.92067        3.57050       -3.13587
|  9> H          5.25465        4.19739       -4.70696
| 10> H          3.82453        0.44911       -4.35093
| 11> H          4.34337        1.24932       -6.41665
| 12> H          4.67671        2.95662       -6.57411
| 13> C          5.94213        0.93950       -2.03689
| 14> H          3.86431        0.32853       -2.13661
| 15> H          4.07623        2.04999       -1.98901
| 16> H          6.32982        0.06401       -2.51451
| 17> H          5.98308        0.81426       -0.97504
| 18> H          6.52865        1.78889       -2.31873
| 19> *
| 20>
| 21> %MaxCore 64000
| 22>
| 23> %pal nprocs 4
| 24> end
| 25>
| 26> %scf
| 27>   MaxIter 150
| 28> end
| 29>
| 30>
| 31>                          ****END OF INPUT****

CARTESIAN COORDINATES (ANGSTROEM)
---------------------------------
  C      4.490590    1.155900   -2.469290
  C      4.305390    1.222760   -3.908320
  C      4.631920    2.246370   -4.670960
  N      4.541690    2.143990   -5.987140
  N      5.084090    3.393580   -4.118550
  H      4.920670    3.570500   -3.135870
  H      5.254650    4.197390   -4.706960
  H      3.824530    0.449110   -4.350930
  H      4.343370    1.249320   -6.416650
  H      4.676710    2.956620   -6.574110
  C      5.942130    0.939500   -2.036890
  H      3.864310    0.328530   -2.136610
  H      4.076230    2.049990   -1.989010
  H      6.329820    0.064010   -2.514510
  H      5.983080    0.814260   -0.975040
  H      6.528650    1.788890   -2.318730

 Total Charge           Charge          ....    0
 Multiplicity           Mult            ....    1
 Number of Electrons    NEL             ....   48
 Basis Dimension        Dim             ....  200

ORBITAL ENERGIES
----------------

  NO   OCC          E(Eh)            E(eV)
   0   2.0000     -14.331495      -389.9798
   1   2.0000     -14.329348      -389.9214
   2   2.0000     -10.224474      -278.2221
   3   2.0000     -10.156386      -276.3693
   4   2.0000     -10.146110      -276.0897
   5   2.0000     -10.103647      -274.9342
   6   2.0000      -0.950701       -25.8699
   7   2.0000      -0.861217       -23.4349
   8   2.0000      -0.764344       -20.7989
   9   2.0000      -0.687577       -18.7099
  10   2.0000      -0.612937       -16.6789
  11   2.0000      -0.575428       -15.6582
  12   2.0000      -0.541945       -14.7471
  13   2.0000      -0.506760       -13.7896
  14   2.0000      -0.476369       -12.9627
  15   2.0000      -0.436902       -11.8887
  16   2.0000      -0.420015       -11.4292
  17   2.0000      -0.391158       -10.6439
  18   2.0000      -0.382693       -10.4136
  19   2.0000      -0.350056        -9.5255
  20   2.0000      -0.328998        -8.9525
  21   2.0000      -0.317201        -8.6315
  22   2.0000      -0.264992        -7.2108
  23   2.0000      -0.160568        -4.3693
  24   0.0000       0.011814         0.3215
  25   0.0000       0.037182         1.0118
  26   0.0000       0.048247         1.3129
  27   0.0000       0.058482         1.5914
  28   0.0000       0.075120         2.0441

MULLIKEN ATOMIC CHARGES
-----------------------
   0 C :   -0.021229
   1 C :   -0.281228
   2 C :    1.019757
   3 N :    0.114841
   4 N :    0.109371
   5 H :   -0.083622
   6 H :   -0.315552
   7 H :   -0.504274
   8 H :   -0.089981
   9 H :   -0.212159
  10 C :    0.870219
  11 H :   -0.122384
  12 H :   -0.117829
  13 H :   -0.124804
  14 H :   -0.106037
  15 H :   -0.135088
Sum of atomic charges:   -0.0000000

LOEWDIN ATOMIC CHARGES
----------------------
   0 C :   -0.099953
   1 C :   -0.034361
   2 C :   -0.218581
   3 N :    0.181668
   4 N :    0.210108
   5 H :   -0.015041
   6 H :   -0.015467
   7 H :   -0.054255
   8 H :    0.006738
   9 H :   -0.011883
  10 C :    0.127321
  11 H :    0.011463
  12 H :    0.001118
  13 H :   -0.022242
  14 H :   -0.030952
  15 H :   -0.035679

  Mayer bond orders larger than 0.100000
B(  0-C ,  1-C ) :   1.2369 B(  0-C ,  7-H ) :   0.3232 B(  0-C , 10-C ) :   1.2386
B(  0-C , 11-H ) :   0.7659 B(  0-C , 12-H ) :   0.8384 B(  0-C , 13-H ) :   0.2043
B(  0-C , 14-H ) :   0.1887 B(  0-C , 15-H ) :   0.2342 B(  1-C ,  2-C ) :   1.4257
B(  1-C ,  3-N ) :   0.4081 B(  1-C ,  4-N ) :   0.2362 B(  1-C ,  7-H ) :   0.8932
B(  1-C , 11-H ) :   0.3463 B(  1-C , 12-H ) :   0.1834 B(  2-C ,  3-N ) :   0.8340
B(  2-C ,  4-N ) :   0.9499 B(  2-C ,  6-H ) :  -0.1769 B(  2-C ,  8-H ) :  -0.1034
B(  3-N ,  4-N ) :   0.1084 B(  3-N ,  8-H ) :   1.1896 B(  3-N ,  9-H ) :   1.2333
B(  4-N ,  5-H ) :   1.0819 B(  4-N ,  6-H ) :   1.3160 B(  5-H ,  6-H ) :  -0.1951
B(  7-H , 11-H ) :  -0.1187 B(  8-H ,  9-H ) :  -0.1742 B( 10-C , 13-H ) :   0.8040
B( 10-C , 14-H ) :   0.7833 B( 10-C , 15-H ) :   0.7691

Dispersion correction           -0.021319054
FINAL SINGLE POINT ENERGY      -267.588631588348

DIPOLE MOMENT
-------------
                                X             Y             Z
Electronic contribution:     -1.26810       1.96482      -4.12670
Nuclear contribution   :      1.23062      -1.24683       3.43056
                        -----------------------------------------
Total Dipole Moment    :     -0.03748       0.71799      -0.69613
                        -----------------------------------------
Magnitude (a.u.)       :      1.00076
Magnitude (Debye)      :      2.54373

Rotational constants in cm-1:     0.231477     0.075416     0.065327
Rotational constants in MHz :  6939.497385  2260.912204  1958.442932

                             ****ORCA TERMINATED NORMALLY****
TOTAL RUN TIME: 0 days 0 hours 0 minutes 23 seconds 782 msec
