                         Program Version 5.0.0 -  RELEASE  -
|  1> !B3LYP D3BJ RIJCOSX def2-SVPD def2/J TightSCF
|  2> *xyz 0 1
|  3> C          4.90646       -3.10282       -5.95484
|  4> C          3.51177       -2.80621       -6.49228
|  5> H          2.73604       -3.37345       -5.97374
|  6> H          3.44490       -3.04083       -7.55528
|  7> S          3.00462       -1.09621       -6.38926
|  8> O          4.12886       -0.32965       -6.95372
|  9> F          1.78128       -1.00078       -7.13640
| 10> O          2.85155       -0.78368       -4.95679
| 11> H          5.62703       -2.52424       -6.49422
| 12> H          5.12164       -4.14387       -6.07654
| 13> H          4.95004       -2.84862       -4.91639
| 14> *
| 15>
| 16> %MaxCore 64000
| 17>
| 18> %pal nprocs 4
| 19> end
| 20>
| 21> %scf
| 22>   MaxIter 150
| 23> end
| 24>
| 25>
| 26>                          ****END OF INPUT****

CARTESIAN COORDINATES (ANGSTROEM)
---------------------------------
  C      4.906460   -3.102820   -5.954840
  C      3.511770   -2.806210   -6.492280
  H      2.736040   -3.373450   -5.973740
  H      3.444900   -3.040830   -7.555280
  S      3.004620   -1.096210   -6.389260
  O      4.128860   -0.329650   -6.953720
  F      1.781280   -1.000780   -7.136400
  O      2.851550   -0.783680   -4.956790
  H      5.627030   -2.524240   -6.494220
  H      5.121640   -4.143870   -6.076540
  H      4.950040   -2.848620   -4.916390

 Total Charge           Charge          ....    0
 Multiplicity           Mult            ....    1
 Number of Electrons    NEL             ....   58
 Basis Dimension        Dim             ....  176

ORBITAL ENERGIES
----------------

  NO   OCC          E(Eh)            E(eV)
   0   2.0000     -89.139433     -2425.6073
   1   2.0000     -24.820463      -675.3991
   2   2.0000     -19.144313      -520.9433
   3   2.0000     -19.144244      -520.9414
   4   2.0000     -10.252074      -278.9731
   5   2.0000     -10.206647      -277.7370
   6   2.0000      -8.194245      -222.9768
   7   2.0000      -6.167275      -167.8201
   8   2.0000      -6.160799      -167.6439
   9   2.0000      -6.159392      -167.6056
  10   2.0000      -1.384070       -37.6625
  11   2.0000      -1.100114       -29.9356
  12   2.0000      -0.997262       -27.1369
  13   2.0000      -0.825312       -22.4579
  14   2.0000      -0.742897       -20.2153
  15   2.0000      -0.680879       -18.5276
  16   2.0000      -0.595641       -16.2082
  17   2.0000      -0.593382       -16.1468
  18   2.0000      -0.559624       -15.2281
  19   2.0000      -0.501426       -13.6445
  20   2.0000      -0.484455       -13.1827
  21   2.0000      -0.444415       -12.0931
  22   2.0000      -0.437401       -11.9023
  23   2.0000      -0.414522       -11.2797
  24   2.0000      -0.394679       -10.7398
  25   2.0000      -0.382122       -10.3981
  26   2.0000      -0.329354        -8.9622
  27   2.0000      -0.328663        -8.9434
  28   2.0000      -0.303346        -8.2545
  29   0.0000      -0.006379        -0.1736
  30   0.0000       0.015174         0.4129
  31   0.0000       0.034009         0.9254
  32   0.0000       0.037491         1.0202
  33   0.0000       0.050542         1.3753

MULLIKEN ATOMIC CHARGES
-----------------------
   0 C :    0.985930
   1 C :   -0.232640
   2 H :   -0.093918
   3 H :   -0.062579
   4 S :    1.519551
   5 O :   -0.682001
   6 F :   -0.410435
   7 O :   -0.681164
   8 H :   -0.093551
   9 H :   -0.148829
  10 H :   -0.100365
Sum of atomic charges:   -0.0000000

LOEWDIN ATOMIC CHARGES
----------------------
   0 C :    0.157752
   1 C :   -0.099525
   2 H :    0.021518
   3 H :    0.017310
   4 S :    1.124488
   5 O :   -0.476985
   6 F :   -0.254154
   7 O :   -0.478006
   8 H :   -0.006339
   9 H :   -0.005017
  10 H :   -0.001043

  Mayer bond orders larger than 0.100000
B(  0-C ,  1-C ) :   1.3304 B(  0-C ,  3-H ) :   0.1009 B(  0-C ,  8-H ) :   0.7750
B(  0-C ,  9-H ) :   0.6904 B(  0-C , 10-H ) :   0.7655 B(  1-C ,  2-H ) :   0.9437
B(  1-C ,  3-H ) :   0.9370 B(  1-C ,  4-S ) :   0.9573 B(  1-C ,  8-H ) :   0.2189
B(  1-C ,  9-H ) :   0.2451 B(  1-C , 10-H ) :   0.2104 B(  4-S ,  5-O ) :   1.4789
B(  4-S ,  6-F ) :   0.6830 B(  4-S ,  7-O ) :   1.4717

Dispersion correction           -0.015988382
FINAL SINGLE POINT ENERGY      -727.071108986339

DIPOLE MOMENT
-------------
                                X             Y             Z
Electronic contribution:     -6.93430       7.01571      -2.05410
Nuclear contribution   :      6.63544      -8.66423       1.42287
                        -----------------------------------------
Total Dipole Moment    :     -0.29886      -1.64852      -0.63123
                        -----------------------------------------
Magnitude (a.u.)       :      1.79036
Magnitude (Debye)      :      4.55073

Rotational constants in cm-1:     0.158118     0.080978     0.078216
Rotational constants in MHz :  4740.271775  2427.649826  2344.849020

                             ****ORCA TERMINATED NORMALLY****
TOTAL RUN TIME: 0 days 0 hours 0 minutes 15 seconds 406 msec
