                         Program Version 5.0.0 -  RELEASE  -
|  1> !B3LYP D3BJ RIJCOSX def2-SVPD def2/J TightSCF
|  2> *xyz 0 1
|  3> C          4.49059        1.15590       -2.46929
|  4> N          4.30539        1.22276       -3.90832
|  5> C          4.63192        2.24637       -4.67096
|  6> C          4.54169        2.14399       -5.98714
|  7> N          5.08409        3.39358       -4.11855
|  8> H          4.92067        3.57050       -3.13587
|  9> H          5.25465        4.19739       -4.70696
| 10> H          3.82453        0.44911       -4.35093
| 11> H          4.34337        1.24932       -6.41665
| 12> H          4.67671        2.95662       -6.57411
| 13> C          5.94213        0.93950       -2.03689
| 14> H          3.86431        0.32853       -2.13661
| 15> H          4.07623        2.04999       -1.98901
| 16> H          6.32982        0.06401       -2.51451
| 17> H          5.98308        0.81426       -0.97504
| 18> H          6.52865        1.78889       -2.31873
| 19> *
| 20>
| 21> %MaxCore 64000
| 22>
| 23> %pal nprocs 4
| 24> end
| 25>
| 26> %scf
| 27>   MaxIter 150
| 28> end
| 29>
| 30>
| 31>                          ****END OF INPUT****

CARTESIAN COORDINATES (ANGSTROEM)
---------------------------------
  C      4.490590    1.155900   -2.469290
  N      4.305390    1.222760   -3.908320
  C      4.631920    2.246370   -4.670960
  C      4.541690    2.143990   -5.987140
  N      5.084090    3.393580   -4.118550
  H      4.920670    3.570500   -3.135870
  H      5.254650    4.197390   -4.706960
  H      3.824530    0.449110   -4.350930
  H      4.343370    1.249320   -6.416650
  H      4.676710    2.956620   -6.574110
  C      5.942130    0.939500   -2.036890
  H      3.864310    0.328530   -2.136610
  H      4.076230    2.049990   -1.989010
  H      6.329820    0.064010   -2.514510
  H      5.983080    0.814260   -0.975040
  H      6.528650    1.788890   -2.318730

 Total Charge           Charge          ....    0
 Multiplicity           Mult            ....    1
 Number of Electrons    NEL             ....   48
 Basis Dimension        Dim             ....  200

ORBITAL ENERGIES
----------------

  NO   OCC          E(Eh)            E(eV)
   0   2.0000     -14.329130      -389.9154
   1   2.0000     -14.328914      -389.9096
   2   2.0000     -10.225854      -278.2596
   3   2.0000     -10.223729      -278.2018
   4   2.0000     -10.171781      -276.7882
   5   2.0000     -10.093586      -274.6604
   6   2.0000      -0.958775       -26.0896
   7   2.0000      -0.872406       -23.7394
   8   2.0000      -0.763624       -20.7793
   9   2.0000      -0.694876       -18.9085
  10   2.0000      -0.625971       -17.0335
  11   2.0000      -0.595181       -16.1957
  12   2.0000      -0.534662       -14.5489
  13   2.0000      -0.496946       -13.5226
  14   2.0000      -0.481362       -13.0985
  15   2.0000      -0.447401       -12.1744
  16   2.0000      -0.423565       -11.5258
  17   2.0000      -0.402693       -10.9578
  18   2.0000      -0.381609       -10.3841
  19   2.0000      -0.375746       -10.2246
  20   2.0000      -0.360057        -9.7976
  21   2.0000      -0.353130        -9.6092
  22   2.0000      -0.254795        -6.9333
  23   2.0000      -0.161737        -4.4011
  24   0.0000       0.010152         0.2763
  25   0.0000       0.036975         1.0061
  26   0.0000       0.043200         1.1755
  27   0.0000       0.050776         1.3817
  28   0.0000       0.077553         2.1103

MULLIKEN ATOMIC CHARGES
-----------------------
   0 C :    0.436617
   1 N :   -0.206359
   2 C :    0.721640
   3 C :    0.446728
   4 N :    0.243502
   5 H :   -0.162354
   6 H :   -0.238305
   7 H :   -0.315853
   8 H :   -0.368133
   9 H :   -0.463471
  10 C :    0.889846
  11 H :   -0.472695
  12 H :   -0.120986
  13 H :   -0.142123
  14 H :   -0.131060
  15 H :   -0.116995
Sum of atomic charges:    0.0000000

LOEWDIN ATOMIC CHARGES
----------------------
   0 C :    0.010266
   1 N :   -0.014549
   2 C :   -0.236179
   3 C :    0.146806
   4 N :    0.206525
   5 H :   -0.029075
   6 H :    0.001985
   7 H :    0.034291
   8 H :   -0.103393
   9 H :   -0.105971
  10 C :    0.142725
  11 H :    0.016644
  12 H :    0.005875
  13 H :   -0.019139
  14 H :   -0.024125
  15 H :   -0.032685

  Mayer bond orders larger than 0.100000
B(  0-C ,  1-N ) :   0.9349 B(  0-C ,  7-H ) :  -0.1658 B(  0-C , 10-C ) :   1.2439
B(  0-C , 11-H ) :   0.8290 B(  0-C , 12-H ) :   0.8539 B(  0-C , 13-H ) :   0.2729
B(  0-C , 14-H ) :   0.1863 B(  0-C , 15-H ) :   0.2185 B(  1-N ,  2-C ) :   1.0706
B(  1-N ,  3-C ) :   0.2265 B(  1-N ,  4-N ) :   0.1676 B(  1-N ,  7-H ) :   1.2585
B(  1-N , 11-H ) :   0.1903 B(  1-N , 12-H ) :   0.1303 B(  2-C ,  3-C ) :   1.2939
B(  2-C ,  4-N ) :   0.9482 B(  2-C ,  6-H ) :  -0.1250 B(  2-C ,  7-H ) :  -0.2229
B(  2-C ,  9-H ) :   0.1515 B(  3-C ,  4-N ) :   0.2094 B(  3-C ,  8-H ) :   0.7969
B(  3-C ,  9-H ) :   0.7379 B(  4-N ,  5-H ) :   1.0627 B(  4-N ,  6-H ) :   1.2230
B(  5-H ,  6-H ) :  -0.1976 B( 10-C , 13-H ) :   0.7588 B( 10-C , 14-H ) :   0.8027
B( 10-C , 15-H ) :   0.7807

Dispersion correction           -0.021071742
FINAL SINGLE POINT ENERGY      -267.580872806299

DIPOLE MOMENT
-------------
                                X             Y             Z
Electronic contribution:     -1.42164       1.07807      -1.95294
Nuclear contribution   :      1.28075      -1.05140       2.98955
                        -----------------------------------------
Total Dipole Moment    :     -0.14089       0.02668       1.03662
                        -----------------------------------------
Magnitude (a.u.)       :      1.04649
Magnitude (Debye)      :      2.65996

Rotational constants in cm-1:     0.229858     0.078444     0.067377
Rotational constants in MHz :  6890.979812  2351.691803  2019.910665

                             ****ORCA TERMINATED NORMALLY****
TOTAL RUN TIME: 0 days 0 hours 0 minutes 21 seconds 323 msec
