                         Program Version 5.0.0 -  RELEASE  -
|  1> !B3LYP D3BJ RIJCOSX def2-SVPD def2/J TightSCF
|  2> *xyz 0 1
|  3> C          4.90646       -3.10282       -5.95484
|  4> C          3.51177       -2.80621       -6.49228
|  5> H          2.73604       -3.37345       -5.97374
|  6> H          3.44490       -3.04083       -7.55528
|  7> S          3.00462       -1.09621       -6.38926
|  8> O          4.12886       -0.32965       -6.95372
|  9> O          1.78128       -1.00078       -7.13640
| 10> F          2.85155       -0.78368       -4.95679
| 11> H          5.62703       -2.52424       -6.49422
| 12> H          5.12164       -4.14387       -6.07654
| 13> H          4.95004       -2.84862       -4.91639
| 14> *
| 15>
| 16> %MaxCore 64000
| 17>
| 18> %pal nprocs 4
| 19> end
| 20>
| 21> %scf
| 22>   MaxIter 150
| 23> end
| 24>
| 25>
| 26>                          ****END OF INPUT****

CARTESIAN COORDINATES (ANGSTROEM)
---------------------------------
  C      4.906460   -3.102820   -5.954840
  C      3.511770   -2.806210   -6.492280
  H      2.736040   -3.373450   -5.973740
  H      3.444900   -3.040830   -7.555280
  S      3.004620   -1.096210   -6.389260
  O      4.128860   -0.329650   -6.953720
  O      1.781280   -1.000780   -7.136400
  F      2.851550   -0.783680   -4.956790
  H      5.627030   -2.524240   -6.494220
  H      5.121640   -4.143870   -6.076540
  H      4.950040   -2.848620   -4.916390

 Total Charge           Charge          ....    0
 Multiplicity           Mult            ....    1
 Number of Electrons    NEL             ....   58
 Basis Dimension        Dim             ....  176

ORBITAL ENERGIES
----------------

  NO   OCC          E(Eh)            E(eV)
   0   2.0000     -89.137646     -2425.5587
   1   2.0000     -24.801872      -674.8933
   2   2.0000     -19.156236      -521.2677
   3   2.0000     -19.144447      -520.9469
   4   2.0000     -10.251073      -278.9459
   5   2.0000     -10.208201      -277.7793
   6   2.0000      -8.192397      -222.9265
   7   2.0000      -6.165297      -167.7663
   8   2.0000      -6.159132      -167.5985
   9   2.0000      -6.157701      -167.5596
  10   2.0000      -1.351948       -36.7884
  11   2.0000      -1.113677       -30.3047
  12   2.0000      -1.012778       -27.5591
  13   2.0000      -0.825715       -22.4688
  14   2.0000      -0.727348       -19.7921
  15   2.0000      -0.678049       -18.4506
  16   2.0000      -0.586880       -15.9698
  17   2.0000      -0.572103       -15.5677
  18   2.0000      -0.550965       -14.9925
  19   2.0000      -0.499501       -13.5921
  20   2.0000      -0.484565       -13.1857
  21   2.0000      -0.460392       -12.5279
  22   2.0000      -0.438901       -11.9431
  23   2.0000      -0.413050       -11.2397
  24   2.0000      -0.404984       -11.0202
  25   2.0000      -0.383452       -10.4342
  26   2.0000      -0.341664        -9.2971
  27   2.0000      -0.330714        -8.9992
  28   2.0000      -0.315899        -8.5961
  29   0.0000      -0.010179        -0.2770
  30   0.0000       0.023753         0.6464
  31   0.0000       0.031872         0.8673
  32   0.0000       0.035735         0.9724
  33   0.0000       0.046079         1.2539

MULLIKEN ATOMIC CHARGES
-----------------------
   0 C :    1.018777
   1 C :   -0.220798
   2 H :   -0.103924
   3 H :   -0.064745
   4 S :    1.496919
   5 O :   -0.693835
   6 O :   -0.648145
   7 F :   -0.421281
   8 H :   -0.090844
   9 H :   -0.149057
  10 H :   -0.123067
Sum of atomic charges:    0.0000000

LOEWDIN ATOMIC CHARGES
----------------------
   0 C :    0.143567
   1 C :   -0.088603
   2 H :    0.021259
   3 H :    0.032061
   4 S :    1.121014
   5 O :   -0.475143
   6 O :   -0.459950
   7 F :   -0.269409
   8 H :   -0.008486
   9 H :   -0.007439
  10 H :   -0.008871

  Mayer bond orders larger than 0.100000
B(  0-C ,  1-C ) :   1.2900 B(  0-C ,  8-H ) :   0.7822 B(  0-C ,  9-H ) :   0.6823
B(  0-C , 10-H ) :   0.7560 B(  1-C ,  2-H ) :   0.9504 B(  1-C ,  3-H ) :   0.9569
B(  1-C ,  4-S ) :   0.9861 B(  1-C ,  8-H ) :   0.2205 B(  1-C ,  9-H ) :   0.2437
B(  1-C , 10-H ) :   0.2109 B(  4-S ,  5-O ) :   1.4873 B(  4-S ,  6-O ) :   1.5442
B(  4-S ,  7-F ) :   0.6228

Dispersion correction           -0.015923725
FINAL SINGLE POINT ENERGY      -727.086925316020

DIPOLE MOMENT
-------------
                                X             Y             Z
Electronic contribution:     -5.13343       7.37667       1.63924
Nuclear contribution   :      5.52019      -8.89046      -0.84835
                        -----------------------------------------
Total Dipole Moment    :      0.38675      -1.51379       0.79088
                        -----------------------------------------
Magnitude (a.u.)       :      1.75118
Magnitude (Debye)      :      4.45115

Rotational constants in cm-1:     0.153332     0.082132     0.079755
Rotational constants in MHz :  4596.775407  2462.251277  2391.008596

                             ****ORCA TERMINATED NORMALLY****
TOTAL RUN TIME: 0 days 0 hours 0 minutes 15 seconds 665 msec
