                         Program Version 5.0.0 -  RELEASE  -
|  1> !B3LYP D3BJ RIJCOSX def2-SVPD def2/J TightSCF
|  2> *xyz 0 1
|  3> C          4.49059        1.15590       -2.46929
|  4> N          4.30539        1.22276       -3.90832
|  5> C          4.63192        2.24637       -4.67096
|  6> N          4.54169        2.14399       -5.98714
|  7> C          5.08409        3.39358       -4.11855
|  8> H          4.92067        3.57050       -3.13587
|  9> H          5.25465        4.19739       -4.70696
| 10> H          3.82453        0.44911       -4.35093
| 11> H          4.34337        1.24932       -6.41665
| 12> H          4.67671        2.95662       -6.57411
| 13> C          5.94213        0.93950       -2.03689
| 14> H          3.86431        0.32853       -2.13661
| 15> H          4.07623        2.04999       -1.98901
| 16> H          6.32982        0.06401       -2.51451
| 17> H          5.98308        0.81426       -0.97504
| 18> H          6.52865        1.78889       -2.31873
| 19> *
| 20>
| 21> %MaxCore 64000
| 22>
| 23> %pal nprocs 4
| 24> end
| 25>
| 26> %scf
| 27>   MaxIter 150
| 28> end
| 29>
| 30>
| 31>                          ****END OF INPUT****

CARTESIAN COORDINATES (ANGSTROEM)
---------------------------------
  C      4.490590    1.155900   -2.469290
  N      4.305390    1.222760   -3.908320
  C      4.631920    2.246370   -4.670960
  N      4.541690    2.143990   -5.987140
  C      5.084090    3.393580   -4.118550
  H      4.920670    3.570500   -3.135870
  H      5.254650    4.197390   -4.706960
  H      3.824530    0.449110   -4.350930
  H      4.343370    1.249320   -6.416650
  H      4.676710    2.956620   -6.574110
  C      5.942130    0.939500   -2.036890
  H      3.864310    0.328530   -2.136610
  H      4.076230    2.049990   -1.989010
  H      6.329820    0.064010   -2.514510
  H      5.983080    0.814260   -0.975040
  H      6.528650    1.788890   -2.318730

 Total Charge           Charge          ....    0
 Multiplicity           Mult            ....    1
 Number of Electrons    NEL             ....   48
 Basis Dimension        Dim             ....  200

ORBITAL ENERGIES
----------------

  NO   OCC          E(Eh)            E(eV)
   0   2.0000     -14.333227      -390.0269
   1   2.0000     -14.331568      -389.9818
   2   2.0000     -10.228963      -278.3442
   3   2.0000     -10.215553      -277.9793
   4   2.0000     -10.161752      -276.5153
   5   2.0000     -10.094972      -274.6981
   6   2.0000      -0.962752       -26.1978
   7   2.0000      -0.879440       -23.9308
   8   2.0000      -0.744946       -20.2710
   9   2.0000      -0.700378       -19.0583
  10   2.0000      -0.635370       -17.2893
  11   2.0000      -0.559011       -15.2115
  12   2.0000      -0.553165       -15.0524
  13   2.0000      -0.520561       -14.1652
  14   2.0000      -0.470554       -12.8044
  15   2.0000      -0.439080       -11.9480
  16   2.0000      -0.412915       -11.2360
  17   2.0000      -0.396567       -10.7911
  18   2.0000      -0.381182       -10.3725
  19   2.0000      -0.365136        -9.9358
  20   2.0000      -0.361034        -9.8242
  21   2.0000      -0.345949        -9.4137
  22   2.0000      -0.250814        -6.8250
  23   2.0000      -0.163433        -4.4472
  24   0.0000       0.012157         0.3308
  25   0.0000       0.034687         0.9439
  26   0.0000       0.043672         1.1884
  27   0.0000       0.055781         1.5179
  28   0.0000       0.078592         2.1386

MULLIKEN ATOMIC CHARGES
-----------------------
   0 C :    0.431943
   1 N :   -0.258906
   2 C :    0.617111
   3 N :    0.193745
   4 C :    0.515577
   5 H :   -0.191172
   6 H :   -0.603455
   7 H :   -0.385754
   8 H :   -0.217632
   9 H :   -0.110632
  10 C :    0.904336
  11 H :   -0.465834
  12 H :   -0.011239
  13 H :   -0.164027
  14 H :   -0.111677
  15 H :   -0.142384
Sum of atomic charges:    0.0000000

LOEWDIN ATOMIC CHARGES
----------------------
   0 C :    0.016937
   1 N :   -0.019974
   2 C :   -0.235683
   3 N :    0.187282
   4 C :    0.166732
   5 H :   -0.119150
   6 H :   -0.110557
   7 H :    0.019266
   8 H :   -0.009856
   9 H :    0.007552
  10 C :    0.146033
  11 H :    0.015408
  12 H :    0.014071
  13 H :   -0.022779
  14 H :   -0.023027
  15 H :   -0.032256

  Mayer bond orders larger than 0.100000
B(  0-C ,  1-N ) :   0.9438 B(  0-C ,  2-C ) :  -0.1199 B(  0-C ,  5-H ) :   0.1031
B(  0-C ,  7-H ) :  -0.1564 B(  0-C , 10-C ) :   1.2230 B(  0-C , 11-H ) :   0.8695
B(  0-C , 12-H ) :   0.8394 B(  0-C , 13-H ) :   0.2578 B(  0-C , 14-H ) :   0.1765
B(  0-C , 15-H ) :   0.2134 B(  1-N ,  2-C ) :   1.0090 B(  1-N ,  3-N ) :   0.1651
B(  1-N ,  4-C ) :   0.3614 B(  1-N ,  7-H ) :   1.3663 B(  1-N , 11-H ) :   0.1631
B(  2-C ,  3-N ) :   0.9441 B(  2-C ,  4-C ) :   1.6286 B(  2-C ,  5-H ) :   0.2812
B(  2-C ,  6-H ) :   0.1890 B(  2-C ,  7-H ) :  -0.3071 B(  3-N ,  4-C ) :   0.2547
B(  3-N ,  8-H ) :   1.1970 B(  3-N ,  9-H ) :   1.2090 B(  4-C ,  5-H ) :   0.6236
B(  4-C ,  6-H ) :   0.7690 B(  5-H ,  6-H ) :   0.1300 B(  8-H ,  9-H ) :  -0.1767
B( 10-C , 13-H ) :   0.7536 B( 10-C , 14-H ) :   0.7983 B( 10-C , 15-H ) :   0.7919

Dispersion correction           -0.021235232
FINAL SINGLE POINT ENERGY      -267.580636258032

DIPOLE MOMENT
-------------
                                X             Y             Z
Electronic contribution:     -1.89094      -0.11623      -3.82779
Nuclear contribution   :      1.39581      -0.78630       3.38596
                        -----------------------------------------
Total Dipole Moment    :     -0.49513      -0.90254      -0.44183
                        -----------------------------------------
Magnitude (a.u.)       :      1.12024
Magnitude (Debye)      :      2.84742

Rotational constants in cm-1:     0.239249     0.075811     0.066261
Rotational constants in MHz :  7172.504830  2272.756282  1986.457543

                             ****ORCA TERMINATED NORMALLY****
TOTAL RUN TIME: 0 days 0 hours 0 minutes 22 seconds 646 msec
