                         Program Version 5.0.0 -  RELEASE  -
|  1> !B3LYP D3BJ RIJCOSX def2-SVPD def2/J TightSCF xyzfile
|  2>
|  3> *xyzfile 0 1 D1.xyz
|  4>
|  5> %MaxCore 64000
|  6>
|  7> %pal nprocs 4
|  8> end
|  9>
| 10> %scf
| 11>   MaxIter 150
| 12> end
| 13>
| 14>
| 15>                          ****END OF INPUT****

CARTESIAN COORDINATES (ANGSTROEM)
---------------------------------
  C      4.490588    1.155899   -2.469290
  C      4.305394    1.222762   -3.908317
  C      4.906458   -3.102816   -5.954844
  C      3.511771   -2.806215   -6.492283
  H      2.736044   -3.373445   -5.973736
  H      3.444904   -3.040831   -7.555281
  S      3.004618   -1.096206   -6.389259
  C      4.631918    2.246365   -4.670958
  N      4.541686    2.143990   -5.987139
  N      5.084086    3.393584   -4.118545
  H      4.920675    3.570501   -3.135870
  H      5.254652    4.197390   -4.706956
  H      3.824530    0.449113   -4.350926
  H      4.343373    1.249318   -6.416646
  H      4.676712    2.956624   -6.574113
  F      4.128856   -0.329647   -6.953717
  O      1.781285   -1.000779   -7.136399
  C      5.942129    0.939500   -2.036893
  H      3.864305    0.328532   -2.136611
  H      4.076233    2.049994   -1.989010
  C      6.462677   -3.117775   -3.944671
  C      5.024977   -3.025679   -4.437625
  H      4.423321   -3.818693   -3.977648
  H      4.579350   -2.087131   -4.108727
  H      5.201533   -4.100207   -6.296905
  H      5.605922   -2.397822   -6.413368
  C      6.559957   -0.356290   -2.559086
  H      5.967976    0.952567   -0.942444
  H      6.547184    1.788331   -2.368849
  C      6.006283   -1.615917   -1.899301
  H      7.642360   -0.318000   -2.402059
  H      6.414855   -0.403433   -3.642587
  C      6.608718   -2.917014   -2.435655
  H      6.190324   -1.561115   -0.820948
  H      4.919250   -1.651245   -2.016586
  H      7.066975   -2.374258   -4.475514
  H      6.887808   -4.089747   -4.215332
  H      6.135197   -3.755573   -1.915159
  H      7.671142   -2.955503   -2.172291
  O      2.851546   -0.783683   -4.956789

 Total Charge           Charge          ....    0
 Multiplicity           Mult            ....    1
 Number of Electrons    NEL             ....  144
 Basis Dimension        Dim             ....  540

ORBITAL ENERGIES
----------------

  NO   OCC          E(Eh)            E(eV)
   0   2.0000     -89.147531     -2425.8276
   1   2.0000     -24.821306      -675.4221
   2   2.0000     -19.163916      -521.4767
   3   2.0000     -19.150504      -521.1117
   4   2.0000     -14.319550      -389.6548
   5   2.0000     -14.314993      -389.5308
   6   2.0000     -10.250958      -278.9427
   7   2.0000     -10.214224      -277.9432
   8   2.0000     -10.208796      -277.7955
   9   2.0000     -10.182898      -277.0907
  10   2.0000     -10.178071      -276.9594
  11   2.0000     -10.171309      -276.7754
  12   2.0000     -10.162277      -276.5296
  13   2.0000     -10.155356      -276.3413
  14   2.0000     -10.149977      -276.1949
  15   2.0000     -10.143353      -276.0147
  16   2.0000     -10.077207      -274.2147
  17   2.0000      -8.201162      -223.1650
  18   2.0000      -6.174334      -168.0122
  19   2.0000      -6.167959      -167.8387
  20   2.0000      -6.166239      -167.7919
  21   2.0000      -1.373408       -37.3723
  22   2.0000      -1.122787       -30.5526
  23   2.0000      -1.021617       -27.7996
  24   2.0000      -0.938517       -25.5384
  25   2.0000      -0.851107       -23.1598
  26   2.0000      -0.840507       -22.8714
  27   2.0000      -0.800318       -21.7778
  28   2.0000      -0.772463       -21.0198
  29   2.0000      -0.749959       -20.4074
  30   2.0000      -0.725939       -19.7538
  31   2.0000      -0.698934       -19.0190
  32   2.0000      -0.667815       -18.1722
  33   2.0000      -0.638172       -17.3655
  34   2.0000      -0.613382       -16.6910
  35   2.0000      -0.610193       -16.6042
  36   2.0000      -0.596336       -16.2271
  37   2.0000      -0.580056       -15.7841
  38   2.0000      -0.563669       -15.3382
  39   2.0000      -0.558753       -15.2044
  40   2.0000      -0.539275       -14.6744
  41   2.0000      -0.528396       -14.3784
  42   2.0000      -0.502767       -13.6810
  43   2.0000      -0.494062       -13.4441
  44   2.0000      -0.487413       -13.2632
  45   2.0000      -0.475462       -12.9380
  46   2.0000      -0.464442       -12.6381
  47   2.0000      -0.456808       -12.4304
  48   2.0000      -0.452164       -12.3040
  49   2.0000      -0.449782       -12.2392
  50   2.0000      -0.428479       -11.6595
  51   2.0000      -0.420238       -11.4353
  52   2.0000      -0.417223       -11.3532
  53   2.0000      -0.407274       -11.0825
  54   2.0000      -0.393832       -10.7167
  55   2.0000      -0.382532       -10.4092
  56   2.0000      -0.381867       -10.3911
  57   2.0000      -0.372275       -10.1301
  58   2.0000      -0.366191        -9.9646
  59   2.0000      -0.355713        -9.6795
  60   2.0000      -0.351493        -9.5646
  61   2.0000      -0.344455        -9.3731
  62   2.0000      -0.339490        -9.2380
  63   2.0000      -0.325797        -8.8654
  64   2.0000      -0.323550        -8.8042
  65   2.0000      -0.316173        -8.6035
  66   2.0000      -0.309974        -8.4348
  67   2.0000      -0.301708        -8.2099
  68   2.0000      -0.294557        -8.0153
  69   2.0000      -0.279117        -7.5952
  70   2.0000      -0.253563        -6.8998
  71   2.0000      -0.146116        -3.9760
  72   0.0000      -0.013024        -0.3544
  73   0.0000       0.016514         0.4494
  74   0.0000       0.021315         0.5800
  75   0.0000       0.024993         0.6801
  76   0.0000       0.028160         0.7663

MULLIKEN ATOMIC CHARGES
-----------------------
   0 C :    0.300738
   1 C :    0.314516
   2 C :    0.458055
   3 C :    0.455975
   4 H :   -0.038910
   5 H :   -0.124960
   6 S :    1.464526
   7 C :    0.884844
   8 N :    0.448319
   9 N :    0.129347
  10 H :   -0.087132
  11 H :   -0.324779
  12 H :   -0.783281
  13 H :   -0.351949
  14 H :   -0.263447
  15 F :   -0.448261
  16 O :   -0.693020
  17 C :    0.585284
  18 H :    0.031348
  19 H :   -0.285500
  20 C :    0.201168
  21 C :    0.517095
  22 H :   -0.031001
  23 H :   -0.674480
  24 H :   -0.201727
  25 H :   -0.060828
  26 C :    0.258094
  27 H :   -0.163335
  28 H :   -0.218897
  29 C :    0.082859
  30 H :   -0.211763
  31 H :   -0.149980
  32 C :    0.827804
  33 H :   -0.441601
  34 H :    0.035499
  35 H :    0.051710
  36 H :   -0.452359
  37 H :   -0.131682
  38 H :   -0.090006
  39 O :   -0.818283
Sum of atomic charges:    0.0000000

LOEWDIN ATOMIC CHARGES
----------------------
   0 C :   -0.035735
   1 C :   -0.010659
   2 C :   -0.028585
   3 C :   -0.032546
   4 H :    0.041609
   5 H :    0.022069
   6 S :    1.163655
   7 C :   -0.193387
   8 N :    0.206234
   9 N :    0.208442
  10 H :   -0.016942
  11 H :   -0.018894
  12 H :   -0.147072
  13 H :   -0.081711
  14 H :   -0.007880
  15 F :   -0.260565
  16 O :   -0.439876
  17 C :   -0.023955
  18 H :    0.009370
  19 H :    0.002814
  20 C :   -0.030601
  21 C :   -0.020389
  22 H :    0.039887
  23 H :   -0.014999
  24 H :    0.034018
  25 H :    0.023960
  26 C :   -0.026740
  27 H :    0.012045
  28 H :    0.006680
  29 C :   -0.029435
  30 H :    0.020503
  31 H :    0.002533
  32 C :   -0.024831
  33 H :    0.020616
  34 H :    0.005667
  35 H :    0.014486
  36 H :    0.019145
  37 H :    0.017582
  38 H :    0.018785
  39 O :   -0.445301

  Mayer bond orders larger than 0.100000
B(  0-C ,  1-C ) :   1.1609 B(  0-C , 12-H ) :   0.9255 B(  0-C , 17-C ) :   1.0984
B(  0-C , 18-H ) :   0.6648 B(  0-C , 19-H ) :   0.8192 B(  0-C , 26-C ) :   0.1368
B(  0-C , 27-H ) :   0.2129 B(  0-C , 28-H ) :   0.1436 B(  0-C , 30-H ) :  -0.1228
B(  1-C ,  7-C ) :   1.6670 B(  1-C ,  8-N ) :   0.3149 B(  1-C ,  9-N ) :   0.3159
B(  1-C , 10-H ) :  -0.1038 B(  1-C , 12-H ) :  -0.6073 B(  1-C , 17-C ) :   0.1230
B(  1-C , 18-H ) :   0.4385 B(  1-C , 19-H ) :   0.1881 B(  2-C ,  3-C ) :   1.1680
B(  2-C ,  5-H ) :   0.2736 B(  2-C , 20-C ) :   0.1333 B(  2-C , 21-C ) :   1.0983
B(  2-C , 22-H ) :   0.1139 B(  2-C , 24-H ) :   0.7492 B(  2-C , 25-H ) :   0.7992
B(  3-C ,  4-H ) :   0.8650 B(  3-C ,  5-H ) :   0.6923 B(  3-C ,  6-S ) :   1.0131
B(  3-C , 21-C ) :   0.1226 B(  3-C , 25-H ) :   0.1004 B(  6-S , 15-F ) :   0.5732
B(  6-S , 16-O ) :   1.4568 B(  6-S , 39-O ) :   1.5169 B(  7-C ,  8-N ) :   0.8632
B(  7-C ,  9-N ) :   0.8289 B(  7-C , 11-H ) :  -0.1784 B(  7-C , 12-H ) :  -0.1935
B(  7-C , 13-H ) :  -0.2542 B(  7-C , 14-H ) :  -0.1601 B(  8-N , 13-H ) :   1.1776
B(  8-N , 14-H ) :   1.3080 B(  9-N , 10-H ) :   1.0849 B(  9-N , 11-H ) :   1.3207
B( 10-H , 11-H ) :  -0.2002 B( 11-H , 12-H ) :  -0.1029 B( 12-H , 18-H ) :  -0.2309
B( 12-H , 39-O ) :   0.1703 B( 13-H , 14-H ) :  -0.2304 B( 13-H , 15-F ) :   0.1506
B( 16-O , 39-O ) :   0.1548 B( 17-C , 18-H ) :   0.1217 B( 17-C , 26-C ) :   1.2596
B( 17-C , 27-H ) :   0.7211 B( 17-C , 28-H ) :   0.6336 B( 17-C , 30-H ) :   0.1217
B( 17-C , 31-H ) :   0.1773 B( 18-H , 19-H ) :  -0.1275 B( 20-C , 21-C ) :   1.1901
B( 20-C , 22-H ) :   0.1259 B( 20-C , 23-H ) :   0.1431 B( 20-C , 29-C ) :   0.1548
B( 20-C , 32-C ) :   1.1186 B( 20-C , 35-H ) :   0.8239 B( 20-C , 36-H ) :   0.8536
B( 20-C , 37-H ) :   0.1181 B( 20-C , 38-H ) :   0.2597 B( 21-C , 22-H ) :   0.6519
B( 21-C , 23-H ) :   0.5940 B( 21-C , 24-H ) :   0.1967 B( 21-C , 25-H ) :   0.1233
B( 21-C , 35-H ) :   0.1203 B( 21-C , 36-H ) :   0.2015 B( 22-H , 23-H ) :   0.2072
B( 23-H , 34-H ) :   0.1217 B( 26-C , 27-H ) :   0.1361 B( 26-C , 28-H ) :   0.2601
B( 26-C , 29-C ) :   1.2130 B( 26-C , 30-H ) :   0.7516 B( 26-C , 31-H ) :   0.8367
B( 26-C , 33-H ) :   0.1463 B( 26-C , 34-H ) :   0.1179 B( 27-H , 28-H ) :  -0.1521
B( 29-C , 30-H ) :   0.1467 B( 29-C , 31-H ) :   0.1245 B( 29-C , 32-C ) :   1.1023
B( 29-C , 33-H ) :   0.9194 B( 29-C , 34-H ) :   0.8271 B( 29-C , 37-H ) :   0.3351
B( 29-C , 38-H ) :   0.1495 B( 32-C , 37-H ) :   0.5902 B( 32-C , 38-H ) :   0.6244
B( 37-H , 38-H ) :  -0.1322

Dispersion correction           -0.079637812
FINAL SINGLE POINT ENERGY     -1189.785075339285

DIPOLE MOMENT
-------------
                                X             Y             Z
Electronic contribution:    -16.30902       4.79945     -21.40903
Nuclear contribution   :     17.24138      -5.45913      20.34076
                        -----------------------------------------
Total Dipole Moment    :      0.93236      -0.65968      -1.06827
                        -----------------------------------------
Magnitude (a.u.)       :      1.56387
Magnitude (Debye)      :      3.97503

Rotational constants in cm-1:     0.014201     0.012275     0.007453
Rotational constants in MHz :   425.728191   368.008875   223.435232

                             ****ORCA TERMINATED NORMALLY****
TOTAL RUN TIME: 0 days 0 hours 5 minutes 1 seconds 567 msec
