                         Program Version 5.0.0 -  RELEASE  -
|  1> !B3LYP D3BJ RIJCOSX def2-SVPD def2/J TightSCF xyzfile
|  2>
|  3> *xyzfile 0 1 D5.xyz
|  4>
|  5> %MaxCore 64000
|  6>
|  7> %pal nprocs 4
|  8> end
|  9>
| 10> %scf
| 11>   MaxIter 150
| 12> end
| 13>
| 14>
| 15>                          ****END OF INPUT****

CARTESIAN COORDINATES (ANGSTROEM)
---------------------------------
  C      4.490588    1.155899   -2.469290
  N      4.305394    1.222762   -3.908317
  C      4.906458   -3.102816   -5.954844
  C      3.511771   -2.806215   -6.492283
  H      2.736044   -3.373445   -5.973736
  H      3.444904   -3.040831   -7.555281
  S      3.004618   -1.096206   -6.389259
  C      4.631918    2.246365   -4.670958
  C      4.541686    2.143990   -5.987139
  N      5.084086    3.393584   -4.118545
  H      4.920675    3.570501   -3.135870
  H      5.254652    4.197390   -4.706956
  H      3.824530    0.449113   -4.350926
  H      4.343373    1.249318   -6.416646
  H      4.676712    2.956624   -6.574113
  O      4.128856   -0.329647   -6.953717
  F      1.781285   -1.000779   -7.136399
  C      5.942129    0.939500   -2.036893
  H      3.864305    0.328532   -2.136611
  H      4.076233    2.049994   -1.989010
  C      6.462677   -3.117775   -3.944671
  C      5.024977   -3.025679   -4.437625
  H      4.423321   -3.818693   -3.977648
  H      4.579350   -2.087131   -4.108727
  H      5.201533   -4.100207   -6.296905
  H      5.605922   -2.397822   -6.413368
  C      6.559957   -0.356290   -2.559086
  H      5.967976    0.952567   -0.942444
  H      6.547184    1.788331   -2.368849
  C      6.006283   -1.615917   -1.899301
  H      7.642360   -0.318000   -2.402059
  H      6.414855   -0.403433   -3.642587
  C      6.608718   -2.917014   -2.435655
  H      6.190324   -1.561115   -0.820948
  H      4.919250   -1.651245   -2.016586
  H      7.066975   -2.374258   -4.475514
  H      6.887808   -4.089747   -4.215332
  H      6.135197   -3.755573   -1.915159
  H      7.671142   -2.955503   -2.172291
  O      2.851546   -0.783683   -4.956789

 Total Charge           Charge          ....    0
 Multiplicity           Mult            ....    1
 Number of Electrons    NEL             ....  144
 Basis Dimension        Dim             ....  540

ORBITAL ENERGIES
----------------

  NO   OCC          E(Eh)            E(eV)
   0   2.0000     -89.154980     -2426.0303
   1   2.0000     -24.830237      -675.6651
   2   2.0000     -19.163722      -521.4714
   3   2.0000     -19.153063      -521.1813
   4   2.0000     -14.303930      -389.2297
   5   2.0000     -14.287416      -388.7803
   6   2.0000     -10.255136      -279.0564
   7   2.0000     -10.214337      -277.9462
   8   2.0000     -10.197636      -277.4918
   9   2.0000     -10.194774      -277.4139
  10   2.0000     -10.186147      -277.1791
  11   2.0000     -10.180468      -277.0246
  12   2.0000     -10.176218      -276.9090
  13   2.0000     -10.170579      -276.7555
  14   2.0000     -10.164590      -276.5926
  15   2.0000     -10.163484      -276.5625
  16   2.0000     -10.053988      -273.5829
  17   2.0000      -8.208287      -223.3588
  18   2.0000      -6.181370      -168.2036
  19   2.0000      -6.175149      -168.0343
  20   2.0000      -6.173411      -167.9871
  21   2.0000      -1.392819       -37.9005
  22   2.0000      -1.118074       -30.4243
  23   2.0000      -1.015855       -27.6428
  24   2.0000      -0.928496       -25.2657
  25   2.0000      -0.845783       -23.0149
  26   2.0000      -0.841471       -22.8976
  27   2.0000      -0.804163       -21.8824
  28   2.0000      -0.776685       -21.1347
  29   2.0000      -0.749288       -20.3892
  30   2.0000      -0.724159       -19.7054
  31   2.0000      -0.695760       -18.9326
  32   2.0000      -0.666010       -18.1231
  33   2.0000      -0.639764       -17.4089
  34   2.0000      -0.618073       -16.8186
  35   2.0000      -0.606953       -16.5160
  36   2.0000      -0.592128       -16.1126
  37   2.0000      -0.589782       -16.0488
  38   2.0000      -0.575796       -15.6682
  39   2.0000      -0.558647       -15.2016
  40   2.0000      -0.544908       -14.8277
  41   2.0000      -0.514422       -13.9981
  42   2.0000      -0.506198       -13.7743
  43   2.0000      -0.492568       -13.4034
  44   2.0000      -0.478472       -13.0199
  45   2.0000      -0.475202       -12.9309
  46   2.0000      -0.463787       -12.6203
  47   2.0000      -0.462221       -12.5777
  48   2.0000      -0.450741       -12.2653
  49   2.0000      -0.444373       -12.0920
  50   2.0000      -0.431442       -11.7401
  51   2.0000      -0.425767       -11.5857
  52   2.0000      -0.415160       -11.2971
  53   2.0000      -0.398973       -10.8566
  54   2.0000      -0.389952       -10.6111
  55   2.0000      -0.387173       -10.5355
  56   2.0000      -0.378351       -10.2955
  57   2.0000      -0.372113       -10.1257
  58   2.0000      -0.360305        -9.8044
  59   2.0000      -0.357158        -9.7188
  60   2.0000      -0.354942        -9.6585
  61   2.0000      -0.346498        -9.4287
  62   2.0000      -0.339275        -9.2321
  63   2.0000      -0.333436        -9.0733
  64   2.0000      -0.327183        -8.9031
  65   2.0000      -0.320503        -8.7213
  66   2.0000      -0.312190        -8.4951
  67   2.0000      -0.310603        -8.4519
  68   2.0000      -0.304800        -8.2940
  69   2.0000      -0.291725        -7.9382
  70   2.0000      -0.226189        -6.1549
  71   2.0000      -0.131723        -3.5844
  72   0.0000      -0.009499        -0.2585
  73   0.0000       0.007420         0.2019
  74   0.0000       0.023370         0.6359
  75   0.0000       0.025874         0.7041
  76   0.0000       0.032095         0.8734

MULLIKEN ATOMIC CHARGES
-----------------------
   0 C :    1.219753
   1 N :    0.345530
   2 C :    0.358915
   3 C :    0.436228
   4 H :   -0.049748
   5 H :   -0.076411
   6 S :    1.633309
   7 C :    0.924354
   8 C :    0.697285
   9 N :    0.356544
  10 H :   -0.112020
  11 H :   -0.269207
  12 H :   -1.077898
  13 H :   -0.469531
  14 H :   -0.794349
  15 O :   -0.698744
  16 F :   -0.532841
  17 C :    0.487684
  18 H :   -0.429370
  19 H :   -0.279148
  20 C :    0.190853
  21 C :    0.428494
  22 H :   -0.029697
  23 H :   -0.625283
  24 H :   -0.178702
  25 H :   -0.011275
  26 C :    0.342616
  27 H :   -0.267632
  28 H :   -0.131003
  29 C :    0.018912
  30 H :   -0.255964
  31 H :   -0.215656
  32 C :    0.831235
  33 H :   -0.451018
  34 H :    0.076438
  35 H :    0.055781
  36 H :   -0.448366
  37 H :   -0.131323
  38 H :   -0.083080
  39 O :   -0.785668
Sum of atomic charges:   -0.0000000

LOEWDIN ATOMIC CHARGES
----------------------
   0 C :    0.063265
   1 N :    0.017616
   2 C :   -0.012232
   3 C :   -0.044033
   4 H :    0.026450
   5 H :    0.021909
   6 S :    1.200496
   7 C :   -0.212102
   8 C :    0.176826
   9 N :    0.201412
  10 H :   -0.033764
  11 H :   -0.003332
  12 H :   -0.088441
  13 H :   -0.196961
  14 H :   -0.104168
  15 O :   -0.444087
  16 F :   -0.236776
  17 C :   -0.015804
  18 H :    0.013000
  19 H :    0.004639
  20 C :   -0.027954
  21 C :   -0.020052
  22 H :    0.037980
  23 H :   -0.015849
  24 H :    0.037703
  25 H :    0.031463
  26 C :   -0.024334
  27 H :    0.015125
  28 H :    0.007797
  29 C :   -0.032580
  30 H :    0.023051
  31 H :    0.008382
  32 C :   -0.023694
  33 H :    0.020589
  34 H :    0.003017
  35 H :    0.017902
  36 H :    0.020359
  37 H :    0.017916
  38 H :    0.019964
  39 O :   -0.450695

  Mayer bond orders larger than 0.100000
B(  0-C ,  1-N ) :   0.9832 B(  0-C , 12-H ) :  -0.5279 B(  0-C , 17-C ) :   1.0836
B(  0-C , 18-H ) :   0.5297 B(  0-C , 19-H ) :   0.7947 B(  0-C , 26-C ) :   0.1645
B(  0-C , 27-H ) :   0.1291 B(  0-C , 28-H ) :   0.1084 B(  1-N ,  7-C ) :   1.1562
B(  1-N ,  8-C ) :   0.1318 B(  1-N ,  9-N ) :   0.3119 B(  1-N , 12-H ) :   0.7948
B(  1-N , 18-H ) :   0.2905 B(  2-C ,  3-C ) :   1.2320 B(  2-C ,  5-H ) :   0.3131
B(  2-C , 20-C ) :   0.1432 B(  2-C , 21-C ) :   1.1247 B(  2-C , 22-H ) :   0.1179
B(  2-C , 24-H ) :   0.7349 B(  2-C , 25-H ) :   0.8269 B(  3-C ,  4-H ) :   0.8679
B(  3-C ,  5-H ) :   0.6225 B(  3-C ,  6-S ) :   0.9774 B(  3-C , 16-F ) :   0.1092
B(  3-C , 21-C ) :   0.1458 B(  3-C , 25-H ) :   0.1114 B(  5-H ,  6-S ) :   0.1001
B(  6-S , 15-O ) :   1.4206 B(  6-S , 16-F ) :   0.4761 B(  6-S , 39-O ) :   1.3235
B(  7-C ,  8-C ) :   1.2238 B(  7-C ,  9-N ) :   0.8200 B(  7-C , 12-H ) :  -0.7797
B(  7-C , 14-H ) :   0.1719 B(  8-C ,  9-N ) :   0.3209 B(  8-C , 13-H ) :   0.4546
B(  8-C , 14-H ) :   0.6304 B(  9-N , 10-H ) :   0.9788 B(  9-N , 11-H ) :   1.2103
B( 10-H , 11-H ) :  -0.1946 B( 12-H , 18-H ) :   0.1145 B( 12-H , 39-O ) :   0.1225
B( 13-H , 14-H ) :  -0.2127 B( 13-H , 15-O ) :   0.1414 B( 15-O , 39-O ) :   0.1088
B( 16-F , 39-O ) :   0.1000 B( 17-C , 18-H ) :   0.1219 B( 17-C , 19-H ) :   0.1328
B( 17-C , 26-C ) :   1.1930 B( 17-C , 27-H ) :   0.8691 B( 17-C , 28-H ) :   0.6620
B( 17-C , 31-H ) :   0.1382 B( 18-H , 19-H ) :  -0.2208 B( 20-C , 21-C ) :   1.2090
B( 20-C , 22-H ) :   0.1276 B( 20-C , 23-H ) :   0.1367 B( 20-C , 29-C ) :   0.1607
B( 20-C , 32-C ) :   1.1219 B( 20-C , 35-H ) :   0.8254 B( 20-C , 36-H ) :   0.8457
B( 20-C , 37-H ) :   0.1209 B( 20-C , 38-H ) :   0.2568 B( 21-C , 22-H ) :   0.6544
B( 21-C , 23-H ) :   0.6720 B( 21-C , 24-H ) :   0.2048 B( 21-C , 25-H ) :   0.1151
B( 21-C , 35-H ) :   0.1203 B( 21-C , 36-H ) :   0.2033 B( 22-H , 23-H ) :   0.2032
B( 23-H , 34-H ) :   0.1277 B( 26-C , 28-H ) :   0.2462 B( 26-C , 29-C ) :   1.2111
B( 26-C , 30-H ) :   0.7839 B( 26-C , 31-H ) :   0.8459 B( 26-C , 33-H ) :   0.1489
B( 26-C , 34-H ) :   0.1161 B( 27-H , 28-H ) :  -0.1358 B( 29-C , 30-H ) :   0.1685
B( 29-C , 31-H ) :   0.1348 B( 29-C , 32-C ) :   1.1088 B( 29-C , 33-H ) :   0.9337
B( 29-C , 34-H ) :   0.8229 B( 29-C , 37-H ) :   0.3337 B( 29-C , 38-H ) :   0.1495
B( 32-C , 37-H ) :   0.5849 B( 32-C , 38-H ) :   0.6282 B( 37-H , 38-H ) :  -0.1346

Dispersion correction           -0.079691154
FINAL SINGLE POINT ENERGY     -1189.771993030386

DIPOLE MOMENT
-------------
                                X             Y             Z
Electronic contribution:    -20.59143       2.60895     -20.18676
Nuclear contribution   :     20.03262      -4.53368      20.24480
                        -----------------------------------------
Total Dipole Moment    :     -0.55880      -1.92474       0.05804
                        -----------------------------------------
Magnitude (a.u.)       :      2.00505
Magnitude (Debye)      :      5.09644

Rotational constants in cm-1:     0.014367     0.012055     0.007393
Rotational constants in MHz :   430.711297   361.391195   221.649333

                             ****ORCA TERMINATED NORMALLY****
TOTAL RUN TIME: 0 days 0 hours 5 minutes 1 seconds 600 msec
