                         Program Version 5.0.0 -  RELEASE  -
|  1> !B3LYP D3BJ RIJCOSX def2-SVPD def2/J TightSCF xyzfile
|  2>
|  3> *xyzfile 0 1 D6.xyz
|  4>
|  5> %MaxCore 64000
|  6>
|  7> %pal nprocs 4
|  8> end
|  9>
| 10> %scf
| 11>   MaxIter 150
| 12> end
| 13>
| 14>
| 15>                          ****END OF INPUT****

CARTESIAN COORDINATES (ANGSTROEM)
---------------------------------
  C      4.490588    1.155899   -2.469290
  N      4.305394    1.222762   -3.908317
  C      4.906458   -3.102816   -5.954844
  C      3.511771   -2.806215   -6.492283
  H      2.736044   -3.373445   -5.973736
  H      3.444904   -3.040831   -7.555281
  S      3.004618   -1.096206   -6.389259
  C      4.631918    2.246365   -4.670958
  N      4.541686    2.143990   -5.987139
  C      5.084086    3.393584   -4.118545
  H      4.920675    3.570501   -3.135870
  H      5.254652    4.197390   -4.706956
  H      3.824530    0.449113   -4.350926
  H      4.343373    1.249318   -6.416646
  H      4.676712    2.956624   -6.574113
  O      4.128856   -0.329647   -6.953717
  F      1.781285   -1.000779   -7.136399
  C      5.942129    0.939500   -2.036893
  H      3.864305    0.328532   -2.136611
  H      4.076233    2.049994   -1.989010
  C      6.462677   -3.117775   -3.944671
  C      5.024977   -3.025679   -4.437625
  H      4.423321   -3.818693   -3.977648
  H      4.579350   -2.087131   -4.108727
  H      5.201533   -4.100207   -6.296905
  H      5.605922   -2.397822   -6.413368
  C      6.559957   -0.356290   -2.559086
  H      5.967976    0.952567   -0.942444
  H      6.547184    1.788331   -2.368849
  C      6.006283   -1.615917   -1.899301
  H      7.642360   -0.318000   -2.402059
  H      6.414855   -0.403433   -3.642587
  C      6.608718   -2.917014   -2.435655
  H      6.190324   -1.561115   -0.820948
  H      4.919250   -1.651245   -2.016586
  H      7.066975   -2.374258   -4.475514
  H      6.887808   -4.089747   -4.215332
  H      6.135197   -3.755573   -1.915159
  H      7.671142   -2.955503   -2.172291
  O      2.851546   -0.783683   -4.956789

 Total Charge           Charge          ....    0
 Multiplicity           Mult            ....    1
 Number of Electrons    NEL             ....  144
 Basis Dimension        Dim             ....  540

ORBITAL ENERGIES
----------------

  NO   OCC          E(Eh)            E(eV)
   0   2.0000     -89.174027     -2426.5486
   1   2.0000     -24.847039      -676.1223
   2   2.0000     -19.179507      -521.9009
   3   2.0000     -19.179478      -521.9001
   4   2.0000     -14.289927      -388.8487
   5   2.0000     -14.287065      -388.7708
   6   2.0000     -10.268887      -279.4306
   7   2.0000     -10.223953      -278.2079
   8   2.0000     -10.196619      -277.4641
   9   2.0000     -10.192229      -277.3446
  10   2.0000     -10.189370      -277.2669
  11   2.0000     -10.183902      -277.1181
  12   2.0000     -10.176869      -276.9267
  13   2.0000     -10.168771      -276.7063
  14   2.0000     -10.160544      -276.4825
  15   2.0000     -10.153768      -276.2981
  16   2.0000     -10.065483      -273.8957
  17   2.0000      -8.227519      -223.8822
  18   2.0000      -6.200542      -168.7253
  19   2.0000      -6.194554      -168.5624
  20   2.0000      -6.192494      -168.5063
  21   2.0000      -1.409849       -38.3639
  22   2.0000      -1.138411       -30.9777
  23   2.0000      -1.036889       -28.2152
  24   2.0000      -0.927776       -25.2461
  25   2.0000      -0.853941       -23.2369
  26   2.0000      -0.845202       -22.9991
  27   2.0000      -0.808322       -21.9956
  28   2.0000      -0.779106       -21.2005
  29   2.0000      -0.753418       -20.5016
  30   2.0000      -0.725010       -19.7285
  31   2.0000      -0.688120       -18.7247
  32   2.0000      -0.672130       -18.2896
  33   2.0000      -0.652081       -17.7440
  34   2.0000      -0.626406       -17.0454
  35   2.0000      -0.624098       -16.9826
  36   2.0000      -0.605479       -16.4759
  37   2.0000      -0.592773       -16.1302
  38   2.0000      -0.582677       -15.8554
  39   2.0000      -0.552134       -15.0243
  40   2.0000      -0.536675       -14.6037
  41   2.0000      -0.521724       -14.1968
  42   2.0000      -0.518648       -14.1131
  43   2.0000      -0.504047       -13.7158
  44   2.0000      -0.494549       -13.4574
  45   2.0000      -0.480453       -13.0738
  46   2.0000      -0.473579       -12.8867
  47   2.0000      -0.462829       -12.5942
  48   2.0000      -0.453549       -12.3417
  49   2.0000      -0.438285       -11.9263
  50   2.0000      -0.431594       -11.7443
  51   2.0000      -0.428015       -11.6469
  52   2.0000      -0.419832       -11.4242
  53   2.0000      -0.406133       -11.0514
  54   2.0000      -0.391971       -10.6661
  55   2.0000      -0.386832       -10.5262
  56   2.0000      -0.383869       -10.4456
  57   2.0000      -0.372263       -10.1298
  58   2.0000      -0.367091        -9.9890
  59   2.0000      -0.358257        -9.7487
  60   2.0000      -0.352448        -9.5906
  61   2.0000      -0.348366        -9.4795
  62   2.0000      -0.343601        -9.3498
  63   2.0000      -0.338955        -9.2234
  64   2.0000      -0.333497        -9.0749
  65   2.0000      -0.329664        -8.9706
  66   2.0000      -0.324139        -8.8203
  67   2.0000      -0.309618        -8.4251
  68   2.0000      -0.307996        -8.3810
  69   2.0000      -0.299269        -8.1435
  70   2.0000      -0.216059        -5.8793
  71   2.0000      -0.133974        -3.6456
  72   0.0000      -0.022613        -0.6153
  73   0.0000      -0.002892        -0.0787
  74   0.0000       0.015655         0.4260
  75   0.0000       0.020965         0.5705
  76   0.0000       0.025736         0.7003

MULLIKEN ATOMIC CHARGES
-----------------------
   0 C :    1.177528
   1 N :    0.467102
   2 C :    0.362132
   3 C :    0.429932
   4 H :   -0.037650
   5 H :   -0.071055
   6 S :    1.608174
   7 C :    0.510778
   8 N :    0.767186
   9 C :    0.614733
  10 H :    0.024437
  11 H :   -0.796085
  12 H :   -1.252729
  13 H :   -0.499519
  14 H :   -0.257447
  15 O :   -0.713249
  16 F :   -0.522439
  17 C :    0.505682
  18 H :   -0.454028
  19 H :   -0.186596
  20 C :    0.181641
  21 C :    0.435826
  22 H :   -0.030650
  23 H :   -0.623792
  24 H :   -0.176939
  25 H :   -0.010576
  26 C :    0.305944
  27 H :   -0.229156
  28 H :   -0.137167
  29 C :    0.011533
  30 H :   -0.258584
  31 H :   -0.221489
  32 C :    0.839033
  33 H :   -0.447180
  34 H :    0.068523
  35 H :    0.062856
  36 H :   -0.452343
  37 H :   -0.132218
  38 H :   -0.081455
  39 O :   -0.780693
Sum of atomic charges:    0.0000000

LOEWDIN ATOMIC CHARGES
----------------------
   0 C :    0.070212
   1 N :    0.016622
   2 C :   -0.011543
   3 C :   -0.039707
   4 H :    0.030013
   5 H :    0.023036
   6 S :    1.205578
   7 C :   -0.216344
   8 N :    0.218097
   9 C :    0.156270
  10 H :   -0.126209
  11 H :   -0.118812
  12 H :   -0.096743
  13 H :   -0.129276
  14 H :    0.006122
  15 O :   -0.440402
  16 F :   -0.233234
  17 C :   -0.008221
  18 H :    0.011352
  19 H :    0.012880
  20 C :   -0.027838
  21 C :   -0.019659
  22 H :    0.038755
  23 H :   -0.015613
  24 H :    0.039424
  25 H :    0.031058
  26 C :   -0.026163
  27 H :    0.017466
  28 H :    0.008406
  29 C :   -0.033124
  30 H :    0.022860
  31 H :    0.004760
  32 C :   -0.023679
  33 H :    0.021267
  34 H :    0.002272
  35 H :    0.017633
  36 H :    0.020354
  37 H :    0.017636
  38 H :    0.020457
  39 O :   -0.445963

  Mayer bond orders larger than 0.100000
B(  0-C ,  1-N ) :   1.0380 B(  0-C , 10-H ) :   0.1241 B(  0-C , 12-H ) :  -0.5518
B(  0-C , 17-C ) :   1.0722 B(  0-C , 18-H ) :   0.6070 B(  0-C , 19-H ) :   0.8070
B(  0-C , 26-C ) :   0.1585 B(  0-C , 27-H ) :   0.1121 B(  1-N ,  7-C ) :   1.0422
B(  1-N ,  9-C ) :   0.2794 B(  1-N , 11-H ) :   0.1443 B(  1-N , 12-H ) :   0.5499
B(  1-N , 13-H ) :   0.1733 B(  1-N , 14-H ) :  -0.1208 B(  1-N , 18-H ) :   0.3122
B(  2-C ,  3-C ) :   1.2349 B(  2-C ,  5-H ) :   0.3171 B(  2-C , 20-C ) :   0.1431
B(  2-C , 21-C ) :   1.1194 B(  2-C , 22-H ) :   0.1156 B(  2-C , 24-H ) :   0.7399
B(  2-C , 25-H ) :   0.8189 B(  3-C ,  4-H ) :   0.8675 B(  3-C ,  5-H ) :   0.6146
B(  3-C ,  6-S ) :   1.0041 B(  3-C , 16-F ) :   0.1022 B(  3-C , 21-C ) :   0.1484
B(  3-C , 25-H ) :   0.1134 B(  6-S , 15-O ) :   1.3531 B(  6-S , 16-F ) :   0.5025
B(  6-S , 39-O ) :   1.3516 B(  7-C ,  8-N ) :   1.0090 B(  7-C ,  9-C ) :   1.5533
B(  7-C , 10-H ) :   0.4030 B(  7-C , 11-H ) :   0.3993 B(  7-C , 12-H ) :  -0.7316
B(  7-C , 13-H ) :  -0.1801 B(  7-C , 18-H ) :   0.1422 B(  8-N ,  9-C ) :   0.2123
B(  8-N , 13-H ) :   0.8397 B(  8-N , 14-H ) :   1.2318 B(  9-C , 10-H ) :   0.5120
B(  9-C , 11-H ) :   0.5189 B( 10-H , 13-H ) :   0.1852 B( 10-H , 18-H ) :  -0.1197
B( 10-H , 19-H ) :   0.1245 B( 11-H , 12-H ) :  -0.1233 B( 12-H , 39-O ) :   0.1861
B( 13-H , 14-H ) :  -0.2678 B( 13-H , 15-O ) :   0.1657 B( 16-F , 39-O ) :   0.1062
B( 17-C , 18-H ) :   0.1231 B( 17-C , 19-H ) :   0.1070 B( 17-C , 26-C ) :   1.1661
B( 17-C , 27-H ) :   0.8446 B( 17-C , 28-H ) :   0.7093 B( 17-C , 31-H ) :   0.1378
B( 18-H , 19-H ) :  -0.2593 B( 20-C , 21-C ) :   1.2104 B( 20-C , 22-H ) :   0.1268
B( 20-C , 23-H ) :   0.1404 B( 20-C , 29-C ) :   0.1607 B( 20-C , 32-C ) :   1.1210
B( 20-C , 35-H ) :   0.8253 B( 20-C , 36-H ) :   0.8513 B( 20-C , 37-H ) :   0.1227
B( 20-C , 38-H ) :   0.2569 B( 21-C , 22-H ) :   0.6566 B( 21-C , 23-H ) :   0.6657
B( 21-C , 24-H ) :   0.2002 B( 21-C , 25-H ) :   0.1145 B( 21-C , 35-H ) :   0.1247
B( 21-C , 36-H ) :   0.2044 B( 22-H , 23-H ) :   0.2009 B( 23-H , 34-H ) :   0.1261
B( 26-C , 27-H ) :   0.1074 B( 26-C , 28-H ) :   0.2492 B( 26-C , 29-C ) :   1.2080
B( 26-C , 30-H ) :   0.7952 B( 26-C , 31-H ) :   0.8532 B( 26-C , 33-H ) :   0.1521
B( 26-C , 34-H ) :   0.1216 B( 27-H , 28-H ) :  -0.1629 B( 29-C , 30-H ) :   0.1699
B( 29-C , 31-H ) :   0.1457 B( 29-C , 32-C ) :   1.1090 B( 29-C , 33-H ) :   0.9351
B( 29-C , 34-H ) :   0.8294 B( 29-C , 37-H ) :   0.3383 B( 29-C , 38-H ) :   0.1501
B( 32-C , 37-H ) :   0.5817 B( 32-C , 38-H ) :   0.6296 B( 37-H , 38-H ) :  -0.1348

Dispersion correction           -0.079568648
FINAL SINGLE POINT ENERGY     -1189.786965974309

DIPOLE MOMENT
-------------
                                X             Y             Z
Electronic contribution:    -21.11720       1.27561     -21.86586
Nuclear contribution   :     20.11362      -4.34709      20.52383
                        -----------------------------------------
Total Dipole Moment    :     -1.00358      -3.07147      -1.34204
                        -----------------------------------------
Magnitude (a.u.)       :      3.49888
Magnitude (Debye)      :      8.89345

Rotational constants in cm-1:     0.014449     0.012108     0.007447
Rotational constants in MHz :   433.168496   362.988632   223.260798

                             ****ORCA TERMINATED NORMALLY****
TOTAL RUN TIME: 0 days 0 hours 4 minutes 49 seconds 420 msec
