                         Program Version 5.0.0 -  RELEASE  -
|  1> !B3LYP D3BJ RIJCOSX def2-SVPD def2/J TightSCF xyzfile
|  2>
|  3> *xyzfile 0 1 D9.xyz
|  4>
|  5> %MaxCore 64000
|  6>
|  7> %pal nprocs 4
|  8> end
|  9>
| 10> %scf
| 11>   MaxIter 150
| 12> end
| 13>
| 14>
| 15>                          ****END OF INPUT****

CARTESIAN COORDINATES (ANGSTROEM)
---------------------------------
  C      4.490588    1.155899   -2.469290
  N      4.305394    1.222762   -3.908317
  C      4.906458   -3.102816   -5.954844
  C      3.511771   -2.806215   -6.492283
  H      2.736044   -3.373445   -5.973736
  H      3.444904   -3.040831   -7.555281
  S      3.004618   -1.096206   -6.389259
  C      4.631918    2.246365   -4.670958
  N      4.541686    2.143990   -5.987139
  C      5.084086    3.393584   -4.118545
  H      4.920675    3.570501   -3.135870
  H      5.254652    4.197390   -4.706956
  H      3.824530    0.449113   -4.350926
  H      4.343373    1.249318   -6.416646
  H      4.676712    2.956624   -6.574113
  O      4.128856   -0.329647   -6.953717
  O      1.781285   -1.000779   -7.136399
  C      5.942129    0.939500   -2.036893
  H      3.864305    0.328532   -2.136611
  H      4.076233    2.049994   -1.989010
  C      6.462677   -3.117775   -3.944671
  C      5.024977   -3.025679   -4.437625
  H      4.423321   -3.818693   -3.977648
  H      4.579350   -2.087131   -4.108727
  H      5.201533   -4.100207   -6.296905
  H      5.605922   -2.397822   -6.413368
  C      6.559957   -0.356290   -2.559086
  H      5.967976    0.952567   -0.942444
  H      6.547184    1.788331   -2.368849
  C      6.006283   -1.615917   -1.899301
  H      7.642360   -0.318000   -2.402059
  H      6.414855   -0.403433   -3.642587
  C      6.608718   -2.917014   -2.435655
  H      6.190324   -1.561115   -0.820948
  H      4.919250   -1.651245   -2.016586
  H      7.066975   -2.374258   -4.475514
  H      6.887808   -4.089747   -4.215332
  H      6.135197   -3.755573   -1.915159
  H      7.671142   -2.955503   -2.172291
  F      2.851546   -0.783683   -4.956789

 Total Charge           Charge          ....    0
 Multiplicity           Mult            ....    1
 Number of Electrons    NEL             ....  144
 Basis Dimension        Dim             ....  540

ORBITAL ENERGIES
----------------

  NO   OCC          E(Eh)            E(eV)
   0   2.0000     -89.164759     -2426.2964
   1   2.0000     -24.833537      -675.7549
   2   2.0000     -19.178811      -521.8820
   3   2.0000     -19.174465      -521.7637
   4   2.0000     -14.316103      -389.5610
   5   2.0000     -14.295876      -389.0106
   6   2.0000     -10.263854      -279.2937
   7   2.0000     -10.222363      -278.1646
   8   2.0000     -10.210562      -277.8435
   9   2.0000     -10.206645      -277.7369
  10   2.0000     -10.204705      -277.6842
  11   2.0000     -10.192237      -277.3449
  12   2.0000     -10.185459      -277.1604
  13   2.0000     -10.179725      -277.0044
  14   2.0000     -10.171888      -276.7911
  15   2.0000     -10.166480      -276.6440
  16   2.0000     -10.078437      -274.2482
  17   2.0000      -8.218433      -223.6349
  18   2.0000      -6.191564      -168.4810
  19   2.0000      -6.185346      -168.3118
  20   2.0000      -6.183450      -168.2602
  21   2.0000      -1.385627       -37.7048
  22   2.0000      -1.140259       -31.0280
  23   2.0000      -1.042640       -28.3717
  24   2.0000      -0.945603       -25.7312
  25   2.0000      -0.859974       -23.4011
  26   2.0000      -0.853417       -23.2226
  27   2.0000      -0.813969       -22.1492
  28   2.0000      -0.782488       -21.2926
  29   2.0000      -0.753861       -20.5136
  30   2.0000      -0.732323       -19.9275
  31   2.0000      -0.696535       -18.9537
  32   2.0000      -0.683586       -18.6013
  33   2.0000      -0.659901       -17.9568
  34   2.0000      -0.637066       -17.3354
  35   2.0000      -0.616931       -16.7876
  36   2.0000      -0.604638       -16.4530
  37   2.0000      -0.593831       -16.1590
  38   2.0000      -0.581875       -15.8336
  39   2.0000      -0.562069       -15.2947
  40   2.0000      -0.535473       -14.5710
  41   2.0000      -0.527088       -14.3428
  42   2.0000      -0.516977       -14.0677
  43   2.0000      -0.509168       -13.8552
  44   2.0000      -0.496264       -13.5040
  45   2.0000      -0.492993       -13.4150
  46   2.0000      -0.477360       -12.9896
  47   2.0000      -0.472845       -12.8668
  48   2.0000      -0.456902       -12.4329
  49   2.0000      -0.451845       -12.2953
  50   2.0000      -0.439581       -11.9616
  51   2.0000      -0.438642       -11.9361
  52   2.0000      -0.420196       -11.4341
  53   2.0000      -0.413078       -11.2404
  54   2.0000      -0.399596       -10.8736
  55   2.0000      -0.394759       -10.7419
  56   2.0000      -0.387201       -10.5363
  57   2.0000      -0.378834       -10.3086
  58   2.0000      -0.372110       -10.1256
  59   2.0000      -0.366265        -9.9666
  60   2.0000      -0.361568        -9.8388
  61   2.0000      -0.358030        -9.7425
  62   2.0000      -0.352697        -9.5974
  63   2.0000      -0.346534        -9.4297
  64   2.0000      -0.345480        -9.4010
  65   2.0000      -0.339450        -9.2369
  66   2.0000      -0.336574        -9.1586
  67   2.0000      -0.321314        -8.7434
  68   2.0000      -0.320032        -8.7085
  69   2.0000      -0.311446        -8.4749
  70   2.0000      -0.231855        -6.3091
  71   2.0000      -0.147260        -4.0071
  72   0.0000      -0.020474        -0.5571
  73   0.0000       0.006003         0.1633
  74   0.0000       0.010777         0.2933
  75   0.0000       0.019608         0.5336
  76   0.0000       0.025731         0.7002

MULLIKEN ATOMIC CHARGES
-----------------------
   0 C :    1.180032
   1 N :    0.557708
   2 C :    0.421464
   3 C :    0.440978
   4 H :   -0.062623
   5 H :   -0.061838
   6 S :    1.460539
   7 C :    0.526407
   8 N :    0.743040
   9 C :    0.626847
  10 H :    0.025756
  11 H :   -0.787384
  12 H :   -1.317228
  13 H :   -0.486865
  14 H :   -0.245419
  15 O :   -0.729124
  16 O :   -0.682994
  17 C :    0.501799
  18 H :   -0.466948
  19 H :   -0.185728
  20 C :    0.169045
  21 C :    0.443047
  22 H :   -0.030323
  23 H :   -0.670196
  24 H :   -0.172493
  25 H :    0.001290
  26 C :    0.309542
  27 H :   -0.220342
  28 H :   -0.133345
  29 C :    0.018579
  30 H :   -0.254053
  31 H :   -0.219842
  32 C :    0.833699
  33 H :   -0.444796
  34 H :    0.055587
  35 H :    0.063411
  36 H :   -0.449030
  37 H :   -0.130461
  38 H :   -0.077936
  39 F :   -0.549801
Sum of atomic charges:    0.0000000

LOEWDIN ATOMIC CHARGES
----------------------
   0 C :    0.068808
   1 N :    0.009605
   2 C :   -0.025213
   3 C :   -0.031106
   4 H :    0.029732
   5 H :    0.037032
   6 S :    1.166388
   7 C :   -0.216640
   8 N :    0.220448
   9 C :    0.162048
  10 H :   -0.123211
  11 H :   -0.112944
  12 H :   -0.066117
  13 H :   -0.128623
  14 H :    0.010557
  15 O :   -0.439737
  16 O :   -0.431342
  17 C :   -0.006323
  18 H :    0.009243
  19 H :    0.015450
  20 C :   -0.025673
  21 C :   -0.025989
  22 H :    0.038659
  23 H :   -0.017076
  24 H :    0.037586
  25 H :    0.028954
  26 C :   -0.025815
  27 H :    0.019551
  28 H :    0.010358
  29 C :   -0.034423
  30 H :    0.024917
  31 H :    0.004262
  32 C :   -0.022744
  33 H :    0.022438
  34 H :   -0.001073
  35 H :    0.018698
  36 H :    0.023352
  37 H :    0.018588
  38 H :    0.021805
  39 F :   -0.264428

  Mayer bond orders larger than 0.100000
B(  0-C ,  1-N ) :   1.0504 B(  0-C , 10-H ) :   0.1195 B(  0-C , 12-H ) :  -0.5405
B(  0-C , 17-C ) :   1.0763 B(  0-C , 18-H ) :   0.5949 B(  0-C , 19-H ) :   0.8078
B(  0-C , 26-C ) :   0.1565 B(  0-C , 27-H ) :   0.1115 B(  0-C , 28-H ) :   0.1045
B(  1-N ,  7-C ) :   1.0581 B(  1-N ,  9-C ) :   0.2899 B(  1-N , 11-H ) :   0.1367
B(  1-N , 12-H ) :   0.3318 B(  1-N , 13-H ) :   0.1703 B(  1-N , 14-H ) :  -0.1210
B(  1-N , 18-H ) :   0.3085 B(  2-C ,  3-C ) :   1.2030 B(  2-C ,  5-H ) :   0.2865
B(  2-C , 20-C ) :   0.1400 B(  2-C , 21-C ) :   1.1330 B(  2-C , 22-H ) :   0.1148
B(  2-C , 24-H ) :   0.7343 B(  2-C , 25-H ) :   0.8304 B(  3-C ,  4-H ) :   0.8809
B(  3-C ,  5-H ) :   0.6544 B(  3-C ,  6-S ) :   0.9858 B(  3-C , 21-C ) :   0.1447
B(  3-C , 25-H ) :   0.1157 B(  6-S , 15-O ) :   1.3890 B(  6-S , 16-O ) :   1.4786
B(  6-S , 39-F ) :   0.5950 B(  7-C ,  8-N ) :   1.0011 B(  7-C ,  9-C ) :   1.5776
B(  7-C , 10-H ) :   0.3966 B(  7-C , 11-H ) :   0.3895 B(  7-C , 12-H ) :  -0.7124
B(  7-C , 13-H ) :  -0.1858 B(  7-C , 14-H ) :  -0.1033 B(  7-C , 18-H ) :   0.1350
B(  8-N ,  9-C ) :   0.2174 B(  8-N , 13-H ) :   0.8587 B(  8-N , 14-H ) :   1.2339
B(  9-C , 10-H ) :   0.5096 B(  9-C , 11-H ) :   0.5195 B( 10-H , 13-H ) :   0.1848
B( 10-H , 18-H ) :  -0.1203 B( 10-H , 19-H ) :   0.1284 B( 11-H , 12-H ) :  -0.1140
B( 12-H , 39-F ) :   0.2692 B( 13-H , 14-H ) :  -0.2744 B( 13-H , 15-O ) :   0.1519
B( 17-C , 18-H ) :   0.1251 B( 17-C , 19-H ) :   0.1037 B( 17-C , 26-C ) :   1.1700
B( 17-C , 27-H ) :   0.8474 B( 17-C , 28-H ) :   0.7081 B( 17-C , 31-H ) :   0.1388
B( 18-H , 19-H ) :  -0.2554 B( 20-C , 21-C ) :   1.2203 B( 20-C , 22-H ) :   0.1252
B( 20-C , 23-H ) :   0.1586 B( 20-C , 29-C ) :   0.1648 B( 20-C , 32-C ) :   1.1197
B( 20-C , 35-H ) :   0.8264 B( 20-C , 36-H ) :   0.8541 B( 20-C , 37-H ) :   0.1209
B( 20-C , 38-H ) :   0.2581 B( 21-C , 22-H ) :   0.6605 B( 21-C , 23-H ) :   0.6057
B( 21-C , 24-H ) :   0.1994 B( 21-C , 25-H ) :   0.1165 B( 21-C , 35-H ) :   0.1204
B( 21-C , 36-H ) :   0.2010 B( 22-H , 23-H ) :   0.2096 B( 23-H , 34-H ) :   0.1316
B( 26-C , 27-H ) :   0.1077 B( 26-C , 28-H ) :   0.2462 B( 26-C , 29-C ) :   1.2050
B( 26-C , 30-H ) :   0.7989 B( 26-C , 31-H ) :   0.8540 B( 26-C , 33-H ) :   0.1515
B( 26-C , 34-H ) :   0.1184 B( 27-H , 28-H ) :  -0.1597 B( 29-C , 30-H ) :   0.1686
B( 29-C , 31-H ) :   0.1428 B( 29-C , 32-C ) :   1.1110 B( 29-C , 33-H ) :   0.9348
B( 29-C , 34-H ) :   0.8284 B( 29-C , 37-H ) :   0.3387 B( 29-C , 38-H ) :   0.1490
B( 32-C , 37-H ) :   0.5825 B( 32-C , 38-H ) :   0.6318 B( 37-H , 38-H ) :  -0.1345

Dispersion correction           -0.078916921
FINAL SINGLE POINT ENERGY     -1189.793367575471

DIPOLE MOMENT
-------------
                                X             Y             Z
Electronic contribution:    -18.93831       1.82984     -17.83761
Nuclear contribution   :     18.85717      -4.60195      17.96505
                        -----------------------------------------
Total Dipole Moment    :     -0.08113      -2.77211       0.12744
                        -----------------------------------------
Magnitude (a.u.)       :      2.77622
Magnitude (Debye)      :      7.05660

Rotational constants in cm-1:     0.014436     0.012382     0.007563
Rotational constants in MHz :   432.785702   371.214592   226.743759

                             ****ORCA TERMINATED NORMALLY****
TOTAL RUN TIME: 0 days 0 hours 5 minutes 17 seconds 643 msec
