                         Program Version 5.0.0 -  RELEASE  -
|  1> !wB97X-D3 RIJCOSX def2-TZVP def2/J TightSCF
|  2> *xyz -1 1
|  3> C         -0.25875        1.00432       -5.40983
|  4> C          0.39596       -0.37070       -5.33994
|  5> O         -0.32633       -1.39040       -5.49128
|  6> O          1.61941       -0.40073       -5.03683
|  7> H         -1.28979        0.89539       -5.67439
|  8> H          0.23798        1.59877       -6.14792
|  9> H         -0.18395        1.48386       -4.45623
| 10> *
| 11> %MaxCore 64000
| 12>
| 13> %pal nprocs 18
| 14> end
| 15>
| 16> %scf
| 17>   MaxIter 150
| 18> end
| 19>
| 20>
| 21>                          ****END OF INPUT****

CARTESIAN COORDINATES (ANGSTROEM)
---------------------------------
  C     -0.258750    1.004320   -5.409830
  C      0.395960   -0.370700   -5.339940
  O     -0.326330   -1.390400   -5.491280
  O      1.619410   -0.400730   -5.036830
  H     -1.289790    0.895390   -5.674390
  H      0.237980    1.598770   -6.147920
  H     -0.183950    1.483860   -4.456230

 Total Charge           Charge          ....   -1
 Multiplicity           Mult            ....    1
 Number of Electrons    NEL             ....   32
 Basis Dimension        Dim             ....  142

ORBITAL ENERGIES
----------------

  NO   OCC          E(Eh)            E(eV)
   0   2.0000     -18.947805      -515.5960
   1   2.0000     -18.944708      -515.5117
   2   2.0000     -10.147397      -276.1247
   3   2.0000     -10.080276      -274.2983
   4   2.0000      -0.919543       -25.0220
   5   2.0000      -0.823575       -22.4106
   6   2.0000      -0.654652       -17.8140
   7   2.0000      -0.403210       -10.9719
   8   2.0000      -0.355265        -9.6673
   9   2.0000      -0.340981        -9.2786
  10   2.0000      -0.315573        -8.5872
  11   2.0000      -0.270673        -7.3654
  12   2.0000      -0.251518        -6.8441
  13   2.0000      -0.125918        -3.4264
  14   2.0000      -0.124453        -3.3865
  15   2.0000      -0.107595        -2.9278
  16   0.0000       0.285593         7.7714
  17   0.0000       0.328712         8.9447
  18   0.0000       0.356687         9.7059
  19   0.0000       0.385306        10.4847
  20   0.0000       0.392675        10.6852

MULLIKEN ATOMIC CHARGES
-----------------------
   0 C :   -0.301429
   1 C :    0.274970
   2 O :   -0.575817
   3 O :   -0.584101
   4 H :    0.059857
   5 H :    0.060826
   6 H :    0.065695
Sum of atomic charges:   -1.0000000

LOEWDIN ATOMIC CHARGES
----------------------
   0 C :   -0.323523
   1 C :   -0.709510
   2 O :   -0.133571
   3 O :   -0.139876
   4 H :    0.098999
   5 H :    0.102653
   6 H :    0.104828

  Mayer bond orders larger than 0.100000
B(  0-C ,  1-C ) :   0.9280 B(  0-C ,  4-H ) :   0.9733 B(  0-C ,  5-H ) :   0.9716
B(  0-C ,  6-H ) :   0.9717 B(  1-C ,  2-O ) :   1.8467 B(  1-C ,  3-O ) :   1.8243

Dispersion correction           -0.000907174
FINAL SINGLE POINT ENERGY      -228.546727186441

DIPOLE MOMENT
-------------
                                X             Y             Z
Electronic contribution:      1.53969      -3.25387       0.19014
Nuclear contribution   :     -2.15615       4.52621      -0.30445
                        -----------------------------------------
Total Dipole Moment    :     -0.61645       1.27234      -0.11431
                        -----------------------------------------
Magnitude (a.u.)       :      1.41843
Magnitude (Debye)      :      3.60535

Rotational constants in cm-1:     0.393591     0.332639     0.186460
Rotational constants in MHz : 11799.557437  9972.275109  5589.926304

                             ****ORCA TERMINATED NORMALLY****
TOTAL RUN TIME: 0 days 0 hours 0 minutes 7 seconds 842 msec
