                         Program Version 5.0.0 -  RELEASE  -
|  1> !wB97X-D3 RIJCOSX def2-TZVP def2/J TightSCF
|  2> *xyz 1 1
|  3> C          0.81607       -2.10149       -2.18655
|  4> N          1.10055       -2.46749       -3.59927
|  5> H          1.70061       -1.75723       -4.07838
|  6> H          0.29386       -2.35977       -4.25632
|  7> H          1.50132       -3.42848       -3.69491
|  8> H          0.40947       -1.11246       -2.14929
|  9> H          1.72290       -2.13590       -1.61965
| 10> H          0.11112       -2.79271       -1.77405
| 11> *
| 12> %MaxCore 64000
| 13>
| 14> %pal nprocs 18
| 15> end
| 16>
| 17> %scf
| 18>   MaxIter 150
| 19> end
| 20>
| 21>
| 22>                          ****END OF INPUT****

CARTESIAN COORDINATES (ANGSTROEM)
---------------------------------
  C      0.816070   -2.101490   -2.186550
  N      1.100550   -2.467490   -3.599270
  H      1.700610   -1.757230   -4.078380
  H      0.293860   -2.359770   -4.256320
  H      1.501320   -3.428480   -3.694910
  H      0.409470   -1.112460   -2.149290
  H      1.722900   -2.135900   -1.619650
  H      0.111120   -2.792710   -1.774050

 Total Charge           Charge          ....    1
 Multiplicity           Mult            ....    1
 Number of Electrons    NEL             ....   18
 Basis Dimension        Dim             ....   98

ORBITAL ENERGIES
----------------

  NO   OCC          E(Eh)            E(eV)
   0   2.0000     -14.774176      -402.0258
   1   2.0000     -10.530178      -286.5407
   2   2.0000      -1.336430       -36.3661
   3   2.0000      -1.053442       -28.6656
   4   2.0000      -0.916755       -24.9462
   5   2.0000      -0.882130       -24.0040
   6   2.0000      -0.815151       -22.1814
   7   2.0000      -0.724283       -19.7088
   8   2.0000      -0.718569       -19.5532
   9   0.0000      -0.121936        -3.3181
  10   0.0000      -0.053828        -1.4647
  11   0.0000      -0.050101        -1.3633
  12   0.0000      -0.029167        -0.7937
  13   0.0000       0.018676         0.5082

MULLIKEN ATOMIC CHARGES
-----------------------
   0 C :   -0.306439
   1 N :   -0.333670
   2 H :    0.339825
   3 H :    0.339959
   4 H :    0.353705
   5 H :    0.199030
   6 H :    0.204274
   7 H :    0.203317
Sum of atomic charges:    1.0000000

LOEWDIN ATOMIC CHARGES
----------------------
   0 C :   -0.246179
   1 N :    0.132362
   2 H :    0.233171
   3 H :    0.231795
   4 H :    0.234450
   5 H :    0.137771
   6 H :    0.138527
   7 H :    0.138102

  Mayer bond orders larger than 0.100000
B(  0-C ,  1-N ) :   0.8977 B(  0-C ,  5-H ) :   0.9519 B(  0-C ,  6-H ) :   0.9523
B(  0-C ,  7-H ) :   0.9537 B(  1-N ,  2-H ) :   0.8706 B(  1-N ,  3-H ) :   0.8695
B(  1-N ,  4-H ) :   0.8600

Dispersion correction           -0.000532430
FINAL SINGLE POINT ENERGY       -96.221382190703

DIPOLE MOMENT
-------------
                                X             Y             Z
Electronic contribution:      0.21556      -0.31412      -0.98589
Nuclear contribution   :     -0.05716       0.15480       0.08012
                        -----------------------------------------
Total Dipole Moment    :      0.15840      -0.15932      -0.90577
                        -----------------------------------------
Magnitude (a.u.)       :      0.93321
Magnitude (Debye)      :      2.37204

Rotational constants in cm-1:     2.875975     0.681325     0.670600
Rotational constants in MHz : 86219.567947 20425.600745 20104.086440

                             ****ORCA TERMINATED NORMALLY****
TOTAL RUN TIME: 0 days 0 hours 0 minutes 4 seconds 844 msec
