                         Program Version 5.0.0 -  RELEASE  -
|  1> !wB97X-D3 RIJCOSX def2-TZVP def2/J TightSCF
|  2> *xyz 0 1
|  3> C         -0.25875        1.00432       -5.40983
|  4> C          0.39596       -0.37070       -5.33994
|  5> F         -0.32633       -1.39040       -5.49128
|  6> O          1.61941       -0.40073       -5.03683
|  7> H         -1.28979        0.89539       -5.67439
|  8> H          0.23798        1.59877       -6.14792
|  9> H         -0.18395        1.48386       -4.45623
| 10> *
| 11> %MaxCore 64000
| 12>
| 13> %pal nprocs 18
| 14> end
| 15>
| 16> %scf
| 17>   MaxIter 150
| 18> end
| 19>
| 20>
| 21>                          ****END OF INPUT****

CARTESIAN COORDINATES (ANGSTROEM)
---------------------------------
  C     -0.258750    1.004320   -5.409830
  C      0.395960   -0.370700   -5.339940
  F     -0.326330   -1.390400   -5.491280
  O      1.619410   -0.400730   -5.036830
  H     -1.289790    0.895390   -5.674390
  H      0.237980    1.598770   -6.147920
  H     -0.183950    1.483860   -4.456230

 Total Charge           Charge          ....    0
 Multiplicity           Mult            ....    1
 Number of Electrons    NEL             ....   32
 Basis Dimension        Dim             ....  142

ORBITAL ENERGIES
----------------

  NO   OCC          E(Eh)            E(eV)
   0   2.0000     -24.856232      -676.3725
   1   2.0000     -19.234366      -523.3937
   2   2.0000     -10.459612      -284.6205
   3   2.0000     -10.300744      -280.2975
   4   2.0000      -1.435251       -39.0552
   5   2.0000      -1.145661       -31.1750
   6   2.0000      -0.889569       -24.2064
   7   2.0000      -0.767161       -20.8755
   8   2.0000      -0.652167       -17.7464
   9   2.0000      -0.649292       -17.6681
  10   2.0000      -0.608709       -16.5638
  11   2.0000      -0.546310       -14.8658
  12   2.0000      -0.532744       -14.4967
  13   2.0000      -0.499614       -13.5952
  14   2.0000      -0.446057       -12.1378
  15   2.0000      -0.389897       -10.6096
  16   0.0000       0.054921         1.4945
  17   0.0000       0.117614         3.2004
  18   0.0000       0.181529         4.9397
  19   0.0000       0.199154         5.4193
  20   0.0000       0.207929         5.6580

MULLIKEN ATOMIC CHARGES
-----------------------
   0 C :   -0.348944
   1 C :    0.390342
   2 F :   -0.106319
   3 O :   -0.364093
   4 H :    0.125261
   5 H :    0.150862
   6 H :    0.152892
Sum of atomic charges:    0.0000000

LOEWDIN ATOMIC CHARGES
----------------------
   0 C :   -0.261022
   1 C :   -0.503529
   2 F :    0.316885
   3 O :    0.047226
   4 H :    0.122737
   5 H :    0.138321
   6 H :    0.139382

  Mayer bond orders larger than 0.100000
B(  0-C ,  1-C ) :   0.9934 B(  0-C ,  4-H ) :   0.9663 B(  0-C ,  5-H ) :   0.9542
B(  0-C ,  6-H ) :   0.9517 B(  1-C ,  2-F ) :   1.1582 B(  1-C ,  3-O ) :   2.0306

Dispersion correction           -0.000909260
FINAL SINGLE POINT ENERGY      -253.119018287386

DIPOLE MOMENT
-------------
                                X             Y             Z
Electronic contribution:      0.43579      -5.05093      -0.09707
Nuclear contribution   :     -1.44986       5.66477      -0.12483
                        -----------------------------------------
Total Dipole Moment    :     -1.01407       0.61384      -0.22190
                        -----------------------------------------
Magnitude (a.u.)       :      1.20597
Magnitude (Debye)      :      3.06534

Rotational constants in cm-1:     0.371735     0.317798     0.176902
Rotational constants in MHz : 11144.324945  9527.341239  5303.391856

                             ****ORCA TERMINATED NORMALLY****
TOTAL RUN TIME: 0 days 0 hours 0 minutes 7 seconds 500 msec
