                         Program Version 5.0.0 -  RELEASE  -
|  1> !wB97X-D3 RIJCOSX def2-TZVP def2/J TightSCF
|  2> *xyz 0 1
|  3> C          0.81607       -2.10149       -2.18655
|  4> C          1.10055       -2.46749       -3.59927
|  5> H          1.70061       -1.75723       -4.07838
|  6> H          0.29386       -2.35977       -4.25632
|  7> H          1.50132       -3.42848       -3.69491
|  8> H          0.40947       -1.11246       -2.14929
|  9> H          1.72290       -2.13590       -1.61965
| 10> H          0.11112       -2.79271       -1.77405
| 11> *
| 12> %MaxCore 64000
| 13>
| 14> %pal nprocs 18
| 15> end
| 16>
| 17> %scf
| 18>   MaxIter 150
| 19> end
| 20>
| 21>
| 22>                          ****END OF INPUT****

CARTESIAN COORDINATES (ANGSTROEM)
---------------------------------
  C      0.816070   -2.101490   -2.186550
  C      1.100550   -2.467490   -3.599270
  H      1.700610   -1.757230   -4.078380
  H      0.293860   -2.359770   -4.256320
  H      1.501320   -3.428480   -3.694910
  H      0.409470   -1.112460   -2.149290
  H      1.722900   -2.135900   -1.619650
  H      0.111120   -2.792710   -1.774050

 Total Charge           Charge          ....    0
 Multiplicity           Mult            ....    1
 Number of Electrons    NEL             ....   18
 Basis Dimension        Dim             ....   98

ORBITAL ENERGIES
----------------

  NO   OCC          E(Eh)            E(eV)
   0   2.0000     -10.250326      -278.9256
   1   2.0000     -10.240118      -278.6478
   2   2.0000      -0.882700       -24.0195
   3   2.0000      -0.734959       -19.9992
   4   2.0000      -0.554304       -15.0834
   5   2.0000      -0.535501       -14.5717
   6   2.0000      -0.470078       -12.7915
   7   2.0000      -0.446085       -12.1386
   8   2.0000      -0.424943       -11.5633
   9   0.0000       0.126953         3.4546
  10   0.0000       0.167834         4.5670
  11   0.0000       0.196943         5.3591
  12   0.0000       0.201963         5.4957
  13   0.0000       0.211770         5.7625

MULLIKEN ATOMIC CHARGES
-----------------------
   0 C :   -0.296197
   1 C :   -0.324176
   2 H :    0.103299
   3 H :    0.105007
   4 H :    0.106808
   5 H :    0.101009
   6 H :    0.102595
   7 H :    0.101655
Sum of atomic charges:    0.0000000

LOEWDIN ATOMIC CHARGES
----------------------
   0 C :   -0.331391
   1 C :   -0.339657
   2 H :    0.110700
   3 H :    0.109241
   4 H :    0.108193
   5 H :    0.114602
   6 H :    0.114468
   7 H :    0.113843

  Mayer bond orders larger than 0.100000
B(  0-C ,  1-C ) :   0.9865 B(  0-C ,  5-H ) :   0.9818 B(  0-C ,  6-H ) :   0.9798
B(  0-C ,  7-H ) :   0.9806 B(  1-C ,  2-H ) :   0.9817 B(  1-C ,  3-H ) :   0.9820
B(  1-C ,  4-H ) :   0.9796

Dispersion correction           -0.000521512
FINAL SINGLE POINT ENERGY       -79.823797293208

DIPOLE MOMENT
-------------
                                X             Y             Z
Electronic contribution:      0.00431      -0.07001       0.12552
Nuclear contribution   :     -0.00793       0.09023      -0.16124
                        -----------------------------------------
Total Dipole Moment    :     -0.00361       0.02022      -0.03572
                        -----------------------------------------
Magnitude (a.u.)       :      0.04120
Magnitude (Debye)      :      0.10473

Rotational constants in cm-1:     2.876169     0.710562     0.698917
Rotational constants in MHz : 86225.370734 21302.115394 20952.991121

                             ****ORCA TERMINATED NORMALLY****
TOTAL RUN TIME: 0 days 0 hours 0 minutes 4 seconds 767 msec
