                         Program Version 5.0.0 -  RELEASE  -
|  1> !wB97X-D3 RIJCOSX def2-TZVP def2/J TightSCF
|  2> *xyz 0 1
|  3> C         -0.25875        1.00432       -5.40983
|  4> C          0.39596       -0.37070       -5.33994
|  5> O         -0.32633       -1.39040       -5.49128
|  6> F          1.61941       -0.40073       -5.03683
|  7> H         -1.28979        0.89539       -5.67439
|  8> H          0.23798        1.59877       -6.14792
|  9> H         -0.18395        1.48386       -4.45623
| 10> *
| 11> %MaxCore 64000
| 12>
| 13> %pal nprocs 18
| 14> end
| 15>
| 16> %scf
| 17>   MaxIter 150
| 18> end
| 19>
| 20>
| 21>                          ****END OF INPUT****

CARTESIAN COORDINATES (ANGSTROEM)
---------------------------------
  C     -0.258750    1.004320   -5.409830
  C      0.395960   -0.370700   -5.339940
  O     -0.326330   -1.390400   -5.491280
  F      1.619410   -0.400730   -5.036830
  H     -1.289790    0.895390   -5.674390
  H      0.237980    1.598770   -6.147920
  H     -0.183950    1.483860   -4.456230

 Total Charge           Charge          ....    0
 Multiplicity           Mult            ....    1
 Number of Electrons    NEL             ....   32
 Basis Dimension        Dim             ....  142

ORBITAL ENERGIES
----------------

  NO   OCC          E(Eh)            E(eV)
   0   2.0000     -24.854147      -676.3157
   1   2.0000     -19.236430      -523.4499
   2   2.0000     -10.459462      -284.6164
   3   2.0000     -10.300618      -280.2941
   4   2.0000      -1.433053       -38.9953
   5   2.0000      -1.147366       -31.2214
   6   2.0000      -0.890623       -24.2351
   7   2.0000      -0.765369       -20.8268
   8   2.0000      -0.651725       -17.7343
   9   2.0000      -0.647946       -17.6315
  10   2.0000      -0.608302       -16.5528
  11   2.0000      -0.545160       -14.8345
  12   2.0000      -0.533013       -14.5040
  13   2.0000      -0.499909       -13.6032
  14   2.0000      -0.450158       -12.2494
  15   2.0000      -0.390989       -10.6394
  16   0.0000       0.058869         1.6019
  17   0.0000       0.117179         3.1886
  18   0.0000       0.187809         5.1105
  19   0.0000       0.188918         5.1407
  20   0.0000       0.207051         5.6341

MULLIKEN ATOMIC CHARGES
-----------------------
   0 C :   -0.346311
   1 C :    0.387424
   2 O :   -0.361737
   3 F :   -0.109214
   4 H :    0.152566
   5 H :    0.136739
   6 H :    0.140534
Sum of atomic charges:   -0.0000000

LOEWDIN ATOMIC CHARGES
----------------------
   0 C :   -0.259357
   1 C :   -0.504367
   2 O :    0.050700
   3 F :    0.312959
   4 H :    0.136176
   5 H :    0.130758
   6 H :    0.133131

  Mayer bond orders larger than 0.100000
B(  0-C ,  1-C ) :   1.0021 B(  0-C ,  4-H ) :   0.9701 B(  0-C ,  5-H ) :   0.9510
B(  0-C ,  6-H ) :   0.9484 B(  1-C ,  2-O ) :   2.0404 B(  1-C ,  3-F ) :   1.1504

Dispersion correction           -0.000902822
FINAL SINGLE POINT ENERGY      -253.121458601410

DIPOLE MOMENT
-------------
                                X             Y             Z
Electronic contribution:      3.61332      -3.43729       0.64567
Nuclear contribution   :     -3.46039       4.64214      -0.59441
                        -----------------------------------------
Total Dipole Moment    :      0.15293       1.20485       0.05126
                        -----------------------------------------
Magnitude (a.u.)       :      1.21560
Magnitude (Debye)      :      3.08981

Rotational constants in cm-1:     0.366844     0.321935     0.177045
Rotational constants in MHz : 10997.709774  9651.373819  5307.687677

                             ****ORCA TERMINATED NORMALLY****
TOTAL RUN TIME: 0 days 0 hours 0 minutes 8 seconds 0 msec
