                         Program Version 5.0.0 -  RELEASE  -
|  1> !PBE D3BJ RIJCOSX def2-SVPD def2/J TightSCF
|  2> *xyz -1 1
|  3> C         -7.33044       -2.67899       -3.20681
|  4> S         -6.01966       -2.92697       -4.41913
|  5> O         -5.64583       -1.58838       -4.91931
|  6> O         -4.88196       -3.50370       -3.66724
|  7> O         -6.54927       -3.80515       -5.42507
|  8> H         -8.18867       -2.26077       -3.68996
|  9> H         -6.98921       -2.01038       -2.44430
| 10> H         -7.59151       -3.61862       -2.76655
| 11> *
| 12> %MaxCore 64000
| 13>
| 14> %pal nprocs 8
| 15> end
| 16>
| 17> %scf
| 18>   MaxIter 150
| 19> end
| 20>
| 21>
| 22>                          ****END OF INPUT****

CARTESIAN COORDINATES (ANGSTROEM)
---------------------------------
  C     -7.330440   -2.678990   -3.206810
  S     -6.019660   -2.926970   -4.419130
  O     -5.645830   -1.588380   -4.919310
  O     -4.881960   -3.503700   -3.667240
  O     -6.549270   -3.805150   -5.425070
  H     -8.188670   -2.260770   -3.689960
  H     -6.989210   -2.010380   -2.444300
  H     -7.591510   -3.618620   -2.766550

 Total Charge           Charge          ....   -1
 Multiplicity           Mult            ....    1
 Number of Electrons    NEL             ....   50
 Basis Dimension        Dim             ....  140

ORBITAL ENERGIES
----------------

  NO   OCC          E(Eh)            E(eV)
   0   2.0000     -88.055243     -2396.1050
   1   2.0000     -18.547474      -504.7024
   2   2.0000     -18.536707      -504.4094
   3   2.0000     -18.534377      -504.3460
   4   2.0000      -9.750244      -265.3176
   5   2.0000      -7.659141      -208.4158
   6   2.0000      -5.686121      -154.7272
   7   2.0000      -5.685958      -154.7228
   8   2.0000      -5.685645      -154.7143
   9   2.0000      -0.835693       -22.7404
  10   2.0000      -0.700255       -19.0549
  11   2.0000      -0.677973       -18.4486
  12   2.0000      -0.511696       -13.9240
  13   2.0000      -0.330394        -8.9905
  14   2.0000      -0.246493        -6.7074
  15   2.0000      -0.241373        -6.5681
  16   2.0000      -0.240275        -6.5382
  17   2.0000      -0.196957        -5.3595
  18   2.0000      -0.195427        -5.3178
  19   2.0000      -0.101281        -2.7560
  20   2.0000      -0.100016        -2.7216
  21   2.0000      -0.072688        -1.9779
  22   2.0000      -0.063519        -1.7285
  23   2.0000      -0.053669        -1.4604
  24   2.0000      -0.016085        -0.4377
  25   0.0000       0.135107         3.6765
  26   0.0000       0.172119         4.6836
  27   0.0000       0.172235         4.6868
  28   0.0000       0.175805         4.7839
  29   0.0000       0.195636         5.3235

MULLIKEN ATOMIC CHARGES
-----------------------
   0 C :    0.506962
   1 S :    0.921532
   2 O :   -0.737505
   3 O :   -0.743145
   4 O :   -0.693711
   5 H :   -0.087471
   6 H :   -0.084549
   7 H :   -0.082113
Sum of atomic charges:   -1.0000000

LOEWDIN ATOMIC CHARGES
----------------------
   0 C :    0.052461
   1 S :    0.783928
   2 O :   -0.575842
   3 O :   -0.579327
   4 O :   -0.557010
   5 H :   -0.042412
   6 H :   -0.040314
   7 H :   -0.041483

  Mayer bond orders larger than 0.100000
B(  0-C ,  1-S ) :   0.9314 B(  0-C ,  5-H ) :   0.9185 B(  0-C ,  6-H ) :   0.9212
B(  0-C ,  7-H ) :   0.9175 B(  1-S ,  2-O ) :   1.3417 B(  1-S ,  3-O ) :   1.3397
B(  1-S ,  4-O ) :   1.3758 B(  1-S ,  5-H ) :   0.1163 B(  1-S ,  6-H ) :   0.1251
B(  1-S ,  7-H ) :   0.1167

Dispersion correction           -0.006281057
FINAL SINGLE POINT ENERGY      -663.053937419105

DIPOLE MOMENT
-------------
                                X             Y             Z
Electronic contribution:      3.07356      -0.65587      -2.98566
Nuclear contribution   :     -4.26236       0.77434       3.87117
                        -----------------------------------------
Total Dipole Moment    :     -1.18880       0.11847       0.88551
                        -----------------------------------------
Magnitude (a.u.)       :      1.48708
Magnitude (Debye)      :      3.77985

Rotational constants in cm-1:     0.172427     0.155038     0.152780
Rotational constants in MHz :  5169.225473  4647.928623  4580.233540

                             ****ORCA TERMINATED NORMALLY****
TOTAL RUN TIME: 0 days 0 hours 0 minutes 3 seconds 368 msec
