                         Program Version 5.0.0 -  RELEASE  -
|  1> !PBE D3BJ RIJCOSX def2-SVPD def2/J TightSCF
|  2> *xyz 1 1
|  3> C         -2.16038       -1.36949       -3.46710
|  4> N         -3.03011       -1.91086       -4.54107
|  5> H         -3.47744       -2.79151       -4.25710
|  6> H         -2.53801       -2.01786       -5.43808
|  7> H         -3.89159       -1.37604       -4.71437
|  8> H         -1.71294       -0.45536       -3.79734
|  9> H         -1.39344       -2.07939       -3.23742
| 10> H         -2.74775       -1.18344       -2.59230
| 11> *
| 12> %MaxCore 64000
| 13>
| 14> %pal nprocs 8
| 15> end
| 16>
| 17> %scf
| 18>   MaxIter 150
| 19> end
| 20>
| 21>
| 22>                          ****END OF INPUT****

CARTESIAN COORDINATES (ANGSTROEM)
---------------------------------
  C     -2.160380   -1.369490   -3.467100
  N     -3.030110   -1.910860   -4.541070
  H     -3.477440   -2.791510   -4.257100
  H     -2.538010   -2.017860   -5.438080
  H     -3.891590   -1.376040   -4.714370
  H     -1.712940   -0.455360   -3.797340
  H     -1.393440   -2.079390   -3.237420
  H     -2.747750   -1.183440   -2.592300

 Total Charge           Charge          ....    1
 Multiplicity           Mult            ....    1
 Number of Electrons    NEL             ....   18
 Basis Dimension        Dim             ....   88

ORBITAL ENERGIES
----------------

  NO   OCC          E(Eh)            E(eV)
   0   2.0000     -14.349313      -390.4647
   1   2.0000     -10.154075      -276.3064
   2   2.0000      -1.141354       -31.0578
   3   2.0000      -0.875032       -23.8108
   4   2.0000      -0.768905       -20.9230
   5   2.0000      -0.741237       -20.1701
   6   2.0000      -0.675166       -18.3722
   7   2.0000      -0.583319       -15.8729
   8   2.0000      -0.579451       -15.7677
   9   0.0000      -0.228344        -6.2135
  10   0.0000      -0.166483        -4.5302
  11   0.0000      -0.160560        -4.3691
  12   0.0000      -0.152708        -4.1554
  13   0.0000      -0.107039        -2.9127

MULLIKEN ATOMIC CHARGES
-----------------------
   0 C :    1.018906
   1 N :   -0.832149
   2 H :    0.352629
   3 H :    0.363966
   4 H :    0.336038
   5 H :   -0.086975
   6 H :   -0.070209
   7 H :   -0.082205
Sum of atomic charges:    1.0000000

LOEWDIN ATOMIC CHARGES
----------------------
   0 C :    0.284877
   1 N :    0.311753
   2 H :    0.105811
   3 H :    0.111819
   4 H :    0.106988
   5 H :    0.025611
   6 H :    0.026803
   7 H :    0.026338

  Mayer bond orders larger than 0.100000
B(  0-C ,  1-N ) :   0.7831 B(  0-C ,  5-H ) :   0.8846 B(  0-C ,  6-H ) :   0.8719
B(  0-C ,  7-H ) :   0.8785 B(  1-N ,  2-H ) :   0.7855 B(  1-N ,  3-H ) :   0.7511
B(  1-N ,  4-H ) :   0.8038 B(  1-N ,  5-H ) :   0.1025 B(  1-N ,  6-H ) :   0.1082
B(  1-N ,  7-H ) :   0.1060

Dispersion correction           -0.003357302
FINAL SINGLE POINT ENERGY       -96.016200913237

DIPOLE MOMENT
-------------
                                X             Y             Z
Electronic contribution:     -0.57399      -0.37568      -0.78673
Nuclear contribution   :      0.00575       0.04584       0.17617
                        -----------------------------------------
Total Dipole Moment    :     -0.56823      -0.32983      -0.61056
                        -----------------------------------------
Magnitude (a.u.)       :      0.89692
Magnitude (Debye)      :      2.27978

Rotational constants in cm-1:     2.917716     0.684997     0.676552
Rotational constants in MHz : 87470.913131 20535.702929 20282.512120

                             ****ORCA TERMINATED NORMALLY****
TOTAL RUN TIME: 0 days 0 hours 0 minutes 2 seconds 387 msec
