                         Program Version 5.0.0 -  RELEASE  -
|  1> !PBE D3BJ RIJCOSX def2-SVPD def2/J TightSCF xyzfile
|  2>
|  3> *xyzfile 0 1 B.xyz
|  4>
|  5> %MaxCore 64000
|  6>
|  7> %pal nprocs 4
|  8> end
|  9>
| 10> %scf
| 11>   MaxIter 150
| 12> end
| 13>
| 14>
| 15>                          ****END OF INPUT****

CARTESIAN COORDINATES (ANGSTROEM)
---------------------------------
  C     -2.160376   -1.369486   -3.467104
  N     -3.030108   -1.910857   -4.541074
  C     -2.047717    0.146583   -3.511774
  C     -7.330440   -2.678991   -3.206811
  S     -6.019659   -2.926965   -4.419128
  H     -3.477443   -2.791513   -4.257096
  H     -2.538013   -2.017860   -5.438075
  H     -3.891589   -1.376039   -4.714365
  O     -5.645830   -1.588384   -4.919307
  O     -4.881961   -3.503697   -3.667235
  H     -1.184438   -1.843997   -3.566393
  H     -2.598195   -1.708376   -2.528477
  O     -6.549267   -3.805150   -5.425071
  C     -3.328755    0.875037   -3.103669
  H     -1.740034    0.452343   -4.517126
  H     -1.232611    0.434938   -2.842208
  C     -3.628487    0.771601   -1.609363
  H     -4.175106    0.490791   -3.682203
  H     -3.237812    1.928663   -3.381480
  C     -4.975718    1.361432   -1.190644
  H     -2.830700    1.276234   -1.054766
  H     -3.594312   -0.275838   -1.294603
  C     -6.184720    0.784347   -1.926464
  H     -4.956292    2.445725   -1.342200
  H     -5.097256    1.205252   -0.114136
  C     -6.286921   -0.735882   -1.893531
  H     -6.163994    1.100199   -2.974250
  H     -7.094530    1.223459   -1.504509
  C     -7.468999   -1.246153   -2.713833
  H     -6.360641   -1.090347   -0.859176
  H     -5.369848   -1.171853   -2.295982
  H     -7.601914   -0.601349   -3.585329
  H     -8.389791   -1.173436   -2.126922
  H     -7.118254   -3.379818   -2.398055
  H     -8.241838   -3.004745   -3.706513

 Total Charge           Charge          ....    0
 Multiplicity           Mult            ....    1
 Number of Electrons    NEL             ....  122
 Basis Dimension        Dim             ....  464

ORBITAL ENERGIES
----------------

  NO   OCC          E(Eh)            E(eV)
   0   2.0000     -88.223665     -2400.6880
   1   2.0000     -18.720060      -509.3987
   2   2.0000     -18.719584      -509.3858
   3   2.0000     -18.705063      -508.9906
   4   2.0000     -14.101048      -383.7090
   5   2.0000      -9.977846      -271.5110
   6   2.0000      -9.932967      -270.2898
   7   2.0000      -9.913690      -269.7652
   8   2.0000      -9.905556      -269.5439
   9   2.0000      -9.897986      -269.3379
  10   2.0000      -9.897660      -269.3290
  11   2.0000      -9.890324      -269.1294
  12   2.0000      -9.889792      -269.1149
  13   2.0000      -9.886775      -269.0328
  14   2.0000      -7.827287      -212.9913
  15   2.0000      -5.855213      -159.3284
  16   2.0000      -5.854223      -159.3015
  17   2.0000      -5.852584      -159.2569
  18   2.0000      -1.011312       -27.5192
  19   2.0000      -0.917689       -24.9716
  20   2.0000      -0.869369       -23.6567
  21   2.0000      -0.865373       -23.5480
  22   2.0000      -0.758596       -20.6424
  23   2.0000      -0.730879       -19.8882
  24   2.0000      -0.707255       -19.2454
  25   2.0000      -0.666889       -18.1470
  26   2.0000      -0.637092       -17.3361
  27   2.0000      -0.596416       -16.2293
  28   2.0000      -0.562209       -15.2985
  29   2.0000      -0.553036       -15.0489
  30   2.0000      -0.535669       -14.5763
  31   2.0000      -0.517463       -14.0809
  32   2.0000      -0.502647       -13.6777
  33   2.0000      -0.479927       -13.0595
  34   2.0000      -0.466453       -12.6928
  35   2.0000      -0.441164       -12.0047
  36   2.0000      -0.439671       -11.9640
  37   2.0000      -0.425219       -11.5708
  38   2.0000      -0.412090       -11.2135
  39   2.0000      -0.400175       -10.8893
  40   2.0000      -0.395127       -10.7520
  41   2.0000      -0.388352       -10.5676
  42   2.0000      -0.385504       -10.4901
  43   2.0000      -0.370434       -10.0800
  44   2.0000      -0.364523        -9.9192
  45   2.0000      -0.357184        -9.7195
  46   2.0000      -0.345933        -9.4133
  47   2.0000      -0.334902        -9.1131
  48   2.0000      -0.328227        -8.9315
  49   2.0000      -0.315036        -8.5726
  50   2.0000      -0.306693        -8.3455
  51   2.0000      -0.296525        -8.0689
  52   2.0000      -0.284891        -7.7523
  53   2.0000      -0.282898        -7.6980
  54   2.0000      -0.278400        -7.5756
  55   2.0000      -0.272042        -7.4026
  56   2.0000      -0.270726        -7.3668
  57   2.0000      -0.238413        -6.4875
  58   2.0000      -0.234664        -6.3855
  59   2.0000      -0.224609        -6.1119
  60   2.0000      -0.197645        -5.3782
  61   0.0000      -0.036097        -0.9822
  62   0.0000      -0.005784        -0.1574
  63   0.0000       0.000652         0.0177
  64   0.0000       0.006610         0.1799
  65   0.0000       0.016627         0.4525

MULLIKEN ATOMIC CHARGES
-----------------------
   0 C :    0.974732
   1 N :   -1.024085
   2 C :    0.429186
   3 C :    0.432877
   4 S :    1.171386
   5 H :    0.302065
   6 H :    0.495250
   7 H :    0.353566
   8 O :   -0.798108
   9 O :   -0.812222
  10 H :   -0.341944
  11 H :   -0.035960
  12 O :   -0.763241
  13 C :    0.455182
  14 H :   -0.079584
  15 H :   -0.031081
  16 C :   -0.179684
  17 H :   -0.528756
  18 H :   -0.092372
  19 C :    0.705452
  20 H :   -0.385233
  21 H :    0.143763
  22 C :   -0.108560
  23 H :   -0.039390
  24 H :    0.007916
  25 C :    0.241486
  26 H :    0.205481
  27 H :   -0.424955
  28 C :    0.280565
  29 H :   -0.061164
  30 H :   -0.278479
  31 H :    0.121968
  32 H :   -0.255487
  33 H :   -0.036209
  34 H :   -0.044362
Sum of atomic charges:    0.0000000

LOEWDIN ATOMIC CHARGES
----------------------
   0 C :    0.094150
   1 N :    0.333984
   2 C :   -0.013356
   3 C :   -0.053742
   4 S :    0.915738
   5 H :   -0.048601
   6 H :    0.100549
   7 H :   -0.038176
   8 O :   -0.507777
   9 O :   -0.512046
  10 H :    0.036489
  11 H :    0.033612
  12 O :   -0.482896
  13 C :   -0.017462
  14 H :    0.027775
  15 H :    0.031736
  16 C :   -0.036626
  17 H :    0.002099
  18 H :    0.034492
  19 C :   -0.029801
  20 H :    0.025438
  21 H :    0.006930
  22 C :   -0.037776
  23 H :    0.023797
  24 H :    0.025032
  25 C :   -0.029570
  26 H :    0.020699
  27 H :    0.027719
  28 C :   -0.046949
  29 H :    0.036739
  30 H :   -0.007396
  31 H :    0.021882
  32 H :    0.029155
  33 H :    0.019791
  34 H :    0.014369

  Mayer bond orders larger than 0.100000
B(  0-C ,  1-N ) :   0.6072 B(  0-C ,  2-C ) :   1.2192 B(  0-C , 10-H ) :   0.7701
B(  0-C , 11-H ) :   0.7210 B(  0-C , 13-C ) :   0.1231 B(  0-C , 15-H ) :   0.1716
B(  1-N ,  5-H ) :   0.7195 B(  1-N ,  6-H ) :   0.4971 B(  1-N ,  7-H ) :   0.6772
B(  1-N , 11-H ) :   0.2148 B(  2-C , 10-H ) :   0.1328 B(  2-C , 13-C ) :   1.1919
B(  2-C , 14-H ) :   0.6946 B(  2-C , 15-H ) :   0.7415 B(  2-C , 17-H ) :   0.1385
B(  3-C ,  4-S ) :   0.8641 B(  3-C , 12-O ) :   0.1507 B(  3-C , 28-C ) :   1.2666
B(  3-C , 31-H ) :   0.1048 B(  3-C , 33-H ) :   0.8610 B(  3-C , 34-H ) :   0.7343
B(  4-S ,  8-O ) :   1.1414 B(  4-S ,  9-O ) :   1.1466 B(  4-S , 12-O ) :   1.3964
B(  4-S , 33-H ) :   0.1052 B(  5-H ,  9-O ) :   0.1886 B(  7-H ,  8-O ) :   0.1598
B(  7-H , 17-H ) :   0.1124 B( 10-H , 11-H ) :  -0.1475 B( 11-H , 21-H ) :   0.1056
B( 13-C , 14-H ) :   0.1787 B( 13-C , 15-H ) :   0.1178 B( 13-C , 16-C ) :   1.1933
B( 13-C , 17-H ) :   0.6916 B( 13-C , 18-H ) :   0.7497 B( 13-C , 20-H ) :   0.2074
B( 13-C , 21-H ) :   0.1067 B( 16-C , 17-H ) :   0.2276 B( 16-C , 18-H ) :   0.1904
B( 16-C , 19-C ) :   1.1872 B( 16-C , 20-H ) :   0.9962 B( 16-C , 21-H ) :   0.8173
B( 16-C , 22-C ) :   0.1698 B( 16-C , 23-H ) :   0.1625 B( 16-C , 24-H ) :   0.2773
B( 17-H , 26-H ) :   0.1222 B( 19-C , 22-C ) :   1.1456 B( 19-C , 23-H ) :   0.6456
B( 19-C , 24-H ) :   0.6404 B( 22-C , 23-H ) :   0.2446 B( 22-C , 24-H ) :   0.1276
B( 22-C , 25-C ) :   1.2791 B( 22-C , 26-H ) :   0.7714 B( 22-C , 27-H ) :   0.9914
B( 22-C , 28-C ) :   0.1417 B( 22-C , 29-H ) :   0.1204 B( 22-C , 30-H ) :   0.1284
B( 23-H , 24-H ) :  -0.1151 B( 25-C , 26-H ) :   0.1109 B( 25-C , 27-H ) :   0.2117
B( 25-C , 28-C ) :   1.1695 B( 25-C , 29-H ) :   0.6864 B( 25-C , 30-H ) :   0.8905
B( 25-C , 32-H ) :   0.2080 B( 28-C , 29-H ) :   0.1406 B( 28-C , 31-H ) :   0.8089
B( 28-C , 32-H ) :   0.7874 B( 28-C , 34-H ) :   0.2329 B( 29-H , 30-H ) :   0.2273

Dispersion correction           -0.041842557
FINAL SINGLE POINT ENERGY     -1032.727568559038

DIPOLE MOMENT
-------------
                                X             Y             Z
Electronic contribution:     -6.02939     -15.23615     -11.43846
Nuclear contribution   :      8.59301      16.99497      12.41069
                        -----------------------------------------
Total Dipole Moment    :      2.56362       1.75883       0.97223
                        -----------------------------------------
Magnitude (a.u.)       :      3.25743
Magnitude (Debye)      :      8.27973

Rotational constants in cm-1:     0.025617     0.015295     0.010641
Rotational constants in MHz :   767.991150   458.522408   319.013093

                             ****ORCA TERMINATED NORMALLY****
TOTAL RUN TIME: 0 days 0 hours 0 minutes 45 seconds 367 msec
