                         Program Version 5.0.0 -  RELEASE  -
|  1> !PBE D3BJ RIJCOSX def2-SVPD def2/J TightSCF
|  2> *xyz 0 1
|  3> C         -7.33044       -2.67899       -3.20681
|  4> S         -6.01966       -2.92697       -4.41913
|  5> F         -5.64583       -1.58838       -4.91931
|  6> O         -4.88196       -3.50370       -3.66724
|  7> O         -6.54927       -3.80515       -5.42507
|  8> H         -8.18867       -2.26077       -3.68996
|  9> H         -6.98921       -2.01038       -2.44430
| 10> H         -7.59151       -3.61862       -2.76655
| 11> *
| 12> %MaxCore 64000
| 13>
| 14> %pal nprocs 8
| 15> end
| 16>
| 17> %scf
| 18>   MaxIter 150
| 19> end
| 20>
| 21>
| 22>                          ****END OF INPUT****

CARTESIAN COORDINATES (ANGSTROEM)
---------------------------------
  C     -7.330440   -2.678990   -3.206810
  S     -6.019660   -2.926970   -4.419130
  F     -5.645830   -1.588380   -4.919310
  O     -4.881960   -3.503700   -3.667240
  O     -6.549270   -3.805150   -5.425070
  H     -8.188670   -2.260770   -3.689960
  H     -6.989210   -2.010380   -2.444300
  H     -7.591510   -3.618620   -2.766550

 Total Charge           Charge          ....    0
 Multiplicity           Mult            ....    1
 Number of Electrons    NEL             ....   50
 Basis Dimension        Dim             ....  140

ORBITAL ENERGIES
----------------

  NO   OCC          E(Eh)            E(eV)
   0   2.0000     -88.315612     -2403.1900
   1   2.0000     -24.377775      -663.3530
   2   2.0000     -18.784788      -511.1601
   3   2.0000     -18.771220      -510.7909
   4   2.0000      -9.958458      -270.9834
   5   2.0000      -7.920343      -215.5235
   6   2.0000      -5.951403      -161.9459
   7   2.0000      -5.945113      -161.7748
   8   2.0000      -5.944068      -161.7463
   9   2.0000      -1.248470       -33.9726
  10   2.0000      -1.025848       -27.9147
  11   2.0000      -0.926458       -25.2102
  12   2.0000      -0.731374       -19.9017
  13   2.0000      -0.643858       -17.5203
  14   2.0000      -0.536854       -14.6085
  15   2.0000      -0.508735       -13.8434
  16   2.0000      -0.497571       -13.5396
  17   2.0000      -0.432874       -11.7791
  18   2.0000      -0.429375       -11.6839
  19   2.0000      -0.420775       -11.4499
  20   2.0000      -0.395044       -10.7497
  21   2.0000      -0.344609        -9.3773
  22   2.0000      -0.303133        -8.2487
  23   2.0000      -0.287868        -7.8333
  24   2.0000      -0.269145        -7.3238
  25   0.0000      -0.036537        -0.9942
  26   0.0000      -0.003698        -0.1006
  27   0.0000       0.012870         0.3502
  28   0.0000       0.030324         0.8252
  29   0.0000       0.031742         0.8638

MULLIKEN ATOMIC CHARGES
-----------------------
   0 C :    0.495403
   1 S :    1.108506
   2 F :   -0.346766
   3 O :   -0.609710
   4 O :   -0.566045
   5 H :   -0.025320
   6 H :   -0.025601
   7 H :   -0.030467
Sum of atomic charges:    0.0000000

LOEWDIN ATOMIC CHARGES
----------------------
   0 C :    0.121629
   1 S :    1.057694
   2 F :   -0.256060
   3 O :   -0.457845
   4 O :   -0.437651
   5 H :   -0.014460
   6 H :   -0.013277
   7 H :   -0.000030

  Mayer bond orders larger than 0.100000
B(  0-C ,  1-S ) :   0.9924 B(  0-C ,  5-H ) :   0.9076 B(  0-C ,  6-H ) :   0.9103
B(  0-C ,  7-H ) :   0.9065 B(  1-S ,  2-F ) :   0.7056 B(  1-S ,  3-O ) :   1.5364
B(  1-S ,  4-O ) :   1.5721 B(  1-S ,  7-H ) :   0.1153

Dispersion correction           -0.005900482
FINAL SINGLE POINT ENERGY      -687.537696003816

DIPOLE MOMENT
-------------
                                X             Y             Z
Electronic contribution:      3.60217       1.53617      -3.76679
Nuclear contribution   :     -4.68608      -0.54182       4.44322
                        -----------------------------------------
Total Dipole Moment    :     -1.08391       0.99434       0.67643
                        -----------------------------------------
Magnitude (a.u.)       :      1.61899
Magnitude (Debye)      :      4.11515

Rotational constants in cm-1:     0.164393     0.151201     0.145518
Rotational constants in MHz :  4928.381777  4532.884356  4362.527209

                             ****ORCA TERMINATED NORMALLY****
TOTAL RUN TIME: 0 days 0 hours 0 minutes 3 seconds 447 msec
