                         Program Version 5.0.0 -  RELEASE  -
|  1> !PBE D3BJ RIJCOSX def2-SVPD def2/J TightSCF
|  2> *xyz 0 1
|  3> C         -2.16038       -1.36949       -3.46710
|  4> C         -3.03011       -1.91086       -4.54107
|  5> H         -3.47744       -2.79151       -4.25710
|  6> H         -2.53801       -2.01786       -5.43808
|  7> H         -3.89159       -1.37604       -4.71437
|  8> H         -1.71294       -0.45536       -3.79734
|  9> H         -1.39344       -2.07939       -3.23742
| 10> H         -2.74775       -1.18344       -2.59230
| 11> *
| 12> %MaxCore 64000
| 13>
| 14> %pal nprocs 8
| 15> end
| 16>
| 17> %scf
| 18>   MaxIter 150
| 19> end
| 20>
| 21>
| 22>                          ****END OF INPUT****

CARTESIAN COORDINATES (ANGSTROEM)
---------------------------------
  C     -2.160380   -1.369490   -3.467100
  C     -3.030110   -1.910860   -4.541070
  H     -3.477440   -2.791510   -4.257100
  H     -2.538010   -2.017860   -5.438080
  H     -3.891590   -1.376040   -4.714370
  H     -1.712940   -0.455360   -3.797340
  H     -1.393440   -2.079390   -3.237420
  H     -2.747750   -1.183440   -2.592300

 Total Charge           Charge          ....    0
 Multiplicity           Mult            ....    1
 Number of Electrons    NEL             ....   18
 Basis Dimension        Dim             ....   88

ORBITAL ENERGIES
----------------

  NO   OCC          E(Eh)            E(eV)
   0   2.0000      -9.874868      -268.7088
   1   2.0000      -9.861037      -268.3325
   2   2.0000      -0.691613       -18.8198
   3   2.0000      -0.557864       -15.1803
   4   2.0000      -0.404914       -11.0183
   5   2.0000      -0.390216       -10.6183
   6   2.0000      -0.333016        -9.0618
   7   2.0000      -0.307680        -8.3724
   8   2.0000      -0.291853        -7.9417
   9   0.0000       0.011976         0.3259
  10   0.0000       0.044184         1.2023
  11   0.0000       0.081063         2.2058
  12   0.0000       0.084672         2.3040
  13   0.0000       0.103913         2.8276

MULLIKEN ATOMIC CHARGES
-----------------------
   0 C :    0.293696
   1 C :    0.537434
   2 H :   -0.209868
   3 H :   -0.201173
   4 H :   -0.227875
   5 H :   -0.071782
   6 H :   -0.064603
   7 H :   -0.055829
Sum of atomic charges:   -0.0000000

LOEWDIN ATOMIC CHARGES
----------------------
   0 C :    0.080983
   1 C :    0.074371
   2 H :   -0.037432
   3 H :   -0.030938
   4 H :   -0.037923
   5 H :   -0.017419
   6 H :   -0.015915
   7 H :   -0.015728

  Mayer bond orders larger than 0.100000
B(  0-C ,  1-C ) :   1.4951 B(  0-C ,  2-H ) :   0.1703 B(  0-C ,  3-H ) :   0.1723
B(  0-C ,  4-H ) :   0.1489 B(  0-C ,  5-H ) :   0.8556 B(  0-C ,  6-H ) :   0.8326
B(  0-C ,  7-H ) :   0.8533 B(  1-C ,  2-H ) :   0.7335 B(  1-C ,  3-H ) :   0.7838
B(  1-C ,  4-H ) :   0.7372 B(  1-C ,  5-H ) :   0.1643 B(  1-C ,  6-H ) :   0.1714
B(  1-C ,  7-H ) :   0.1694 B(  2-H ,  4-H ) :   0.2541

Dispersion correction           -0.003348660
FINAL SINGLE POINT ENERGY       -79.630759781029

DIPOLE MOMENT
-------------
                                X             Y             Z
Electronic contribution:      0.10257       0.03340      -0.00125
Nuclear contribution   :     -0.14218      -0.04688      -0.00907
                        -----------------------------------------
Total Dipole Moment    :     -0.03961      -0.01348      -0.01032
                        -----------------------------------------
Magnitude (a.u.)       :      0.04309
Magnitude (Debye)      :      0.10954

Rotational constants in cm-1:     2.917838     0.714537     0.705359
Rotational constants in MHz : 87474.579540 21421.280941 21146.123231

                             ****ORCA TERMINATED NORMALLY****
TOTAL RUN TIME: 0 days 0 hours 0 minutes 2 seconds 354 msec
