                         Program Version 5.0.0 -  RELEASE  -
|  1> !PBE D3BJ RIJCOSX def2-SVPD def2/J TightSCF
|  2> *xyz 0 1
|  3> C         -7.33044       -2.67899       -3.20681
|  4> S         -6.01966       -2.92697       -4.41913
|  5> O         -5.64583       -1.58838       -4.91931
|  6> F         -4.88196       -3.50370       -3.66724
|  7> O         -6.54927       -3.80515       -5.42507
|  8> H         -8.18867       -2.26077       -3.68996
|  9> H         -6.98921       -2.01038       -2.44430
| 10> H         -7.59151       -3.61862       -2.76655
| 11> *
| 12> %MaxCore 64000
| 13>
| 14> %pal nprocs 8
| 15> end
| 16>
| 17> %scf
| 18>   MaxIter 150
| 19> end
| 20>
| 21>
| 22>                          ****END OF INPUT****

CARTESIAN COORDINATES (ANGSTROEM)
---------------------------------
  C     -7.330440   -2.678990   -3.206810
  S     -6.019660   -2.926970   -4.419130
  O     -5.645830   -1.588380   -4.919310
  F     -4.881960   -3.503700   -3.667240
  O     -6.549270   -3.805150   -5.425070
  H     -8.188670   -2.260770   -3.689960
  H     -6.989210   -2.010380   -2.444300
  H     -7.591510   -3.618620   -2.766550

 Total Charge           Charge          ....    0
 Multiplicity           Mult            ....    1
 Number of Electrons    NEL             ....   50
 Basis Dimension        Dim             ....  140

ORBITAL ENERGIES
----------------

  NO   OCC          E(Eh)            E(eV)
   0   2.0000     -88.315456     -2403.1857
   1   2.0000     -24.375124      -663.2809
   2   2.0000     -18.784620      -511.1555
   3   2.0000     -18.773498      -510.8529
   4   2.0000      -9.958336      -270.9801
   5   2.0000      -7.920166      -215.5187
   6   2.0000      -5.951205      -161.9405
   7   2.0000      -5.944974      -161.7710
   8   2.0000      -5.943903      -161.7418
   9   2.0000      -1.245053       -33.8796
  10   2.0000      -1.026326       -27.9278
  11   2.0000      -0.928926       -25.2774
  12   2.0000      -0.731610       -19.9081
  13   2.0000      -0.641777       -17.4636
  14   2.0000      -0.535660       -14.5761
  15   2.0000      -0.506441       -13.7810
  16   2.0000      -0.496945       -13.5226
  17   2.0000      -0.432661       -11.7733
  18   2.0000      -0.429730       -11.6935
  19   2.0000      -0.419844       -11.4245
  20   2.0000      -0.395746       -10.7688
  21   2.0000      -0.345029        -9.3887
  22   2.0000      -0.303445        -8.2572
  23   2.0000      -0.290451        -7.9036
  24   2.0000      -0.271105        -7.3771
  25   0.0000      -0.034334        -0.9343
  26   0.0000      -0.002869        -0.0781
  27   0.0000       0.012811         0.3486
  28   0.0000       0.031043         0.8447
  29   0.0000       0.031858         0.8669

MULLIKEN ATOMIC CHARGES
-----------------------
   0 C :    0.494501
   1 S :    1.109714
   2 O :   -0.606256
   3 F :   -0.348505
   4 O :   -0.567632
   5 H :   -0.035470
   6 H :   -0.025052
   7 H :   -0.021300
Sum of atomic charges:    0.0000000

LOEWDIN ATOMIC CHARGES
----------------------
   0 C :    0.121646
   1 S :    1.057145
   2 O :   -0.454517
   3 F :   -0.258644
   4 O :   -0.437953
   5 H :   -0.000661
   6 H :   -0.013026
   7 H :   -0.013990

  Mayer bond orders larger than 0.100000
B(  0-C ,  1-S ) :   0.9917 B(  0-C ,  5-H ) :   0.9074 B(  0-C ,  6-H ) :   0.9113
B(  0-C ,  7-H ) :   0.9061 B(  1-S ,  2-O ) :   1.5382 B(  1-S ,  3-F ) :   0.7024
B(  1-S ,  4-O ) :   1.5722 B(  1-S ,  5-H ) :   0.1155 B(  1-S ,  6-H ) :   0.1001

Dispersion correction           -0.005899454
FINAL SINGLE POINT ENERGY      -687.540260640691

DIPOLE MOMENT
-------------
                                X             Y             Z
Electronic contribution:      4.85798      -1.60316      -1.71331
Nuclear contribution   :     -5.44924       1.37171       3.19232
                        -----------------------------------------
Total Dipole Moment    :     -0.59125      -0.23145       1.47901
                        -----------------------------------------
Magnitude (a.u.)       :      1.60954
Magnitude (Debye)      :      4.09113

Rotational constants in cm-1:     0.163884     0.151426     0.145804
Rotational constants in MHz :  4913.124213  4539.628058  4371.086672

                             ****ORCA TERMINATED NORMALLY****
TOTAL RUN TIME: 0 days 0 hours 0 minutes 3 seconds 445 msec
