                         Program Version 5.0.0 -  RELEASE  -
|  1> !PBE D3BJ RIJCOSX def2-SVPD def2/J TightSCF
|  2> *xyz 0 1
|  3> C         -7.33044       -2.67899       -3.20681
|  4> S         -6.01966       -2.92697       -4.41913
|  5> O         -5.64583       -1.58838       -4.91931
|  6> O         -4.88196       -3.50370       -3.66724
|  7> F         -6.54927       -3.80515       -5.42507
|  8> H         -8.18867       -2.26077       -3.68996
|  9> H         -6.98921       -2.01038       -2.44430
| 10> H         -7.59151       -3.61862       -2.76655
| 11> *
| 12> %MaxCore 64000
| 13>
| 14> %pal nprocs 8
| 15> end
| 16>
| 17> %scf
| 18>   MaxIter 150
| 19> end
| 20>
| 21>
| 22>                          ****END OF INPUT****

CARTESIAN COORDINATES (ANGSTROEM)
---------------------------------
  C     -7.330440   -2.678990   -3.206810
  S     -6.019660   -2.926970   -4.419130
  O     -5.645830   -1.588380   -4.919310
  O     -4.881960   -3.503700   -3.667240
  F     -6.549270   -3.805150   -5.425070
  H     -8.188670   -2.260770   -3.689960
  H     -6.989210   -2.010380   -2.444300
  H     -7.591510   -3.618620   -2.766550

 Total Charge           Charge          ....    0
 Multiplicity           Mult            ....    1
 Number of Electrons    NEL             ....   50
 Basis Dimension        Dim             ....  140

ORBITAL ENERGIES
----------------

  NO   OCC          E(Eh)            E(eV)
   0   2.0000     -88.318087     -2403.2573
   1   2.0000     -24.396176      -663.8537
   2   2.0000     -18.773978      -510.8659
   3   2.0000     -18.771543      -510.7996
   4   2.0000      -9.959230      -271.0044
   5   2.0000      -7.922703      -215.5877
   6   2.0000      -5.954063      -162.0183
   7   2.0000      -5.947237      -161.8325
   8   2.0000      -5.946220      -161.8049
   9   2.0000      -1.281397       -34.8686
  10   2.0000      -1.011536       -27.5253
  11   2.0000      -0.912495       -24.8303
  12   2.0000      -0.734146       -19.9771
  13   2.0000      -0.658745       -17.9254
  14   2.0000      -0.549938       -14.9646
  15   2.0000      -0.531329       -14.4582
  16   2.0000      -0.503222       -13.6934
  17   2.0000      -0.433513       -11.7965
  18   2.0000      -0.428140       -11.6503
  19   2.0000      -0.420761       -11.4495
  20   2.0000      -0.390145       -10.6164
  21   2.0000      -0.336470        -9.1558
  22   2.0000      -0.293851        -7.9961
  23   2.0000      -0.283806        -7.7228
  24   2.0000      -0.258092        -7.0230
  25   0.0000      -0.035022        -0.9530
  26   0.0000      -0.001176        -0.0320
  27   0.0000       0.011624         0.3163
  28   0.0000       0.021577         0.5872
  29   0.0000       0.030998         0.8435

MULLIKEN ATOMIC CHARGES
-----------------------
   0 C :    0.496238
   1 S :    1.100590
   2 O :   -0.594163
   3 O :   -0.599534
   4 F :   -0.323248
   5 H :   -0.025913
   6 H :   -0.034231
   7 H :   -0.019739
Sum of atomic charges:   -0.0000000

LOEWDIN ATOMIC CHARGES
----------------------
   0 C :    0.120917
   1 S :    1.058910
   2 O :   -0.454015
   3 O :   -0.457545
   4 F :   -0.240507
   5 H :   -0.014789
   6 H :    0.000670
   7 H :   -0.013639

  Mayer bond orders larger than 0.100000
B(  0-C ,  1-S ) :   0.9925 B(  0-C ,  5-H ) :   0.9061 B(  0-C ,  6-H ) :   0.9114
B(  0-C ,  7-H ) :   0.9057 B(  1-S ,  2-O ) :   1.5414 B(  1-S ,  3-O ) :   1.5396
B(  1-S ,  4-F ) :   0.7545 B(  1-S ,  6-H ) :   0.1225

Dispersion correction           -0.005898906
FINAL SINGLE POINT ENERGY      -687.522316280480

DIPOLE MOMENT
-------------
                                X             Y             Z
Electronic contribution:      2.13823      -2.08116      -4.58462
Nuclear contribution   :     -3.78348       1.67287       4.94851
                        -----------------------------------------
Total Dipole Moment    :     -1.64526      -0.40829       0.36389
                        -----------------------------------------
Magnitude (a.u.)       :      1.73378
Magnitude (Debye)      :      4.40691

Rotational constants in cm-1:     0.163108     0.153882     0.144407
Rotational constants in MHz :  4889.859464  4613.257659  4329.207840

                             ****ORCA TERMINATED NORMALLY****
TOTAL RUN TIME: 0 days 0 hours 0 minutes 3 seconds 621 msec
