                         Program Version 5.0.0 -  RELEASE  -
|  1> !wB97X-D3 RIJCOSX def2-TZVP def2/J TightSCF
|  2> *xyz -1 1
|  3> C         -2.12050        0.88520        1.78951
|  4> C         -0.77894        0.17197        1.80496
|  5> H          0.01569        0.91077        1.93915
|  6> H         -0.74355       -0.50683        2.66542
|  7> C         -0.60249       -0.63071        0.49224
|  8> H          0.31389       -1.24035        0.60350
|  9> H         -0.36383        0.11332       -0.30117
| 10> O         -1.71206       -1.37684        0.20253
| 11> H         -2.16160        1.54956        0.95175
| 12> H         -2.23761        1.44436        2.69423
| 13> H         -2.90702        0.16393        1.71165
| 14> *
| 15> %MaxCore 64000
| 16>
| 17> %pal nprocs 18
| 18> end
| 19> %scf
| 20>   MaxIter 150
| 21> end
| 22>
| 23>                          ****END OF INPUT****

CARTESIAN COORDINATES (ANGSTROEM)
---------------------------------
  C     -2.120500    0.885200    1.789510
  C     -0.778940    0.171970    1.804960
  H      0.015690    0.910770    1.939150
  H     -0.743550   -0.506830    2.665420
  C     -0.602490   -0.630710    0.492240
  H      0.313890   -1.240350    0.603500
  H     -0.363830    0.113320   -0.301170
  O     -1.712060   -1.376840    0.202530
  H     -2.161600    1.549560    0.951750
  H     -2.237610    1.444360    2.694230
  H     -2.907020    0.163930    1.711650

 Total Charge           Charge          ....   -1
 Multiplicity           Mult            ....    1
 Number of Electrons    NEL             ....   34
 Basis Dimension        Dim             ....  166

ORBITAL ENERGIES
----------------

  NO   OCC          E(Eh)            E(eV)
   0   2.0000     -18.878325      -513.7053
   1   2.0000     -10.082182      -274.3501
   2   2.0000     -10.077421      -274.2206
   3   2.0000     -10.075092      -274.1572
   4   2.0000      -0.788809       -21.4646
   5   2.0000      -0.690070       -18.7778
   6   2.0000      -0.569554       -15.4983
   7   2.0000      -0.466648       -12.6981
   8   2.0000      -0.370761       -10.0889
   9   2.0000      -0.359069        -9.7708
  10   2.0000      -0.303953        -8.2710
  11   2.0000      -0.275775        -7.5042
  12   2.0000      -0.243391        -6.6230
  13   2.0000      -0.239212        -6.5093
  14   2.0000      -0.197061        -5.3623
  15   2.0000      -0.053184        -1.4472
  16   2.0000      -0.050799        -1.3823
  17   0.0000       0.278124         7.5681
  18   0.0000       0.309992         8.4353
  19   0.0000       0.321838         8.7577
  20   0.0000       0.341743         9.2993
  21   0.0000       0.351419         9.5626

MULLIKEN ATOMIC CHARGES
-----------------------
   0 C :   -0.272901
   1 C :   -0.061714
   2 H :   -0.021592
   3 H :    0.012175
   4 C :    0.096337
   5 H :   -0.066621
   6 H :   -0.081955
   7 O :   -0.789054
   8 H :    0.053318
   9 H :    0.032072
  10 H :    0.099935
Sum of atomic charges:   -1.0000000

LOEWDIN ATOMIC CHARGES
----------------------
   0 C :   -0.340192
   1 C :   -0.332146
   2 H :    0.094420
   3 H :    0.105894
   4 C :   -0.520906
   5 H :    0.059267
   6 H :    0.056326
   7 O :   -0.422906
   8 H :    0.102016
   9 H :    0.085437
  10 H :    0.112791

  Mayer bond orders larger than 0.100000
B(  0-C ,  1-C ) :   0.9841 B(  0-C ,  8-H ) :   0.9766 B(  0-C ,  9-H ) :   0.9742
B(  0-C , 10-H ) :   0.9666 B(  1-C ,  2-H ) :   0.9476 B(  1-C ,  3-H ) :   0.9682
B(  1-C ,  4-C ) :   0.9397 B(  1-C ,  7-O ) :  -0.1153 B(  4-C ,  5-H ) :   0.9355
B(  4-C ,  6-H ) :   0.9116 B(  4-C ,  7-O ) :   1.5315

Dispersion correction           -0.001904531
FINAL SINGLE POINT ENERGY      -193.752301800904

DIPOLE MOMENT
-------------
                                X             Y             Z
Electronic contribution:     -0.66788      -2.49656      -1.52871
Nuclear contribution   :      1.03476       3.87369       2.65163
                        -----------------------------------------
Total Dipole Moment    :      0.36687       1.37713       1.12292
                        -----------------------------------------
Magnitude (a.u.)       :      1.81439
Magnitude (Debye)      :      4.61182

Rotational constants in cm-1:     0.475803     0.193433     0.155403
Rotational constants in MHz : 14264.216647  5798.988361  4658.874800

                             ****ORCA TERMINATED NORMALLY****
TOTAL RUN TIME: 0 days 0 hours 0 minutes 11 seconds 861 msec
