                         Program Version 5.0.0 -  RELEASE  -
|  1> !wB97X-D3 RIJCOSX def2-TZVP def2/J TightSCF
|  2> *xyz 1 1
|  3> C         -2.12050        0.88520        1.78951
|  4> C         -0.77894        0.17197        1.80496
|  5> H         -2.32419        1.47265        2.68608
|  6> H         -2.18770        1.54127        0.91948
|  7> N         -3.17690       -0.15948        1.61070
|  8> H          0.01569        0.91077        1.93915
|  9> H         -0.74355       -0.50683        2.66542
| 10> C         -0.60249       -0.63071        0.49224
| 11> H         -4.06474        0.23127        1.28675
| 12> H         -3.34407       -0.67151        2.48493
| 13> H         -2.71686       -0.78189        0.93588
| 14> H         -0.63812        0.03805       -0.34226
| 15> H         -1.38918       -1.35085        0.40604
| 16> H          0.34172       -1.13388        0.50602
| 17> *
| 18> %MaxCore 64000
| 19>
| 20> %pal nprocs 18
| 21> end
| 22>
| 23> %scf
| 24>   MaxIter 150
| 25> end
| 26>
| 27>
| 28>                          ****END OF INPUT****

CARTESIAN COORDINATES (ANGSTROEM)
---------------------------------
  C     -2.120500    0.885200    1.789510
  C     -0.778940    0.171970    1.804960
  H     -2.324190    1.472650    2.686080
  H     -2.187700    1.541270    0.919480
  N     -3.176900   -0.159480    1.610700
  H      0.015690    0.910770    1.939150
  H     -0.743550   -0.506830    2.665420
  C     -0.602490   -0.630710    0.492240
  H     -4.064740    0.231270    1.286750
  H     -3.344070   -0.671510    2.484930
  H     -2.716860   -0.781890    0.935880
  H     -0.638120    0.038050   -0.342260
  H     -1.389180   -1.350850    0.406040
  H      0.341720   -1.133880    0.506020

 Total Charge           Charge          ....    1
 Multiplicity           Mult            ....    1
 Number of Electrons    NEL             ....   34
 Basis Dimension        Dim             ....  184

ORBITAL ENERGIES
----------------

  NO   OCC          E(Eh)            E(eV)
   0   2.0000     -14.742348      -401.1597
   1   2.0000     -10.521628      -286.3080
   2   2.0000     -10.460250      -284.6379
   3   2.0000     -10.436880      -284.0019
   4   2.0000      -1.324340       -36.0371
   5   2.0000      -1.093843       -29.7650
   6   2.0000      -1.001912       -27.2634
   7   2.0000      -0.910022       -24.7630
   8   2.0000      -0.901118       -24.5207
   9   2.0000      -0.873954       -23.7815
  10   2.0000      -0.783562       -21.3218
  11   2.0000      -0.740140       -20.1402
  12   2.0000      -0.710298       -19.3282
  13   2.0000      -0.685280       -18.6474
  14   2.0000      -0.635403       -17.2902
  15   2.0000      -0.624706       -16.9991
  16   2.0000      -0.618919       -16.8416
  17   0.0000      -0.096114        -2.6154
  18   0.0000      -0.041913        -1.1405
  19   0.0000      -0.031744        -0.8638
  20   0.0000      -0.022988        -0.6255
  21   0.0000       0.010833         0.2948

MULLIKEN ATOMIC CHARGES
-----------------------
   0 C :   -0.220631
   1 C :   -0.249319
   2 H :    0.201097
   3 H :    0.197553
   4 N :   -0.285256
   5 H :    0.177883
   6 H :    0.150399
   7 C :   -0.362386
   8 H :    0.340968
   9 H :    0.332622
  10 H :    0.285972
  11 H :    0.164840
  12 H :    0.081625
  13 H :    0.184633
Sum of atomic charges:    1.0000000

LOEWDIN ATOMIC CHARGES
----------------------
   0 C :   -0.254445
   1 C :   -0.278008
   2 H :    0.151107
   3 H :    0.154313
   4 N :    0.168447
   5 H :    0.161688
   6 H :    0.147937
   7 C :   -0.277854
   8 H :    0.218848
   9 H :    0.221819
  10 H :    0.207118
  11 H :    0.131314
  12 H :    0.106740
  13 H :    0.140976

  Mayer bond orders larger than 0.100000
B(  0-C ,  1-C ) :   0.9684 B(  0-C ,  2-H ) :   0.9511 B(  0-C ,  3-H ) :   0.9636
B(  0-C ,  4-N ) :   0.8729 B(  1-C ,  5-H ) :   0.9532 B(  1-C ,  6-H ) :   0.9621
B(  1-C ,  7-C ) :   0.9594 B(  4-N ,  8-H ) :   0.8716 B(  4-N ,  9-H ) :   0.8740
B(  4-N , 10-H ) :   0.8602 B(  7-C , 11-H ) :   0.9648 B(  7-C , 12-H ) :   0.9425
B(  7-C , 13-H ) :   0.9607

Dispersion correction           -0.002778400
FINAL SINGLE POINT ENERGY      -174.864429749215

DIPOLE MOMENT
-------------
                                X             Y             Z
Electronic contribution:     -1.86291       0.50845       0.94187
Nuclear contribution   :      0.18509      -0.64781      -0.64735
                        -----------------------------------------
Total Dipole Moment    :     -1.67782      -0.13936       0.29452
                        -----------------------------------------
Magnitude (a.u.)       :      1.70916
Magnitude (Debye)      :      4.34434

Rotational constants in cm-1:     0.411855     0.178330     0.145265
Rotational constants in MHz : 12347.103052  5346.196801  4354.936890

                             ****ORCA TERMINATED NORMALLY****
TOTAL RUN TIME: 0 days 0 hours 0 minutes 11 seconds 334 msec
