                         Program Version 5.0.0 -  RELEASE  -
|  1> !wB97X-D3 RIJCOSX def2-TZVP def2/J TightSCF
|  2> *xyz 0 1
|  3> C         -2.12050        0.88520        1.78951
|  4> C         -0.77894        0.17197        1.80496
|  5> H          0.01569        0.91077        1.93915
|  6> H         -0.74355       -0.50683        2.66542
|  7> C         -0.60249       -0.63071        0.49224
|  8> H          0.31389       -1.24035        0.60350
|  9> H         -0.36383        0.11332       -0.30117
| 10> F         -1.71206       -1.37684        0.20253
| 11> H         -2.16160        1.54956        0.95175
| 12> H         -2.23761        1.44436        2.69423
| 13> H         -2.90702        0.16393        1.71165
| 14> *
| 15> %MaxCore 64000
| 16>
| 17> %pal nprocs 18
| 18> end
| 19> %scf
| 20>   MaxIter 150
| 21> end
| 22>
| 23>                          ****END OF INPUT****

CARTESIAN COORDINATES (ANGSTROEM)
---------------------------------
  C     -2.120500    0.885200    1.789510
  C     -0.778940    0.171970    1.804960
  H      0.015690    0.910770    1.939150
  H     -0.743550   -0.506830    2.665420
  C     -0.602490   -0.630710    0.492240
  H      0.313890   -1.240350    0.603500
  H     -0.363830    0.113320   -0.301170
  F     -1.712060   -1.376840    0.202530
  H     -2.161600    1.549560    0.951750
  H     -2.237610    1.444360    2.694230
  H     -2.907020    0.163930    1.711650

 Total Charge           Charge          ....    0
 Multiplicity           Mult            ....    1
 Number of Electrons    NEL             ....   34
 Basis Dimension        Dim             ....  166

ORBITAL ENERGIES
----------------

  NO   OCC          E(Eh)            E(eV)
   0   2.0000     -24.771286      -674.0610
   1   2.0000     -10.351434      -281.6768
   2   2.0000     -10.278254      -279.6855
   3   2.0000     -10.255001      -279.0528
   4   2.0000      -1.315190       -35.7881
   5   2.0000      -0.905514       -24.6403
   6   2.0000      -0.801440       -21.8083
   7   2.0000      -0.704556       -19.1719
   8   2.0000      -0.610736       -16.6190
   9   2.0000      -0.597450       -16.2574
  10   2.0000      -0.575084       -15.6488
  11   2.0000      -0.535456       -14.5705
  12   2.0000      -0.492761       -13.4087
  13   2.0000      -0.469758       -12.7828
  14   2.0000      -0.447736       -12.1835
  15   2.0000      -0.420162       -11.4332
  16   2.0000      -0.416156       -11.3242
  17   0.0000       0.119809         3.2602
  18   0.0000       0.151945         4.1346
  19   0.0000       0.162120         4.4115
  20   0.0000       0.177341         4.8257
  21   0.0000       0.187914         5.1134

MULLIKEN ATOMIC CHARGES
-----------------------
   0 C :   -0.333415
   1 C :   -0.197294
   2 H :    0.100672
   3 H :    0.099120
   4 C :    0.040993
   5 H :    0.096038
   6 H :    0.088304
   7 F :   -0.235877
   8 H :    0.100966
   9 H :    0.112661
  10 H :    0.127832
Sum of atomic charges:   -0.0000000

LOEWDIN ATOMIC CHARGES
----------------------
   0 C :   -0.309285
   1 C :   -0.302360
   2 H :    0.135372
   3 H :    0.131938
   4 C :   -0.344388
   5 H :    0.117609
   6 H :    0.119494
   7 F :    0.101964
   8 H :    0.115617
   9 H :    0.114714
  10 H :    0.119325

  Mayer bond orders larger than 0.100000
B(  0-C ,  1-C ) :   0.9772 B(  0-C ,  8-H ) :   0.9760 B(  0-C ,  9-H ) :   0.9792
B(  0-C , 10-H ) :   0.9772 B(  1-C ,  2-H ) :   0.9624 B(  1-C ,  3-H ) :   0.9720
B(  1-C ,  4-C ) :   0.9945 B(  4-C ,  5-H ) :   0.9760 B(  4-C ,  6-H ) :   0.9693
B(  4-C ,  7-F ) :   0.9815

Dispersion correction           -0.001910615
FINAL SINGLE POINT ENERGY      -218.401207849340

DIPOLE MOMENT
-------------
                                X             Y             Z
Electronic contribution:     -1.01923      -4.85347      -3.46986
Nuclear contribution   :      1.51874       5.24801       3.69322
                        -----------------------------------------
Total Dipole Moment    :      0.49951       0.39455       0.22336
                        -----------------------------------------
Magnitude (a.u.)       :      0.67459
Magnitude (Debye)      :      1.71467

Rotational constants in cm-1:     0.461913     0.182549     0.147043
Rotational constants in MHz : 13847.794369  5472.673442  4408.246847

                             ****ORCA TERMINATED NORMALLY****
TOTAL RUN TIME: 0 days 0 hours 0 minutes 8 seconds 911 msec
