                         Program Version 5.0.0 -  RELEASE  -
|  1> !wB97X-D3 RIJCOSX def2-TZVP def2/J TightSCF
|  2> *xyz 0 1
|  3> C         -2.12050        0.88520        1.78951
|  4> C         -0.77894        0.17197        1.80496
|  5> H         -2.32419        1.47265        2.68608
|  6> H         -2.18770        1.54127        0.91948
|  7> C         -3.17690       -0.15948        1.61070
|  8> H          0.01569        0.91077        1.93915
|  9> H         -0.74355       -0.50683        2.66542
| 10> C         -0.60249       -0.63071        0.49224
| 11> H         -4.06474        0.23127        1.28675
| 12> H         -3.34407       -0.67151        2.48493
| 13> H         -2.71686       -0.78189        0.93588
| 14> H         -0.63812        0.03805       -0.34226
| 15> H         -1.38918       -1.35085        0.40604
| 16> H          0.34172       -1.13388        0.50602
| 17> *
| 18> %MaxCore 64000
| 19>
| 20> %pal nprocs 18
| 21> end
| 22>
| 23> %scf
| 24>   MaxIter 150
| 25> end
| 26>
| 27>
| 28>                          ****END OF INPUT****

CARTESIAN COORDINATES (ANGSTROEM)
---------------------------------
  C     -2.120500    0.885200    1.789510
  C     -0.778940    0.171970    1.804960
  H     -2.324190    1.472650    2.686080
  H     -2.187700    1.541270    0.919480
  C     -3.176900   -0.159480    1.610700
  H      0.015690    0.910770    1.939150
  H     -0.743550   -0.506830    2.665420
  C     -0.602490   -0.630710    0.492240
  H     -4.064740    0.231270    1.286750
  H     -3.344070   -0.671510    2.484930
  H     -2.716860   -0.781890    0.935880
  H     -0.638120    0.038050   -0.342260
  H     -1.389180   -1.350850    0.406040
  H      0.341720   -1.133880    0.506020

 Total Charge           Charge          ....    0
 Multiplicity           Mult            ....    1
 Number of Electrons    NEL             ....   34
 Basis Dimension        Dim             ....  184

ORBITAL ENERGIES
----------------

  NO   OCC          E(Eh)            E(eV)
   0   2.0000     -10.266072      -279.3540
   1   2.0000     -10.257764      -279.1279
   2   2.0000     -10.254228      -279.0317
   3   2.0000     -10.225754      -278.2569
   4   2.0000      -0.926793       -25.2193
   5   2.0000      -0.835223       -22.7276
   6   2.0000      -0.759938       -20.6790
   7   2.0000      -0.674690       -18.3593
   8   2.0000      -0.584485       -15.9046
   9   2.0000      -0.563489       -15.3333
  10   2.0000      -0.521221       -14.1831
  11   2.0000      -0.488156       -13.2834
  12   2.0000      -0.471677       -12.8350
  13   2.0000      -0.454360       -12.3638
  14   2.0000      -0.419397       -11.4124
  15   2.0000      -0.416518       -11.3340
  16   2.0000      -0.404125       -10.9968
  17   0.0000       0.124603         3.3906
  18   0.0000       0.154250         4.1974
  19   0.0000       0.159637         4.3440
  20   0.0000       0.164374         4.4728
  21   0.0000       0.189117         5.1461

MULLIKEN ATOMIC CHARGES
-----------------------
   0 C :   -0.159958
   1 C :   -0.172943
   2 H :    0.092933
   3 H :    0.084733
   4 C :   -0.302921
   5 H :    0.099499
   6 H :    0.090829
   7 C :   -0.351428
   8 H :    0.108083
   9 H :    0.104788
  10 H :    0.068605
  11 H :    0.112028
  12 H :    0.109272
  13 H :    0.116480
Sum of atomic charges:   -0.0000000

LOEWDIN ATOMIC CHARGES
----------------------
   0 C :   -0.299970
   1 C :   -0.286940
   2 H :    0.127724
   3 H :    0.133743
   4 C :   -0.297722
   5 H :    0.129210
   6 H :    0.132915
   7 C :   -0.302710
   8 H :    0.103283
   9 H :    0.107137
  10 H :    0.112322
  11 H :    0.115706
  12 H :    0.112065
  13 H :    0.113236

  Mayer bond orders larger than 0.100000
B(  0-C ,  1-C ) :   0.9794 B(  0-C ,  2-H ) :   0.9712 B(  0-C ,  3-H ) :   0.9829
B(  0-C ,  4-C ) :   0.9620 B(  1-C ,  5-H ) :   0.9744 B(  1-C ,  6-H ) :   0.9754
B(  1-C ,  7-C ) :   0.9713 B(  4-C ,  8-H ) :   0.9840 B(  4-C ,  9-H ) :   0.9837
B(  4-C , 10-H ) :   0.9851 B(  7-C , 11-H ) :   0.9787 B(  7-C , 12-H ) :   0.9752
B(  7-C , 13-H ) :   0.9807

Dispersion correction           -0.002697600
FINAL SINGLE POINT ENERGY      -158.442535301529

DIPOLE MOMENT
-------------
                                X             Y             Z
Electronic contribution:      0.30956       0.71587       0.59087
Nuclear contribution   :     -0.27446      -0.71220      -0.58629
                        -----------------------------------------
Total Dipole Moment    :      0.03510       0.00368       0.00458
                        -----------------------------------------
Magnitude (a.u.)       :      0.03559
Magnitude (Debye)      :      0.09047

Rotational constants in cm-1:     0.419751     0.185753     0.151088
Rotational constants in MHz : 12583.819928  5568.732483  4529.512437

                             ****ORCA TERMINATED NORMALLY****
TOTAL RUN TIME: 0 days 0 hours 0 minutes 10 seconds 476 msec
