                         Program Version 5.0.0 -  RELEASE  -
|  1> !TPSS D3BJ RIJCOSX def2-SVP def2/J TightSCF
|  2> *xyz -1 1
|  3> C          1.44442        5.26658       -0.97546
|  4> O          1.56525        4.23349       -1.86489
|  5> C          0.14812        5.21087       -0.13809
|  6> H          1.47425        6.26464       -1.47692
|  7> H          2.28962        5.30327       -0.26445
|  8> H         -0.69779        5.17417       -0.79230
|  9> H          0.08430        6.08276        0.47887
| 10> H          0.15965        4.33708        0.47938
| 11> *
| 12> %MaxCore 64000
| 13>
| 14> %pal nprocs 4
| 15> end
| 16>
| 17> %scf
| 18>   MaxIter 150
| 19> end
| 20>
| 21>
| 22>                          ****END OF INPUT****

CARTESIAN COORDINATES (ANGSTROEM)
---------------------------------
  C      1.444420    5.266580   -0.975460
  O      1.565250    4.233490   -1.864890
  C      0.148120    5.210870   -0.138090
  H      1.474250    6.264640   -1.476920
  H      2.289620    5.303270   -0.264450
  H     -0.697790    5.174170   -0.792300
  H      0.084300    6.082760    0.478870
  H      0.159650    4.337080    0.479380

 Total Charge           Charge          ....   -1
 Multiplicity           Mult            ....    1
 Number of Electrons    NEL             ....   26
 Basis Dimension        Dim             ....   67

ORBITAL ENERGIES
----------------

  NO   OCC          E(Eh)            E(eV)
   0   2.0000     -18.512747      -503.7574
   1   2.0000      -9.788957      -266.3711
   2   2.0000      -9.777969      -266.0721
   3   2.0000      -0.562563       -15.3081
   4   2.0000      -0.443465       -12.0673
   5   2.0000      -0.296534        -8.0691
   6   2.0000      -0.189573        -5.1585
   7   2.0000      -0.169311        -4.6072
   8   2.0000      -0.112214        -3.0535
   9   2.0000      -0.098472        -2.6796
  10   2.0000      -0.027236        -0.7411
  11   2.0000       0.115350         3.1388
  12   2.0000       0.119936         3.2636
  13   0.0000       0.243344         6.6217
  14   0.0000       0.284341         7.7373
  15   0.0000       0.295666         8.0455
  16   0.0000       0.306324         8.3355
  17   0.0000       0.346136         9.4188

MULLIKEN ATOMIC CHARGES
-----------------------
   0 C :    0.235805
   1 O :   -0.682402
   2 C :    0.080763
   3 H :   -0.179157
   4 H :   -0.174358
   5 H :   -0.073820
   6 H :   -0.134792
   7 H :   -0.072039
Sum of atomic charges:   -1.0000000

LOEWDIN ATOMIC CHARGES
----------------------
   0 C :    0.012466
   1 O :   -0.639199
   2 C :   -0.101784
   3 H :   -0.092732
   4 H :   -0.088402
   5 H :   -0.022471
   6 H :   -0.046260
   7 H :   -0.021618

  Mayer bond orders larger than 0.100000
B(  0-C ,  1-O ) :   1.5196 B(  0-C ,  2-C ) :   0.9877 B(  0-C ,  3-H ) :   0.8506
B(  0-C ,  4-H ) :   0.8551 B(  2-C ,  5-H ) :   0.9502 B(  2-C ,  6-H ) :   0.8999
B(  2-C ,  7-H ) :   0.9537

Dispersion correction           -0.004548895
FINAL SINGLE POINT ENERGY      -154.304170784539

DIPOLE MOMENT
-------------
                                X             Y             Z
Electronic contribution:      1.26548      -2.01001      -2.39014
Nuclear contribution   :     -1.83256       2.47114       3.17273
                        -----------------------------------------
Total Dipole Moment    :     -0.56708       0.46114       0.78259
                        -----------------------------------------
Magnitude (a.u.)       :      1.07083
Magnitude (Debye)      :      2.72184

Rotational constants in cm-1:     1.286062     0.322579     0.284728
Rotational constants in MHz : 38555.180127  9670.683110  8535.939140

                             ****ORCA TERMINATED NORMALLY****
TOTAL RUN TIME: 0 days 0 hours 0 minutes 6 seconds 921 msec
