                         Program Version 5.0.0 -  RELEASE  -
|  1> !TPSS D3BJ RIJCOSX def2-SVP def2/J TightSCF
|  2> *xyz 1 1
|  3> C         -0.70169        4.07250       -4.00392
|  4> N          0.68053        4.61482       -4.04800
|  5> H          0.69993        5.58489       -4.38827
|  6> H          1.27804        4.05598       -4.66824
|  7> H          1.08573        4.53358       -3.10652
|  8> C         -1.70347        5.09320       -3.47740
|  9> H         -0.99590        3.74039       -5.00065
| 10> H         -0.64358        3.20191       -3.35153
| 11> H         -1.73704        5.93384       -4.13853
| 12> H         -1.40338        5.41759       -2.50291
| 13> H         -2.67335        4.64479       -3.42108
| 14> *
| 15> %MaxCore 64000
| 16>
| 17> %pal nprocs 4
| 18> end
| 19>
| 20> %scf
| 21>   MaxIter 150
| 22> end
| 23>
| 24>
| 25>                          ****END OF INPUT****

CARTESIAN COORDINATES (ANGSTROEM)
---------------------------------
  C     -0.701690    4.072500   -4.003920
  N      0.680530    4.614820   -4.048000
  H      0.699930    5.584890   -4.388270
  H      1.278040    4.055980   -4.668240
  H      1.085730    4.533580   -3.106520
  C     -1.703470    5.093200   -3.477400
  H     -0.995900    3.740390   -5.000650
  H     -0.643580    3.201910   -3.351530
  H     -1.737040    5.933840   -4.138530
  H     -1.403380    5.417590   -2.502910
  H     -2.673350    4.644790   -3.421080

 Total Charge           Charge          ....    1
 Multiplicity           Mult            ....    1
 Number of Electrons    NEL             ....   26
 Basis Dimension        Dim             ....   82

ORBITAL ENERGIES
----------------

  NO   OCC          E(Eh)            E(eV)
   0   2.0000     -14.455717      -393.3601
   1   2.0000     -10.254165      -279.0300
   2   2.0000     -10.179057      -276.9862
   3   2.0000      -1.150239       -31.2996
   4   2.0000      -0.905330       -24.6353
   5   2.0000      -0.792997       -21.5785
   6   2.0000      -0.762044       -20.7363
   7   2.0000      -0.744175       -20.2500
   8   2.0000      -0.656380       -17.8610
   9   2.0000      -0.603337       -16.4176
  10   2.0000      -0.545333       -14.8393
  11   2.0000      -0.530678       -14.4405
  12   2.0000      -0.515712       -14.0332
  13   0.0000      -0.198016        -5.3883
  14   0.0000      -0.143350        -3.9008
  15   0.0000      -0.137325        -3.7368
  16   0.0000      -0.103988        -2.8297
  17   0.0000      -0.068610        -1.8670

MULLIKEN ATOMIC CHARGES
-----------------------
   0 C :   -0.052406
   1 N :    0.029892
   2 H :    0.208275
   3 H :    0.209383
   4 H :    0.212424
   5 C :   -0.021229
   6 H :    0.105057
   7 H :    0.095930
   8 H :    0.061914
   9 H :    0.055986
  10 H :    0.094773
Sum of atomic charges:    1.0000000

LOEWDIN ATOMIC CHARGES
----------------------
   0 C :    0.054172
   1 N :    0.304223
   2 H :    0.141053
   3 H :    0.145065
   4 H :    0.145655
   5 C :   -0.027338
   6 H :    0.052767
   7 H :    0.049969
   8 H :    0.037220
   9 H :    0.035618
  10 H :    0.061595

  Mayer bond orders larger than 0.100000
B(  0-C ,  1-N ) :   0.9294 B(  0-C ,  5-C ) :   1.1034 B(  0-C ,  6-H ) :   0.9518
B(  0-C ,  7-H ) :   0.9512 B(  1-N ,  2-H ) :   0.9328 B(  1-N ,  3-H ) :   0.9344
B(  1-N ,  4-H ) :   0.9384 B(  5-C ,  8-H ) :   0.9660 B(  5-C ,  9-H ) :   0.9698
B(  5-C , 10-H ) :   0.9561

Dispersion correction           -0.007440996
FINAL SINGLE POINT ENERGY      -135.462577860196

DIPOLE MOMENT
-------------
                                X             Y             Z
Electronic contribution:      1.81091      -0.32030      -0.46100
Nuclear contribution   :     -0.23930       0.27560       0.19485
                        -----------------------------------------
Total Dipole Moment    :      1.57161      -0.04470      -0.26614
                        -----------------------------------------
Magnitude (a.u.)       :      1.59461
Magnitude (Debye)      :      4.05317

Rotational constants in cm-1:     1.018556     0.279088     0.248454
Rotational constants in MHz : 30535.536069  8366.847891  7448.451392

                             ****ORCA TERMINATED NORMALLY****
TOTAL RUN TIME: 0 days 0 hours 0 minutes 7 seconds 69 msec
