                         Program Version 5.0.0 -  RELEASE  -
|  1> !TPSS D3BJ RIJCOSX def2-TZVP def2/J TightSCF xyzfile
|  2>
|  3> *xyzfile 0 1 B.xyz
|  4>
|  5> %MaxCore 64000
|  6>
|  7> %pal nprocs 18
|  8> end
|  9>
| 10> %scf
| 11>   MaxIter 150
| 12> end
| 13>
| 14>
| 15>                          ****END OF INPUT****

CARTESIAN COORDINATES (ANGSTROEM)
---------------------------------
  C     -0.701686    4.072499   -4.003920
  N      0.680528    4.614820   -4.048005
  C      1.444422    5.266576   -0.975463
  O      1.565248    4.233493   -1.864885
  H      0.699926    5.584890   -4.388272
  H      1.278044    4.055977   -4.668235
  H      1.085729    4.533581   -3.106524
  C     -1.703475    5.093197   -3.477396
  H     -0.995895    3.740394   -5.000654
  H     -0.643580    3.201910   -3.351533
  C     -1.313997    5.785995   -2.169271
  H     -1.877057    5.850103   -4.251154
  H     -2.653264    4.564475   -3.354796
  H     -2.097137    6.509395   -1.929558
  H     -0.416875    6.387594   -2.339097
  C     -1.073895    4.844728   -0.979904
  H     -1.968893    4.809608   -0.352568
  C      0.148120    5.210874   -0.138092
  H     -0.909754    3.827531   -1.338975
  H      1.474250    6.264638   -1.476917
  H      2.289622    5.303267   -0.264450
  H      0.261827    4.450942    0.640711
  H     -0.002516    6.171031    0.371483

 Total Charge           Charge          ....    0
 Multiplicity           Mult            ....    1
 Number of Electrons    NEL             ....   66
 Basis Dimension        Dim             ....  338

ORBITAL ENERGIES
----------------

  NO   OCC          E(Eh)            E(eV)
   0   2.0000     -18.749722      -510.2059
   1   2.0000     -14.179917      -385.8551
   2   2.0000     -10.049903      -273.4718
   3   2.0000     -10.005540      -272.2646
   4   2.0000      -9.980592      -271.5857
   5   2.0000      -9.967263      -271.2230
   6   2.0000      -9.959050      -270.9995
   7   2.0000      -9.939813      -270.4761
   8   2.0000      -0.927056       -25.2265
   9   2.0000      -0.823337       -22.4041
  10   2.0000      -0.752349       -20.4724
  11   2.0000      -0.691020       -18.8036
  12   2.0000      -0.640984       -17.4421
  13   2.0000      -0.585160       -15.9230
  14   2.0000      -0.540567       -14.7096
  15   2.0000      -0.525993       -14.3130
  16   2.0000      -0.519582       -14.1386
  17   2.0000      -0.473557       -12.8862
  18   2.0000      -0.448371       -12.2008
  19   2.0000      -0.421617       -11.4728
  20   2.0000      -0.414506       -11.2793
  21   2.0000      -0.378566       -10.3013
  22   2.0000      -0.366898        -9.9838
  23   2.0000      -0.356656        -9.7051
  24   2.0000      -0.335741        -9.1360
  25   2.0000      -0.316599        -8.6151
  26   2.0000      -0.311136        -8.4664
  27   2.0000      -0.290890        -7.9155
  28   2.0000      -0.270962        -7.3732
  29   2.0000      -0.263136        -7.1603
  30   2.0000      -0.255520        -6.9531
  31   2.0000      -0.138826        -3.7776
  32   2.0000      -0.131428        -3.5763
  33   0.0000      -0.020013        -0.5446
  34   0.0000       0.021357         0.5811
  35   0.0000       0.029328         0.7981
  36   0.0000       0.049827         1.3559
  37   0.0000       0.056375         1.5340

MULLIKEN ATOMIC CHARGES
-----------------------
   0 C :   -0.187568
   1 N :   -0.258910
   2 C :   -0.025561
   3 O :   -0.678434
   4 H :    0.248717
   5 H :    0.259657
   6 H :    0.269597
   7 C :   -0.171797
   8 H :    0.123321
   9 H :    0.159411
  10 C :   -0.221588
  11 H :    0.100533
  12 H :    0.104041
  13 H :    0.091839
  14 H :    0.086618
  15 C :   -0.145797
  16 H :    0.077164
  17 C :   -0.061241
  18 H :    0.075777
  19 H :    0.006380
  20 H :    0.044399
  21 H :    0.059900
  22 H :    0.043543
Sum of atomic charges:   -0.0000000

LOEWDIN ATOMIC CHARGES
----------------------
   0 C :   -0.279825
   1 N :    0.146584
   2 C :   -0.479676
   3 O :   -0.255943
   4 H :    0.185368
   5 H :    0.188263
   6 H :    0.083323
   7 C :   -0.271537
   8 H :    0.125908
   9 H :    0.142064
  10 C :   -0.261232
  11 H :    0.132571
  12 H :    0.144877
  13 H :    0.133684
  14 H :    0.131277
  15 C :   -0.271039
  16 H :    0.125958
  17 C :   -0.280227
  18 H :    0.134267
  19 H :    0.076873
  20 H :    0.101035
  21 H :    0.126748
  22 H :    0.120679

  Mayer bond orders larger than 0.100000
B(  0-C ,  1-N ) :   0.9101 B(  0-C ,  7-C ) :   1.0431 B(  0-C ,  8-H ) :   0.9449
B(  0-C ,  9-H ) :   0.9577 B(  1-N ,  4-H ) :   0.9004 B(  1-N ,  5-H ) :   0.9038
B(  1-N ,  6-H ) :   0.6317 B(  2-C ,  3-O ) :   1.2570 B(  2-C , 17-C ) :   0.9602
B(  2-C , 19-H ) :   0.9535 B(  2-C , 20-H ) :   0.9440 B(  3-O ,  6-H ) :   0.4167
B(  3-O , 17-C ) :  -0.1439 B(  7-C , 10-C ) :   1.0000 B(  7-C , 11-H ) :   0.9532
B(  7-C , 12-H ) :   0.9438 B( 10-C , 13-H ) :   0.9494 B( 10-C , 14-H ) :   0.9587
B( 10-C , 15-C ) :   1.0066 B( 15-C , 16-H ) :   0.9435 B( 15-C , 17-C ) :   1.0271
B( 15-C , 18-H ) :   0.9422 B( 17-C , 21-H ) :   0.9268 B( 17-C , 22-H ) :   0.9302

Dispersion correction           -0.027236152
FINAL SINGLE POINT ENERGY      -367.809699113287

DIPOLE MOMENT
-------------
                                X             Y             Z
Electronic contribution:      2.07176      -1.62292      -1.30001
Nuclear contribution   :     -3.16446       1.92310      -1.11926
                        -----------------------------------------
Total Dipole Moment    :     -1.09270       0.30019      -2.41926
                        -----------------------------------------
Magnitude (a.u.)       :      2.67151
Magnitude (Debye)      :      6.79043

Rotational constants in cm-1:     0.085554     0.055600     0.038553
Rotational constants in MHz :  2564.854379  1666.836664  1155.798427

                             ****ORCA TERMINATED NORMALLY****
TOTAL RUN TIME: 0 days 0 hours 0 minutes 10 seconds 350 msec
