                         Program Version 5.0.0 -  RELEASE  -
|  1> !TPSS D3BJ RIJCOSX def2-SVP def2/J TightSCF
|  2> *xyz 0 1
|  3> C          1.44442        5.26658       -0.97546
|  4> F          1.56525        4.23349       -1.86489
|  5> C          0.14812        5.21087       -0.13809
|  6> H          1.47425        6.26464       -1.47692
|  7> H          2.28962        5.30327       -0.26445
|  8> H         -0.69779        5.17417       -0.79230
|  9> H          0.08430        6.08276        0.47887
| 10> H          0.15965        4.33708        0.47938
| 11> *
| 12> %MaxCore 64000
| 13>
| 14> %pal nprocs 4
| 15> end
| 16>
| 17> %scf
| 18>   MaxIter 150
| 19> end
| 20>
| 21>
| 22>                          ****END OF INPUT****

CARTESIAN COORDINATES (ANGSTROEM)
---------------------------------
  C      1.444420    5.266580   -0.975460
  F      1.565250    4.233490   -1.864890
  C      0.148120    5.210870   -0.138090
  H      1.474250    6.264640   -1.476920
  H      2.289620    5.303270   -0.264450
  H     -0.697790    5.174170   -0.792300
  H      0.084300    6.082760    0.478870
  H      0.159650    4.337080    0.479380

 Total Charge           Charge          ....    0
 Multiplicity           Mult            ....    1
 Number of Electrons    NEL             ....   26
 Basis Dimension        Dim             ....   67

ORBITAL ENERGIES
----------------

  NO   OCC          E(Eh)            E(eV)
   0   2.0000     -24.392560      -663.7553
   1   2.0000     -10.072466      -274.0857
   2   2.0000      -9.996550      -272.0200
   3   2.0000      -1.090429       -29.6721
   4   2.0000      -0.696395       -18.9499
   5   2.0000      -0.569895       -15.5076
   6   2.0000      -0.449115       -12.2210
   7   2.0000      -0.438726       -11.9383
   8   2.0000      -0.398057       -10.8317
   9   2.0000      -0.358798        -9.7634
  10   2.0000      -0.353949        -9.6314
  11   2.0000      -0.280657        -7.6371
  12   2.0000      -0.278288        -7.5726
  13   0.0000       0.054157         1.4737
  14   0.0000       0.097000         2.6395
  15   0.0000       0.101945         2.7741
  16   0.0000       0.111057         3.0220
  17   0.0000       0.131597         3.5809

MULLIKEN ATOMIC CHARGES
-----------------------
   0 C :    0.211932
   1 F :   -0.253854
   2 C :   -0.043342
   3 H :    0.008294
   4 H :    0.006814
   5 H :    0.027436
   6 H :    0.016097
   7 H :    0.026623
Sum of atomic charges:   -0.0000000

LOEWDIN ATOMIC CHARGES
----------------------
   0 C :    0.110166
   1 F :   -0.127214
   2 C :   -0.062293
   3 H :    0.005835
   4 H :    0.004669
   5 H :    0.021763
   6 H :    0.026191
   7 H :    0.020883

  Mayer bond orders larger than 0.100000
B(  0-C ,  1-F ) :   1.0126 B(  0-C ,  2-C ) :   1.0921 B(  0-C ,  3-H ) :   0.9533
B(  0-C ,  4-H ) :   0.9533 B(  2-C ,  5-H ) :   0.9703 B(  2-C ,  6-H ) :   0.9581
B(  2-C ,  7-H ) :   0.9716

Dispersion correction           -0.004196010
FINAL SINGLE POINT ENERGY      -178.944844748674

DIPOLE MOMENT
-------------
                                X             Y             Z
Electronic contribution:      2.32082      -2.80819      -3.76208
Nuclear contribution   :     -2.43357       3.25919       4.19687
                        -----------------------------------------
Total Dipole Moment    :     -0.11275       0.45100       0.43479
                        -----------------------------------------
Magnitude (a.u.)       :      0.63652
Magnitude (Debye)      :      1.61791

Rotational constants in cm-1:     1.264662     0.300144     0.266170
Rotational constants in MHz : 37913.611527  8998.095216  7979.576054

                             ****ORCA TERMINATED NORMALLY****
TOTAL RUN TIME: 0 days 0 hours 0 minutes 5 seconds 943 msec
