                         Program Version 5.0.0 -  RELEASE  -
|  1> !TPSS D3BJ RIJCOSX def2-SVP def2/J TightSCF
|  2> *xyz 0 1
|  3> C         -0.70169        4.07250       -4.00392
|  4> C          0.68053        4.61482       -4.04800
|  5> H          0.69993        5.58489       -4.38827
|  6> H          1.27804        4.05598       -4.66824
|  7> H          1.08573        4.53358       -3.10652
|  8> C         -1.70347        5.09320       -3.47740
|  9> H         -0.99590        3.74039       -5.00065
| 10> H         -0.64358        3.20191       -3.35153
| 11> H         -1.73704        5.93384       -4.13853
| 12> H         -1.40338        5.41759       -2.50291
| 13> H         -2.67335        4.64479       -3.42108
| 14> *
| 15> %MaxCore 64000
| 16>
| 17> %pal nprocs 4
| 18> end
| 19>
| 20> %scf
| 21>   MaxIter 150
| 22> end
| 23>
| 24>
| 25>                          ****END OF INPUT****

CARTESIAN COORDINATES (ANGSTROEM)
---------------------------------
  C     -0.701690    4.072500   -4.003920
  C      0.680530    4.614820   -4.048000
  H      0.699930    5.584890   -4.388270
  H      1.278040    4.055980   -4.668240
  H      1.085730    4.533580   -3.106520
  C     -1.703470    5.093200   -3.477400
  H     -0.995900    3.740390   -5.000650
  H     -0.643580    3.201910   -3.351530
  H     -1.737040    5.933840   -4.138530
  H     -1.403380    5.417590   -2.502910
  H     -2.673350    4.644790   -3.421080

 Total Charge           Charge          ....    0
 Multiplicity           Mult            ....    1
 Number of Electrons    NEL             ....   26
 Basis Dimension        Dim             ....   82

ORBITAL ENERGIES
----------------

  NO   OCC          E(Eh)            E(eV)
   0   2.0000      -9.984951      -271.7043
   1   2.0000      -9.980630      -271.5868
   2   2.0000      -9.963732      -271.1269
   3   2.0000      -0.725145       -19.7322
   4   2.0000      -0.630003       -17.1432
   5   2.0000      -0.530097       -14.4247
   6   2.0000      -0.424867       -11.5612
   7   2.0000      -0.400804       -10.9064
   8   2.0000      -0.360986        -9.8229
   9   2.0000      -0.351408        -9.5623
  10   2.0000      -0.297771        -8.1028
  11   2.0000      -0.295788        -8.0488
  12   2.0000      -0.289324        -7.8729
  13   0.0000       0.054283         1.4771
  14   0.0000       0.098506         2.6805
  15   0.0000       0.101730         2.7682
  16   0.0000       0.107462         2.9242
  17   0.0000       0.134370         3.6564

MULLIKEN ATOMIC CHARGES
-----------------------
   0 C :   -0.095667
   1 C :    0.080939
   2 H :   -0.012457
   3 H :   -0.015655
   4 H :   -0.009766
   5 C :    0.011283
   6 H :    0.008029
   7 H :    0.006493
   8 H :    0.010124
   9 H :    0.007144
  10 H :    0.009533
Sum of atomic charges:   -0.0000000

LOEWDIN ATOMIC CHARGES
----------------------
   0 C :   -0.035889
   1 C :   -0.033273
   2 H :    0.008198
   3 H :    0.011995
   4 H :    0.011976
   5 C :   -0.041270
   6 H :    0.013998
   7 H :    0.016266
   8 H :    0.015880
   9 H :    0.015426
  10 H :    0.016691

  Mayer bond orders larger than 0.100000
B(  0-C ,  1-C ) :   1.1104 B(  0-C ,  5-C ) :   1.1070 B(  0-C ,  6-H ) :   0.9555
B(  0-C ,  7-H ) :   0.9546 B(  1-C ,  2-H ) :   0.9692 B(  1-C ,  3-H ) :   0.9586
B(  1-C ,  4-H ) :   0.9687 B(  5-C ,  8-H ) :   0.9711 B(  5-C ,  9-H ) :   0.9736
B(  5-C , 10-H ) :   0.9682

Dispersion correction           -0.007465617
FINAL SINGLE POINT ENERGY      -119.065165010185

DIPOLE MOMENT
-------------
                                X             Y             Z
Electronic contribution:     -0.13495      -0.29619      -0.13224
Nuclear contribution   :      0.16058       0.27975       0.12812
                        -----------------------------------------
Total Dipole Moment    :      0.02563      -0.01644      -0.00412
                        -----------------------------------------
Magnitude (a.u.)       :      0.03072
Magnitude (Debye)      :      0.07810

Rotational constants in cm-1:     1.027122     0.293327     0.260229
Rotational constants in MHz : 30792.337141  8793.723318  7801.458329

                             ****ORCA TERMINATED NORMALLY****
TOTAL RUN TIME: 0 days 0 hours 0 minutes 6 seconds 904 msec
