                         Program Version 5.0.0 -  RELEASE  -
|  1> !TPSS D3BJ RIJCOSX def2-TZVP def2/J TightSCF xyzfile
|  2>
|  3> *xyzfile 0 1 D.xyz
|  4>
|  5> %MaxCore 64000
|  6>
|  7> %pal nprocs 18
|  8> end
|  9>
| 10> %scf
| 11>   MaxIter 150
| 12> end
| 13>
| 14>
| 15>                          ****END OF INPUT****

CARTESIAN COORDINATES (ANGSTROEM)
---------------------------------
  C     -0.701686    4.072499   -4.003920
  C      0.680528    4.614820   -4.048005
  C      1.444422    5.266576   -0.975463
  F      1.565248    4.233493   -1.864885
  H      0.699926    5.584890   -4.388272
  H      1.278044    4.055977   -4.668235
  H      1.085729    4.533581   -3.106524
  C     -1.703475    5.093197   -3.477396
  H     -0.995895    3.740394   -5.000654
  H     -0.643580    3.201910   -3.351533
  C     -1.313997    5.785995   -2.169271
  H     -1.877057    5.850103   -4.251154
  H     -2.653264    4.564475   -3.354796
  H     -2.097137    6.509395   -1.929558
  H     -0.416875    6.387594   -2.339097
  C     -1.073895    4.844728   -0.979904
  H     -1.968893    4.809608   -0.352568
  C      0.148120    5.210874   -0.138092
  H     -0.909754    3.827531   -1.338975
  H      1.474250    6.264638   -1.476917
  H      2.289622    5.303267   -0.264450
  H      0.261827    4.450942    0.640711
  H     -0.002516    6.171031    0.371483

 Total Charge           Charge          ....    0
 Multiplicity           Mult            ....    1
 Number of Electrons    NEL             ....   66
 Basis Dimension        Dim             ....  338

ORBITAL ENERGIES
----------------

  NO   OCC          E(Eh)            E(eV)
   0   2.0000     -24.415888      -664.3901
   1   2.0000     -10.069046      -273.9927
   2   2.0000      -9.994201      -271.9560
   3   2.0000      -9.980702      -271.5887
   4   2.0000      -9.974355      -271.4160
   5   2.0000      -9.967252      -271.2227
   6   2.0000      -9.954656      -270.8799
   7   2.0000      -9.902275      -269.4546
   8   2.0000      -1.154469       -31.4147
   9   2.0000      -0.755248       -20.5513
  10   2.0000      -0.726033       -19.7564
  11   2.0000      -0.669091       -18.2069
  12   2.0000      -0.637052       -17.3351
  13   2.0000      -0.580354       -15.7922
  14   2.0000      -0.547277       -14.8922
  15   2.0000      -0.497096       -13.5267
  16   2.0000      -0.486113       -13.2278
  17   2.0000      -0.469263       -12.7693
  18   2.0000      -0.443966       -12.0809
  19   2.0000      -0.415145       -11.2967
  20   2.0000      -0.407190       -11.0802
  21   2.0000      -0.387442       -10.5428
  22   2.0000      -0.371005       -10.0956
  23   2.0000      -0.348429        -9.4812
  24   2.0000      -0.342662        -9.3243
  25   2.0000      -0.329365        -8.9625
  26   2.0000      -0.318530        -8.6676
  27   2.0000      -0.304637        -8.2896
  28   2.0000      -0.291330        -7.9275
  29   2.0000      -0.277956        -7.5636
  30   2.0000      -0.268086        -7.2950
  31   2.0000      -0.266047        -7.2395
  32   2.0000      -0.239031        -6.5044
  33   0.0000       0.022812         0.6208
  34   0.0000       0.037445         1.0189
  35   0.0000       0.044144         1.2012
  36   0.0000       0.057374         1.5612
  37   0.0000       0.066768         1.8168

MULLIKEN ATOMIC CHARGES
-----------------------
   0 C :   -0.157154
   1 C :   -0.398884
   2 C :   -0.046827
   3 F :   -0.161554
   4 H :    0.083957
   5 H :    0.088015
   6 H :    0.176120
   7 C :   -0.147549
   8 H :    0.079004
   9 H :    0.075493
  10 C :   -0.201218
  11 H :    0.082938
  12 H :    0.075579
  13 H :    0.084797
  14 H :    0.092641
  15 C :   -0.159806
  16 H :    0.095013
  17 C :   -0.164511
  18 H :    0.096455
  19 H :    0.108485
  20 H :    0.111033
  21 H :    0.094071
  22 H :    0.093904
Sum of atomic charges:   -0.0000000

LOEWDIN ATOMIC CHARGES
----------------------
   0 C :   -0.302064
   1 C :   -0.313777
   2 C :   -0.350625
   3 F :    0.185563
   4 H :    0.100443
   5 H :    0.101262
   6 H :    0.064283
   7 C :   -0.265856
   8 H :    0.127500
   9 H :    0.127737
  10 C :   -0.259807
  11 H :    0.133062
  12 H :    0.131004
  13 H :    0.130752
  14 H :    0.133119
  15 C :   -0.260921
  16 H :    0.132761
  17 C :   -0.269874
  18 H :    0.138457
  19 H :    0.122843
  20 H :    0.121901
  21 H :    0.133069
  22 H :    0.139168

  Mayer bond orders larger than 0.100000
B(  0-C ,  1-C ) :   0.9792 B(  0-C ,  7-C ) :   1.0392 B(  0-C ,  8-H ) :   0.9461
B(  0-C ,  9-H ) :   0.9674 B(  1-C ,  4-H ) :   0.9646 B(  1-C ,  5-H ) :   0.9578
B(  1-C ,  6-H ) :   0.9626 B(  2-C ,  3-F ) :   0.9740 B(  2-C , 17-C ) :   1.0337
B(  2-C , 19-H ) :   0.9695 B(  2-C , 20-H ) :   0.9520 B(  7-C , 10-C ) :   1.0052
B(  7-C , 11-H ) :   0.9459 B(  7-C , 12-H ) :   0.9499 B( 10-C , 13-H ) :   0.9463
B( 10-C , 14-H ) :   0.9613 B( 10-C , 15-C ) :   1.0089 B( 15-C , 16-H ) :   0.9487
B( 15-C , 17-C ) :   1.0166 B( 15-C , 18-H ) :   0.9554 B( 17-C , 21-H ) :   0.9435
B( 17-C , 22-H ) :   0.9349

Dispersion correction           -0.026490199
FINAL SINGLE POINT ENERGY      -375.776848803710

DIPOLE MOMENT
-------------
                                X             Y             Z
Electronic contribution:      5.13587      -2.30022       2.75486
Nuclear contribution   :     -5.08831       2.68947      -1.99048
                        -----------------------------------------
Total Dipole Moment    :      0.04756       0.38925       0.76438
                        -----------------------------------------
Magnitude (a.u.)       :      0.85911
Magnitude (Debye)      :      2.18367

Rotational constants in cm-1:     0.084646     0.055672     0.038419
Rotational constants in MHz :  2537.625105  1668.992890  1151.781380

                             ****ORCA TERMINATED NORMALLY****
TOTAL RUN TIME: 0 days 0 hours 0 minutes 9 seconds 738 msec
