                         Program Version 5.0.0 -  RELEASE  -
|  1> !LC-BLYP RIJCOSX def2-SVPD def2/J TightSCF
|  2> *xyz -1 1
|  3> C          3.84189       -6.95161       -3.63283
|  4> S          4.31812       -6.91593       -5.36869
|  5> O          5.40615       -5.89948       -5.51297
|  6> O          3.11191       -6.44508       -6.04379
|  7> O          4.76340       -8.23942       -5.69863
|  8> H          3.06224       -7.67071       -3.49159
|  9> H          3.49217       -5.98401       -3.33897
| 10> H          4.68822       -7.22131       -3.03626
| 11> *
| 12>
| 13> %MaxCore 64000
| 14>
| 15> %pal nprocs 8
| 16> end
| 17>
| 18> %scf
| 19>   MaxIter 150
| 20> end
| 21>
| 22>
| 23>                          ****END OF INPUT****

CARTESIAN COORDINATES (ANGSTROEM)
---------------------------------
  C      3.841890   -6.951610   -3.632830
  S      4.318120   -6.915930   -5.368690
  O      5.406150   -5.899480   -5.512970
  O      3.111910   -6.445080   -6.043790
  O      4.763400   -8.239420   -5.698630
  H      3.062240   -7.670710   -3.491590
  H      3.492170   -5.984010   -3.338970
  H      4.688220   -7.221310   -3.036260

 Total Charge           Charge          ....   -1
 Multiplicity           Mult            ....    1
 Number of Electrons    NEL             ....   50
 Basis Dimension        Dim             ....  140

ORBITAL ENERGIES
----------------

  NO   OCC          E(Eh)            E(eV)
   0   2.0000     -88.312211     -2403.0974
   1   2.0000     -18.743739      -510.0431
   2   2.0000     -18.733397      -509.7616
   3   2.0000     -18.726813      -509.5825
   4   2.0000      -9.943421      -270.5742
   5   2.0000      -7.860754      -213.9020
   6   2.0000      -5.895066      -160.4129
   7   2.0000      -5.894963      -160.4101
   8   2.0000      -5.894688      -160.4026
   9   2.0000      -1.029631       -28.0177
  10   2.0000      -0.886454       -24.1216
  11   2.0000      -0.856592       -23.3090
  12   2.0000      -0.694437       -18.8966
  13   2.0000      -0.496025       -13.4975
  14   2.0000      -0.411091       -11.1864
  15   2.0000      -0.399423       -10.8689
  16   2.0000      -0.396775       -10.7968
  17   2.0000      -0.353162        -9.6100
  18   2.0000      -0.350542        -9.5387
  19   2.0000      -0.255930        -6.9642
  20   2.0000      -0.253672        -6.9028
  21   2.0000      -0.218438        -5.9440
  22   2.0000      -0.209732        -5.7071
  23   2.0000      -0.200529        -5.4567
  24   2.0000      -0.162181        -4.4132
  25   0.0000       0.195431         5.3179
  26   0.0000       0.221686         6.0324
  27   0.0000       0.222023         6.0416
  28   0.0000       0.227221         6.1830
  29   0.0000       0.257066         6.9951

MULLIKEN ATOMIC CHARGES
-----------------------
   0 C :    0.733291
   1 S :    0.869512
   2 O :   -0.738772
   3 O :   -0.707587
   4 O :   -0.670295
   5 H :   -0.153965
   6 H :   -0.157268
   7 H :   -0.174916
Sum of atomic charges:   -1.0000000

LOEWDIN ATOMIC CHARGES
----------------------
   0 C :    0.045236
   1 S :    0.782898
   2 O :   -0.590370
   3 O :   -0.579135
   4 O :   -0.561410
   5 H :   -0.032351
   6 H :   -0.031204
   7 H :   -0.033663

  Mayer bond orders larger than 0.100000
B(  0-C ,  1-S ) :   0.9379 B(  0-C ,  5-H ) :   0.8690 B(  0-C ,  6-H ) :   0.8729
B(  0-C ,  7-H ) :   0.8722 B(  1-S ,  2-O ) :   1.3498 B(  1-S ,  3-O ) :   1.3814
B(  1-S ,  4-O ) :   1.4082 B(  1-S ,  5-H ) :   0.1262 B(  1-S ,  6-H ) :   0.1402
B(  1-S ,  7-H ) :   0.1348

FINAL SINGLE POINT ENERGY      -662.776624559604

DIPOLE MOMENT
-------------
                                X             Y             Z
Electronic contribution:      1.06688      -0.06901      -4.05063
Nuclear contribution   :     -1.53523      -0.17928       5.57610
                        -----------------------------------------
Total Dipole Moment    :     -0.46836      -0.24830       1.52547
                        -----------------------------------------
Magnitude (a.u.)       :      1.61496
Magnitude (Debye)      :      4.10489

Rotational constants in cm-1:     0.172657     0.156250     0.152500
Rotational constants in MHz :  5176.120042  4684.252187  4571.835124

                             ****ORCA TERMINATED NORMALLY****
TOTAL RUN TIME: 0 days 0 hours 0 minutes 7 seconds 277 msec
