                         Program Version 5.0.0 -  RELEASE  -
|  1> !LC-BLYP RIJCOSX def2-SVPD def2/J TightSCF
|  2> *xyz 1 1
|  3> C          5.55821       -1.99291       -6.21505
|  4> C          4.18188       -2.58967       -6.29891
|  5> N          3.14587       -1.76843       -6.48675
|  6> N          4.01910       -3.86431       -6.22743
|  7> H          4.76849       -4.59115       -5.99077
|  8> H          3.12241       -4.33339       -6.31462
|  9> H          3.28164       -0.77779       -6.56655
| 10> H          2.21255       -2.13419       -6.56225
| 11> H          5.49055       -0.92791       -6.29315
| 12> H          6.16046       -2.37160       -7.01429
| 13> H          6.00378       -2.25423       -5.27799
| 14> *
| 15>
| 16> %MaxCore 64000
| 17>
| 18> %pal nprocs 8
| 19> end
| 20>
| 21> %scf
| 22>   MaxIter 150
| 23> end
| 24>
| 25>
| 26>                          ****END OF INPUT****

CARTESIAN COORDINATES (ANGSTROEM)
---------------------------------
  C      5.558210   -1.992910   -6.215050
  C      4.181880   -2.589670   -6.298910
  N      3.145870   -1.768430   -6.486750
  N      4.019100   -3.864310   -6.227430
  H      4.768490   -4.591150   -5.990770
  H      3.122410   -4.333390   -6.314620
  H      3.281640   -0.777790   -6.566550
  H      2.212550   -2.134190   -6.562250
  H      5.490550   -0.927910   -6.293150
  H      6.160460   -2.371600   -7.014290
  H      6.003780   -2.254230   -5.277990

 Total Charge           Charge          ....    1
 Multiplicity           Mult            ....    1
 Number of Electrons    NEL             ....   32
 Basis Dimension        Dim             ....  136

ORBITAL ENERGIES
----------------

  NO   OCC          E(Eh)            E(eV)
   0   2.0000     -14.446325      -393.1045
   1   2.0000     -14.435532      -392.8108
   2   2.0000     -10.422124      -283.6004
   3   2.0000     -10.282794      -279.8091
   4   2.0000      -1.304362       -35.4935
   5   2.0000      -1.204947       -32.7883
   6   2.0000      -1.057879       -28.7864
   7   2.0000      -0.952579       -25.9210
   8   2.0000      -0.888323       -24.1725
   9   2.0000      -0.869275       -23.6542
  10   2.0000      -0.803434       -21.8626
  11   2.0000      -0.773236       -21.0408
  12   2.0000      -0.715713       -19.4755
  13   2.0000      -0.701213       -19.0810
  14   2.0000      -0.678722       -18.4690
  15   2.0000      -0.598369       -16.2825
  16   0.0000      -0.134353        -3.6559
  17   0.0000      -0.104776        -2.8511
  18   0.0000      -0.060513        -1.6466
  19   0.0000      -0.058676        -1.5967
  20   0.0000      -0.034907        -0.9499

MULLIKEN ATOMIC CHARGES
-----------------------
   0 C :    0.802934
   1 C :    0.187053
   2 N :    0.203351
   3 N :    0.294160
   4 H :    0.045082
   5 H :   -0.185799
   6 H :   -0.018955
   7 H :   -0.157497
   8 H :   -0.048397
   9 H :   -0.067964
  10 H :   -0.053967
Sum of atomic charges:    1.0000000

LOEWDIN ATOMIC CHARGES
----------------------
   0 C :    0.222358
   1 C :   -0.089479
   2 N :    0.295237
   3 N :    0.262653
   4 H :    0.114093
   5 H :    0.050871
   6 H :    0.041887
   7 H :    0.042003
   8 H :    0.009562
   9 H :    0.026137
  10 H :    0.024676

  Mayer bond orders larger than 0.100000
B(  0-C ,  1-C ) :   1.3080 B(  0-C ,  8-H ) :   0.7283 B(  0-C ,  9-H ) :   0.7243
B(  0-C , 10-H ) :   0.7041 B(  1-C ,  2-N ) :   1.0828 B(  1-C ,  3-N ) :   1.2603
B(  1-C ,  4-H ) :  -0.1043 B(  1-C ,  5-H ) :  -0.2075 B(  1-C ,  7-H ) :  -0.2403
B(  1-C ,  8-H ) :   0.2866 B(  1-C ,  9-H ) :   0.1956 B(  1-C , 10-H ) :   0.2104
B(  2-N ,  3-N ) :   0.1508 B(  2-N ,  6-H ) :   1.1254 B(  2-N ,  7-H ) :   1.3222
B(  3-N ,  4-H ) :   1.1451 B(  3-N ,  5-H ) :   1.2490 B(  4-H ,  5-H ) :  -0.1681
B(  6-H ,  7-H ) :  -0.1968 B(  8-H ,  9-H ) :   0.1007 B(  8-H , 10-H ) :   0.1207

FINAL SINGLE POINT ENERGY      -189.093855266971

DIPOLE MOMENT
-------------
                                X             Y             Z
Electronic contribution:     -1.91739      -0.90193      -0.11579
Nuclear contribution   :      1.48163       0.51565       0.12876
                        -----------------------------------------
Total Dipole Moment    :     -0.43577      -0.38628       0.01297
                        -----------------------------------------
Magnitude (a.u.)       :      0.58247
Magnitude (Debye)      :      1.48052

Rotational constants in cm-1:     0.329497     0.300036     0.161709
Rotational constants in MHz :  9878.065920  8994.849253  4847.907140

                             ****ORCA TERMINATED NORMALLY****
TOTAL RUN TIME: 0 days 0 hours 0 minutes 7 seconds 67 msec
