                         Program Version 5.0.0 -  RELEASE  -
|  1> !LC-BLYP RIJCOSX def2-SVPD def2/J TightSCF xyzfile
|  2>
|  3> *xyzfile 0 1 B.xyz
|  4>
|  5> %MaxCore 64000
|  6>
|  7> %pal nprocs 4
|  8> end
|  9>
| 10> %scf
| 11>   MaxIter 150
| 12> end
| 13>
| 14>
| 15>                          ****END OF INPUT****

CARTESIAN COORDINATES (ANGSTROEM)
---------------------------------
  C      5.558206   -1.992914   -6.215054
  C      4.930199   -7.375319   -2.649623
  C      3.841892   -6.951611   -3.632829
  H      3.458144   -5.954425   -3.407121
  H      2.988484   -7.643606   -3.567078
  S      4.318115   -6.915930   -5.368692
  C      4.181880   -2.589671   -6.298911
  N      3.145873   -1.768431   -6.486753
  N      4.019102   -3.864307   -6.227427
  H      4.768490   -4.591153   -5.990773
  H      3.122405   -4.333392   -6.314620
  H      3.281635   -0.777786   -6.566549
  H      2.212549   -2.134193   -6.562246
  O      5.406154   -5.899480   -5.512972
  O      3.111910   -6.445079   -6.043792
  C      6.419260   -2.542944   -5.077630
  C      5.872267   -5.002756   -2.427819
  C      6.173994   -6.485522   -2.606315
  H      6.734852   -6.613767   -3.534015
  H      6.821463   -6.831018   -1.793617
  H      4.469612   -7.406168   -1.655876
  H      5.230134   -8.398678   -2.885906
  C      5.896512   -2.169314   -3.694552
  H      7.428880   -2.143665   -5.208078
  H      6.505894   -3.627541   -5.175502
  C      6.807804   -2.623428   -2.551019
  H      4.894708   -2.589732   -3.557501
  H      5.778823   -1.081255   -3.635790
  C      7.111544   -4.122463   -2.520363
  H      7.751615   -2.071393   -2.614406
  H      6.345837   -2.326401   -1.604086
  H      5.362882   -4.828697   -1.471335
  H      5.174429   -4.702577   -3.211298
  H      7.778329   -4.329347   -1.677651
  H      7.673189   -4.402845   -3.417586
  O      4.763396   -8.239424   -5.698629
  H      6.036826   -2.198189   -7.176852
  H      5.467610   -0.907371   -6.127968

 Total Charge           Charge          ....    0
 Multiplicity           Mult            ....    1
 Number of Electrons    NEL             ....  136
 Basis Dimension        Dim             ....  512

ORBITAL ENERGIES
----------------

  NO   OCC          E(Eh)            E(eV)
   0   2.0000     -88.466626     -2407.2993
   1   2.0000     -18.903524      -514.3910
   2   2.0000     -18.893251      -514.1115
   3   2.0000     -18.886427      -513.9258
   4   2.0000     -14.280606      -388.5950
   5   2.0000     -14.241048      -387.5186
   6   2.0000     -10.247682      -278.8536
   7   2.0000     -10.143455      -276.0174
   8   2.0000     -10.110397      -275.1179
   9   2.0000     -10.098760      -274.8012
  10   2.0000     -10.087199      -274.4866
  11   2.0000     -10.083389      -274.3830
  12   2.0000     -10.075072      -274.1567
  13   2.0000     -10.069995      -274.0185
  14   2.0000     -10.067376      -273.9472
  15   2.0000     -10.060033      -273.7474
  16   2.0000      -8.014210      -218.0777
  17   2.0000      -6.049537      -164.6163
  18   2.0000      -6.048296      -164.5825
  19   2.0000      -6.047239      -164.5537
  20   2.0000      -1.188650       -32.3448
  21   2.0000      -1.134839       -30.8806
  22   2.0000      -1.043838       -28.4043
  23   2.0000      -1.034183       -28.1416
  24   2.0000      -1.026864       -27.9424
  25   2.0000      -0.947486       -25.7824
  26   2.0000      -0.912852       -24.8400
  27   2.0000      -0.890182       -24.2231
  28   2.0000      -0.849338       -23.1117
  29   2.0000      -0.814552       -22.1651
  30   2.0000      -0.782166       -21.2838
  31   2.0000      -0.762464       -20.7477
  32   2.0000      -0.735650       -20.0181
  33   2.0000      -0.716319       -19.4920
  34   2.0000      -0.703676       -19.1480
  35   2.0000      -0.683762       -18.6061
  36   2.0000      -0.667091       -18.1525
  37   2.0000      -0.647954       -17.6317
  38   2.0000      -0.620096       -16.8737
  39   2.0000      -0.614872       -16.7315
  40   2.0000      -0.597210       -16.2509
  41   2.0000      -0.581785       -15.8312
  42   2.0000      -0.577773       -15.7220
  43   2.0000      -0.561966       -15.2919
  44   2.0000      -0.554669       -15.0933
  45   2.0000      -0.546907       -14.8821
  46   2.0000      -0.537792       -14.6341
  47   2.0000      -0.531566       -14.4646
  48   2.0000      -0.516793       -14.0626
  49   2.0000      -0.503293       -13.6953
  50   2.0000      -0.499957       -13.6045
  51   2.0000      -0.497240       -13.5306
  52   2.0000      -0.476963       -12.9788
  53   2.0000      -0.469093       -12.7647
  54   2.0000      -0.463569       -12.6143
  55   2.0000      -0.443750       -12.0751
  56   2.0000      -0.436324       -11.8730
  57   2.0000      -0.429600       -11.6900
  58   2.0000      -0.427574       -11.6349
  59   2.0000      -0.417372       -11.3573
  60   2.0000      -0.413019       -11.2388
  61   2.0000      -0.410392       -11.1673
  62   2.0000      -0.401259       -10.9188
  63   2.0000      -0.399669       -10.8756
  64   2.0000      -0.367303        -9.9948
  65   2.0000      -0.364927        -9.9302
  66   2.0000      -0.352033        -9.5793
  67   2.0000      -0.330746        -9.0001
  68   0.0000       0.025501         0.6939
  69   0.0000       0.030604         0.8328
  70   0.0000       0.063137         1.7180
  71   0.0000       0.072600         1.9755
  72   0.0000       0.078669         2.1407

MULLIKEN ATOMIC CHARGES
-----------------------
   0 C :    0.648491
   1 C :    0.655282
   2 C :    0.237288
   3 H :    0.108648
   4 H :   -0.359501
   5 S :    1.107804
   6 C :    0.295863
   7 N :    0.348229
   8 N :    0.881902
   9 H :   -0.215257
  10 H :   -0.292085
  11 H :   -0.109563
  12 H :   -0.193128
  13 O :   -0.945027
  14 O :   -0.760736
  15 C :    0.705650
  16 C :    0.209950
  17 C :    0.461054
  18 H :    0.014197
  19 H :   -0.436353
  20 H :   -0.010272
  21 H :   -0.105466
  22 C :    0.087405
  23 H :   -0.212975
  24 H :   -0.793545
  25 C :    0.779888
  26 H :    0.046386
  27 H :   -0.442074
  28 C :    0.306156
  29 H :   -0.043083
  30 H :   -0.129600
  31 H :   -0.043931
  32 H :   -0.539784
  33 H :   -0.412385
  34 H :    0.030266
  35 O :   -0.712017
  36 H :   -0.184595
  37 H :    0.016919
Sum of atomic charges:   -0.0000000

LOEWDIN ATOMIC CHARGES
----------------------
   0 C :    0.032421
   1 C :   -0.040226
   2 C :   -0.082117
   3 H :    0.008163
   4 H :    0.033089
   5 S :    0.901564
   6 C :   -0.071193
   7 N :    0.263159
   8 N :    0.312009
   9 H :   -0.095464
  10 H :   -0.000484
  11 H :    0.016102
  12 H :    0.025420
  13 O :   -0.499940
  14 O :   -0.522411
  15 C :   -0.018048
  16 C :   -0.047189
  17 C :   -0.039072
  18 H :    0.019159
  19 H :    0.031255
  20 H :    0.030977
  21 H :    0.033875
  22 C :   -0.045196
  23 H :    0.044059
  24 H :    0.005134
  25 C :   -0.039355
  26 H :    0.018113
  27 H :    0.027052
  28 C :   -0.040886
  29 H :    0.027957
  30 H :    0.029209
  31 H :    0.041908
  32 H :   -0.017737
  33 H :    0.031382
  34 H :    0.026695
  35 O :   -0.483037
  36 H :    0.053513
  37 H :    0.030139

  Mayer bond orders larger than 0.100000
B(  0-C ,  6-C ) :   1.0226 B(  0-C ,  8-N ) :   0.1161 B(  0-C , 15-C ) :   1.1711
B(  0-C , 24-H ) :   0.1486 B(  0-C , 36-H ) :   0.5524 B(  0-C , 37-H ) :   0.6801
B(  1-C ,  2-C ) :   1.2255 B(  1-C ,  3-H ) :   0.1110 B(  1-C ,  4-H ) :   0.1716
B(  1-C , 16-C ) :   0.1198 B(  1-C , 17-C ) :   1.1934 B(  1-C , 20-H ) :   0.6508
B(  1-C , 21-H ) :   0.5837 B(  2-C ,  3-H ) :   0.8059 B(  2-C ,  4-H ) :   0.7701
B(  2-C ,  5-S ) :   0.9335 B(  2-C , 17-C ) :   0.1196 B(  2-C , 20-H ) :   0.2183
B(  2-C , 21-H ) :   0.1218 B(  2-C , 35-O ) :   0.1174 B(  3-H , 17-C ) :  -0.1294
B(  4-H ,  5-S ) :   0.1517 B(  5-S , 13-O ) :   1.0651 B(  5-S , 14-O ) :   1.3220
B(  5-S , 35-O ) :   1.4722 B(  6-C ,  7-N ) :   1.0529 B(  6-C ,  8-N ) :   1.4272
B(  6-C ,  9-H ) :  -0.3019 B(  6-C , 10-H ) :  -0.3453 B(  6-C , 12-H ) :  -0.1690
B(  6-C , 24-H ) :  -0.1036 B(  6-C , 36-H ) :   0.2268 B(  6-C , 37-H ) :   0.1964
B(  7-N ,  8-N ) :   0.1422 B(  7-N , 11-H ) :   1.1791 B(  7-N , 12-H ) :   1.2930
B(  8-N ,  9-H ) :   0.9615 B(  8-N , 10-H ) :   1.0908 B(  8-N , 24-H ) :   0.1298
B(  9-H , 10-H ) :  -0.2444 B(  9-H , 13-O ) :   0.2949 B( 10-H , 14-O ) :   0.1848
B( 11-H , 12-H ) :  -0.1884 B( 13-O , 14-O ) :   0.1635 B( 13-O , 18-H ) :   0.1094
B( 13-O , 24-H ) :   0.2216 B( 15-C , 22-C ) :   1.1635 B( 15-C , 23-H ) :   0.6856
B( 15-C , 24-H ) :   0.3529 B( 15-C , 26-H ) :   0.1527 B( 15-C , 27-H ) :   0.1826
B( 15-C , 36-H ) :   0.3429 B( 15-C , 37-H ) :   0.1945 B( 16-C , 17-C ) :   1.1917
B( 16-C , 18-H ) :   0.1532 B( 16-C , 19-H ) :   0.1925 B( 16-C , 28-C ) :   1.2012
B( 16-C , 31-H ) :   0.7170 B( 16-C , 32-H ) :   0.8492 B( 16-C , 33-H ) :   0.2333
B( 16-C , 34-H ) :   0.1462 B( 17-C , 18-H ) :   0.7885 B( 17-C , 19-H ) :   0.7578
B( 17-C , 21-H ) :   0.2911 B( 17-C , 28-C ) :   0.1925 B( 17-C , 32-H ) :   0.1228
B( 20-H , 21-H ) :  -0.1352 B( 22-C , 23-H ) :   0.1548 B( 22-C , 24-H ) :   0.2684
B( 22-C , 25-C ) :   1.0628 B( 22-C , 26-H ) :   0.8280 B( 22-C , 27-H ) :   0.9692
B( 22-C , 28-C ) :   0.1940 B( 22-C , 29-H ) :   0.1439 B( 22-C , 30-H ) :   0.2980
B( 22-C , 34-H ) :  -0.1051 B( 23-H , 27-H ) :   0.1174 B( 24-H , 34-H ) :   0.1200
B( 25-C , 28-C ) :   1.0947 B( 25-C , 29-H ) :   0.6053 B( 25-C , 30-H ) :   0.6278
B( 26-H , 32-H ) :   0.1845 B( 28-C , 29-H ) :   0.2634 B( 28-C , 30-H ) :   0.1176
B( 28-C , 31-H ) :   0.1215 B( 28-C , 33-H ) :   0.8801 B( 28-C , 34-H ) :   0.7829
B( 29-H , 30-H ) :  -0.1423 B( 31-H , 32-H ) :   0.1246 B( 36-H , 37-H ) :  -0.1070

FINAL SINGLE POINT ENERGY     -1125.056321596336

DIPOLE MOMENT
-------------
                                X             Y             Z
Electronic contribution:     -9.21324     -11.40898     -14.10236
Nuclear contribution   :      8.53517      16.50844      14.36520
                        -----------------------------------------
Total Dipole Moment    :     -0.67807       5.09946       0.26284
                        -----------------------------------------
Magnitude (a.u.)       :      5.15105
Magnitude (Debye)      :     13.09293

Rotational constants in cm-1:     0.017951     0.012436     0.008288
Rotational constants in MHz :   538.163255   372.824050   248.467077

                             ****ORCA TERMINATED NORMALLY****
TOTAL RUN TIME: 0 days 0 hours 6 minutes 0 seconds 232 msec
