                         Program Version 5.0.0 -  RELEASE  -
|  1> !LC-BLYP RIJCOSX def2-SVPD def2/J TightSCF
|  2> *xyz 0 1
|  3> C          3.84189       -6.95161       -3.63283
|  4> S          4.31812       -6.91593       -5.36869
|  5> F          5.40615       -5.89948       -5.51297
|  6> O          3.11191       -6.44508       -6.04379
|  7> O          4.76340       -8.23942       -5.69863
|  8> H          3.06224       -7.67071       -3.49159
|  9> H          3.49217       -5.98401       -3.33897
| 10> H          4.68822       -7.22131       -3.03626
| 11> *
| 12>
| 13> %MaxCore 64000
| 14>
| 15> %pal nprocs 8
| 16> end
| 17>
| 18> %scf
| 19>   MaxIter 150
| 20> end
| 21>
| 22>
| 23>                          ****END OF INPUT****

CARTESIAN COORDINATES (ANGSTROEM)
---------------------------------
  C      3.841890   -6.951610   -3.632830
  S      4.318120   -6.915930   -5.368690
  F      5.406150   -5.899480   -5.512970
  O      3.111910   -6.445080   -6.043790
  O      4.763400   -8.239420   -5.698630
  H      3.062240   -7.670710   -3.491590
  H      3.492170   -5.984010   -3.338970
  H      4.688220   -7.221310   -3.036260

 Total Charge           Charge          ....    0
 Multiplicity           Mult            ....    1
 Number of Electrons    NEL             ....   50
 Basis Dimension        Dim             ....  140

ORBITAL ENERGIES
----------------

  NO   OCC          E(Eh)            E(eV)
   0   2.0000     -88.573206     -2410.1995
   1   2.0000     -24.577551      -668.7892
   2   2.0000     -18.981592      -516.5154
   3   2.0000     -18.970854      -516.2232
   4   2.0000     -10.151249      -276.2295
   5   2.0000      -8.122363      -221.0207
   6   2.0000      -6.160957      -167.6482
   7   2.0000      -6.154389      -167.4694
   8   2.0000      -6.153528      -167.4460
   9   2.0000      -1.424868       -38.7726
  10   2.0000      -1.218674       -33.1618
  11   2.0000      -1.119636       -30.4668
  12   2.0000      -0.912570       -24.8323
  13   2.0000      -0.809307       -22.0224
  14   2.0000      -0.700976       -19.0745
  15   2.0000      -0.670749       -18.2520
  16   2.0000      -0.659409       -17.9434
  17   2.0000      -0.588092       -16.0028
  18   2.0000      -0.586823       -15.9683
  19   2.0000      -0.575104       -15.6494
  20   2.0000      -0.549313       -14.9476
  21   2.0000      -0.500510       -13.6196
  22   2.0000      -0.450572       -12.2607
  23   2.0000      -0.439489       -11.9591
  24   2.0000      -0.424783       -11.5589
  25   0.0000       0.041458         1.1281
  26   0.0000       0.077913         2.1201
  27   0.0000       0.083615         2.2753
  28   0.0000       0.083688         2.2773
  29   0.0000       0.093614         2.5474

MULLIKEN ATOMIC CHARGES
-----------------------
   0 C :    0.700625
   1 S :    1.048583
   2 F :   -0.343163
   3 O :   -0.571288
   4 O :   -0.536622
   5 H :   -0.093116
   6 H :   -0.093754
   7 H :   -0.111264
Sum of atomic charges:   -0.0000000

LOEWDIN ATOMIC CHARGES
----------------------
   0 C :    0.113734
   1 S :    1.054273
   2 F :   -0.258967
   3 O :   -0.459653
   4 O :   -0.442782
   5 H :    0.006723
   6 H :   -0.005439
   7 H :   -0.007890

  Mayer bond orders larger than 0.100000
B(  0-C ,  1-S ) :   0.9925 B(  0-C ,  5-H ) :   0.8674 B(  0-C ,  6-H ) :   0.8772
B(  0-C ,  7-H ) :   0.8766 B(  1-S ,  2-F ) :   0.7222 B(  1-S ,  3-O ) :   1.5832
B(  1-S ,  4-O ) :   1.6084 B(  1-S ,  5-H ) :   0.1261 B(  1-S ,  6-H ) :   0.1135
B(  1-S ,  7-H ) :   0.1084

FINAL SINGLE POINT ENERGY      -687.263296006294

DIPOLE MOMENT
-------------
                                X             Y             Z
Electronic contribution:      2.89151       1.60962      -4.25159
Nuclear contribution   :     -2.64549      -1.17311       5.81218
                        -----------------------------------------
Total Dipole Moment    :      0.24603       0.43651       1.56059
                        -----------------------------------------
Magnitude (a.u.)       :      1.63906
Magnitude (Debye)      :      4.16615

Rotational constants in cm-1:     0.165958     0.149400     0.146699
Rotational constants in MHz :  4975.281722  4478.884828  4397.931002

                             ****ORCA TERMINATED NORMALLY****
TOTAL RUN TIME: 0 days 0 hours 0 minutes 7 seconds 624 msec
