                         Program Version 5.0.0 -  RELEASE  -
|  1> !LC-BLYP RIJCOSX def2-SVPD def2/J TightSCF
|  2> *xyz 0 1
|  3> C          5.55821       -1.99291       -6.21505
|  4> C          4.18188       -2.58967       -6.29891
|  5> C          3.14587       -1.76843       -6.48675
|  6> N          4.01910       -3.86431       -6.22743
|  7> H          4.76849       -4.59115       -5.99077
|  8> H          3.12241       -4.33339       -6.31462
|  9> H          3.28164       -0.77779       -6.56655
| 10> H          2.21255       -2.13419       -6.56225
| 11> H          5.49055       -0.92791       -6.29315
| 12> H          6.16046       -2.37160       -7.01429
| 13> H          6.00378       -2.25423       -5.27799
| 14> *
| 15>
| 16> %MaxCore 64000
| 17>
| 18> %pal nprocs 8
| 19> end
| 20>
| 21> %scf
| 22>   MaxIter 150
| 23> end
| 24>
| 25>
| 26>                          ****END OF INPUT****

CARTESIAN COORDINATES (ANGSTROEM)
---------------------------------
  C      5.558210   -1.992910   -6.215050
  C      4.181880   -2.589670   -6.298910
  C      3.145870   -1.768430   -6.486750
  N      4.019100   -3.864310   -6.227430
  H      4.768490   -4.591150   -5.990770
  H      3.122410   -4.333390   -6.314620
  H      3.281640   -0.777790   -6.566550
  H      2.212550   -2.134190   -6.562250
  H      5.490550   -0.927910   -6.293150
  H      6.160460   -2.371600   -7.014290
  H      6.003780   -2.254230   -5.277990

 Total Charge           Charge          ....    0
 Multiplicity           Mult            ....    1
 Number of Electrons    NEL             ....   32
 Basis Dimension        Dim             ....  136

ORBITAL ENERGIES
----------------

  NO   OCC          E(Eh)            E(eV)
   0   2.0000     -14.196890      -386.3170
   1   2.0000     -10.112354      -275.1711
   2   2.0000     -10.074862      -274.1509
   3   2.0000     -10.015173      -272.5267
   4   2.0000      -1.028018       -27.9738
   5   2.0000      -0.856836       -23.3157
   6   2.0000      -0.787300       -21.4235
   7   2.0000      -0.690130       -18.7794
   8   2.0000      -0.617239       -16.7959
   9   2.0000      -0.577432       -15.7127
  10   2.0000      -0.539656       -14.6848
  11   2.0000      -0.499061       -13.5801
  12   2.0000      -0.489436       -13.3182
  13   2.0000      -0.449057       -12.2194
  14   2.0000      -0.443156       -12.0589
  15   2.0000      -0.282195        -7.6789
  16   0.0000       0.071344         1.9414
  17   0.0000       0.105234         2.8636
  18   0.0000       0.112734         3.0676
  19   0.0000       0.121748         3.3129
  20   0.0000       0.143966         3.9175

MULLIKEN ATOMIC CHARGES
-----------------------
   0 C :    1.064613
   1 C :   -0.569691
   2 C :    0.684666
   3 N :    0.399905
   4 H :   -0.113727
   5 H :   -0.247759
   6 H :   -0.336791
   7 H :   -0.592185
   8 H :   -0.031130
   9 H :   -0.131861
  10 H :   -0.126041
Sum of atomic charges:   -0.0000000

LOEWDIN ATOMIC CHARGES
----------------------
   0 C :    0.153910
   1 C :   -0.312889
   2 C :    0.168900
   3 N :    0.147749
   4 H :    0.050678
   5 H :    0.006901
   6 H :   -0.093256
   7 H :   -0.091508
   8 H :   -0.011281
   9 H :   -0.008739
  10 H :   -0.010465

  Mayer bond orders larger than 0.100000
B(  0-C ,  1-C ) :   1.3037 B(  0-C ,  2-C ) :   0.1041 B(  0-C ,  8-H ) :   0.7520
B(  0-C ,  9-H ) :   0.5965 B(  0-C , 10-H ) :   0.5808 B(  1-C ,  2-C ) :   1.6185
B(  1-C ,  3-N ) :   1.2689 B(  1-C ,  6-H ) :  -0.1046 B(  1-C ,  7-H ) :   0.1594
B(  1-C ,  8-H ) :   0.2428 B(  1-C ,  9-H ) :   0.3206 B(  1-C , 10-H ) :   0.3282
B(  2-C ,  3-N ) :   0.2674 B(  2-C ,  6-H ) :   0.9645 B(  2-C ,  7-H ) :   0.6177
B(  3-N ,  4-H ) :   1.2026 B(  3-N ,  5-H ) :   1.2056 B(  4-H ,  5-H ) :  -0.1492
B(  8-H ,  9-H ) :   0.1109 B(  8-H , 10-H ) :   0.1173

FINAL SINGLE POINT ENERGY      -172.639845376745

DIPOLE MOMENT
-------------
                                X             Y             Z
Electronic contribution:     -0.88348      -1.48057       0.04240
Nuclear contribution   :      1.24351       0.69391       0.08872
                        -----------------------------------------
Total Dipole Moment    :      0.36003      -0.78666       0.13112
                        -----------------------------------------
Magnitude (a.u.)       :      0.87501
Magnitude (Debye)      :      2.22411

Rotational constants in cm-1:     0.350694     0.303314     0.167659
Rotational constants in MHz : 10513.535482  9093.138449  5026.287342

                             ****ORCA TERMINATED NORMALLY****
TOTAL RUN TIME: 0 days 0 hours 0 minutes 7 seconds 481 msec
