                         Program Version 5.0.0 -  RELEASE  -
|  1> !LC-BLYP RIJCOSX def2-SVPD def2/J TightSCF
|  2> *xyz 0 1
|  3> C          3.84189       -6.95161       -3.63283
|  4> S          4.31812       -6.91593       -5.36869
|  5> O          5.40615       -5.89948       -5.51297
|  6> F          3.11191       -6.44508       -6.04379
|  7> O          4.76340       -8.23942       -5.69863
|  8> H          3.06224       -7.67071       -3.49159
|  9> H          3.49217       -5.98401       -3.33897
| 10> H          4.68822       -7.22131       -3.03626
| 11> *
| 12>
| 13> %MaxCore 64000
| 14>
| 15> %pal nprocs 8
| 16> end
| 17>
| 18> %scf
| 19>   MaxIter 150
| 20> end
| 21>
| 22>
| 23>                          ****END OF INPUT****

CARTESIAN COORDINATES (ANGSTROEM)
---------------------------------
  C      3.841890   -6.951610   -3.632830
  S      4.318120   -6.915930   -5.368690
  O      5.406150   -5.899480   -5.512970
  F      3.111910   -6.445080   -6.043790
  O      4.763400   -8.239420   -5.698630
  H      3.062240   -7.670710   -3.491590
  H      3.492170   -5.984010   -3.338970
  H      4.688220   -7.221310   -3.036260

 Total Charge           Charge          ....    0
 Multiplicity           Mult            ....    1
 Number of Electrons    NEL             ....   50
 Basis Dimension        Dim             ....  140

ORBITAL ENERGIES
----------------

  NO   OCC          E(Eh)            E(eV)
   0   2.0000     -88.575027     -2410.2490
   1   2.0000     -24.591243      -669.1617
   2   2.0000     -18.981416      -516.5106
   3   2.0000     -18.963987      -516.0363
   4   2.0000     -10.152264      -276.2571
   5   2.0000      -8.124221      -221.0713
   6   2.0000      -6.163033      -167.7046
   7   2.0000      -6.156197      -167.5186
   8   2.0000      -6.155088      -167.4885
   9   2.0000      -1.451306       -39.4920
  10   2.0000      -1.213172       -33.0121
  11   2.0000      -1.101672       -29.9780
  12   2.0000      -0.917027       -24.9536
  13   2.0000      -0.820812       -22.3354
  14   2.0000      -0.711036       -19.3483
  15   2.0000      -0.689446       -18.7608
  16   2.0000      -0.663814       -18.0633
  17   2.0000      -0.589886       -16.0516
  18   2.0000      -0.587250       -15.9799
  19   2.0000      -0.573195       -15.5974
  20   2.0000      -0.545076       -14.8323
  21   2.0000      -0.498072       -13.5532
  22   2.0000      -0.448894       -12.2150
  23   2.0000      -0.431901       -11.7526
  24   2.0000      -0.412674       -11.2294
  25   0.0000       0.041102         1.1184
  26   0.0000       0.076796         2.0897
  27   0.0000       0.082876         2.2552
  28   0.0000       0.084608         2.3023
  29   0.0000       0.101000         2.7483

MULLIKEN ATOMIC CHARGES
-----------------------
   0 C :    0.699095
   1 S :    1.040315
   2 O :   -0.590553
   3 F :   -0.324526
   4 O :   -0.527223
   5 H :   -0.087391
   6 H :   -0.096545
   7 H :   -0.113172
Sum of atomic charges:   -0.0000000

LOEWDIN ATOMIC CHARGES
----------------------
   0 C :    0.113614
   1 S :    1.054527
   2 O :   -0.468870
   3 F :   -0.250400
   4 O :   -0.443038
   5 H :   -0.005991
   6 H :   -0.005755
   7 H :    0.005914

  Mayer bond orders larger than 0.100000
B(  0-C ,  1-S ) :   0.9905 B(  0-C ,  5-H ) :   0.8726 B(  0-C ,  6-H ) :   0.8761
B(  0-C ,  7-H ) :   0.8729 B(  1-S ,  2-O ) :   1.5541 B(  1-S ,  3-F ) :   0.7679
B(  1-S ,  4-O ) :   1.6133 B(  1-S ,  5-H ) :   0.1021 B(  1-S ,  6-H ) :   0.1142
B(  1-S ,  7-H ) :   0.1346

FINAL SINGLE POINT ENERGY      -687.252585912293

DIPOLE MOMENT
-------------
                                X             Y             Z
Electronic contribution:     -0.96145       0.68471      -5.14947
Nuclear contribution   :     -0.35339      -0.62802       6.34251
                        -----------------------------------------
Total Dipole Moment    :     -1.31484       0.05669       1.19303
                        -----------------------------------------
Magnitude (a.u.)       :      1.77633
Magnitude (Debye)      :      4.51507

Rotational constants in cm-1:     0.162638     0.154373     0.145390
Rotational constants in MHz :  4875.774584  4627.990015  4358.691210

                             ****ORCA TERMINATED NORMALLY****
TOTAL RUN TIME: 0 days 0 hours 0 minutes 7 seconds 658 msec
