                         Program Version 5.0.0 -  RELEASE  -
|  1> !LC-BLYP RIJCOSX def2-SVPD def2/J TightSCF
|  2> *xyz 0 1
|  3> C          5.55821       -1.99291       -6.21505
|  4> C          4.18188       -2.58967       -6.29891
|  5> N          3.14587       -1.76843       -6.48675
|  6> C          4.01910       -3.86431       -6.22743
|  7> H          4.76849       -4.59115       -5.99077
|  8> H          3.12241       -4.33339       -6.31462
|  9> H          3.28164       -0.77779       -6.56655
| 10> H          2.21255       -2.13419       -6.56225
| 11> H          5.49055       -0.92791       -6.29315
| 12> H          6.16046       -2.37160       -7.01429
| 13> H          6.00378       -2.25423       -5.27799
| 14> *
| 15>
| 16> %MaxCore 64000
| 17>
| 18> %pal nprocs 8
| 19> end
| 20>
| 21> %scf
| 22>   MaxIter 150
| 23> end
| 24>
| 25>
| 26>                          ****END OF INPUT****

CARTESIAN COORDINATES (ANGSTROEM)
---------------------------------
  C      5.558210   -1.992910   -6.215050
  C      4.181880   -2.589670   -6.298910
  N      3.145870   -1.768430   -6.486750
  C      4.019100   -3.864310   -6.227430
  H      4.768490   -4.591150   -5.990770
  H      3.122410   -4.333390   -6.314620
  H      3.281640   -0.777790   -6.566550
  H      2.212550   -2.134190   -6.562250
  H      5.490550   -0.927910   -6.293150
  H      6.160460   -2.371600   -7.014290
  H      6.003780   -2.254230   -5.277990

 Total Charge           Charge          ....    0
 Multiplicity           Mult            ....    1
 Number of Electrons    NEL             ....   32
 Basis Dimension        Dim             ....  136

ORBITAL ENERGIES
----------------

  NO   OCC          E(Eh)            E(eV)
   0   2.0000     -14.186438      -386.0326
   1   2.0000     -10.109453      -275.0922
   2   2.0000     -10.075772      -274.1757
   3   2.0000     -10.021183      -272.6903
   4   2.0000      -1.018781       -27.7224
   5   2.0000      -0.859508       -23.3884
   6   2.0000      -0.793557       -21.5938
   7   2.0000      -0.672615       -18.3028
   8   2.0000      -0.629425       -17.1275
   9   2.0000      -0.582989       -15.8639
  10   2.0000      -0.536977       -14.6119
  11   2.0000      -0.497010       -13.5243
  12   2.0000      -0.494416       -13.4537
  13   2.0000      -0.444669       -12.1001
  14   2.0000      -0.437942       -11.9170
  15   2.0000      -0.289319        -7.8728
  16   0.0000       0.074113         2.0167
  17   0.0000       0.108197         2.9442
  18   0.0000       0.112367         3.0577
  19   0.0000       0.120390         3.2760
  20   0.0000       0.145804         3.9675

MULLIKEN ATOMIC CHARGES
-----------------------
   0 C :    1.006990
   1 C :   -0.174237
   2 N :    0.351994
   3 C :    0.185985
   4 H :   -0.176648
   5 H :   -0.483873
   6 H :   -0.187583
   7 H :   -0.197026
   8 H :   -0.206597
   9 H :   -0.081467
  10 H :   -0.037539
Sum of atomic charges:    0.0000000

LOEWDIN ATOMIC CHARGES
----------------------
   0 C :    0.156189
   1 C :   -0.300981
   2 N :    0.182843
   3 C :    0.131360
   4 H :   -0.035743
   5 H :   -0.085861
   6 H :   -0.016337
   7 H :   -0.000632
   8 H :   -0.024451
   9 H :   -0.002956
  10 H :   -0.003432

  Mayer bond orders larger than 0.100000
B(  0-C ,  1-C ) :   1.0995 B(  0-C ,  2-N ) :   0.1241 B(  0-C ,  3-C ) :   0.1035
B(  0-C ,  8-H ) :   0.6275 B(  0-C ,  9-H ) :   0.7161 B(  0-C , 10-H ) :   0.6705
B(  1-C ,  2-N ) :   1.0990 B(  1-C ,  3-C ) :   1.4890 B(  1-C ,  5-H ) :   0.1293
B(  1-C ,  7-H ) :  -0.1387 B(  1-C ,  8-H ) :   0.3307 B(  1-C ,  9-H ) :   0.1928
B(  1-C , 10-H ) :   0.2171 B(  2-N ,  3-C ) :   0.2926 B(  2-N ,  6-H ) :   1.1376
B(  2-N ,  7-H ) :   1.2691 B(  3-C ,  4-H ) :   0.9328 B(  3-C ,  5-H ) :   0.7517
B(  6-H ,  7-H ) :  -0.1827 B(  8-H , 10-H ) :   0.1019

FINAL SINGLE POINT ENERGY      -172.648779685804

DIPOLE MOMENT
-------------
                                X             Y             Z
Electronic contribution:     -1.62214       0.41025      -0.20850
Nuclear contribution   :      1.43935       0.22387       0.14687
                        -----------------------------------------
Total Dipole Moment    :     -0.18279       0.63412      -0.06162
                        -----------------------------------------
Magnitude (a.u.)       :      0.66281
Magnitude (Debye)      :      1.68473

Rotational constants in cm-1:     0.350137     0.303099     0.167465
Rotational constants in MHz : 10496.847516  9086.685989  5020.487860

                             ****ORCA TERMINATED NORMALLY****
TOTAL RUN TIME: 0 days 0 hours 0 minutes 7 seconds 564 msec
