                         Program Version 5.0.0 -  RELEASE  -
|  1> !LC-BLYP RIJCOSX def2-SVPD def2/J TightSCF
|  2> *xyz 0 1
|  3> C          3.84189       -6.95161       -3.63283
|  4> S          4.31812       -6.91593       -5.36869
|  5> O          5.40615       -5.89948       -5.51297
|  6> O          3.11191       -6.44508       -6.04379
|  7> F          4.76340       -8.23942       -5.69863
|  8> H          3.06224       -7.67071       -3.49159
|  9> H          3.49217       -5.98401       -3.33897
| 10> H          4.68822       -7.22131       -3.03626
| 11> *
| 12>
| 13> %MaxCore 64000
| 14>
| 15> %pal nprocs 8
| 16> end
| 17>
| 18> %scf
| 19>   MaxIter 150
| 20> end
| 21>
| 22>
| 23>                          ****END OF INPUT****

CARTESIAN COORDINATES (ANGSTROEM)
---------------------------------
  C      3.841890   -6.951610   -3.632830
  S      4.318120   -6.915930   -5.368690
  O      5.406150   -5.899480   -5.512970
  O      3.111910   -6.445080   -6.043790
  F      4.763400   -8.239420   -5.698630
  H      3.062240   -7.670710   -3.491590
  H      3.492170   -5.984010   -3.338970
  H      4.688220   -7.221310   -3.036260

 Total Charge           Charge          ....    0
 Multiplicity           Mult            ....    1
 Number of Electrons    NEL             ....   50
 Basis Dimension        Dim             ....  140

ORBITAL ENERGIES
----------------

  NO   OCC          E(Eh)            E(eV)
   0   2.0000     -88.576260     -2410.2826
   1   2.0000     -24.605384      -669.5465
   2   2.0000     -18.971243      -516.2338
   3   2.0000     -18.964555      -516.0518
   4   2.0000     -10.152639      -276.2673
   5   2.0000      -8.125516      -221.1065
   6   2.0000      -6.164464      -167.7436
   7   2.0000      -6.157285      -167.5483
   8   2.0000      -6.156293      -167.5212
   9   2.0000      -1.473752       -40.1028
  10   2.0000      -1.202387       -32.7186
  11   2.0000      -1.093632       -29.7592
  12   2.0000      -0.916975       -24.9522
  13   2.0000      -0.832288       -22.6477
  14   2.0000      -0.721997       -19.6465
  15   2.0000      -0.705068       -19.1859
  16   2.0000      -0.665909       -18.1203
  17   2.0000      -0.588930       -16.0256
  18   2.0000      -0.584417       -15.9028
  19   2.0000      -0.575486       -15.6598
  20   2.0000      -0.540092       -14.6966
  21   2.0000      -0.491485       -13.3740
  22   2.0000      -0.438530       -11.9330
  23   2.0000      -0.430517       -11.7150
  24   2.0000      -0.405907       -11.0453
  25   0.0000       0.039223         1.0673
  26   0.0000       0.075746         2.0612
  27   0.0000       0.082062         2.2330
  28   0.0000       0.084359         2.2955
  29   0.0000       0.099364         2.7038

MULLIKEN ATOMIC CHARGES
-----------------------
   0 C :    0.699979
   1 S :    1.040963
   2 O :   -0.583767
   3 O :   -0.555074
   4 F :   -0.307454
   5 H :   -0.087440
   6 H :   -0.097551
   7 H :   -0.109657
Sum of atomic charges:   -0.0000000

LOEWDIN ATOMIC CHARGES
----------------------
   0 C :    0.113167
   1 S :    1.056725
   2 O :   -0.468250
   3 O :   -0.459400
   4 F :   -0.236087
   5 H :   -0.006188
   6 H :    0.007593
   7 H :   -0.007560

  Mayer bond orders larger than 0.100000
B(  0-C ,  1-S ) :   0.9922 B(  0-C ,  5-H ) :   0.8709 B(  0-C ,  6-H ) :   0.8737
B(  0-C ,  7-H ) :   0.8766 B(  1-S ,  2-O ) :   1.5539 B(  1-S ,  3-O ) :   1.5885
B(  1-S ,  4-F ) :   0.7971 B(  1-S ,  5-H ) :   0.1005 B(  1-S ,  6-H ) :   0.1378
B(  1-S ,  7-H ) :   0.1078

FINAL SINGLE POINT ENERGY      -687.239927327480

DIPOLE MOMENT
-------------
                                X             Y             Z
Electronic contribution:      1.79854      -2.30033      -4.56752
Nuclear contribution   :     -2.00334       1.16464       5.99767
                        -----------------------------------------
Total Dipole Moment    :     -0.20480      -1.13569       1.43015
                        -----------------------------------------
Magnitude (a.u.)       :      1.83768
Magnitude (Debye)      :      4.67101

Rotational constants in cm-1:     0.163678     0.154408     0.144413
Rotational constants in MHz :  4906.945035  4629.020676  4329.393152

                             ****ORCA TERMINATED NORMALLY****
TOTAL RUN TIME: 0 days 0 hours 0 minutes 7 seconds 798 msec
