                         Program Version 5.0.0 -  RELEASE  -
|  1> !LC-BLYP RIJCOSX def2-SVPD def2/J TightSCF xyzfile
|  2>
|  3> *xyzfile 0 1 D1.xyz
|  4>
|  5> %MaxCore 64000
|  6>
|  7> %pal nprocs 4
|  8> end
|  9>
| 10> %scf
| 11>   MaxIter 150
| 12> end
| 13>
| 14>
| 15>                          ****END OF INPUT****

CARTESIAN COORDINATES (ANGSTROEM)
---------------------------------
  C      5.558206   -1.992914   -6.215054
  C      4.930199   -7.375319   -2.649623
  C      3.841892   -6.951611   -3.632829
  H      3.458144   -5.954425   -3.407121
  H      2.988484   -7.643606   -3.567078
  S      4.318115   -6.915930   -5.368692
  C      4.181880   -2.589671   -6.298911
  C      3.145873   -1.768431   -6.486753
  N      4.019102   -3.864307   -6.227427
  H      4.768490   -4.591153   -5.990773
  H      3.122405   -4.333392   -6.314620
  H      3.281635   -0.777786   -6.566549
  H      2.212549   -2.134193   -6.562246
  F      5.406154   -5.899480   -5.512972
  O      3.111910   -6.445079   -6.043792
  C      6.419260   -2.542944   -5.077630
  C      5.872267   -5.002756   -2.427819
  C      6.173994   -6.485522   -2.606315
  H      6.734852   -6.613767   -3.534015
  H      6.821463   -6.831018   -1.793617
  H      4.469612   -7.406168   -1.655876
  H      5.230134   -8.398678   -2.885906
  C      5.896512   -2.169314   -3.694552
  H      7.428880   -2.143665   -5.208078
  H      6.505894   -3.627541   -5.175502
  C      6.807804   -2.623428   -2.551019
  H      4.894708   -2.589732   -3.557501
  H      5.778823   -1.081255   -3.635790
  C      7.111544   -4.122463   -2.520363
  H      7.751615   -2.071393   -2.614406
  H      6.345837   -2.326401   -1.604086
  H      5.362882   -4.828697   -1.471335
  H      5.174429   -4.702577   -3.211298
  H      7.778329   -4.329347   -1.677651
  H      7.673189   -4.402845   -3.417586
  O      4.763396   -8.239424   -5.698629
  H      6.036826   -2.198189   -7.176852
  H      5.467610   -0.907371   -6.127968

 Total Charge           Charge          ....    0
 Multiplicity           Mult            ....    1
 Number of Electrons    NEL             ....  136
 Basis Dimension        Dim             ....  512

ORBITAL ENERGIES
----------------

  NO   OCC          E(Eh)            E(eV)
   0   2.0000     -88.585367     -2410.5304
   1   2.0000     -24.603781      -669.5029
   2   2.0000     -18.994433      -516.8648
   3   2.0000     -18.986870      -516.6590
   4   2.0000     -14.171388      -385.6231
   5   2.0000     -10.162118      -276.5253
   6   2.0000     -10.123875      -275.4846
   7   2.0000     -10.106540      -275.0129
   8   2.0000     -10.097684      -274.7720
   9   2.0000     -10.097491      -274.7667
  10   2.0000     -10.089808      -274.5576
  11   2.0000     -10.084275      -274.4071
  12   2.0000     -10.083390      -274.3830
  13   2.0000     -10.078988      -274.2632
  14   2.0000     -10.077121      -274.2124
  15   2.0000     -10.004460      -272.2352
  16   2.0000      -8.133742      -221.3304
  17   2.0000      -6.172889      -167.9728
  18   2.0000      -6.165822      -167.7805
  19   2.0000      -6.164184      -167.7360
  20   2.0000      -1.454443       -39.5774
  21   2.0000      -1.234044       -33.5800
  22   2.0000      -1.135027       -30.8857
  23   2.0000      -1.014961       -27.6185
  24   2.0000      -0.962638       -26.1947
  25   2.0000      -0.927474       -25.2378
  26   2.0000      -0.898798       -24.4575
  27   2.0000      -0.866897       -23.5895
  28   2.0000      -0.848971       -23.1017
  29   2.0000      -0.818456       -22.2713
  30   2.0000      -0.805291       -21.9131
  31   2.0000      -0.767037       -20.8721
  32   2.0000      -0.734167       -19.9777
  33   2.0000      -0.724864       -19.7246
  34   2.0000      -0.716302       -19.4916
  35   2.0000      -0.693959       -18.8836
  36   2.0000      -0.679094       -18.4791
  37   2.0000      -0.666227       -18.1290
  38   2.0000      -0.662668       -18.0321
  39   2.0000      -0.622125       -16.9289
  40   2.0000      -0.613433       -16.6924
  41   2.0000      -0.598642       -16.2899
  42   2.0000      -0.594539       -16.1782
  43   2.0000      -0.584035       -15.8924
  44   2.0000      -0.573576       -15.6078
  45   2.0000      -0.568441       -15.4681
  46   2.0000      -0.558509       -15.1978
  47   2.0000      -0.541672       -14.7396
  48   2.0000      -0.538358       -14.6495
  49   2.0000      -0.528600       -14.3839
  50   2.0000      -0.514976       -14.0132
  51   2.0000      -0.512894       -13.9566
  52   2.0000      -0.497523       -13.5383
  53   2.0000      -0.482024       -13.1165
  54   2.0000      -0.475152       -12.9295
  55   2.0000      -0.471425       -12.8281
  56   2.0000      -0.470140       -12.7932
  57   2.0000      -0.459205       -12.4956
  58   2.0000      -0.456367       -12.4184
  59   2.0000      -0.445460       -12.1216
  60   2.0000      -0.441124       -12.0036
  61   2.0000      -0.437048       -11.8927
  62   2.0000      -0.436343       -11.8735
  63   2.0000      -0.428308       -11.6548
  64   2.0000      -0.417631       -11.3643
  65   2.0000      -0.411242       -11.1905
  66   2.0000      -0.406582       -11.0636
  67   2.0000      -0.270086        -7.3494
  68   0.0000       0.042948         1.1687
  69   0.0000       0.059698         1.6245
  70   0.0000       0.068594         1.8665
  71   0.0000       0.073039         1.9875
  72   0.0000       0.085588         2.3290

MULLIKEN ATOMIC CHARGES
-----------------------
   0 C :    0.989686
   1 C :    0.666615
   2 C :    0.200867
   3 H :    0.164277
   4 H :   -0.347973
   5 S :    1.220717
   6 C :   -0.534022
   7 C :    0.497313
   8 N :    1.287316
   9 H :   -0.467201
  10 H :   -0.303109
  11 H :   -0.407382
  12 H :   -0.452437
  13 F :   -0.634174
  14 O :   -0.612369
  15 C :    0.646800
  16 C :    0.255047
  17 C :    0.423335
  18 H :   -0.049215
  19 H :   -0.404165
  20 H :    0.018892
  21 H :   -0.106818
  22 C :    0.088903
  23 H :   -0.241995
  24 H :   -0.808178
  25 C :    0.776687
  26 H :    0.031878
  27 H :   -0.411830
  28 C :    0.312427
  29 H :   -0.036530
  30 H :   -0.140700
  31 H :   -0.039750
  32 H :   -0.584280
  33 H :   -0.424339
  34 H :    0.026139
  35 O :   -0.597549
  36 H :   -0.231952
  37 H :    0.229070
Sum of atomic charges:   -0.0000000

LOEWDIN ATOMIC CHARGES
----------------------
   0 C :    0.005686
   1 C :   -0.037285
   2 C :   -0.046441
   3 H :    0.025849
   4 H :    0.052053
   5 S :    1.091056
   6 C :   -0.266814
   7 C :    0.174811
   8 N :    0.198966
   9 H :   -0.074165
  10 H :   -0.022115
  11 H :   -0.095148
  12 H :   -0.088639
  13 F :   -0.256630
  14 O :   -0.429970
  15 C :   -0.039202
  16 C :   -0.045374
  17 C :   -0.039421
  18 H :    0.020297
  19 H :    0.039938
  20 H :    0.043885
  21 H :    0.036942
  22 C :   -0.040278
  23 H :    0.035228
  24 H :   -0.009719
  25 C :   -0.040989
  26 H :    0.019794
  27 H :    0.034140
  28 C :   -0.043604
  29 H :    0.028878
  30 H :    0.028204
  31 H :    0.048177
  32 H :   -0.015460
  33 H :    0.031589
  34 H :    0.022152
  35 O :   -0.413569
  36 H :    0.035686
  37 H :    0.031492

  Mayer bond orders larger than 0.100000
B(  0-C ,  6-C ) :   0.9379 B(  0-C ,  8-N ) :   0.1861 B(  0-C , 12-H ) :   0.1174
B(  0-C , 15-C ) :   1.1155 B(  0-C , 23-H ) :   0.1054 B(  0-C , 24-H ) :   0.1707
B(  0-C , 36-H ) :   0.3758 B(  0-C , 37-H ) :   0.6260 B(  1-C ,  2-C ) :   1.2402
B(  1-C ,  4-H ) :   0.1813 B(  1-C , 17-C ) :   1.1890 B(  1-C , 20-H ) :   0.6439
B(  1-C , 21-H ) :   0.5927 B(  2-C ,  3-H ) :   0.8442 B(  2-C ,  4-H ) :   0.7160
B(  2-C ,  5-S ) :   0.9818 B(  2-C , 17-C ) :   0.1148 B(  2-C , 20-H ) :   0.2158
B(  2-C , 21-H ) :   0.1265 B(  4-H ,  5-S ) :   0.1603 B(  5-S , 13-F ) :   0.6366
B(  5-S , 14-O ) :   1.5700 B(  5-S , 35-O ) :   1.6307 B(  6-C ,  7-C ) :   1.5262
B(  6-C ,  8-N ) :   1.3561 B(  6-C , 10-H ) :  -0.2043 B(  6-C , 12-H ) :   0.3172
B(  6-C , 15-C ) :   0.1617 B(  6-C , 24-H ) :  -0.1275 B(  6-C , 36-H ) :   0.3328
B(  6-C , 37-H ) :   0.1684 B(  7-C ,  8-N ) :   0.1193 B(  7-C , 10-H ) :  -0.1292
B(  7-C , 11-H ) :   0.8546 B(  7-C , 12-H ) :   0.5044 B(  8-N ,  9-H ) :   0.5765
B(  8-N , 10-H ) :   0.8676 B(  8-N , 13-F ) :  -0.1606 B(  8-N , 24-H ) :   0.1104
B(  9-H , 10-H ) :  -0.1873 B(  9-H , 13-F ) :   0.2405 B( 10-H , 14-O ) :   0.1662
B( 13-F , 14-O ) :   0.1498 B( 13-F , 24-H ) :   0.1671 B( 15-C , 22-C ) :   1.1661
B( 15-C , 23-H ) :   0.6929 B( 15-C , 24-H ) :   0.3571 B( 15-C , 26-H ) :   0.1443
B( 15-C , 27-H ) :   0.1965 B( 15-C , 36-H ) :   0.3160 B( 15-C , 37-H ) :   0.1786
B( 16-C , 17-C ) :   1.1852 B( 16-C , 18-H ) :   0.1524 B( 16-C , 19-H ) :   0.2054
B( 16-C , 28-C ) :   1.2014 B( 16-C , 31-H ) :   0.7177 B( 16-C , 32-H ) :   0.8341
B( 16-C , 33-H ) :   0.2254 B( 16-C , 34-H ) :   0.1451 B( 17-C , 18-H ) :   0.8104
B( 17-C , 19-H ) :   0.7805 B( 17-C , 21-H ) :   0.2958 B( 17-C , 28-C ) :   0.1806
B( 17-C , 31-H ) :   0.1080 B( 17-C , 32-H ) :   0.1001 B( 18-H , 19-H ) :  -0.1196
B( 20-H , 21-H ) :  -0.1328 B( 22-C , 23-H ) :   0.1507 B( 22-C , 24-H ) :   0.2717
B( 22-C , 25-C ) :   1.0607 B( 22-C , 26-H ) :   0.8476 B( 22-C , 27-H ) :   0.9504
B( 22-C , 28-C ) :   0.1943 B( 22-C , 29-H ) :   0.1403 B( 22-C , 30-H ) :   0.2833
B( 22-C , 34-H ) :  -0.1019 B( 23-H , 27-H ) :   0.1011 B( 24-H , 34-H ) :   0.1089
B( 25-C , 28-C ) :   1.0997 B( 25-C , 29-H ) :   0.6187 B( 25-C , 30-H ) :   0.6377
B( 26-H , 32-H ) :   0.1863 B( 28-C , 29-H ) :   0.2705 B( 28-C , 30-H ) :   0.1147
B( 28-C , 31-H ) :   0.1205 B( 28-C , 33-H ) :   0.8861 B( 28-C , 34-H ) :   0.7831
B( 29-H , 30-H ) :  -0.1488 B( 36-H , 37-H ) :  -0.1032

FINAL SINGLE POINT ENERGY     -1132.905592040244

DIPOLE MOMENT
-------------
                                X             Y             Z
Electronic contribution:     -7.00507     -18.75803     -13.13512
Nuclear contribution   :      7.78491      18.17172      15.09294
                        -----------------------------------------
Total Dipole Moment    :      0.77984      -0.58631       1.95781
                        -----------------------------------------
Magnitude (a.u.)       :      2.18745
Magnitude (Debye)      :      5.56007

Rotational constants in cm-1:     0.018190     0.012573     0.008405
Rotational constants in MHz :   545.327178   376.916509   251.974803

                             ****ORCA TERMINATED NORMALLY****
TOTAL RUN TIME: 0 days 0 hours 4 minutes 55 seconds 412 msec
