                         Program Version 5.0.0 -  RELEASE  -
|  1> !LC-BLYP RIJCOSX def2-SVPD def2/J TightSCF xyzfile
|  2>
|  3> *xyzfile 0 1 D3.xyz
|  4>
|  5> %MaxCore 64000
|  6>
|  7> %pal nprocs 4
|  8> end
|  9>
| 10> %scf
| 11>   MaxIter 150
| 12> end
| 13>
| 14>
| 15>                          ****END OF INPUT****

CARTESIAN COORDINATES (ANGSTROEM)
---------------------------------
  C      5.558206   -1.992914   -6.215054
  C      4.930199   -7.375319   -2.649623
  C      3.841892   -6.951611   -3.632829
  H      3.458144   -5.954425   -3.407121
  H      2.988484   -7.643606   -3.567078
  S      4.318115   -6.915930   -5.368692
  C      4.181880   -2.589671   -6.298911
  C      3.145873   -1.768431   -6.486753
  N      4.019102   -3.864307   -6.227427
  H      4.768490   -4.591153   -5.990773
  H      3.122405   -4.333392   -6.314620
  H      3.281635   -0.777786   -6.566549
  H      2.212549   -2.134193   -6.562246
  O      5.406154   -5.899480   -5.512972
  F      3.111910   -6.445079   -6.043792
  C      6.419260   -2.542944   -5.077630
  C      5.872267   -5.002756   -2.427819
  C      6.173994   -6.485522   -2.606315
  H      6.734852   -6.613767   -3.534015
  H      6.821463   -6.831018   -1.793617
  H      4.469612   -7.406168   -1.655876
  H      5.230134   -8.398678   -2.885906
  C      5.896512   -2.169314   -3.694552
  H      7.428880   -2.143665   -5.208078
  H      6.505894   -3.627541   -5.175502
  C      6.807804   -2.623428   -2.551019
  H      4.894708   -2.589732   -3.557501
  H      5.778823   -1.081255   -3.635790
  C      7.111544   -4.122463   -2.520363
  H      7.751615   -2.071393   -2.614406
  H      6.345837   -2.326401   -1.604086
  H      5.362882   -4.828697   -1.471335
  H      5.174429   -4.702577   -3.211298
  H      7.778329   -4.329347   -1.677651
  H      7.673189   -4.402845   -3.417586
  O      4.763396   -8.239424   -5.698629
  H      6.036826   -2.198189   -7.176852
  H      5.467610   -0.907371   -6.127968

 Total Charge           Charge          ....    0
 Multiplicity           Mult            ....    1
 Number of Electrons    NEL             ....  136
 Basis Dimension        Dim             ....  512

ORBITAL ENERGIES
----------------

  NO   OCC          E(Eh)            E(eV)
   0   2.0000     -88.594910     -2410.7901
   1   2.0000     -24.612827      -669.7491
   2   2.0000     -18.999933      -517.0145
   3   2.0000     -18.991507      -516.7852
   4   2.0000     -14.159810      -385.3080
   5   2.0000     -10.167328      -276.6671
   6   2.0000     -10.125433      -275.5270
   7   2.0000     -10.094308      -274.6801
   8   2.0000     -10.091708      -274.6093
   9   2.0000     -10.084960      -274.4257
  10   2.0000     -10.078454      -274.2487
  11   2.0000     -10.074834      -274.1502
  12   2.0000     -10.069600      -274.0078
  13   2.0000     -10.069114      -273.9945
  14   2.0000     -10.068462      -273.9768
  15   2.0000      -9.998871      -272.0831
  16   2.0000      -8.143095      -221.5849
  17   2.0000      -6.181964      -168.2198
  18   2.0000      -6.175533      -168.0448
  19   2.0000      -6.173447      -167.9880
  20   2.0000      -1.472690       -40.0739
  21   2.0000      -1.235324       -33.6149
  22   2.0000      -1.133324       -30.8393
  23   2.0000      -1.006781       -27.3959
  24   2.0000      -0.961007       -26.1503
  25   2.0000      -0.919590       -25.0233
  26   2.0000      -0.894362       -24.3368
  27   2.0000      -0.865315       -23.5464
  28   2.0000      -0.843311       -22.9477
  29   2.0000      -0.814426       -22.1617
  30   2.0000      -0.795724       -21.6527
  31   2.0000      -0.761160       -20.7122
  32   2.0000      -0.730392       -19.8750
  33   2.0000      -0.719450       -19.5772
  34   2.0000      -0.707804       -19.2603
  35   2.0000      -0.698833       -19.0162
  36   2.0000      -0.683523       -18.5996
  37   2.0000      -0.664619       -18.0852
  38   2.0000      -0.657224       -17.8840
  39   2.0000      -0.631742       -17.1906
  40   2.0000      -0.615771       -16.7560
  41   2.0000      -0.604138       -16.4394
  42   2.0000      -0.590039       -16.0558
  43   2.0000      -0.573379       -15.6024
  44   2.0000      -0.566468       -15.4144
  45   2.0000      -0.563095       -15.3226
  46   2.0000      -0.552288       -15.0285
  47   2.0000      -0.536783       -14.6066
  48   2.0000      -0.529455       -14.4072
  49   2.0000      -0.523010       -14.2318
  50   2.0000      -0.517359       -14.0781
  51   2.0000      -0.506469       -13.7817
  52   2.0000      -0.493212       -13.4210
  53   2.0000      -0.486882       -13.2487
  54   2.0000      -0.474913       -12.9230
  55   2.0000      -0.465581       -12.6691
  56   2.0000      -0.460886       -12.5413
  57   2.0000      -0.458217       -12.4687
  58   2.0000      -0.451492       -12.2857
  59   2.0000      -0.436819       -11.8864
  60   2.0000      -0.432763       -11.7761
  61   2.0000      -0.428311       -11.6549
  62   2.0000      -0.425304       -11.5731
  63   2.0000      -0.414348       -11.2750
  64   2.0000      -0.407152       -11.0792
  65   2.0000      -0.400372       -10.8947
  66   2.0000      -0.396505       -10.7895
  67   2.0000      -0.264019        -7.1843
  68   0.0000       0.036896         1.0040
  69   0.0000       0.059125         1.6089
  70   0.0000       0.065534         1.7833
  71   0.0000       0.076439         2.0800
  72   0.0000       0.086547         2.3551

MULLIKEN ATOMIC CHARGES
-----------------------
   0 C :    0.980809
   1 C :    0.634296
   2 C :    0.124266
   3 H :    0.170194
   4 H :   -0.290001
   5 S :    1.304709
   6 C :   -0.581182
   7 C :    0.517396
   8 N :    1.243983
   9 H :   -0.484157
  10 H :   -0.309647
  11 H :   -0.399729
  12 H :   -0.480972
  13 O :   -0.856042
  14 F :   -0.416015
  15 C :    0.689559
  16 C :    0.205055
  17 C :    0.477556
  18 H :   -0.008508
  19 H :   -0.425647
  20 H :    0.008851
  21 H :   -0.097612
  22 C :    0.094367
  23 H :   -0.222066
  24 H :   -0.838092
  25 C :    0.777999
  26 H :    0.045314
  27 H :   -0.418288
  28 C :    0.297489
  29 H :   -0.035912
  30 H :   -0.145372
  31 H :   -0.042870
  32 H :   -0.514960
  33 H :   -0.427846
  34 H :    0.041519
  35 O :   -0.599462
  36 H :   -0.239894
  37 H :    0.220910
Sum of atomic charges:   -0.0000000

LOEWDIN ATOMIC CHARGES
----------------------
   0 C :    0.007110
   1 C :   -0.024105
   2 C :   -0.054856
   3 H :    0.025063
   4 H :    0.039844
   5 S :    1.126458
   6 C :   -0.267759
   7 C :    0.167433
   8 N :    0.189881
   9 H :   -0.119363
  10 H :   -0.018192
  11 H :   -0.097775
  12 H :   -0.094364
  13 O :   -0.425589
  14 F :   -0.232584
  15 C :   -0.033805
  16 C :   -0.044332
  17 C :   -0.035607
  18 H :    0.020845
  19 H :    0.038062
  20 H :    0.046095
  21 H :    0.038582
  22 C :   -0.041233
  23 H :    0.034140
  24 H :   -0.006630
  25 C :   -0.042293
  26 H :    0.018949
  27 H :    0.031906
  28 C :   -0.041195
  29 H :    0.027794
  30 H :    0.026386
  31 H :    0.044462
  32 H :   -0.014172
  33 H :    0.029848
  34 H :    0.025614
  35 O :   -0.410479
  36 H :    0.035971
  37 H :    0.029888

  Mayer bond orders larger than 0.100000
B(  0-C ,  6-C ) :   0.9372 B(  0-C ,  8-N ) :   0.1832 B(  0-C , 12-H ) :   0.1116
B(  0-C , 15-C ) :   1.1212 B(  0-C , 23-H ) :   0.1151 B(  0-C , 24-H ) :   0.1770
B(  0-C , 36-H ) :   0.3773 B(  0-C , 37-H ) :   0.6207 B(  1-C ,  2-C ) :   1.2792
B(  1-C ,  3-H ) :   0.1063 B(  1-C ,  4-H ) :   0.1879 B(  1-C , 16-C ) :   0.1134
B(  1-C , 17-C ) :   1.1741 B(  1-C , 20-H ) :   0.6516 B(  1-C , 21-H ) :   0.5890
B(  2-C ,  3-H ) :   0.7953 B(  2-C ,  4-H ) :   0.7798 B(  2-C ,  5-S ) :   0.9644
B(  2-C , 17-C ) :   0.1047 B(  2-C , 20-H ) :   0.2316 B(  2-C , 21-H ) :   0.1177
B(  3-H , 17-C ) :  -0.1150 B(  4-H ,  5-S ) :   0.1044 B(  5-S , 13-O ) :   1.3215
B(  5-S , 14-F ) :   0.7232 B(  5-S , 35-O ) :   1.6308 B(  6-C ,  7-C ) :   1.5415
B(  6-C ,  8-N ) :   1.3952 B(  6-C , 10-H ) :  -0.1631 B(  6-C , 12-H ) :   0.3085
B(  6-C , 15-C ) :   0.1707 B(  6-C , 24-H ) :  -0.1283 B(  6-C , 36-H ) :   0.3381
B(  6-C , 37-H ) :   0.1668 B(  7-C ,  8-N ) :   0.1102 B(  7-C , 10-H ) :  -0.1230
B(  7-C , 11-H ) :   0.8280 B(  7-C , 12-H ) :   0.5083 B(  8-N ,  9-H ) :   0.5912
B(  8-N , 10-H ) :   0.8360 B(  8-N , 13-O ) :  -0.1214 B(  8-N , 24-H ) :   0.1155
B(  9-H , 10-H ) :  -0.2005 B(  9-H , 13-O ) :   0.2763 B( 10-H , 14-F ) :   0.1231
B( 13-O , 14-F ) :   0.1040 B( 13-O , 18-H ) :   0.1038 B( 13-O , 24-H ) :   0.2345
B( 13-O , 35-O ) :   0.1149 B( 15-C , 22-C ) :   1.1608 B( 15-C , 23-H ) :   0.6719
B( 15-C , 24-H ) :   0.2618 B( 15-C , 26-H ) :   0.1515 B( 15-C , 27-H ) :   0.2104
B( 15-C , 36-H ) :   0.3128 B( 15-C , 37-H ) :   0.1959 B( 16-C , 17-C ) :   1.1769
B( 16-C , 18-H ) :   0.1510 B( 16-C , 19-H ) :   0.1945 B( 16-C , 28-C ) :   1.2146
B( 16-C , 31-H ) :   0.7254 B( 16-C , 32-H ) :   0.8475 B( 16-C , 33-H ) :   0.2279
B( 16-C , 34-H ) :   0.1497 B( 17-C , 18-H ) :   0.7989 B( 17-C , 19-H ) :   0.7652
B( 17-C , 21-H ) :   0.2972 B( 17-C , 28-C ) :   0.1945 B( 17-C , 31-H ) :   0.1003
B( 17-C , 32-H ) :   0.1016 B( 20-H , 21-H ) :  -0.1385 B( 22-C , 23-H ) :   0.1526
B( 22-C , 24-H ) :   0.2828 B( 22-C , 25-C ) :   1.0574 B( 22-C , 26-H ) :   0.8364
B( 22-C , 27-H ) :   0.9550 B( 22-C , 28-C ) :   0.1918 B( 22-C , 29-H ) :   0.1424
B( 22-C , 30-H ) :   0.2842 B( 22-C , 34-H ) :  -0.1005 B( 23-H , 27-H ) :   0.1171
B( 24-H , 34-H ) :   0.1235 B( 25-C , 28-C ) :   1.0984 B( 25-C , 29-H ) :   0.6172
B( 25-C , 30-H ) :   0.6318 B( 26-H , 32-H ) :   0.1820 B( 28-C , 29-H ) :   0.2683
B( 28-C , 30-H ) :   0.1174 B( 28-C , 31-H ) :   0.1223 B( 28-C , 33-H ) :   0.8861
B( 28-C , 34-H ) :   0.7773 B( 29-H , 30-H ) :  -0.1500 B( 31-H , 32-H ) :   0.1081
B( 36-H , 37-H ) :  -0.1031

FINAL SINGLE POINT ENERGY     -1132.902855522132

DIPOLE MOMENT
-------------
                                X             Y             Z
Electronic contribution:    -10.98834     -20.01802     -14.15965
Nuclear contribution   :     10.48431      18.81367      15.71750
                        -----------------------------------------
Total Dipole Moment    :     -0.50402      -1.20435       1.55785
                        -----------------------------------------
Magnitude (a.u.)       :      2.03258
Magnitude (Debye)      :      5.16641

Rotational constants in cm-1:     0.017977     0.012528     0.008321
Rotational constants in MHz :   538.924099   375.570730   249.458530

                             ****ORCA TERMINATED NORMALLY****
TOTAL RUN TIME: 0 days 0 hours 4 minutes 55 seconds 614 msec
