                         Program Version 5.0.0 -  RELEASE  -
|  1> !LC-BLYP RIJCOSX def2-SVPD def2/J TightSCF xyzfile
|  2>
|  3> *xyzfile 0 1 D4.xyz
|  4>
|  5> %MaxCore 64000
|  6>
|  7> %pal nprocs 4
|  8> end
|  9>
| 10> %scf
| 11>   MaxIter 150
| 12> end
| 13>
| 14>
| 15>                          ****END OF INPUT****

CARTESIAN COORDINATES (ANGSTROEM)
---------------------------------
  C      5.558206   -1.992914   -6.215054
  C      4.930199   -7.375319   -2.649623
  C      3.841892   -6.951611   -3.632829
  H      3.458144   -5.954425   -3.407121
  H      2.988484   -7.643606   -3.567078
  S      4.318115   -6.915930   -5.368692
  C      4.181880   -2.589671   -6.298911
  N      3.145873   -1.768431   -6.486753
  C      4.019102   -3.864307   -6.227427
  H      4.768490   -4.591153   -5.990773
  H      3.122405   -4.333392   -6.314620
  H      3.281635   -0.777786   -6.566549
  H      2.212549   -2.134193   -6.562246
  O      5.406154   -5.899480   -5.512972
  F      3.111910   -6.445079   -6.043792
  C      6.419260   -2.542944   -5.077630
  C      5.872267   -5.002756   -2.427819
  C      6.173994   -6.485522   -2.606315
  H      6.734852   -6.613767   -3.534015
  H      6.821463   -6.831018   -1.793617
  H      4.469612   -7.406168   -1.655876
  H      5.230134   -8.398678   -2.885906
  C      5.896512   -2.169314   -3.694552
  H      7.428880   -2.143665   -5.208078
  H      6.505894   -3.627541   -5.175502
  C      6.807804   -2.623428   -2.551019
  H      4.894708   -2.589732   -3.557501
  H      5.778823   -1.081255   -3.635790
  C      7.111544   -4.122463   -2.520363
  H      7.751615   -2.071393   -2.614406
  H      6.345837   -2.326401   -1.604086
  H      5.362882   -4.828697   -1.471335
  H      5.174429   -4.702577   -3.211298
  H      7.778329   -4.329347   -1.677651
  H      7.673189   -4.402845   -3.417586
  O      4.763396   -8.239424   -5.698629
  H      6.036826   -2.198189   -7.176852
  H      5.467610   -0.907371   -6.127968

 Total Charge           Charge          ....    0
 Multiplicity           Mult            ....    1
 Number of Electrons    NEL             ....  136
 Basis Dimension        Dim             ....  512

ORBITAL ENERGIES
----------------

  NO   OCC          E(Eh)            E(eV)
   0   2.0000     -88.572380     -2410.1770
   1   2.0000     -24.587606      -669.0628
   2   2.0000     -18.979249      -516.4516
   3   2.0000     -18.961401      -515.9659
   4   2.0000     -14.175651      -385.7391
   5   2.0000     -10.151330      -276.2317
   6   2.0000     -10.113510      -275.2026
   7   2.0000     -10.091592      -274.6062
   8   2.0000     -10.084001      -274.3996
   9   2.0000     -10.076108      -274.1848
  10   2.0000     -10.072457      -274.0855
  11   2.0000     -10.072168      -274.0776
  12   2.0000     -10.071435      -274.0577
  13   2.0000     -10.066766      -273.9306
  14   2.0000     -10.066694      -273.9287
  15   2.0000      -9.989633      -271.8317
  16   2.0000      -8.120196      -220.9618
  17   2.0000      -6.158908      -167.5924
  18   2.0000      -6.152612      -167.4211
  19   2.0000      -6.150832      -167.3727
  20   2.0000      -1.447743       -39.3951
  21   2.0000      -1.212226       -32.9863
  22   2.0000      -1.107235       -30.1294
  23   2.0000      -1.007343       -27.4112
  24   2.0000      -0.946621       -25.7589
  25   2.0000      -0.914177       -24.8760
  26   2.0000      -0.886401       -24.1202
  27   2.0000      -0.862004       -23.4563
  28   2.0000      -0.828140       -22.5348
  29   2.0000      -0.809534       -22.0285
  30   2.0000      -0.785695       -21.3799
  31   2.0000      -0.757957       -20.6251
  32   2.0000      -0.725239       -19.7347
  33   2.0000      -0.707725       -19.2582
  34   2.0000      -0.692634       -18.8475
  35   2.0000      -0.675477       -18.3807
  36   2.0000      -0.669822       -18.2268
  37   2.0000      -0.657043       -17.8791
  38   2.0000      -0.642855       -17.4930
  39   2.0000      -0.620085       -16.8734
  40   2.0000      -0.605683       -16.4815
  41   2.0000      -0.601245       -16.3607
  42   2.0000      -0.586260       -15.9530
  43   2.0000      -0.574807       -15.6413
  44   2.0000      -0.563389       -15.3306
  45   2.0000      -0.554127       -15.0786
  46   2.0000      -0.551101       -14.9962
  47   2.0000      -0.532227       -14.4826
  48   2.0000      -0.518558       -14.1107
  49   2.0000      -0.513696       -13.9784
  50   2.0000      -0.510420       -13.8892
  51   2.0000      -0.496359       -13.5066
  52   2.0000      -0.490353       -13.3432
  53   2.0000      -0.472276       -12.8513
  54   2.0000      -0.466674       -12.6988
  55   2.0000      -0.458440       -12.4748
  56   2.0000      -0.451002       -12.2724
  57   2.0000      -0.444251       -12.0887
  58   2.0000      -0.439235       -11.9522
  59   2.0000      -0.435504       -11.8507
  60   2.0000      -0.421993       -11.4830
  61   2.0000      -0.420844       -11.4518
  62   2.0000      -0.419018       -11.4021
  63   2.0000      -0.405178       -11.0254
  64   2.0000      -0.399217       -10.8633
  65   2.0000      -0.396293       -10.7837
  66   2.0000      -0.366668        -9.9775
  67   2.0000      -0.275074        -7.4851
  68   0.0000       0.050001         1.3606
  69   0.0000       0.070711         1.9241
  70   0.0000       0.073462         1.9990
  71   0.0000       0.080035         2.1779
  72   0.0000       0.090952         2.4749

MULLIKEN ATOMIC CHARGES
-----------------------
   0 C :    1.045450
   1 C :    0.646682
   2 C :    0.129270
   3 H :    0.162764
   4 H :   -0.295959
   5 S :    1.323565
   6 C :   -0.082398
   7 N :    0.389822
   8 C :    1.524654
   9 H :   -0.538770
  10 H :   -1.259587
  11 H :   -0.174495
  12 H :   -0.220116
  13 O :   -0.791156
  14 F :   -0.433549
  15 C :    0.656524
  16 C :    0.206644
  17 C :    0.482225
  18 H :   -0.002930
  19 H :   -0.421458
  20 H :    0.001013
  21 H :   -0.095927
  22 C :    0.081872
  23 H :   -0.198234
  24 H :   -0.829627
  25 C :    0.796884
  26 H :    0.079866
  27 H :   -0.430936
  28 C :    0.305329
  29 H :   -0.043088
  30 H :   -0.132049
  31 H :   -0.039298
  32 H :   -0.542294
  33 H :   -0.413637
  34 H :    0.020629
  35 O :   -0.637314
  36 H :   -0.221422
  37 H :   -0.048952
Sum of atomic charges:    0.0000000

LOEWDIN ATOMIC CHARGES
----------------------
   0 C :    0.005565
   1 C :   -0.026110
   2 C :   -0.056953
   3 H :    0.023705
   4 H :    0.037172
   5 S :    1.117902
   6 C :   -0.248117
   7 N :    0.186977
   8 C :    0.166140
   9 H :   -0.168799
  10 H :   -0.093035
  11 H :   -0.019079
  12 H :   -0.002983
  13 O :   -0.441382
  14 F :   -0.238111
  15 C :   -0.026924
  16 C :   -0.043666
  17 C :   -0.036186
  18 H :    0.020944
  19 H :    0.036264
  20 H :    0.043591
  21 H :    0.037495
  22 C :   -0.043034
  23 H :    0.034425
  24 H :    0.000899
  25 C :   -0.043095
  26 H :    0.017501
  27 H :    0.027298
  28 C :   -0.041113
  29 H :    0.026756
  30 H :    0.025635
  31 H :    0.043032
  32 H :   -0.012047
  33 H :    0.029136
  34 H :    0.026199
  35 O :   -0.421953
  36 H :    0.038137
  37 H :    0.017816

  Mayer bond orders larger than 0.100000
B(  0-C ,  6-C ) :   1.0154 B(  0-C ,  8-C ) :   0.1956 B(  0-C ,  9-H ) :  -0.2044
B(  0-C , 15-C ) :   1.1728 B(  0-C , 24-H ) :   0.1268 B(  0-C , 36-H ) :   0.4484
B(  0-C , 37-H ) :   0.5942 B(  1-C ,  2-C ) :   1.2611 B(  1-C ,  3-H ) :   0.1090
B(  1-C ,  4-H ) :   0.1797 B(  1-C , 16-C ) :   0.1175 B(  1-C , 17-C ) :   1.1669
B(  1-C , 20-H ) :   0.6515 B(  1-C , 21-H ) :   0.5847 B(  2-C ,  3-H ) :   0.8014
B(  2-C ,  4-H ) :   0.7878 B(  2-C ,  5-S ) :   0.9682 B(  2-C , 17-C ) :   0.1041
B(  2-C , 20-H ) :   0.2334 B(  2-C , 21-H ) :   0.1236 B(  3-H , 17-C ) :  -0.1162
B(  5-S , 13-O ) :   1.3751 B(  5-S , 14-F ) :   0.7171 B(  5-S , 35-O ) :   1.6135
B(  6-C ,  7-N ) :   0.9483 B(  6-C ,  8-C ) :   2.1161 B(  6-C ,  9-H ) :  -0.2896
B(  6-C , 10-H ) :   0.2536 B(  6-C , 12-H ) :  -0.1395 B(  6-C , 36-H ) :   0.3225
B(  6-C , 37-H ) :   0.1608 B(  7-N ,  8-C ) :   0.5018 B(  7-N ,  9-H ) :   0.1515
B(  7-N , 10-H ) :  -0.1199 B(  7-N , 11-H ) :   1.1173 B(  7-N , 12-H ) :   1.2734
B(  8-C ,  9-H ) :   0.1918 B(  8-C , 10-H ) :  -0.7418 B(  8-C , 14-F ) :  -0.1893
B(  8-C , 24-H ) :   0.1973 B(  9-H , 10-H ) :  -0.3405 B(  9-H , 13-O ) :   0.1724
B(  9-H , 24-H ) :   0.1613 B( 10-H , 14-F ) :   0.3016 B( 10-H , 24-H ) :  -0.1780
B( 11-H , 12-H ) :  -0.1711 B( 13-O , 14-F ) :   0.1002 B( 13-O , 18-H ) :   0.1056
B( 13-O , 24-H ) :   0.2134 B( 13-O , 35-O ) :   0.1205 B( 15-C , 22-C ) :   1.1510
B( 15-C , 23-H ) :   0.6624 B( 15-C , 24-H ) :   0.3569 B( 15-C , 26-H ) :   0.1557
B( 15-C , 27-H ) :   0.2008 B( 15-C , 36-H ) :   0.3658 B( 15-C , 37-H ) :   0.2068
B( 16-C , 17-C ) :   1.1740 B( 16-C , 18-H ) :   0.1519 B( 16-C , 19-H ) :   0.1871
B( 16-C , 28-C ) :   1.2048 B( 16-C , 31-H ) :   0.7159 B( 16-C , 32-H ) :   0.8533
B( 16-C , 33-H ) :   0.2354 B( 16-C , 34-H ) :   0.1620 B( 17-C , 18-H ) :   0.8011
B( 17-C , 19-H ) :   0.7609 B( 17-C , 21-H ) :   0.3008 B( 17-C , 28-C ) :   0.1981
B( 17-C , 31-H ) :   0.1000 B( 17-C , 32-H ) :   0.1008 B( 20-H , 21-H ) :  -0.1392
B( 22-C , 23-H ) :   0.1646 B( 22-C , 24-H ) :   0.2556 B( 22-C , 25-C ) :   1.0643
B( 22-C , 26-H ) :   0.8269 B( 22-C , 27-H ) :   1.0008 B( 22-C , 28-C ) :   0.2019
B( 22-C , 29-H ) :   0.1642 B( 22-C , 30-H ) :   0.3030 B( 22-C , 34-H ) :  -0.1049
B( 23-H , 27-H ) :   0.1078 B( 24-H , 34-H ) :   0.1155 B( 25-C , 28-C ) :   1.0933
B( 25-C , 29-H ) :   0.5865 B( 25-C , 30-H ) :   0.6117 B( 26-H , 27-H ) :  -0.1044
B( 26-H , 32-H ) :   0.1973 B( 28-C , 29-H ) :   0.2714 B( 28-C , 30-H ) :   0.1104
B( 28-C , 31-H ) :   0.1273 B( 28-C , 33-H ) :   0.8789 B( 28-C , 34-H ) :   0.7802
B( 29-H , 30-H ) :  -0.1424 B( 31-H , 32-H ) :   0.1144 B( 36-H , 37-H ) :  -0.1558

FINAL SINGLE POINT ENERGY     -1132.890303169323

DIPOLE MOMENT
-------------
                                X             Y             Z
Electronic contribution:    -11.71796     -18.14981     -14.57837
Nuclear contribution   :     10.61624      18.49702      15.75668
                        -----------------------------------------
Total Dipole Moment    :     -1.10172       0.34722       1.17831
                        -----------------------------------------
Magnitude (a.u.)       :      1.65008
Magnitude (Debye)      :      4.19417

Rotational constants in cm-1:     0.017796     0.012372     0.008231
Rotational constants in MHz :   533.524905   370.895973   246.762347

                             ****ORCA TERMINATED NORMALLY****
TOTAL RUN TIME: 0 days 0 hours 4 minutes 54 seconds 461 msec
