                         Program Version 5.0.0 -  RELEASE  -
|  1> !wB97X-D3 RIJCOSX def2-SVPD def2/J TightSCF CPCM(Water)
|  2> *xyz -1 1
|  3> C         -0.91495        0.61511        2.50554
|  4> C         -0.05915        1.50352        3.41058
|  5> H          0.36536        2.34431        2.86116
|  6> H         -0.69226        1.92021        4.19898
|  7> C          1.08303        0.74964        4.08571
|  8> O          2.22817        1.26348        4.01983
|  9> O          0.81003       -0.34541        4.63627
| 10> C         -0.13074       -0.19398        1.47076
| 11> H         -1.64796        1.24596        1.99108
| 12> H         -1.47818       -0.08105        3.13042
| 13> H         -0.80952       -0.78099        0.88803
| 14> H          0.55985       -0.83974        1.97175
| 15> H          0.40595        0.47288        0.82877
| 16> *
| 17>
| 18> %MaxCore 64000
| 19>
| 20> %pal nprocs 18
| 21> end
| 22>
| 23> %scf
| 24>   MaxIter 150
| 25> end
| 26>
| 27>
| 28>                          ****END OF INPUT****

CARTESIAN COORDINATES (ANGSTROEM)
---------------------------------
  C     -0.914950    0.615110    2.505540
  C     -0.059150    1.503520    3.410580
  H      0.365360    2.344310    2.861160
  H     -0.692260    1.920210    4.198980
  C      1.083030    0.749640    4.085710
  O      2.228170    1.263480    4.019830
  O      0.810030   -0.345410    4.636270
  C     -0.130740   -0.193980    1.470760
  H     -1.647960    1.245960    1.991080
  H     -1.478180   -0.081050    3.130420
  H     -0.809520   -0.780990    0.888030
  H      0.559850   -0.839740    1.971750
  H      0.405950    0.472880    0.828770

 Total Charge           Charge          ....   -1
 Multiplicity           Mult            ....    1
 Number of Electrons    NEL             ....   48
 Basis Dimension        Dim             ....  182

ORBITAL ENERGIES
----------------

  NO   OCC          E(Eh)            E(eV)
   0   2.0000     -19.177907      -521.8574
   1   2.0000     -19.177023      -521.8333
   2   2.0000     -10.365719      -282.0656
   3   2.0000     -10.275576      -279.6126
   4   2.0000     -10.268019      -279.4070
   5   2.0000     -10.261452      -279.2283
   6   2.0000      -1.123635       -30.5757
   7   2.0000      -1.028173       -27.9780
   8   2.0000      -0.887257       -24.1435
   9   2.0000      -0.794830       -21.6284
  10   2.0000      -0.692287       -18.8381
  11   2.0000      -0.587452       -15.9854
  12   2.0000      -0.550961       -14.9924
  13   2.0000      -0.549112       -14.9421
  14   2.0000      -0.518180       -14.1004
  15   2.0000      -0.506325       -13.7778
  16   2.0000      -0.482911       -13.1407
  17   2.0000      -0.467093       -12.7103
  18   2.0000      -0.434654       -11.8275
  19   2.0000      -0.419533       -11.4161
  20   2.0000      -0.411612       -11.2005
  21   2.0000      -0.343465        -9.3462
  22   2.0000      -0.328721        -8.9449
  23   2.0000      -0.323120        -8.7925
  24   0.0000       0.094786         2.5792
  25   0.0000       0.116575         3.1722
  26   0.0000       0.122426         3.3314
  27   0.0000       0.134255         3.6533
  28   0.0000       0.147651         4.0178

MULLIKEN ATOMIC CHARGES
-----------------------
   0 C :   -0.401184
   1 C :    0.117457
   2 H :   -0.008386
   3 H :    0.011820
   4 C :    0.388557
   5 O :   -0.718045
   6 O :   -0.763945
   7 C :    0.596211
   8 H :   -0.130064
   9 H :   -0.001160
  10 H :   -0.024098
  11 H :   -0.067583
  12 H :    0.000419
Sum of atomic charges:   -1.0000000

LOEWDIN ATOMIC CHARGES
----------------------
   0 C :   -0.080897
   1 C :    0.000269
   2 H :    0.013035
   3 H :    0.028211
   4 C :   -0.326981
   5 O :   -0.365819
   6 O :   -0.355642
   7 C :    0.118097
   8 H :    0.018232
   9 H :    0.013043
  10 H :   -0.018021
  11 H :   -0.028901
  12 H :   -0.014626

  Mayer bond orders larger than 0.100000
B(  0-C ,  1-C ) :   1.1903 B(  0-C ,  2-H ) :   0.1331 B(  0-C ,  3-H ) :   0.1169
B(  0-C ,  7-C ) :   1.3186 B(  0-C ,  8-H ) :   0.9913 B(  0-C ,  9-H ) :   0.9023
B(  0-C , 10-H ) :   0.1947 B(  0-C , 11-H ) :   0.1968 B(  0-C , 12-H ) :   0.1888
B(  1-C ,  2-H ) :   0.8801 B(  1-C ,  3-H ) :   0.8398 B(  1-C ,  4-C ) :   1.0532
B(  1-C ,  9-H ) :   0.1104 B(  2-H ,  4-C ) :   0.1887 B(  3-H ,  4-C ) :   0.1011
B(  4-C ,  5-O ) :   1.4443 B(  4-C ,  6-O ) :   1.4847 B(  5-O ,  6-O ) :   0.1543
B(  7-C , 10-H ) :   0.7839 B(  7-C , 11-H ) :   0.8566 B(  7-C , 12-H ) :   0.8031

Dispersion correction           -0.003396105
FINAL SINGLE POINT ENERGY      -306.971389557959

DIPOLE MOMENT
-------------
                                X             Y             Z
Electronic contribution:      3.93269       0.44805       4.97952
Nuclear contribution   :     -6.45806       0.15825      -7.12052
                        -----------------------------------------
Total Dipole Moment    :     -2.52537       0.60630      -2.14100
                        -----------------------------------------
Magnitude (a.u.)       :      3.36585
Magnitude (Debye)      :      8.55532

Rotational constants in cm-1:     0.199323     0.080770     0.077827
Rotational constants in MHz :  5975.562678  2421.415024  2333.195390

                             ****ORCA TERMINATED NORMALLY****
TOTAL RUN TIME: 0 days 0 hours 0 minutes 10 seconds 622 msec
