                         Program Version 5.0.0 -  RELEASE  -
|  1> !wB97X-D3 RIJCOSX def2-SVPD def2/J TightSCF CPCM(Water)
|  2> *xyz 1 1
|  3> C          4.60295       -2.44010        2.63478
|  4> C          3.86085       -1.59157        3.62289
|  5> N          2.75650       -2.04616        4.16633
|  6> N          4.25433       -0.36291        3.86046
|  7> H          3.56526        0.31099        4.16898
|  8> H          5.05429       -0.01606        3.33784
|  9> H          2.43970       -2.97389        3.89740
| 10> H          2.06687       -1.41253        4.54981
| 11> C          3.74469       -2.58056        1.36188
| 12> C          3.20372       -1.25600        0.82621
| 13> H          2.89894       -3.23929        1.58307
| 14> H          4.33496       -3.09552        0.60019
| 15> H          5.56156       -1.97135        2.40708
| 16> H          4.81050       -3.42255        3.06310
| 17> H          2.62184       -1.43789       -0.05313
| 18> H          4.02069       -0.60826        0.58562
| 19> H          2.58975       -0.79418        1.57097
| 20> *
| 21>
| 22> %MaxCore 64000
| 23>
| 24> %pal nprocs 18
| 25> end
| 26>
| 27> %scf
| 28>   MaxIter 150
| 29> end
| 30>
| 31>
| 32>                          ****END OF INPUT****

CARTESIAN COORDINATES (ANGSTROEM)
---------------------------------
  C      4.602950   -2.440100    2.634780
  C      3.860850   -1.591570    3.622890
  N      2.756500   -2.046160    4.166330
  N      4.254330   -0.362910    3.860460
  H      3.565260    0.310990    4.168980
  H      5.054290   -0.016060    3.337840
  H      2.439700   -2.973890    3.897400
  H      2.066870   -1.412530    4.549810
  C      3.744690   -2.580560    1.361880
  C      3.203720   -1.256000    0.826210
  H      2.898940   -3.239290    1.583070
  H      4.334960   -3.095520    0.600190
  H      5.561560   -1.971350    2.407080
  H      4.810500   -3.422550    3.063100
  H      2.621840   -1.437890   -0.053130
  H      4.020690   -0.608260    0.585620
  H      2.589750   -0.794180    1.570970

 Total Charge           Charge          ....    1
 Multiplicity           Mult            ....    1
 Number of Electrons    NEL             ....   48
 Basis Dimension        Dim             ....  208

ORBITAL ENERGIES
----------------

  NO   OCC          E(Eh)            E(eV)
   0   2.0000     -14.498774      -394.5317
   1   2.0000     -14.498461      -394.5232
   2   2.0000     -10.436312      -283.9865
   3   2.0000     -10.320933      -280.8469
   4   2.0000     -10.303622      -280.3758
   5   2.0000     -10.276882      -279.6482
   6   2.0000      -1.136629       -30.9293
   7   2.0000      -1.034147       -28.1406
   8   2.0000      -0.926327       -25.2066
   9   2.0000      -0.838928       -22.8284
  10   2.0000      -0.765092       -20.8192
  11   2.0000      -0.722992       -19.6736
  12   2.0000      -0.692756       -18.8509
  13   2.0000      -0.668716       -18.1967
  14   2.0000      -0.611695       -16.6451
  15   2.0000      -0.602560       -16.3965
  16   2.0000      -0.569390       -15.4939
  17   2.0000      -0.525386       -14.2965
  18   2.0000      -0.512497       -13.9457
  19   2.0000      -0.507264       -13.8033
  20   2.0000      -0.451855       -12.2956
  21   2.0000      -0.449236       -12.2243
  22   2.0000      -0.437398       -11.9022
  23   2.0000      -0.407990       -11.1020
  24   0.0000       0.041808         1.1377
  25   0.0000       0.087739         2.3875
  26   0.0000       0.121464         3.3052
  27   0.0000       0.122000         3.3198
  28   0.0000       0.127046         3.4571

MULLIKEN ATOMIC CHARGES
-----------------------
   0 C :    0.201163
   1 C :    0.368568
   2 N :   -0.045174
   3 N :   -0.081273
   4 H :    0.010885
   5 H :    0.159772
   6 H :    0.149306
   7 H :   -0.031151
   8 C :   -0.428823
   9 C :    0.656262
  10 H :    0.051924
  11 H :   -0.110014
  12 H :    0.107344
  13 H :    0.067766
  14 H :   -0.072921
  15 H :    0.008106
  16 H :   -0.011740
Sum of atomic charges:    1.0000000

LOEWDIN ATOMIC CHARGES
----------------------
   0 C :    0.052591
   1 C :   -0.063816
   2 N :    0.291864
   3 N :    0.288915
   4 H :    0.061473
   5 H :    0.058372
   6 H :    0.059204
   7 H :    0.062792
   8 C :   -0.046842
   9 C :    0.128498
  10 H :    0.025473
  11 H :    0.032070
  12 H :    0.041476
  13 H :    0.048321
  14 H :   -0.009757
  15 H :   -0.007458
  16 H :   -0.023175

  Mayer bond orders larger than 0.100000
B(  0-C ,  1-C ) :   1.2193 B(  0-C ,  8-C ) :   1.1415 B(  0-C , 11-H ) :   0.1007
B(  0-C , 12-H ) :   0.8065 B(  0-C , 13-H ) :   0.8268 B(  1-C ,  2-N ) :   1.1344
B(  1-C ,  3-N ) :   1.0994 B(  1-C , 12-H ) :   0.1643 B(  1-C , 13-H ) :   0.1805
B(  2-N ,  3-N ) :   0.1562 B(  2-N ,  6-H ) :   0.9783 B(  2-N ,  7-H ) :   1.2107
B(  3-N ,  4-H ) :   1.1726 B(  3-N ,  5-H ) :   0.9571 B(  4-H ,  5-H ) :  -0.1308
B(  6-H ,  7-H ) :  -0.1486 B(  8-C ,  9-C ) :   1.3196 B(  8-C , 10-H ) :   0.9143
B(  8-C , 11-H ) :   1.0219 B(  8-C , 12-H ) :   0.1284 B(  8-C , 14-H ) :   0.2090
B(  8-C , 15-H ) :   0.1837 B(  8-C , 16-H ) :   0.2132 B(  9-C , 14-H ) :   0.7921
B(  9-C , 15-H ) :   0.7922 B(  9-C , 16-H ) :   0.8122

Dispersion correction           -0.004943813
FINAL SINGLE POINT ENERGY      -268.195160567957

DIPOLE MOMENT
-------------
                                X             Y             Z
Electronic contribution:      0.39453       0.72203       5.52785
Nuclear contribution   :     -0.82989      -0.08664      -4.26094
                        -----------------------------------------
Total Dipole Moment    :     -0.43537       0.63539       1.26691
                        -----------------------------------------
Magnitude (a.u.)       :      1.48267
Magnitude (Debye)      :      3.76866

Rotational constants in cm-1:     0.166042     0.084809     0.078793
Rotational constants in MHz :  4977.819890  2542.513379  2362.161076

                             ****ORCA TERMINATED NORMALLY****
TOTAL RUN TIME: 0 days 0 hours 0 minutes 14 seconds 680 msec
