                         Program Version 5.0.0 -  RELEASE  -
|  1> !wB97X-D3 RIJCOSX def2-SVPD def2/J TightSCF CPCM(Water)
|  2> *xyz 0 1
|  3> C         -0.91495        0.61511        2.50554
|  4> C         -0.05915        1.50352        3.41058
|  5> H          0.36536        2.34431        2.86116
|  6> H         -0.69226        1.92021        4.19898
|  7> C          1.08303        0.74964        4.08571
|  8> F          2.22817        1.26348        4.01983
|  9> O          0.81003       -0.34541        4.63627
| 10> C         -0.13074       -0.19398        1.47076
| 11> H         -1.64796        1.24596        1.99108
| 12> H         -1.47818       -0.08105        3.13042
| 13> H         -0.80952       -0.78099        0.88803
| 14> H          0.55985       -0.83974        1.97175
| 15> H          0.40595        0.47288        0.82877
| 16> *
| 17>
| 18> %MaxCore 64000
| 19>
| 20> %pal nprocs 18
| 21> end
| 22>
| 23> %scf
| 24>   MaxIter 150
| 25> end
| 26>
| 27>
| 28>                          ****END OF INPUT****

CARTESIAN COORDINATES (ANGSTROEM)
---------------------------------
  C     -0.914950    0.615110    2.505540
  C     -0.059150    1.503520    3.410580
  H      0.365360    2.344310    2.861160
  H     -0.692260    1.920210    4.198980
  C      1.083030    0.749640    4.085710
  F      2.228170    1.263480    4.019830
  O      0.810030   -0.345410    4.636270
  C     -0.130740   -0.193980    1.470760
  H     -1.647960    1.245960    1.991080
  H     -1.478180   -0.081050    3.130420
  H     -0.809520   -0.780990    0.888030
  H      0.559850   -0.839740    1.971750
  H      0.405950    0.472880    0.828770

 Total Charge           Charge          ....    0
 Multiplicity           Mult            ....    1
 Number of Electrons    NEL             ....   48
 Basis Dimension        Dim             ....  182

ORBITAL ENERGIES
----------------

  NO   OCC          E(Eh)            E(eV)
   0   2.0000     -24.876399      -676.9212
   1   2.0000     -19.263213      -524.1787
   2   2.0000     -10.480924      -285.2004
   3   2.0000     -10.309481      -280.5352
   4   2.0000     -10.293600      -280.1031
   5   2.0000     -10.270912      -279.4857
   6   2.0000      -1.425362       -38.7861
   7   2.0000      -1.151274       -31.3278
   8   2.0000      -0.916108       -24.9286
   9   2.0000      -0.832477       -22.6529
  10   2.0000      -0.770127       -20.9562
  11   2.0000      -0.710992       -19.3471
  12   2.0000      -0.658005       -17.9052
  13   2.0000      -0.636543       -17.3212
  14   2.0000      -0.617164       -16.7939
  15   2.0000      -0.560581       -15.2542
  16   2.0000      -0.552337       -15.0299
  17   2.0000      -0.507569       -13.8116
  18   2.0000      -0.503943       -13.7130
  19   2.0000      -0.468966       -12.7612
  20   2.0000      -0.443587       -12.0706
  21   2.0000      -0.439749       -11.9662
  22   2.0000      -0.429867       -11.6973
  23   2.0000      -0.401391       -10.9224
  24   0.0000       0.048271         1.3135
  25   0.0000       0.090950         2.4749
  26   0.0000       0.118882         3.2350
  27   0.0000       0.126241         3.4352
  28   0.0000       0.133659         3.6370

MULLIKEN ATOMIC CHARGES
-----------------------
   0 C :   -0.416061
   1 C :   -0.053581
   2 H :    0.088001
   3 H :    0.104877
   4 C :    0.786695
   5 F :   -0.380068
   6 O :   -0.581101
   7 C :    0.559616
   8 H :   -0.089742
   9 H :    0.026638
  10 H :   -0.007240
  11 H :   -0.054634
  12 H :    0.016600
Sum of atomic charges:   -0.0000000

LOEWDIN ATOMIC CHARGES
----------------------
   0 C :   -0.062499
   1 C :    0.045987
   2 H :    0.035565
   3 H :    0.051886
   4 C :    0.003663
   5 F :   -0.031794
   6 O :   -0.178581
   7 C :    0.126685
   8 H :    0.030684
   9 H :    0.024021
  10 H :   -0.011835
  11 H :   -0.023855
  12 H :   -0.009927

  Mayer bond orders larger than 0.100000
B(  0-C ,  1-C ) :   1.2117 B(  0-C ,  2-H ) :   0.1288 B(  0-C ,  3-H ) :   0.1184
B(  0-C ,  7-C ) :   1.3356 B(  0-C ,  8-H ) :   0.9943 B(  0-C ,  9-H ) :   0.9116
B(  0-C , 10-H ) :   0.1883 B(  0-C , 11-H ) :   0.1837 B(  0-C , 12-H ) :   0.1812
B(  1-C ,  2-H ) :   0.8914 B(  1-C ,  3-H ) :   0.8449 B(  1-C ,  4-C ) :   1.1101
B(  1-C ,  9-H ) :   0.1031 B(  2-H ,  4-C ) :   0.1016 B(  4-C ,  5-F ) :   0.7241
B(  4-C ,  6-O ) :   1.7821 B(  7-C , 10-H ) :   0.7892 B(  7-C , 11-H ) :   0.8638
B(  7-C , 12-H ) :   0.8143

Dispersion correction           -0.003314907
FINAL SINGLE POINT ENERGY      -331.403384084073

DIPOLE MOMENT
-------------
                                X             Y             Z
Electronic contribution:      7.90321       1.81178       7.03481
Nuclear contribution   :     -8.39104      -0.60591      -7.87060
                        -----------------------------------------
Total Dipole Moment    :     -0.48783       1.20587      -0.83579
                        -----------------------------------------
Magnitude (a.u.)       :      1.54617
Magnitude (Debye)      :      3.93005

Rotational constants in cm-1:     0.194210     0.077092     0.074391
Rotational constants in MHz :  5822.269139  2311.145895  2230.180895

                             ****ORCA TERMINATED NORMALLY****
TOTAL RUN TIME: 0 days 0 hours 0 minutes 11 seconds 437 msec
