                         Program Version 5.0.0 -  RELEASE  -
|  1> !wB97X-D3 RIJCOSX def2-SVPD def2/J TightSCF CPCM(Water)
|  2> *xyz 0 1
|  3> C          4.60295       -2.44010        2.63478
|  4> C          3.86085       -1.59157        3.62289
|  5> C          2.75650       -2.04616        4.16633
|  6> N          4.25433       -0.36291        3.86046
|  7> H          3.56526        0.31099        4.16898
|  8> H          5.05429       -0.01606        3.33784
|  9> H          2.43970       -2.97389        3.89740
| 10> H          2.06687       -1.41253        4.54981
| 11> C          3.74469       -2.58056        1.36188
| 12> C          3.20372       -1.25600        0.82621
| 13> H          2.89894       -3.23929        1.58307
| 14> H          4.33496       -3.09552        0.60019
| 15> H          5.56156       -1.97135        2.40708
| 16> H          4.81050       -3.42255        3.06310
| 17> H          2.62184       -1.43789       -0.05313
| 18> H          4.02069       -0.60826        0.58562
| 19> H          2.58975       -0.79418        1.57097
| 20> *
| 21>
| 22> %MaxCore 64000
| 23>
| 24> %pal nprocs 18
| 25> end
| 26>
| 27> %scf
| 28>   MaxIter 150
| 29> end
| 30>
| 31>
| 32>                          ****END OF INPUT****

CARTESIAN COORDINATES (ANGSTROEM)
---------------------------------
  C      4.602950   -2.440100    2.634780
  C      3.860850   -1.591570    3.622890
  C      2.756500   -2.046160    4.166330
  N      4.254330   -0.362910    3.860460
  H      3.565260    0.310990    4.168980
  H      5.054290   -0.016060    3.337840
  H      2.439700   -2.973890    3.897400
  H      2.066870   -1.412530    4.549810
  C      3.744690   -2.580560    1.361880
  C      3.203720   -1.256000    0.826210
  H      2.898940   -3.239290    1.583070
  H      4.334960   -3.095520    0.600190
  H      5.561560   -1.971350    2.407080
  H      4.810500   -3.422550    3.063100
  H      2.621840   -1.437890   -0.053130
  H      4.020690   -0.608260    0.585620
  H      2.589750   -0.794180    1.570970

 Total Charge           Charge          ....    0
 Multiplicity           Mult            ....    1
 Number of Electrons    NEL             ....   48
 Basis Dimension        Dim             ....  208

ORBITAL ENERGIES
----------------

  NO   OCC          E(Eh)            E(eV)
   0   2.0000     -14.432934      -392.7401
   1   2.0000     -10.312944      -280.6295
   2   2.0000     -10.285255      -279.8760
   3   2.0000     -10.282888      -279.8116
   4   2.0000     -10.265044      -279.3261
   5   2.0000     -10.220306      -278.1087
   6   2.0000      -1.040437       -28.3117
   7   2.0000      -0.903237       -24.5783
   8   2.0000      -0.838673       -22.8215
   9   2.0000      -0.791073       -21.5262
  10   2.0000      -0.708046       -19.2669
  11   2.0000      -0.656589       -17.8667
  12   2.0000      -0.617838       -16.8122
  13   2.0000      -0.587808       -15.9951
  14   2.0000      -0.555823       -15.1247
  15   2.0000      -0.534014       -14.5313
  16   2.0000      -0.495349       -13.4791
  17   2.0000      -0.486490       -13.2381
  18   2.0000      -0.462164       -12.5761
  19   2.0000      -0.456109       -12.4114
  20   2.0000      -0.427286       -11.6270
  21   2.0000      -0.419146       -11.4055
  22   2.0000      -0.414252       -11.2724
  23   2.0000      -0.283506        -7.7146
  24   0.0000       0.096192         2.6175
  25   0.0000       0.104707         2.8492
  26   0.0000       0.126215         3.4345
  27   0.0000       0.128366         3.4930
  28   0.0000       0.135288         3.6814

MULLIKEN ATOMIC CHARGES
-----------------------
   0 C :    0.393963
   1 C :   -0.433872
   2 C :    0.328594
   3 N :    0.041799
   4 H :   -0.004610
   5 H :    0.078088
   6 H :   -0.101324
   7 H :   -0.359575
   8 C :   -0.422327
   9 C :    0.688355
  10 H :   -0.000413
  11 H :   -0.113068
  12 H :   -0.003052
  13 H :    0.045690
  14 H :   -0.135138
  15 H :    0.004854
  16 H :   -0.007962
Sum of atomic charges:    0.0000000

LOEWDIN ATOMIC CHARGES
----------------------
   0 C :    0.012533
   1 C :   -0.286103
   2 C :    0.141025
   3 N :    0.178063
   4 H :    0.024359
   5 H :    0.016313
   6 H :   -0.083845
   7 H :   -0.083635
   8 C :   -0.062861
   9 C :    0.119511
  10 H :    0.015984
  11 H :    0.019026
  12 H :    0.021396
  13 H :    0.028860
  14 H :   -0.017439
  15 H :   -0.014092
  16 H :   -0.029095

  Mayer bond orders larger than 0.100000
B(  0-C ,  1-C ) :   1.2359 B(  0-C ,  8-C ) :   1.1418 B(  0-C , 10-H ) :   0.1140
B(  0-C , 11-H ) :   0.1555 B(  0-C , 12-H ) :   0.6809 B(  0-C , 13-H ) :   0.7952
B(  1-C ,  2-C ) :   2.0375 B(  1-C ,  3-N ) :   1.0151 B(  1-C ,  5-H ) :   0.1247
B(  1-C ,  7-H ) :   0.2111 B(  1-C , 12-H ) :   0.2567 B(  1-C , 13-H ) :   0.1928
B(  2-C ,  3-N ) :   0.2937 B(  2-C ,  6-H ) :   0.7695 B(  2-C ,  7-H ) :   0.7944
B(  3-N ,  4-H ) :   1.0469 B(  3-N ,  5-H ) :   0.9125 B(  4-H ,  5-H ) :  -0.1224
B(  8-C ,  9-C ) :   1.2883 B(  8-C , 10-H ) :   0.9230 B(  8-C , 11-H ) :   0.9604
B(  8-C , 12-H ) :   0.1596 B(  8-C , 14-H ) :   0.2200 B(  8-C , 15-H ) :   0.1956
B(  8-C , 16-H ) :   0.2335 B(  9-C , 14-H ) :   0.8045 B(  9-C , 15-H ) :   0.7793
B(  9-C , 16-H ) :   0.8098

Dispersion correction           -0.004909280
FINAL SINGLE POINT ENERGY      -251.644558729294

DIPOLE MOMENT
-------------
                                X             Y             Z
Electronic contribution:      1.53173       0.93065       3.15491
Nuclear contribution   :     -1.05621      -0.17147      -3.92631
                        -----------------------------------------
Total Dipole Moment    :      0.47552       0.75918      -0.77140
                        -----------------------------------------
Magnitude (a.u.)       :      1.18217
Magnitude (Debye)      :      3.00484

Rotational constants in cm-1:     0.171127     0.086782     0.080643
Rotational constants in MHz :  5130.249275  2601.647634  2417.629092

                             ****ORCA TERMINATED NORMALLY****
TOTAL RUN TIME: 0 days 0 hours 0 minutes 15 seconds 188 msec
