                         Program Version 5.0.0 -  RELEASE  -
|  1> !wB97X-D3 RIJCOSX def2-SVPD def2/J TightSCF CPCM(Water)
|  2> *xyz 0 1
|  3> C         -0.91495        0.61511        2.50554
|  4> C         -0.05915        1.50352        3.41058
|  5> H          0.36536        2.34431        2.86116
|  6> H         -0.69226        1.92021        4.19898
|  7> C          1.08303        0.74964        4.08571
|  8> O          2.22817        1.26348        4.01983
|  9> F          0.81003       -0.34541        4.63627
| 10> C         -0.13074       -0.19398        1.47076
| 11> H         -1.64796        1.24596        1.99108
| 12> H         -1.47818       -0.08105        3.13042
| 13> H         -0.80952       -0.78099        0.88803
| 14> H          0.55985       -0.83974        1.97175
| 15> H          0.40595        0.47288        0.82877
| 16> *
| 17>
| 18> %MaxCore 64000
| 19>
| 20> %pal nprocs 18
| 21> end
| 22>
| 23> %scf
| 24>   MaxIter 150
| 25> end
| 26>
| 27>
| 28>                          ****END OF INPUT****

CARTESIAN COORDINATES (ANGSTROEM)
---------------------------------
  C     -0.914950    0.615110    2.505540
  C     -0.059150    1.503520    3.410580
  H      0.365360    2.344310    2.861160
  H     -0.692260    1.920210    4.198980
  C      1.083030    0.749640    4.085710
  O      2.228170    1.263480    4.019830
  F      0.810030   -0.345410    4.636270
  C     -0.130740   -0.193980    1.470760
  H     -1.647960    1.245960    1.991080
  H     -1.478180   -0.081050    3.130420
  H     -0.809520   -0.780990    0.888030
  H      0.559850   -0.839740    1.971750
  H      0.405950    0.472880    0.828770

 Total Charge           Charge          ....    0
 Multiplicity           Mult            ....    1
 Number of Electrons    NEL             ....   48
 Basis Dimension        Dim             ....  182

ORBITAL ENERGIES
----------------

  NO   OCC          E(Eh)            E(eV)
   0   2.0000     -24.878105      -676.9677
   1   2.0000     -19.263499      -524.1865
   2   2.0000     -10.481370      -285.2126
   3   2.0000     -10.309472      -280.5350
   4   2.0000     -10.294213      -280.1198
   5   2.0000     -10.272885      -279.5394
   6   2.0000      -1.427414       -38.8419
   7   2.0000      -1.150612       -31.3097
   8   2.0000      -0.919262       -25.0144
   9   2.0000      -0.830982       -22.6122
  10   2.0000      -0.770384       -20.9632
  11   2.0000      -0.713646       -19.4193
  12   2.0000      -0.660905       -17.9841
  13   2.0000      -0.648735       -17.6530
  14   2.0000      -0.603336       -16.4176
  15   2.0000      -0.562717       -15.3123
  16   2.0000      -0.549031       -14.9399
  17   2.0000      -0.516050       -14.0424
  18   2.0000      -0.496682       -13.5154
  19   2.0000      -0.475104       -12.9282
  20   2.0000      -0.453846       -12.3498
  21   2.0000      -0.439501       -11.9594
  22   2.0000      -0.431322       -11.7369
  23   2.0000      -0.394844       -10.7443
  24   0.0000       0.050317         1.3692
  25   0.0000       0.089763         2.4426
  26   0.0000       0.119613         3.2548
  27   0.0000       0.125719         3.4210
  28   0.0000       0.133938         3.6446

MULLIKEN ATOMIC CHARGES
-----------------------
   0 C :   -0.438970
   1 C :   -0.029235
   2 H :    0.049445
   3 H :    0.101041
   4 C :    0.806903
   5 O :   -0.539823
   6 F :   -0.420376
   7 C :    0.565345
   8 H :   -0.094715
   9 H :    0.034084
  10 H :   -0.009188
  11 H :   -0.044041
  12 H :    0.019530
Sum of atomic charges:    0.0000000

LOEWDIN ATOMIC CHARGES
----------------------
   0 C :   -0.066664
   1 C :    0.047979
   2 H :    0.039600
   3 H :    0.051054
   4 C :   -0.003943
   5 O :   -0.183937
   6 F :   -0.027252
   7 C :    0.126971
   8 H :    0.030375
   9 H :    0.025974
  10 H :   -0.011312
  11 H :   -0.020222
  12 H :   -0.008623

  Mayer bond orders larger than 0.100000
B(  0-C ,  1-C ) :   1.1905 B(  0-C ,  2-H ) :   0.1234 B(  0-C ,  3-H ) :   0.1082
B(  0-C ,  7-C ) :   1.3358 B(  0-C ,  8-H ) :   0.9990 B(  0-C ,  9-H ) :   0.9132
B(  0-C , 10-H ) :   0.1929 B(  0-C , 11-H ) :   0.1837 B(  0-C , 12-H ) :   0.1851
B(  1-C ,  2-H ) :   0.9314 B(  1-C ,  3-H ) :   0.8481 B(  1-C ,  4-C ) :   1.0653
B(  2-H ,  4-C ) :   0.1236 B(  4-C ,  5-O ) :   1.7730 B(  4-C ,  6-F ) :   0.6974
B(  5-O ,  6-F ) :   0.1068 B(  7-C , 10-H ) :   0.7893 B(  7-C , 11-H ) :   0.8576
B(  7-C , 12-H ) :   0.8151

Dispersion correction           -0.003318922
FINAL SINGLE POINT ENERGY      -331.402849625055

DIPOLE MOMENT
-------------
                                X             Y             Z
Electronic contribution:      5.15961      -1.27095       8.19997
Nuclear contribution   :     -6.78915       1.21145      -8.56691
                        -----------------------------------------
Total Dipole Moment    :     -1.62954      -0.05950      -0.36694
                        -----------------------------------------
Magnitude (a.u.)       :      1.67140
Magnitude (Debye)      :      4.24836

Rotational constants in cm-1:     0.188995     0.079574     0.075294
Rotational constants in MHz :  5665.932233  2385.568994  2257.246443

                             ****ORCA TERMINATED NORMALLY****
TOTAL RUN TIME: 0 days 0 hours 0 minutes 11 seconds 598 msec
