                         Program Version 5.0.0 -  RELEASE  -
|  1> !wB97X-D3 RIJCOSX def2-SVPD def2/J TightSCF CPCM(Water)
|  2> *xyz 0 1
|  3> C          4.60295       -2.44010        2.63478
|  4> C          3.86085       -1.59157        3.62289
|  5> N          2.75650       -2.04616        4.16633
|  6> C          4.25433       -0.36291        3.86046
|  7> H          3.56526        0.31099        4.16898
|  8> H          5.05429       -0.01606        3.33784
|  9> H          2.43970       -2.97389        3.89740
| 10> H          2.06687       -1.41253        4.54981
| 11> C          3.74469       -2.58056        1.36188
| 12> C          3.20372       -1.25600        0.82621
| 13> H          2.89894       -3.23929        1.58307
| 14> H          4.33496       -3.09552        0.60019
| 15> H          5.56156       -1.97135        2.40708
| 16> H          4.81050       -3.42255        3.06310
| 17> H          2.62184       -1.43789       -0.05313
| 18> H          4.02069       -0.60826        0.58562
| 19> H          2.58975       -0.79418        1.57097
| 20> *
| 21>
| 22> %MaxCore 64000
| 23>
| 24> %pal nprocs 18
| 25> end
| 26>
| 27> %scf
| 28>   MaxIter 150
| 29> end
| 30>
| 31>
| 32>                          ****END OF INPUT****

CARTESIAN COORDINATES (ANGSTROEM)
---------------------------------
  C      4.602950   -2.440100    2.634780
  C      3.860850   -1.591570    3.622890
  N      2.756500   -2.046160    4.166330
  C      4.254330   -0.362910    3.860460
  H      3.565260    0.310990    4.168980
  H      5.054290   -0.016060    3.337840
  H      2.439700   -2.973890    3.897400
  H      2.066870   -1.412530    4.549810
  C      3.744690   -2.580560    1.361880
  C      3.203720   -1.256000    0.826210
  H      2.898940   -3.239290    1.583070
  H      4.334960   -3.095520    0.600190
  H      5.561560   -1.971350    2.407080
  H      4.810500   -3.422550    3.063100
  H      2.621840   -1.437890   -0.053130
  H      4.020690   -0.608260    0.585620
  H      2.589750   -0.794180    1.570970

 Total Charge           Charge          ....    0
 Multiplicity           Mult            ....    1
 Number of Electrons    NEL             ....   48
 Basis Dimension        Dim             ....  208

ORBITAL ENERGIES
----------------

  NO   OCC          E(Eh)            E(eV)
   0   2.0000     -14.433129      -392.7454
   1   2.0000     -10.313670      -280.6492
   2   2.0000     -10.285122      -279.8724
   3   2.0000     -10.283952      -279.8406
   4   2.0000     -10.264901      -279.3222
   5   2.0000     -10.221531      -278.1420
   6   2.0000      -1.040101       -28.3026
   7   2.0000      -0.901372       -24.5276
   8   2.0000      -0.842189       -22.9171
   9   2.0000      -0.792791       -21.5729
  10   2.0000      -0.700753       -19.0685
  11   2.0000      -0.666429       -18.1345
  12   2.0000      -0.621915       -16.9232
  13   2.0000      -0.572460       -15.5774
  14   2.0000      -0.556263       -15.1367
  15   2.0000      -0.544806       -14.8249
  16   2.0000      -0.489300       -13.3145
  17   2.0000      -0.483353       -13.1527
  18   2.0000      -0.472276       -12.8513
  19   2.0000      -0.457840       -12.4585
  20   2.0000      -0.421921       -11.4811
  21   2.0000      -0.420506       -11.4426
  22   2.0000      -0.411977       -11.2105
  23   2.0000      -0.285627        -7.7723
  24   0.0000       0.095304         2.5933
  25   0.0000       0.106190         2.8896
  26   0.0000       0.123661         3.3650
  27   0.0000       0.130091         3.5400
  28   0.0000       0.136994         3.7278

MULLIKEN ATOMIC CHARGES
-----------------------
   0 C :    0.248286
   1 C :   -0.445533
   2 N :    0.107410
   3 C :    0.380617
   4 H :   -0.328583
   5 H :   -0.058739
   6 H :    0.038616
   7 H :   -0.075251
   8 C :   -0.400107
   9 C :    0.713920
  10 H :    0.041894
  11 H :   -0.172671
  12 H :    0.125361
  13 H :   -0.016310
  14 H :   -0.059700
  15 H :   -0.027663
  16 H :   -0.071548
Sum of atomic charges:   -0.0000000

LOEWDIN ATOMIC CHARGES
----------------------
   0 C :    0.010788
   1 C :   -0.290133
   2 N :    0.183319
   3 C :    0.137670
   4 H :   -0.083052
   5 H :   -0.087131
   6 H :    0.018130
   7 H :    0.025382
   8 C :   -0.061957
   9 C :    0.119045
  10 H :    0.015845
  11 H :    0.019908
  12 H :    0.025740
  13 H :    0.025383
  14 H :   -0.017259
  15 H :   -0.012947
  16 H :   -0.028731

  Mayer bond orders larger than 0.100000
B(  0-C ,  1-C ) :   1.3011 B(  0-C ,  8-C ) :   1.1514 B(  0-C , 10-H ) :   0.1212
B(  0-C , 11-H ) :   0.1705 B(  0-C , 12-H ) :   0.8012 B(  0-C , 13-H ) :   0.7968
B(  1-C ,  2-N ) :   1.0890 B(  1-C ,  3-C ) :   2.1268 B(  1-C ,  4-H ) :   0.2742
B(  1-C ,  5-H ) :   0.1539 B(  1-C , 12-H ) :   0.1572 B(  1-C , 13-H ) :   0.2273
B(  2-N ,  3-C ) :   0.2567 B(  2-N ,  6-H ) :   1.0030 B(  2-N ,  7-H ) :   1.1036
B(  3-C ,  4-H ) :   0.7377 B(  3-C ,  5-H ) :   0.8387 B(  6-H ,  7-H ) :  -0.1326
B(  8-C ,  9-C ) :   1.2894 B(  8-C , 10-H ) :   0.8890 B(  8-C , 11-H ) :   1.0113
B(  8-C , 12-H ) :   0.1474 B(  8-C , 14-H ) :   0.2105 B(  8-C , 15-H ) :   0.1920
B(  8-C , 16-H ) :   0.2437 B(  9-C , 14-H ) :   0.7846 B(  9-C , 15-H ) :   0.7912
B(  9-C , 16-H ) :   0.8187 B( 15-H , 16-H ) :   0.1179

Dispersion correction           -0.004912654
FINAL SINGLE POINT ENERGY      -251.644799416460

DIPOLE MOMENT
-------------
                                X             Y             Z
Electronic contribution:     -0.19060      -0.99709       3.52470
Nuclear contribution   :     -0.70193       0.22667      -3.99866
                        -----------------------------------------
Total Dipole Moment    :     -0.89253      -0.77042      -0.47396
                        -----------------------------------------
Magnitude (a.u.)       :      1.27074
Magnitude (Debye)      :      3.22997

Rotational constants in cm-1:     0.170665     0.086587     0.081284
Rotational constants in MHz :  5116.404877  2595.819690  2436.831753

                             ****ORCA TERMINATED NORMALLY****
TOTAL RUN TIME: 0 days 0 hours 0 minutes 15 seconds 537 msec
