                         Program Version 5.0.0 -  RELEASE  -
|  1> !wB97X-D3 RIJCOSX def2-SVPD def2/J TightSCF CPCM(Water) xyzfile
|  2>
|  3> *xyzfile 0 1 D1.xyz
|  4>
|  5> %MaxCore 64000
|  6>
|  7> %pal nprocs 18
|  8> end
|  9>
| 10> %scf
| 11>   MaxIter 150
| 12> end
| 13>
| 14>
| 15>                          ****END OF INPUT****

CARTESIAN COORDINATES (ANGSTROEM)
---------------------------------
  C      4.602954   -2.440100    2.634780
  C     -0.914947    0.615112    2.505538
  C     -0.059146    1.503524    3.410578
  H      0.365364    2.344315    2.861161
  H     -0.692261    1.920207    4.198985
  C      1.083027    0.749640    4.085705
  C      3.860851   -1.591565    3.622893
  C      2.756502   -2.046159    4.166333
  N      4.254325   -0.362905    3.860455
  H      3.565256    0.310994    4.168983
  H      5.054292   -0.016059    3.337838
  H      2.439696   -2.973894    3.897395
  H      2.066869   -1.412532    4.549813
  F      2.228167    1.263475    4.019826
  O      0.810034   -0.345411    4.636269
  C      3.744685   -2.580557    1.361882
  C      0.772139    0.636882    0.562129
  C     -0.130740   -0.193985    1.470763
  H     -0.840563   -0.760165    0.856377
  H      0.466691   -0.938942    2.006959
  H     -1.647961    1.245963    1.991076
  H     -1.478180   -0.081046    3.130424
  C      3.203721   -1.256004    0.826211
  H      2.898939   -3.239289    1.583074
  H      4.334962   -3.095523    0.600188
  C      2.107815   -1.442385   -0.216865
  H      2.786775   -0.672760    1.650711
  H      4.021008   -0.652993    0.414046
  C      1.390662   -0.145912   -0.602422
  H      1.372179   -2.152184    0.176151
  H      2.523302   -1.906787   -1.117115
  H      1.561361    1.100094    1.161831
  H      0.195516    1.468325    0.142758
  H      0.602893   -0.398214   -1.319716
  H      2.087247    0.508272   -1.137335
  H      5.561557   -1.971347    2.407084
  H      4.810498   -3.422552    3.063099

 Total Charge           Charge          ....    0
 Multiplicity           Mult            ....    1
 Number of Electrons    NEL             ....  118
 Basis Dimension        Dim             ....  482

ORBITAL ENERGIES
----------------

  NO   OCC          E(Eh)            E(eV)
   0   2.0000     -24.892732      -677.3657
   1   2.0000     -19.266522      -524.2687
   2   2.0000     -14.420273      -392.3956
   3   2.0000     -10.487792      -285.3873
   4   2.0000     -10.311463      -280.5892
   5   2.0000     -10.302747      -280.3520
   6   2.0000     -10.293129      -280.0903
   7   2.0000     -10.280894      -279.7573
   8   2.0000     -10.280607      -279.7495
   9   2.0000     -10.278955      -279.7046
  10   2.0000     -10.278438      -279.6905
  11   2.0000     -10.276851      -279.6473
  12   2.0000     -10.274173      -279.5745
  13   2.0000     -10.272206      -279.5209
  14   2.0000     -10.199217      -277.5348
  15   2.0000      -1.443882       -39.2900
  16   2.0000      -1.161470       -31.6052
  17   2.0000      -1.033239       -28.1159
  18   2.0000      -0.932962       -25.3872
  19   2.0000      -0.912817       -24.8390
  20   2.0000      -0.888914       -24.1886
  21   2.0000      -0.850381       -23.1401
  22   2.0000      -0.826701       -22.4957
  23   2.0000      -0.801912       -21.8211
  24   2.0000      -0.780732       -21.2448
  25   2.0000      -0.750469       -20.4213
  26   2.0000      -0.715490       -19.4695
  27   2.0000      -0.693303       -18.8657
  28   2.0000      -0.677682       -18.4407
  29   2.0000      -0.667323       -18.1588
  30   2.0000      -0.653475       -17.7820
  31   2.0000      -0.647838       -17.6286
  32   2.0000      -0.625624       -17.0241
  33   2.0000      -0.603714       -16.4279
  34   2.0000      -0.580401       -15.7935
  35   2.0000      -0.577632       -15.7182
  36   2.0000      -0.565556       -15.3896
  37   2.0000      -0.550355       -14.9759
  38   2.0000      -0.543462       -14.7884
  39   2.0000      -0.526554       -14.3283
  40   2.0000      -0.520489       -14.1632
  41   2.0000      -0.504060       -13.7162
  42   2.0000      -0.497481       -13.5371
  43   2.0000      -0.488327       -13.2880
  44   2.0000      -0.479680       -13.0527
  45   2.0000      -0.475542       -12.9402
  46   2.0000      -0.461322       -12.5532
  47   2.0000      -0.455519       -12.3953
  48   2.0000      -0.444473       -12.0947
  49   2.0000      -0.437876       -11.9152
  50   2.0000      -0.434339       -11.8190
  51   2.0000      -0.424633       -11.5549
  52   2.0000      -0.415676       -11.3111
  53   2.0000      -0.410083       -11.1589
  54   2.0000      -0.398357       -10.8399
  55   2.0000      -0.396905       -10.8003
  56   2.0000      -0.393108       -10.6970
  57   2.0000      -0.375905       -10.2289
  58   2.0000      -0.272866        -7.4251
  59   0.0000       0.039286         1.0690
  60   0.0000       0.091335         2.4853
  61   0.0000       0.100715         2.7406
  62   0.0000       0.105742         2.8774
  63   0.0000       0.107883         2.9357

MULLIKEN ATOMIC CHARGES
-----------------------
   0 C :    0.758891
   1 C :    0.462189
   2 C :    0.046722
   3 H :    0.258862
   4 H :   -0.074279
   5 C :    0.637790
   6 C :   -0.564201
   7 C :    0.999824
   8 N :    0.349632
   9 H :   -0.344749
  10 H :    0.143374
  11 H :   -0.198373
  12 H :   -0.919624
  13 F :   -0.470087
  14 O :   -0.560592
  15 C :    0.034363
  16 C :   -0.245345
  17 C :   -0.201164
  18 H :   -0.146894
  19 H :   -0.053294
  20 H :   -0.022939
  21 H :    0.077761
  22 C :    0.089741
  23 H :    0.066958
  24 H :   -0.229783
  25 C :   -0.046061
  26 H :   -0.333901
  27 H :    0.028759
  28 C :    0.758114
  29 H :    0.177104
  30 H :   -0.308928
  31 H :    0.188266
  32 H :   -0.477442
  33 H :    0.097630
  34 H :    0.003980
  35 H :   -0.017030
  36 H :    0.034729
Sum of atomic charges:    0.0000000

LOEWDIN ATOMIC CHARGES
----------------------
   0 C :    0.017255
   1 C :   -0.013133
   2 C :    0.063873
   3 H :    0.033240
   4 H :    0.053970
   5 C :    0.068440
   6 C :   -0.265929
   7 C :    0.167312
   8 N :    0.196317
   9 H :   -0.063103
  10 H :    0.020078
  11 H :   -0.077775
  12 H :   -0.183000
  13 F :   -0.021219
  14 O :   -0.149021
  15 C :   -0.019991
  16 C :   -0.035389
  17 C :   -0.030876
  18 H :    0.034317
  19 H :    0.007536
  20 H :    0.034932
  21 H :    0.027834
  22 C :   -0.032395
  23 H :    0.017419
  24 H :    0.023643
  25 C :   -0.040144
  26 H :   -0.014782
  27 H :    0.036492
  28 C :   -0.031011
  29 H :    0.016972
  30 H :    0.025192
  31 H :    0.010840
  32 H :    0.027374
  33 H :    0.023130
  34 H :    0.023898
  35 H :    0.020185
  36 H :    0.027516

  Mayer bond orders larger than 0.100000
B(  0-C ,  6-C ) :   1.2298 B(  0-C , 15-C ) :   1.0907 B(  0-C , 35-H ) :   0.5491
B(  0-C , 36-H ) :   0.6552 B(  1-C ,  2-C ) :   1.2076 B(  1-C ,  4-H ) :   0.1705
B(  1-C , 17-C ) :   1.2373 B(  1-C , 20-H ) :   0.7787 B(  1-C , 21-H ) :   0.6551
B(  2-C ,  3-H ) :   0.8074 B(  2-C ,  4-H ) :   0.7354 B(  2-C ,  5-C ) :   1.2209
B(  2-C , 20-H ) :   0.1394 B(  2-C , 21-H ) :   0.1063 B(  3-H ,  5-C ) :   0.1251
B(  4-H ,  5-C ) :   0.2456 B(  5-C , 13-F ) :   0.6250 B(  5-C , 14-O ) :   1.7201
B(  6-C ,  7-C ) :   2.0612 B(  6-C ,  8-N ) :   0.9121 B(  6-C , 10-H ) :   0.1380
B(  6-C , 12-H ) :   0.3824 B(  6-C , 15-C ) :   0.1198 B(  6-C , 35-H ) :   0.3294
B(  6-C , 36-H ) :   0.2280 B(  7-C ,  8-N ) :   0.3903 B(  7-C , 11-H ) :   0.6387
B(  8-N ,  9-H ) :   0.9943 B(  8-N , 10-H ) :   0.9004 B(  8-N , 11-H ) :   0.2385
B(  8-N , 12-H ) :  -0.2128 B(  9-H , 10-H ) :  -0.2212 B(  9-H , 13-F ) :   0.1121
B( 12-H , 14-O ) :   0.2434 B( 13-F , 14-O ) :   0.1032 B( 15-C , 22-C ) :   1.1371
B( 15-C , 23-H ) :   0.8694 B( 15-C , 24-H ) :   0.9558 B( 15-C , 26-H ) :   0.1357
B( 15-C , 27-H ) :   0.1072 B( 15-C , 35-H ) :   0.1966 B( 15-C , 36-H ) :   0.1584
B( 16-C , 17-C ) :   1.2633 B( 16-C , 18-H ) :   0.1805 B( 16-C , 19-H ) :   0.1223
B( 16-C , 25-C ) :   0.1167 B( 16-C , 28-C ) :   1.0715 B( 16-C , 31-H ) :   0.8068
B( 16-C , 32-H ) :   1.1769 B( 16-C , 33-H ) :   0.1454 B( 16-C , 34-H ) :   0.2619
B( 17-C , 18-H ) :   0.8892 B( 17-C , 19-H ) :   0.9474 B( 17-C , 20-H ) :   0.1962
B( 17-C , 21-H ) :   0.2407 B( 17-C , 32-H ) :   0.1311 B( 20-H , 21-H ) :  -0.1114
B( 22-C , 23-H ) :   0.1317 B( 22-C , 24-H ) :   0.2336 B( 22-C , 25-C ) :   1.1949
B( 22-C , 26-H ) :   1.0051 B( 22-C , 27-H ) :   0.7439 B( 22-C , 29-H ) :   0.1184
B( 22-C , 30-H ) :   0.2356 B( 25-C , 27-H ) :   0.1011 B( 25-C , 28-C ) :   1.1459
B( 25-C , 29-H ) :   0.8156 B( 25-C , 30-H ) :   0.9820 B( 25-C , 33-H ) :   0.2099
B( 25-C , 34-H ) :   0.1597 B( 26-H , 27-H ) :   0.1665 B( 26-H , 31-H ) :   0.1772
B( 26-H , 32-H ) :  -0.1005 B( 28-C , 33-H ) :   0.6588 B( 28-C , 34-H ) :   0.6434
B( 33-H , 34-H ) :  -0.1052

Dispersion correction           -0.019722795
FINAL SINGLE POINT ENERGY      -699.665594278214

DIPOLE MOMENT
-------------
                                X             Y             Z
Electronic contribution:      1.26243       8.07815      14.44090
Nuclear contribution   :     -1.66567      -5.90236     -15.95042
                        -----------------------------------------
Total Dipole Moment    :     -0.40323       2.17578      -1.50953
                        -----------------------------------------
Magnitude (a.u.)       :      2.67868
Magnitude (Debye)      :      6.80865

Rotational constants in cm-1:     0.021600     0.017292     0.011381
Rotational constants in MHz :   647.565282   518.410024   341.193038

                             ****ORCA TERMINATED NORMALLY****
TOTAL RUN TIME: 0 days 0 hours 1 minutes 36 seconds 578 msec
