                         Program Version 5.0.0 -  RELEASE  -
|  1> !TPSS D3BJ RIJCOSX def2-SVPD def2/J TightSCF
|  2> *xyz -1 1
|  3> C          0.96805        1.63064       -3.71575
|  4> C         -0.50835        1.72268       -4.12430
|  5> S         -1.32861        0.14674       -4.43578
|  6> H         -0.59151        2.29496       -5.04722
|  7> H         -1.11411        2.23561       -3.37436
|  8> O         -2.57135        0.47573       -5.06834
|  9> O         -1.51496       -0.40051       -3.06342
| 10> O         -0.37793       -0.62756       -5.20114
| 11> H          1.51840        1.12197       -4.47946
| 12> H          1.05062        1.08971       -2.79625
| 13> H          1.36450        2.61606       -3.58668
| 14> *
| 15> %MaxCore 64000
| 16>
| 17> %pal nprocs 4
| 18> end
| 19>
| 20> %scf
| 21>   MaxIter 150
| 22> end
| 23>
| 24>
| 25>                          ****END OF INPUT****

CARTESIAN COORDINATES (ANGSTROEM)
---------------------------------
  C      0.968050    1.630640   -3.715750
  C     -0.508350    1.722680   -4.124300
  S     -1.328610    0.146740   -4.435780
  H     -0.591510    2.294960   -5.047220
  H     -1.114110    2.235610   -3.374360
  O     -2.571350    0.475730   -5.068340
  O     -1.514960   -0.400510   -3.063420
  O     -0.377930   -0.627560   -5.201140
  H      1.518400    1.121970   -4.479460
  H      1.050620    1.089710   -2.796250
  H      1.364500    2.616060   -3.586680

 Total Charge           Charge          ....   -1
 Multiplicity           Mult            ....    1
 Number of Electrons    NEL             ....   58
 Basis Dimension        Dim             ....  176

ORBITAL ENERGIES
----------------

  NO   OCC          E(Eh)            E(eV)
   0   2.0000     -88.365373     -2404.5440
   1   2.0000     -18.683614      -508.4070
   2   2.0000     -18.680269      -508.3160
   3   2.0000     -18.665386      -507.9110
   4   2.0000      -9.858551      -268.2648
   5   2.0000      -9.857754      -268.2431
   6   2.0000      -7.725442      -210.2200
   7   2.0000      -5.711539      -155.4189
   8   2.0000      -5.711255      -155.4111
   9   2.0000      -5.710463      -155.3896
  10   2.0000      -0.855734       -23.2857
  11   2.0000      -0.727194       -19.7880
  12   2.0000      -0.697034       -18.9673
  13   2.0000      -0.566046       -15.4029
  14   2.0000      -0.449732       -12.2378
  15   2.0000      -0.329150        -8.9566
  16   2.0000      -0.273291        -7.4366
  17   2.0000      -0.269368        -7.3299
  18   2.0000      -0.232216        -6.3189
  19   2.0000      -0.217838        -5.9277
  20   2.0000      -0.213494        -5.8095
  21   2.0000      -0.188646        -5.1333
  22   2.0000      -0.176518        -4.8033
  23   2.0000      -0.107610        -2.9282
  24   2.0000      -0.106631        -2.9016
  25   2.0000      -0.076986        -2.0949
  26   2.0000      -0.068783        -1.8717
  27   2.0000      -0.055078        -1.4988
  28   2.0000      -0.022599        -0.6149
  29   0.0000       0.134268         3.6536
  30   0.0000       0.160661         4.3718
  31   0.0000       0.169210         4.6044
  32   0.0000       0.173700         4.7266
  33   0.0000       0.195572         5.3218

MULLIKEN ATOMIC CHARGES
-----------------------
   0 C :    0.672481
   1 C :   -0.362441
   2 S :    1.260558
   3 H :   -0.028905
   4 H :   -0.026448
   5 O :   -0.757673
   6 O :   -0.821700
   7 O :   -0.780231
   8 H :   -0.031872
   9 H :   -0.041225
  10 H :   -0.082542
Sum of atomic charges:   -1.0000000

LOEWDIN ATOMIC CHARGES
----------------------
   0 C :    0.111920
   1 C :   -0.130006
   2 S :    0.838901
   3 H :   -0.010317
   4 H :   -0.003056
   5 O :   -0.560501
   6 O :   -0.591833
   7 O :   -0.563068
   8 H :   -0.029303
   9 H :   -0.022237
  10 H :   -0.040500

  Mayer bond orders larger than 0.100000
B(  0-C ,  1-C ) :   1.2817 B(  0-C ,  8-H ) :   0.8390 B(  0-C ,  9-H ) :   0.8366
B(  0-C , 10-H ) :   0.7706 B(  1-C ,  2-S ) :   0.8922 B(  1-C ,  3-H ) :   1.0010
B(  1-C ,  4-H ) :   0.9915 B(  1-C ,  8-H ) :   0.1949 B(  1-C ,  9-H ) :   0.1867
B(  1-C , 10-H ) :   0.2049 B(  2-S ,  5-O ) :   1.3651 B(  2-S ,  6-O ) :   1.2970
B(  2-S ,  7-O ) :   1.3284

Dispersion correction           -0.012099658
FINAL SINGLE POINT ENERGY      -702.849714914367

DIPOLE MOMENT
-------------
                                X             Y             Z
Electronic contribution:     -5.59881      -5.31724      -1.93560
Nuclear contribution   :      6.64523       6.80157       2.07300
                        -----------------------------------------
Total Dipole Moment    :      1.04642       1.48433       0.13740
                        -----------------------------------------
Magnitude (a.u.)       :      1.82130
Magnitude (Debye)      :      4.62937

Rotational constants in cm-1:     0.163070     0.082807     0.081541
Rotational constants in MHz :  4888.719902  2482.497026  2444.541148

                             ****ORCA TERMINATED NORMALLY****
TOTAL RUN TIME: 0 days 0 hours 0 minutes 15 seconds 727 msec
