                         Program Version 5.0.0 -  RELEASE  -
|  1> !TPSS D3BJ RIJCOSX def2-SVPD def2/J TightSCF
|  2> *xyz 1 1
|  3> C          1.36401        0.46874       -2.81376
|  4> N          0.42884        0.32140       -1.65531
|  5> C          0.96805        1.63064       -3.71575
|  6> H          0.74858       -0.40054       -1.00134
|  7> H         -0.46105        0.02333       -2.07773
|  8> H          0.31026        1.20137       -1.13495
|  9> H          1.29485       -0.46874       -3.36468
| 10> H          2.37622        0.59740       -2.43149
| 11> H          1.65923        1.70213       -4.52942
| 12> H          0.98421        2.54058       -3.15304
| 13> H         -0.01744        1.46536       -4.09838
| 14> *
| 15> %MaxCore 64000
| 16>
| 17> %pal nprocs 4
| 18> end
| 19>
| 20> %scf
| 21>   MaxIter 150
| 22> end
| 23>
| 24>
| 25>                          ****END OF INPUT****

CARTESIAN COORDINATES (ANGSTROEM)
---------------------------------
  C      1.364010    0.468740   -2.813760
  N      0.428840    0.321400   -1.655310
  C      0.968050    1.630640   -3.715750
  H      0.748580   -0.400540   -1.001340
  H     -0.461050    0.023330   -2.077730
  H      0.310260    1.201370   -1.134950
  H      1.294850   -0.468740   -3.364680
  H      2.376220    0.597400   -2.431490
  H      1.659230    1.702130   -4.529420
  H      0.984210    2.540580   -3.153040
  H     -0.017440    1.465360   -4.098380

 Total Charge           Charge          ....    1
 Multiplicity           Mult            ....    1
 Number of Electrons    NEL             ....   26
 Basis Dimension        Dim             ....  124

ORBITAL ENERGIES
----------------

  NO   OCC          E(Eh)            E(eV)
   0   2.0000     -14.453581      -393.3019
   1   2.0000     -10.256344      -279.0893
   2   2.0000     -10.180802      -277.0337
   3   2.0000      -1.146568       -31.1997
   4   2.0000      -0.906047       -24.6548
   5   2.0000      -0.791689       -21.5430
   6   2.0000      -0.760741       -20.7008
   7   2.0000      -0.744560       -20.2605
   8   2.0000      -0.653802       -17.7909
   9   2.0000      -0.606241       -16.4966
  10   2.0000      -0.548008       -14.9120
  11   2.0000      -0.532330       -14.4854
  12   2.0000      -0.519383       -14.1331
  13   0.0000      -0.208147        -5.6640
  14   0.0000      -0.150752        -4.1022
  15   0.0000      -0.146588        -3.9889
  16   0.0000      -0.134725        -3.6661
  17   0.0000      -0.102792        -2.7971

MULLIKEN ATOMIC CHARGES
-----------------------
   0 C :    0.175678
   1 N :   -0.811850
   2 C :    0.540862
   3 H :    0.347352
   4 H :    0.443617
   5 H :    0.409281
   6 H :   -0.045542
   7 H :   -0.093052
   8 H :    0.008359
   9 H :    0.005450
  10 H :    0.019845
Sum of atomic charges:    1.0000000

LOEWDIN ATOMIC CHARGES
----------------------
   0 C :    0.061011
   1 N :    0.334611
   2 C :    0.183992
   3 H :    0.103784
   4 H :    0.103852
   5 H :    0.106918
   6 H :    0.049473
   7 H :    0.048540
   8 H :    0.013630
   9 H :   -0.002896
  10 H :   -0.002915

  Mayer bond orders larger than 0.100000
B(  0-C ,  1-N ) :   0.7832 B(  0-C ,  2-C ) :   1.3209 B(  0-C ,  6-H ) :   0.9189
B(  0-C ,  7-H ) :   0.9727 B(  0-C ,  8-H ) :   0.1819 B(  0-C ,  9-H ) :   0.1367
B(  0-C , 10-H ) :   0.1414 B(  1-N ,  3-H ) :   0.7737 B(  1-N ,  4-H ) :   0.6542
B(  1-N ,  5-H ) :   0.6956 B(  1-N ,  6-H ) :   0.1165 B(  2-C ,  8-H ) :   0.8195
B(  2-C ,  9-H ) :   0.8534 B(  2-C , 10-H ) :   0.8426

Dispersion correction           -0.007456270
FINAL SINGLE POINT ENERGY      -135.472726253363

DIPOLE MOMENT
-------------
                                X             Y             Z
Electronic contribution:     -0.34093      -0.94097       1.56023
Nuclear contribution   :     -0.20470       0.31427      -0.31587
                        -----------------------------------------
Total Dipole Moment    :     -0.54562      -0.62671       1.24437
                        -----------------------------------------
Magnitude (a.u.)       :      1.49630
Magnitude (Debye)      :      3.80330

Rotational constants in cm-1:     1.011480     0.279280     0.248378
Rotational constants in MHz : 30323.408050  8372.602834  7446.185305

                             ****ORCA TERMINATED NORMALLY****
TOTAL RUN TIME: 0 days 0 hours 0 minutes 9 seconds 254 msec
