                         Program Version 5.0.0 -  RELEASE  -
|  1> !TPSS D3BJ RIJCOSX def2-SVPD def2/J TightSCF xyzfile
|  2>
|  3> *xyzfile 0 1 B.xyz
|  4>
|  5> %MaxCore 64000
|  6>
|  7> %pal nprocs 4
|  8> end
|  9>
| 10> %scf
| 11>   MaxIter 150
| 12> end
| 13>
| 14>
| 15>                          ****END OF INPUT****

CARTESIAN COORDINATES (ANGSTROEM)
---------------------------------
  C      1.364014    0.468742   -2.813764
  N      0.428844    0.321402   -1.655312
  C      0.968045    1.630639   -3.715749
  C     -0.508347    1.722679   -4.124300
  S     -1.328608    0.146737   -4.435781
  H     -0.591511    2.294958   -5.047219
  H     -1.114114    2.235610   -3.374362
  H      0.748578   -0.400542   -1.001345
  H     -0.461053    0.023332   -2.077731
  H      0.310258    1.201375   -1.134948
  O     -2.571347    0.475733   -5.068341
  O     -1.514963   -0.400512   -3.063420
  H      1.294847   -0.468742   -3.364684
  H      2.376216    0.597400   -2.431495
  H      1.578688    1.520652   -4.612733
  H      1.266653    2.575988   -3.250448
  O     -0.377928   -0.627558   -5.201141

 Total Charge           Charge          ....    0
 Multiplicity           Mult            ....    1
 Number of Electrons    NEL             ....   74
 Basis Dimension        Dim             ....  248

ORBITAL ENERGIES
----------------

  NO   OCC          E(Eh)            E(eV)
   0   2.0000     -88.533933     -2409.1308
   1   2.0000     -18.855056      -513.0722
   2   2.0000     -18.839803      -512.6571
   3   2.0000     -18.837977      -512.6074
   4   2.0000     -14.251047      -387.7907
   5   2.0000     -10.093337      -274.6537
   6   2.0000     -10.045488      -273.3516
   7   2.0000     -10.022409      -272.7236
   8   2.0000      -7.893523      -214.7937
   9   2.0000      -5.880103      -160.0057
  10   2.0000      -5.878985      -159.9753
  11   2.0000      -5.878482      -159.9616
  12   2.0000      -1.024153       -27.8686
  13   2.0000      -0.961169       -26.1547
  14   2.0000      -0.885006       -24.0822
  15   2.0000      -0.882811       -24.0225
  16   2.0000      -0.763913       -20.7871
  17   2.0000      -0.681897       -18.5554
  18   2.0000      -0.603202       -16.4140
  19   2.0000      -0.577636       -15.7183
  20   2.0000      -0.568778       -15.4772
  21   2.0000      -0.498875       -13.5751
  22   2.0000      -0.481332       -13.0977
  23   2.0000      -0.448581       -12.2065
  24   2.0000      -0.431627       -11.7452
  25   2.0000      -0.419157       -11.4058
  26   2.0000      -0.387362       -10.5406
  27   2.0000      -0.378515       -10.2999
  28   2.0000      -0.367141        -9.9904
  29   2.0000      -0.354346        -9.6422
  30   2.0000      -0.342154        -9.3105
  31   2.0000      -0.278130        -7.5683
  32   2.0000      -0.269764        -7.3406
  33   2.0000      -0.244725        -6.6593
  34   2.0000      -0.233201        -6.3457
  35   2.0000      -0.227828        -6.1995
  36   2.0000      -0.194117        -5.2822
  37   0.0000      -0.055107        -1.4996
  38   0.0000      -0.009776        -0.2660
  39   0.0000      -0.002920        -0.0795
  40   0.0000       0.021551         0.5864
  41   0.0000       0.034117         0.9284

MULLIKEN ATOMIC CHARGES
-----------------------
   0 C :    0.547782
   1 N :   -0.343813
   2 C :    0.176412
   3 C :    0.132954
   4 S :    1.342710
   5 H :   -0.186908
   6 H :    0.141523
   7 H :    0.286265
   8 H :    0.009855
   9 H :    0.411632
  10 O :   -0.771536
  11 O :   -0.881297
  12 H :    0.107879
  13 H :   -0.267945
  14 H :    0.108815
  15 H :   -0.067905
  16 O :   -0.746423
Sum of atomic charges:    0.0000000

LOEWDIN ATOMIC CHARGES
----------------------
   0 C :    0.099945
   1 N :    0.327861
   2 C :   -0.008729
   3 C :   -0.056546
   4 S :    0.929451
   5 H :    0.013451
   6 H :    0.009021
   7 H :    0.090763
   8 H :   -0.114354
   9 H :    0.093461
  10 O :   -0.489580
  11 O :   -0.503365
  12 H :    0.032189
  13 H :    0.029765
  14 H :    0.036355
  15 H :    0.020176
  16 O :   -0.509864

  Mayer bond orders larger than 0.100000
B(  0-C ,  1-N ) :   0.8677 B(  0-C ,  2-C ) :   1.2220 B(  0-C , 12-H ) :   0.7903
B(  0-C , 13-H ) :   0.9090 B(  0-C , 14-H ) :   0.1507 B(  0-C , 15-H ) :   0.1304
B(  1-N ,  7-H ) :   0.7959 B(  1-N ,  8-H ) :   1.2246 B(  1-N ,  9-H ) :   0.7204
B(  1-N , 12-H ) :   0.1270 B(  1-N , 13-H ) :   0.1051 B(  2-C ,  3-C ) :   1.2646
B(  2-C ,  5-H ) :   0.1572 B(  2-C ,  6-H ) :   0.1058 B(  2-C , 12-H ) :   0.1216
B(  2-C , 14-H ) :   0.7931 B(  2-C , 15-H ) :   0.8223 B(  3-C ,  4-S ) :   0.8728
B(  3-C ,  5-H ) :   0.9103 B(  3-C ,  6-H ) :   0.8757 B(  3-C , 11-O ) :   0.1572
B(  3-C , 14-H ) :   0.1252 B(  4-S , 10-O ) :   1.4417 B(  4-S , 11-O ) :   1.0872
B(  4-S , 16-O ) :   1.3454 B(  8-H , 11-O ) :   0.2121

Dispersion correction           -0.022815834
FINAL SINGLE POINT ENERGY      -797.995726374402

DIPOLE MOMENT
-------------
                                X             Y             Z
Electronic contribution:     -6.95156      -4.17050      -4.33473
Nuclear contribution   :      9.95459       5.57517       7.68169
                        -----------------------------------------
Total Dipole Moment    :      3.00303       1.40467       3.34696
                        -----------------------------------------
Magnitude (a.u.)       :      4.71099
Magnitude (Debye)      :     11.97438

Rotational constants in cm-1:     0.102119     0.045768     0.041299
Rotational constants in MHz :  3061.441288  1372.093000  1238.124534

                             ****ORCA TERMINATED NORMALLY****
TOTAL RUN TIME: 0 days 0 hours 0 minutes 23 seconds 711 msec
