                         Program Version 5.0.0 -  RELEASE  -
|  1> !TPSS D3BJ RIJCOSX def2-SVPD def2/J TightSCF
|  2> *xyz 0 1
|  3> C          0.96805        1.63064       -3.71575
|  4> C         -0.50835        1.72268       -4.12430
|  5> S         -1.32861        0.14674       -4.43578
|  6> H         -0.59151        2.29496       -5.04722
|  7> H         -1.11411        2.23561       -3.37436
|  8> F         -2.57135        0.47573       -5.06834
|  9> O         -1.51496       -0.40051       -3.06342
| 10> O         -0.37793       -0.62756       -5.20114
| 11> H          1.51840        1.12197       -4.47946
| 12> H          1.05062        1.08971       -2.79625
| 13> H          1.36450        2.61606       -3.58668
| 14> *
| 15> %MaxCore 64000
| 16>
| 17> %pal nprocs 4
| 18> end
| 19>
| 20> %scf
| 21>   MaxIter 150
| 22> end
| 23>
| 24>
| 25>                          ****END OF INPUT****

CARTESIAN COORDINATES (ANGSTROEM)
---------------------------------
  C      0.968050    1.630640   -3.715750
  C     -0.508350    1.722680   -4.124300
  S     -1.328610    0.146740   -4.435780
  H     -0.591510    2.294960   -5.047220
  H     -1.114110    2.235610   -3.374360
  F     -2.571350    0.475730   -5.068340
  O     -1.514960   -0.400510   -3.063420
  O     -0.377930   -0.627560   -5.201140
  H      1.518400    1.121970   -4.479460
  H      1.050620    1.089710   -2.796250
  H      1.364500    2.616060   -3.586680

 Total Charge           Charge          ....    0
 Multiplicity           Mult            ....    1
 Number of Electrons    NEL             ....   58
 Basis Dimension        Dim             ....  176

ORBITAL ENERGIES
----------------

  NO   OCC          E(Eh)            E(eV)
   0   2.0000     -88.622216     -2411.5331
   1   2.0000     -24.547169      -667.9624
   2   2.0000     -18.913436      -514.6608
   3   2.0000     -18.898368      -514.2507
   4   2.0000     -10.060876      -273.7703
   5   2.0000     -10.022165      -272.7170
   6   2.0000      -7.983452      -217.2408
   7   2.0000      -5.973833      -162.5563
   8   2.0000      -5.967115      -162.3734
   9   2.0000      -5.965271      -162.3233
  10   2.0000      -1.301816       -35.4242
  11   2.0000      -1.031962       -28.0811
  12   2.0000      -0.931176       -25.3386
  13   2.0000      -0.756923       -20.5969
  14   2.0000      -0.680898       -18.5282
  15   2.0000      -0.623377       -16.9629
  16   2.0000      -0.537718       -14.6321
  17   2.0000      -0.535126       -14.5615
  18   2.0000      -0.506208       -13.7746
  19   2.0000      -0.450991       -12.2721
  20   2.0000      -0.437886       -11.9155
  21   2.0000      -0.398992       -10.8571
  22   2.0000      -0.391053       -10.6411
  23   2.0000      -0.370889       -10.0924
  24   2.0000      -0.353170        -9.6102
  25   2.0000      -0.341026        -9.2798
  26   2.0000      -0.293820        -7.9952
  27   2.0000      -0.278219        -7.5707
  28   2.0000      -0.262317        -7.1380
  29   0.0000      -0.023213        -0.6317
  30   0.0000       0.003256         0.0886
  31   0.0000       0.020635         0.5615
  32   0.0000       0.027753         0.7552
  33   0.0000       0.029963         0.8153

MULLIKEN ATOMIC CHARGES
-----------------------
   0 C :    0.671082
   1 C :   -0.391656
   2 S :    1.453873
   3 H :    0.026074
   4 H :    0.025716
   5 F :   -0.380380
   6 O :   -0.682590
   7 O :   -0.644741
   8 H :   -0.008946
   9 H :   -0.022946
  10 H :   -0.045486
Sum of atomic charges:    0.0000000

LOEWDIN ATOMIC CHARGES
----------------------
   0 C :    0.158321
   1 C :   -0.093562
   2 S :    1.104831
   3 H :    0.008333
   4 H :    0.016763
   5 F :   -0.246259
   6 O :   -0.474624
   7 O :   -0.451000
   8 H :   -0.010906
   9 H :   -0.004089
  10 H :   -0.007811

  Mayer bond orders larger than 0.100000
B(  0-C ,  1-C ) :   1.3544 B(  0-C ,  8-H ) :   0.8339 B(  0-C ,  9-H ) :   0.8355
B(  0-C , 10-H ) :   0.7721 B(  1-C ,  2-S ) :   0.9386 B(  1-C ,  3-H ) :   0.9691
B(  1-C ,  4-H ) :   0.9735 B(  1-C ,  8-H ) :   0.1868 B(  1-C ,  9-H ) :   0.1796
B(  1-C , 10-H ) :   0.1909 B(  2-S ,  5-F ) :   0.7024 B(  2-S ,  6-O ) :   1.4904
B(  2-S ,  7-O ) :   1.5280

Dispersion correction           -0.011574661
FINAL SINGLE POINT ENERGY      -727.334923392731

DIPOLE MOMENT
-------------
                                X             Y             Z
Electronic contribution:     -8.28853      -5.16915      -3.21258
Nuclear contribution   :      8.31000       6.74109       2.87442
                        -----------------------------------------
Total Dipole Moment    :      0.02148       1.57194      -0.33816
                        -----------------------------------------
Magnitude (a.u.)       :      1.60804
Magnitude (Debye)      :      4.08733

Rotational constants in cm-1:     0.158705     0.080192     0.078179
Rotational constants in MHz :  4757.865601  2404.095079  2343.752507

                             ****ORCA TERMINATED NORMALLY****
TOTAL RUN TIME: 0 days 0 hours 0 minutes 15 seconds 300 msec
