                         Program Version 5.0.0 -  RELEASE  -
|  1> !TPSS D3BJ RIJCOSX def2-SVPD def2/J TightSCF
|  2> *xyz 0 1
|  3> C          1.36401        0.46874       -2.81376
|  4> C          0.42884        0.32140       -1.65531
|  5> C          0.96805        1.63064       -3.71575
|  6> H          0.74858       -0.40054       -1.00134
|  7> H         -0.46105        0.02333       -2.07773
|  8> H          0.31026        1.20137       -1.13495
|  9> H          1.29485       -0.46874       -3.36468
| 10> H          2.37622        0.59740       -2.43149
| 11> H          1.65923        1.70213       -4.52942
| 12> H          0.98421        2.54058       -3.15304
| 13> H         -0.01744        1.46536       -4.09838
| 14> *
| 15> %MaxCore 64000
| 16>
| 17> %pal nprocs 4
| 18> end
| 19>
| 20> %scf
| 21>   MaxIter 150
| 22> end
| 23>
| 24>
| 25>                          ****END OF INPUT****

CARTESIAN COORDINATES (ANGSTROEM)
---------------------------------
  C      1.364010    0.468740   -2.813760
  C      0.428840    0.321400   -1.655310
  C      0.968050    1.630640   -3.715750
  H      0.748580   -0.400540   -1.001340
  H     -0.461050    0.023330   -2.077730
  H      0.310260    1.201370   -1.134950
  H      1.294850   -0.468740   -3.364680
  H      2.376220    0.597400   -2.431490
  H      1.659230    1.702130   -4.529420
  H      0.984210    2.540580   -3.153040
  H     -0.017440    1.465360   -4.098380

 Total Charge           Charge          ....    0
 Multiplicity           Mult            ....    1
 Number of Electrons    NEL             ....   26
 Basis Dimension        Dim             ....  124

ORBITAL ENERGIES
----------------

  NO   OCC          E(Eh)            E(eV)
   0   2.0000      -9.988011      -271.7876
   1   2.0000      -9.981736      -271.6169
   2   2.0000      -9.965110      -271.1644
   3   2.0000      -0.727289       -19.7905
   4   2.0000      -0.631733       -17.1903
   5   2.0000      -0.532004       -14.4766
   6   2.0000      -0.428810       -11.6685
   7   2.0000      -0.403298       -10.9743
   8   2.0000      -0.363462        -9.8903
   9   2.0000      -0.353072        -9.6076
  10   2.0000      -0.300243        -8.1700
  11   2.0000      -0.297344        -8.0911
  12   2.0000      -0.293940        -7.9985
  13   0.0000       0.017083         0.4648
  14   0.0000       0.046712         1.2711
  15   0.0000       0.053444         1.4543
  16   0.0000       0.071474         1.9449
  17   0.0000       0.091677         2.4947

MULLIKEN ATOMIC CHARGES
-----------------------
   0 C :   -0.650997
   1 C :    0.876551
   2 C :    0.560232
   3 H :   -0.202238
   4 H :   -0.110492
   5 H :   -0.173990
   6 H :   -0.047465
   7 H :   -0.124131
   8 H :   -0.078128
   9 H :   -0.019599
  10 H :   -0.029744
Sum of atomic charges:   -0.0000000

LOEWDIN ATOMIC CHARGES
----------------------
   0 C :   -0.112216
   1 C :    0.126522
   2 C :    0.125591
   3 H :   -0.038004
   4 H :   -0.033699
   5 H :   -0.033210
   6 H :    0.017023
   7 H :    0.014366
   8 H :   -0.025426
   9 H :   -0.020821
  10 H :   -0.020126

  Mayer bond orders larger than 0.100000
B(  0-C ,  1-C ) :   1.2799 B(  0-C ,  2-C ) :   1.2690 B(  0-C ,  3-H ) :   0.1985
B(  0-C ,  4-H ) :   0.2658 B(  0-C ,  5-H ) :   0.1953 B(  0-C ,  6-H ) :   0.9378
B(  0-C ,  7-H ) :   0.9979 B(  0-C ,  8-H ) :   0.1754 B(  0-C ,  9-H ) :   0.1595
B(  0-C , 10-H ) :   0.1819 B(  1-C ,  3-H ) :   0.7559 B(  1-C ,  4-H ) :   0.7392
B(  1-C ,  5-H ) :   0.7795 B(  1-C ,  6-H ) :   0.1140 B(  2-C ,  8-H ) :   0.8494
B(  2-C ,  9-H ) :   0.8478 B(  2-C , 10-H ) :   0.8449

Dispersion correction           -0.007480986
FINAL SINGLE POINT ENERGY      -119.074015147187

DIPOLE MOMENT
-------------
                                X             Y             Z
Electronic contribution:      0.36657      -0.18359      -0.01639
Nuclear contribution   :     -0.35842       0.15752       0.02695
                        -----------------------------------------
Total Dipole Moment    :      0.00814      -0.02607       0.01056
                        -----------------------------------------
Magnitude (a.u.)       :      0.02928
Magnitude (Debye)      :      0.07442

Rotational constants in cm-1:     1.019891     0.293671     0.260247
Rotational constants in MHz : 30575.551403  8804.039097  7802.009261

                             ****ORCA TERMINATED NORMALLY****
TOTAL RUN TIME: 0 days 0 hours 0 minutes 9 seconds 12 msec
