                         Program Version 5.0.0 -  RELEASE  -
|  1> !TPSS D3BJ RIJCOSX def2-SVPD def2/J TightSCF
|  2> *xyz 0 1
|  3> C          0.96805        1.63064       -3.71575
|  4> C         -0.50835        1.72268       -4.12430
|  5> S         -1.32861        0.14674       -4.43578
|  6> H         -0.59151        2.29496       -5.04722
|  7> H         -1.11411        2.23561       -3.37436
|  8> O         -2.57135        0.47573       -5.06834
|  9> F         -1.51496       -0.40051       -3.06342
| 10> O         -0.37793       -0.62756       -5.20114
| 11> H          1.51840        1.12197       -4.47946
| 12> H          1.05062        1.08971       -2.79625
| 13> H          1.36450        2.61606       -3.58668
| 14> *
| 15> %MaxCore 64000
| 16>
| 17> %pal nprocs 4
| 18> end
| 19>
| 20> %scf
| 21>   MaxIter 150
| 22> end
| 23>
| 24>
| 25>                          ****END OF INPUT****

CARTESIAN COORDINATES (ANGSTROEM)
---------------------------------
  C      0.968050    1.630640   -3.715750
  C     -0.508350    1.722680   -4.124300
  S     -1.328610    0.146740   -4.435780
  H     -0.591510    2.294960   -5.047220
  H     -1.114110    2.235610   -3.374360
  O     -2.571350    0.475730   -5.068340
  F     -1.514960   -0.400510   -3.063420
  O     -0.377930   -0.627560   -5.201140
  H      1.518400    1.121970   -4.479460
  H      1.050620    1.089710   -2.796250
  H      1.364500    2.616060   -3.586680

 Total Charge           Charge          ....    0
 Multiplicity           Mult            ....    1
 Number of Electrons    NEL             ....   58
 Basis Dimension        Dim             ....  176

ORBITAL ENERGIES
----------------

  NO   OCC          E(Eh)            E(eV)
   0   2.0000     -88.619346     -2411.4550
   1   2.0000     -24.519657      -667.2138
   2   2.0000     -18.916539      -514.7452
   3   2.0000     -18.913237      -514.6554
   4   2.0000     -10.059756      -273.7399
   5   2.0000     -10.023080      -272.7419
   6   2.0000      -7.980615      -217.1636
   7   2.0000      -5.970630      -162.4691
   8   2.0000      -5.964656      -162.3065
   9   2.0000      -5.962673      -162.2526
  10   2.0000      -1.255442       -34.1623
  11   2.0000      -1.046547       -28.4780
  12   2.0000      -0.957084       -26.0436
  13   2.0000      -0.758262       -20.6334
  14   2.0000      -0.662745       -18.0342
  15   2.0000      -0.616114       -16.7653
  16   2.0000      -0.525711       -14.3053
  17   2.0000      -0.503451       -13.6996
  18   2.0000      -0.496680       -13.5153
  19   2.0000      -0.450959       -12.2712
  20   2.0000      -0.432319       -11.7640
  21   2.0000      -0.412367       -11.2211
  22   2.0000      -0.394303       -10.7295
  23   2.0000      -0.367962       -10.0128
  24   2.0000      -0.364454        -9.9173
  25   2.0000      -0.344615        -9.3774
  26   2.0000      -0.302437        -8.2297
  27   2.0000      -0.293577        -7.9886
  28   2.0000      -0.281503        -7.6601
  29   0.0000      -0.023017        -0.6263
  30   0.0000       0.009548         0.2598
  31   0.0000       0.021515         0.5855
  32   0.0000       0.027877         0.7586
  33   0.0000       0.031618         0.8604

MULLIKEN ATOMIC CHARGES
-----------------------
   0 C :    0.697418
   1 C :   -0.382734
   2 S :    1.440722
   3 H :    0.026444
   4 H :    0.015286
   5 O :   -0.633915
   6 F :   -0.409883
   7 O :   -0.659416
   8 H :   -0.004766
   9 H :   -0.040554
  10 H :   -0.048604
Sum of atomic charges:   -0.0000000

LOEWDIN ATOMIC CHARGES
----------------------
   0 C :    0.144382
   1 C :   -0.083240
   2 S :    1.100255
   3 H :    0.023804
   4 H :    0.015655
   5 O :   -0.445477
   6 F :   -0.271535
   7 O :   -0.449021
   8 H :   -0.012458
   9 H :   -0.011751
  10 H :   -0.010613

  Mayer bond orders larger than 0.100000
B(  0-C ,  1-C ) :   1.3196 B(  0-C ,  8-H ) :   0.8405 B(  0-C ,  9-H ) :   0.8317
B(  0-C , 10-H ) :   0.7663 B(  1-C ,  2-S ) :   0.9615 B(  1-C ,  3-H ) :   0.9902
B(  1-C ,  4-H ) :   0.9775 B(  1-C ,  8-H ) :   0.1885 B(  1-C ,  9-H ) :   0.1788
B(  1-C , 10-H ) :   0.1919 B(  2-S ,  5-O ) :   1.5636 B(  2-S ,  6-F ) :   0.6318
B(  2-S ,  7-O ) :   1.5344 B(  5-O ,  7-O ) :   0.1028

Dispersion correction           -0.011522931
FINAL SINGLE POINT ENERGY      -727.359015348570

DIPOLE MOMENT
-------------
                                X             Y             Z
Electronic contribution:     -6.54443      -6.63475       0.13952
Nuclear contribution   :      7.20921       7.65416       0.78523
                        -----------------------------------------
Total Dipole Moment    :      0.66479       1.01940       0.92475
                        -----------------------------------------
Magnitude (a.u.)       :      1.52849
Magnitude (Debye)      :      3.88512

Rotational constants in cm-1:     0.153780     0.081282     0.079816
Rotational constants in MHz :  4610.199589  2436.778679  2392.820729

                             ****ORCA TERMINATED NORMALLY****
TOTAL RUN TIME: 0 days 0 hours 0 minutes 14 seconds 818 msec
