                         Program Version 5.0.0 -  RELEASE  -
|  1> !TPSS D3BJ RIJCOSX def2-SVPD def2/J TightSCF
|  2> *xyz 0 1
|  3> C          0.96805        1.63064       -3.71575
|  4> C         -0.50835        1.72268       -4.12430
|  5> S         -1.32861        0.14674       -4.43578
|  6> H         -0.59151        2.29496       -5.04722
|  7> H         -1.11411        2.23561       -3.37436
|  8> O         -2.57135        0.47573       -5.06834
|  9> O         -1.51496       -0.40051       -3.06342
| 10> F         -0.37793       -0.62756       -5.20114
| 11> H          1.51840        1.12197       -4.47946
| 12> H          1.05062        1.08971       -2.79625
| 13> H          1.36450        2.61606       -3.58668
| 14> *
| 15> %MaxCore 64000
| 16>
| 17> %pal nprocs 4
| 18> end
| 19>
| 20> %scf
| 21>   MaxIter 150
| 22> end
| 23>
| 24>
| 25>                          ****END OF INPUT****

CARTESIAN COORDINATES (ANGSTROEM)
---------------------------------
  C      0.968050    1.630640   -3.715750
  C     -0.508350    1.722680   -4.124300
  S     -1.328610    0.146740   -4.435780
  H     -0.591510    2.294960   -5.047220
  H     -1.114110    2.235610   -3.374360
  O     -2.571350    0.475730   -5.068340
  O     -1.514960   -0.400510   -3.063420
  F     -0.377930   -0.627560   -5.201140
  H      1.518400    1.121970   -4.479460
  H      1.050620    1.089710   -2.796250
  H      1.364500    2.616060   -3.586680

 Total Charge           Charge          ....    0
 Multiplicity           Mult            ....    1
 Number of Electrons    NEL             ....   58
 Basis Dimension        Dim             ....  176

ORBITAL ENERGIES
----------------

  NO   OCC          E(Eh)            E(eV)
   0   2.0000     -88.621583     -2411.5159
   1   2.0000     -24.541489      -667.8079
   2   2.0000     -18.917021      -514.7583
   3   2.0000     -18.898506      -514.2545
   4   2.0000     -10.060741      -273.7667
   5   2.0000     -10.026519      -272.8355
   6   2.0000      -7.982842      -217.2242
   7   2.0000      -5.973243      -162.5402
   8   2.0000      -5.966553      -162.3582
   9   2.0000      -5.964663      -162.3067
  10   2.0000      -1.291562       -35.1452
  11   2.0000      -1.037861       -28.2416
  12   2.0000      -0.934095       -25.4180
  13   2.0000      -0.760450       -20.6929
  14   2.0000      -0.674234       -18.3468
  15   2.0000      -0.625956       -17.0331
  16   2.0000      -0.543541       -14.7905
  17   2.0000      -0.527695       -14.3593
  18   2.0000      -0.497671       -13.5423
  19   2.0000      -0.452306       -12.3079
  20   2.0000      -0.432911       -11.7801
  21   2.0000      -0.409378       -11.1397
  22   2.0000      -0.396990       -10.8026
  23   2.0000      -0.373702       -10.1689
  24   2.0000      -0.359930        -9.7942
  25   2.0000      -0.342237        -9.3127
  26   2.0000      -0.297196        -8.0871
  27   2.0000      -0.278676        -7.5832
  28   2.0000      -0.265052        -7.2124
  29   0.0000      -0.027182        -0.7397
  30   0.0000       0.009967         0.2712
  31   0.0000       0.023312         0.6343
  32   0.0000       0.025617         0.6971
  33   0.0000       0.028779         0.7831

MULLIKEN ATOMIC CHARGES
-----------------------
   0 C :    0.681908
   1 C :   -0.359457
   2 S :    1.423721
   3 H :    0.017242
   4 H :    0.021993
   5 O :   -0.620774
   6 O :   -0.683351
   7 F :   -0.388401
   8 H :   -0.026185
   9 H :   -0.018747
  10 H :   -0.047950
Sum of atomic charges:   -0.0000000

LOEWDIN ATOMIC CHARGES
----------------------
   0 C :    0.142583
   1 C :   -0.081408
   2 S :    1.101580
   3 H :    0.011918
   4 H :    0.030159
   5 O :   -0.444572
   6 O :   -0.473410
   7 F :   -0.251328
   8 H :   -0.017488
   9 H :   -0.007996
  10 H :   -0.010037

  Mayer bond orders larger than 0.100000
B(  0-C ,  1-C ) :   1.3077 B(  0-C ,  8-H ) :   0.8359 B(  0-C ,  9-H ) :   0.8445
B(  0-C , 10-H ) :   0.7691 B(  1-C ,  2-S ) :   0.9635 B(  1-C ,  3-H ) :   0.9936
B(  1-C ,  4-H ) :   0.9817 B(  1-C ,  8-H ) :   0.1778 B(  1-C ,  9-H ) :   0.1783
B(  1-C , 10-H ) :   0.1952 B(  2-S ,  5-O ) :   1.5669 B(  2-S ,  6-O ) :   1.5027
B(  2-S ,  7-F ) :   0.6837

Dispersion correction           -0.011502317
FINAL SINGLE POINT ENERGY      -727.339663940936

DIPOLE MOMENT
-------------
                                X             Y             Z
Electronic contribution:     -4.65218      -6.98641      -3.42121
Nuclear contribution   :      6.02439       7.89075       3.01280
                        -----------------------------------------
Total Dipole Moment    :      1.37221       0.90434      -0.40841
                        -----------------------------------------
Magnitude (a.u.)       :      1.69340
Magnitude (Debye)      :      4.30427

Rotational constants in cm-1:     0.153652     0.082400     0.079295
Rotational constants in MHz :  4606.361242  2470.285703  2377.214112

                             ****ORCA TERMINATED NORMALLY****
TOTAL RUN TIME: 0 days 0 hours 0 minutes 15 seconds 212 msec
