                         Program Version 5.0.0 -  RELEASE  -
|  1> !wB97X-D3 RIJCOSX def2-TZVPD def2/J TightSCF
|  2> *xyz -1 1
|  3> C          0.64866        1.00359       -3.64560
|  4> C          0.13297        2.38587       -4.02462
|  5> C         -1.36646        2.47911       -4.31393
|  6> C         -2.35773        2.30686       -3.13675
|  7> H         -1.63680        1.72709       -5.06399
|  8> H         -1.58235        3.44561       -4.76869
|  9> O         -3.44376        2.84652       -3.25274
| 10> O         -1.97092        1.58304       -2.15123
| 11> H          0.41484        3.10285       -3.24517
| 12> H          0.68317        2.68756       -4.91972
| 13> H          0.37534        0.30051       -4.40446
| 14> H          0.21856        0.70606       -2.71212
| 15> H          1.71431        1.03324       -3.55398
| 16> *
| 17> %MaxCore 64000
| 18>
| 19> %pal nprocs 18
| 20> end
| 21>
| 22> %scf
| 23>   MaxIter 150
| 24> end
| 25>
| 26>
| 27>                          ****END OF INPUT****

CARTESIAN COORDINATES (ANGSTROEM)
---------------------------------
  C      0.648660    1.003590   -3.645600
  C      0.132970    2.385870   -4.024620
  C     -1.366460    2.479110   -4.313930
  C     -2.357730    2.306860   -3.136750
  H     -1.636800    1.727090   -5.063990
  H     -1.582350    3.445610   -4.768690
  O     -3.443760    2.846520   -3.252740
  O     -1.970920    1.583040   -2.151230
  H      0.414840    3.102850   -3.245170
  H      0.683170    2.687560   -4.919720
  H      0.375340    0.300510   -4.404460
  H      0.218560    0.706060   -2.712120
  H      1.714310    1.033240   -3.553980

 Total Charge           Charge          ....   -1
 Multiplicity           Mult            ....    1
 Number of Electrons    NEL             ....   48
 Basis Dimension        Dim             ....  291

ORBITAL ENERGIES
----------------

  NO   OCC          E(Eh)            E(eV)
   0   2.0000     -18.971974      -516.2537
   1   2.0000     -18.961888      -515.9792
   2   2.0000     -10.162114      -276.5252
   3   2.0000     -10.124788      -275.5095
   4   2.0000     -10.109738      -275.1000
   5   2.0000     -10.102414      -274.9007
   6   2.0000      -0.946086       -25.7443
   7   2.0000      -0.844292       -22.9743
   8   2.0000      -0.751590       -20.4518
   9   2.0000      -0.653930       -17.7943
  10   2.0000      -0.554492       -15.0885
  11   2.0000      -0.430854       -11.7241
  12   2.0000      -0.396670       -10.7939
  13   2.0000      -0.393204       -10.6996
  14   2.0000      -0.358934        -9.7671
  15   2.0000      -0.329842        -8.9755
  16   2.0000      -0.317222        -8.6320
  17   2.0000      -0.302074        -8.2199
  18   2.0000      -0.286684        -7.8011
  19   2.0000      -0.271873        -7.3981
  20   2.0000      -0.258663        -7.0386
  21   2.0000      -0.144758        -3.9391
  22   2.0000      -0.136866        -3.7243
  23   2.0000      -0.126461        -3.4412
  24   0.0000       0.186329         5.0703
  25   0.0000       0.202330         5.5057
  26   0.0000       0.207353         5.6424
  27   0.0000       0.217949         5.9307
  28   0.0000       0.240806         6.5527

MULLIKEN ATOMIC CHARGES
-----------------------
   0 C :   -1.165668
   1 C :   -0.039379
   2 C :   -0.416143
   3 C :    0.383516
   4 H :    0.192512
   5 H :    0.203443
   6 O :   -0.744746
   7 O :   -0.748401
   8 H :    0.221641
   9 H :    0.228342
  10 H :    0.295553
  11 H :    0.286199
  12 H :    0.303130
Sum of atomic charges:   -1.0000000

LOEWDIN ATOMIC CHARGES
----------------------
   0 C :   -0.137407
   1 C :   -0.282426
   2 C :   -0.162314
   3 C :   -0.755627
   4 H :    0.102805
   5 H :    0.090187
   6 O :   -0.071086
   7 O :   -0.127211
   8 H :    0.103361
   9 H :    0.084396
  10 H :    0.058339
  11 H :    0.050083
  12 H :    0.046899

  Mayer bond orders larger than 0.100000
B(  0-C ,  1-C ) :   0.5930 B(  0-C ,  2-C ) :   0.2106 B(  0-C , 10-H ) :   0.9702
B(  0-C , 11-H ) :   1.0272 B(  0-C , 12-H ) :   0.9359 B(  1-C ,  2-C ) :   0.7334
B(  1-C ,  8-H ) :   0.9836 B(  1-C ,  9-H ) :   0.9914 B(  2-C ,  3-C ) :   1.0291
B(  2-C ,  4-H ) :   0.9277 B(  2-C ,  5-H ) :   1.0272 B(  3-C ,  6-O ) :   1.4677
B(  3-C ,  7-O ) :   1.4722

Dispersion correction           -0.003229898
FINAL SINGLE POINT ENERGY      -307.187993839712

DIPOLE MOMENT
-------------
                                X             Y             Z
Electronic contribution:     -7.21024       1.46758       3.12145
Nuclear contribution   :      9.31936      -1.53308      -4.48293
                        -----------------------------------------
Total Dipole Moment    :      2.10912      -0.06550      -1.36148
                        -----------------------------------------
Magnitude (a.u.)       :      2.51124
Magnitude (Debye)      :      6.38305

Rotational constants in cm-1:     0.250458     0.077448     0.063252
Rotational constants in MHz :  7508.538874  2321.842942  1896.252250

                             ****ORCA TERMINATED NORMALLY****
TOTAL RUN TIME: 0 days 0 hours 0 minutes 29 seconds 393 msec
