                         Program Version 5.0.0 -  RELEASE  -
|  1> !wB97X-D3 RIJCOSX def2-TZVPD def2/J TightSCF
|  2> *xyz 1 1
|  3> C          0.64866        1.00359       -3.64560
|  4> N          0.28128        0.67645       -2.24018
|  5> C          0.13297        2.38587       -4.02462
|  6> C         -1.36646        2.47911       -4.31393
|  7> H          0.39079       -0.31925       -2.02649
|  8> H         -0.69269        0.99010       -2.13812
|  9> H          0.85421        1.21221       -1.57528
| 10> H          0.19099        0.23965       -4.27575
| 11> H          1.73157        0.93173       -3.75075
| 12> H          0.41484        3.10285       -3.24517
| 13> H          0.68317        2.68756       -4.91972
| 14> H         -1.62719        1.77449       -5.07580
| 15> H         -1.60483        3.46796       -4.64597
| 16> H         -1.91603        2.26007       -3.42236
| 17> *
| 18> %MaxCore 64000
| 19>
| 20> %pal nprocs 18
| 21> end
| 22>
| 23> %scf
| 24>   MaxIter 150
| 25> end
| 26>
| 27>
| 28>                          ****END OF INPUT****

CARTESIAN COORDINATES (ANGSTROEM)
---------------------------------
  C      0.648660    1.003590   -3.645600
  N      0.281280    0.676450   -2.240180
  C      0.132970    2.385870   -4.024620
  C     -1.366460    2.479110   -4.313930
  H      0.390790   -0.319250   -2.026490
  H     -0.692690    0.990100   -2.138120
  H      0.854210    1.212210   -1.575280
  H      0.190990    0.239650   -4.275750
  H      1.731570    0.931730   -3.750750
  H      0.414840    3.102850   -3.245170
  H      0.683170    2.687560   -4.919720
  H     -1.627190    1.774490   -5.075800
  H     -1.604830    3.467960   -4.645970
  H     -1.916030    2.260070   -3.422360

 Total Charge           Charge          ....    1
 Multiplicity           Mult            ....    1
 Number of Electrons    NEL             ....   34
 Basis Dimension        Dim             ....  238

ORBITAL ENERGIES
----------------

  NO   OCC          E(Eh)            E(eV)
   0   2.0000     -14.751363      -401.4050
   1   2.0000     -10.521875      -286.3148
   2   2.0000     -10.454029      -284.4686
   3   2.0000     -10.418738      -283.5083
   4   2.0000      -1.328177       -36.1415
   5   2.0000      -1.089409       -29.6443
   6   2.0000      -0.995660       -27.0933
   7   2.0000      -0.909987       -24.7620
   8   2.0000      -0.898379       -24.4461
   9   2.0000      -0.873577       -23.7712
  10   2.0000      -0.789209       -21.4755
  11   2.0000      -0.728440       -19.8219
  12   2.0000      -0.708075       -19.2677
  13   2.0000      -0.683497       -18.5989
  14   2.0000      -0.623199       -16.9581
  15   2.0000      -0.612283       -16.6611
  16   2.0000      -0.609338       -16.5809
  17   0.0000      -0.116508        -3.1703
  18   0.0000      -0.064156        -1.7458
  19   0.0000      -0.061966        -1.6862
  20   0.0000      -0.052865        -1.4385
  21   0.0000      -0.023835        -0.6486

MULLIKEN ATOMIC CHARGES
-----------------------
   0 C :   -0.567263
   1 N :   -0.270488
   2 C :   -0.311217
   3 C :   -1.242330
   4 H :    0.358459
   5 H :    0.314313
   6 H :    0.381673
   7 H :    0.352110
   8 H :    0.309882
   9 H :    0.316257
  10 H :    0.306180
  11 H :    0.350929
  12 H :    0.320014
  13 H :    0.381481
Sum of atomic charges:    1.0000000

LOEWDIN ATOMIC CHARGES
----------------------
   0 C :   -0.164343
   1 N :    0.191280
   2 C :   -0.235092
   3 C :   -0.080175
   4 H :    0.182403
   5 H :    0.165660
   6 H :    0.184344
   7 H :    0.139215
   8 H :    0.137912
   9 H :    0.120735
  10 H :    0.126535
  11 H :    0.082132
  12 H :    0.085645
  13 H :    0.063749

  Mayer bond orders larger than 0.100000
B(  0-C ,  1-N ) :   0.9774 B(  0-C ,  2-C ) :   0.7718 B(  0-C ,  7-H ) :   0.8954
B(  0-C ,  8-H ) :   0.9574 B(  1-N ,  4-H ) :   0.8517 B(  1-N ,  5-H ) :   0.8860
B(  1-N ,  6-H ) :   0.8346 B(  2-C ,  3-C ) :   0.6995 B(  2-C ,  9-H ) :   0.9270
B(  2-C , 10-H ) :   0.9400 B(  3-C , 11-H ) :   0.9854 B(  3-C , 12-H ) :   1.0080
B(  3-C , 13-H ) :   0.8343

Dispersion correction           -0.002772360
FINAL SINGLE POINT ENERGY      -174.869903636752

DIPOLE MOMENT
-------------
                                X             Y             Z
Electronic contribution:      1.31398      -1.47092       1.58567
Nuclear contribution   :     -0.74670       0.28200      -0.02386
                        -----------------------------------------
Total Dipole Moment    :      0.56728      -1.18892       1.56181
                        -----------------------------------------
Magnitude (a.u.)       :      2.04318
Magnitude (Debye)      :      5.19335

Rotational constants in cm-1:     0.472563     0.149855     0.132807
Rotational constants in MHz : 14167.078489  4492.544970  3981.441276

                             ****ORCA TERMINATED NORMALLY****
TOTAL RUN TIME: 0 days 0 hours 0 minutes 19 seconds 429 msec
