                         Program Version 5.0.0 -  RELEASE  -
|  1> !wB97X-D3 RIJCOSX def2-TZVPD def2/J TightSCF
|  2> *xyz 0 1
|  3> C          0.64866        1.00359       -3.64560
|  4> C          0.13297        2.38587       -4.02462
|  5> C         -1.36646        2.47911       -4.31393
|  6> C         -2.35773        2.30686       -3.13675
|  7> H         -1.63680        1.72709       -5.06399
|  8> H         -1.58235        3.44561       -4.76869
|  9> F         -3.44376        2.84652       -3.25274
| 10> O         -1.97092        1.58304       -2.15123
| 11> H          0.41484        3.10285       -3.24517
| 12> H          0.68317        2.68756       -4.91972
| 13> H          0.37534        0.30051       -4.40446
| 14> H          0.21856        0.70606       -2.71212
| 15> H          1.71431        1.03324       -3.55398
| 16> *
| 17> %MaxCore 64000
| 18>
| 19> %pal nprocs 18
| 20> end
| 21>
| 22> %scf
| 23>   MaxIter 150
| 24> end
| 25>
| 26>
| 27>                          ****END OF INPUT****

CARTESIAN COORDINATES (ANGSTROEM)
---------------------------------
  C      0.648660    1.003590   -3.645600
  C      0.132970    2.385870   -4.024620
  C     -1.366460    2.479110   -4.313930
  C     -2.357730    2.306860   -3.136750
  H     -1.636800    1.727090   -5.063990
  H     -1.582350    3.445610   -4.768690
  F     -3.443760    2.846520   -3.252740
  O     -1.970920    1.583040   -2.151230
  H      0.414840    3.102850   -3.245170
  H      0.683170    2.687560   -4.919720
  H      0.375340    0.300510   -4.404460
  H      0.218560    0.706060   -2.712120
  H      1.714310    1.033240   -3.553980

 Total Charge           Charge          ....    0
 Multiplicity           Mult            ....    1
 Number of Electrons    NEL             ....   48
 Basis Dimension        Dim             ....  291

ORBITAL ENERGIES
----------------

  NO   OCC          E(Eh)            E(eV)
   0   2.0000     -24.871271      -676.7817
   1   2.0000     -19.232470      -523.3421
   2   2.0000     -10.460736      -284.6511
   3   2.0000     -10.307771      -280.4887
   4   2.0000     -10.285467      -279.8818
   5   2.0000     -10.251819      -278.9662
   6   2.0000      -1.466063       -39.8936
   7   2.0000      -1.133227       -30.8367
   8   2.0000      -0.925443       -25.1826
   9   2.0000      -0.845489       -23.0069
  10   2.0000      -0.781971       -21.2785
  11   2.0000      -0.722043       -19.6478
  12   2.0000      -0.671440       -18.2708
  13   2.0000      -0.650410       -17.6986
  14   2.0000      -0.612037       -16.6544
  15   2.0000      -0.563287       -15.3278
  16   2.0000      -0.553280       -15.0555
  17   2.0000      -0.518771       -14.1165
  18   2.0000      -0.484749       -13.1907
  19   2.0000      -0.454549       -12.3689
  20   2.0000      -0.449868       -12.2415
  21   2.0000      -0.440963       -11.9992
  22   2.0000      -0.432589       -11.7714
  23   2.0000      -0.379593       -10.3293
  24   0.0000       0.053183         1.4472
  25   0.0000       0.065699         1.7878
  26   0.0000       0.083794         2.2801
  27   0.0000       0.090166         2.4535
  28   0.0000       0.093698         2.5496

MULLIKEN ATOMIC CHARGES
-----------------------
   0 C :   -1.226705
   1 C :   -0.153624
   2 C :   -0.524534
   3 C :    0.635897
   4 H :    0.296852
   5 H :    0.291027
   6 F :   -0.231301
   7 O :   -0.568900
   8 H :    0.259644
   9 H :    0.262465
  10 H :    0.327592
  11 H :    0.315118
  12 H :    0.316467
Sum of atomic charges:   -0.0000000

LOEWDIN ATOMIC CHARGES
----------------------
   0 C :   -0.110801
   1 C :   -0.254362
   2 C :   -0.114991
   3 C :   -0.469886
   4 H :    0.126872
   5 H :    0.110741
   6 F :    0.249024
   7 O :    0.048687
   8 H :    0.114916
   9 H :    0.106074
  10 H :    0.069749
  11 H :    0.057899
  12 H :    0.066078

  Mayer bond orders larger than 0.100000
B(  0-C ,  1-C ) :   0.6180 B(  0-C ,  2-C ) :   0.2078 B(  0-C , 10-H ) :   0.9445
B(  0-C , 11-H ) :   1.0015 B(  0-C , 12-H ) :   0.9498 B(  1-C ,  2-C ) :   0.8394
B(  1-C ,  8-H ) :   0.9542 B(  1-C ,  9-H ) :   0.9647 B(  2-C ,  3-C ) :   0.9926
B(  2-C ,  4-H ) :   0.8921 B(  2-C ,  5-H ) :   0.9423 B(  3-C ,  6-F ) :   0.9636
B(  3-C ,  7-O ) :   1.6623

Dispersion correction           -0.003188271
FINAL SINGLE POINT ENERGY      -331.742858357159

DIPOLE MOMENT
-------------
                                X             Y             Z
Electronic contribution:    -11.47442       2.91302       3.61789
Nuclear contribution   :     11.62992      -2.38586      -4.66016
                        -----------------------------------------
Total Dipole Moment    :      0.15550       0.52716      -1.04227
                        -----------------------------------------
Magnitude (a.u.)       :      1.17830
Magnitude (Debye)      :      2.99501

Rotational constants in cm-1:     0.249088     0.072929     0.060128
Rotational constants in MHz :  7467.482637  2186.350475  1802.579568

                             ****ORCA TERMINATED NORMALLY****
TOTAL RUN TIME: 0 days 0 hours 0 minutes 27 seconds 33 msec
