                         Program Version 5.0.0 -  RELEASE  -
|  1> !wB97X-D3 RIJCOSX def2-TZVPD def2/J TightSCF
|  2> *xyz 0 1
|  3> C          0.64866        1.00359       -3.64560
|  4> C          0.28128        0.67645       -2.24018
|  5> C          0.13297        2.38587       -4.02462
|  6> C         -1.36646        2.47911       -4.31393
|  7> H          0.39079       -0.31925       -2.02649
|  8> H         -0.69269        0.99010       -2.13812
|  9> H          0.85421        1.21221       -1.57528
| 10> H          0.19099        0.23965       -4.27575
| 11> H          1.73157        0.93173       -3.75075
| 12> H          0.41484        3.10285       -3.24517
| 13> H          0.68317        2.68756       -4.91972
| 14> H         -1.62719        1.77449       -5.07580
| 15> H         -1.60483        3.46796       -4.64597
| 16> H         -1.91603        2.26007       -3.42236
| 17> *
| 18> %MaxCore 64000
| 19>
| 20> %pal nprocs 18
| 21> end
| 22>
| 23> %scf
| 24>   MaxIter 150
| 25> end
| 26>
| 27>
| 28>                          ****END OF INPUT****

CARTESIAN COORDINATES (ANGSTROEM)
---------------------------------
  C      0.648660    1.003590   -3.645600
  C      0.281280    0.676450   -2.240180
  C      0.132970    2.385870   -4.024620
  C     -1.366460    2.479110   -4.313930
  H      0.390790   -0.319250   -2.026490
  H     -0.692690    0.990100   -2.138120
  H      0.854210    1.212210   -1.575280
  H      0.190990    0.239650   -4.275750
  H      1.731570    0.931730   -3.750750
  H      0.414840    3.102850   -3.245170
  H      0.683170    2.687560   -4.919720
  H     -1.627190    1.774490   -5.075800
  H     -1.604830    3.467960   -4.645970
  H     -1.916030    2.260070   -3.422360

 Total Charge           Charge          ....    0
 Multiplicity           Mult            ....    1
 Number of Electrons    NEL             ....   34
 Basis Dimension        Dim             ....  238

ORBITAL ENERGIES
----------------

  NO   OCC          E(Eh)            E(eV)
   0   2.0000     -10.263235      -279.2768
   1   2.0000     -10.258199      -279.1398
   2   2.0000     -10.253325      -279.0071
   3   2.0000     -10.230330      -278.3814
   4   2.0000      -0.920336       -25.0436
   5   2.0000      -0.844671       -22.9847
   6   2.0000      -0.754555       -20.5325
   7   2.0000      -0.677211       -18.4279
   8   2.0000      -0.571808       -15.5597
   9   2.0000      -0.559520       -15.2253
  10   2.0000      -0.526357       -14.3229
  11   2.0000      -0.491906       -13.3854
  12   2.0000      -0.473563       -12.8863
  13   2.0000      -0.457857       -12.4589
  14   2.0000      -0.418240       -11.3809
  15   2.0000      -0.416974       -11.3464
  16   2.0000      -0.405476       -11.0336
  17   0.0000       0.076925         2.0932
  18   0.0000       0.094814         2.5800
  19   0.0000       0.095575         2.6007
  20   0.0000       0.097462         2.6521
  21   0.0000       0.144279         3.9260

MULLIKEN ATOMIC CHARGES
-----------------------
   0 C :   -0.092374
   1 C :   -1.450622
   2 C :   -0.287833
   3 C :   -1.205878
   4 H :    0.360175
   5 H :    0.342723
   6 H :    0.368812
   7 H :    0.268437
   8 H :    0.212003
   9 H :    0.281448
  10 H :    0.245761
  11 H :    0.319557
  12 H :    0.310497
  13 H :    0.327295
Sum of atomic charges:   -0.0000000

LOEWDIN ATOMIC CHARGES
----------------------
   0 C :   -0.276571
   1 C :   -0.114672
   2 C :   -0.275641
   3 C :   -0.107631
   4 H :    0.054315
   5 H :    0.046361
   6 H :    0.059242
   7 H :    0.108479
   8 H :    0.106029
   9 H :    0.109546
  10 H :    0.100170
  11 H :    0.068114
  12 H :    0.063880
  13 H :    0.058378

  Mayer bond orders larger than 0.100000
B(  0-C ,  1-C ) :   0.5374 B(  0-C ,  2-C ) :   0.7317 B(  0-C ,  7-H ) :   0.9602
B(  0-C ,  8-H ) :   0.9867 B(  1-C ,  2-C ) :   0.2287 B(  1-C ,  3-C ) :   0.1301
B(  1-C ,  4-H ) :   0.9250 B(  1-C ,  5-H ) :   0.9354 B(  1-C ,  6-H ) :   0.9593
B(  2-C ,  3-C ) :   0.6534 B(  2-C ,  9-H ) :   0.9625 B(  2-C , 10-H ) :   0.9833
B(  3-C , 11-H ) :   0.9824 B(  3-C , 12-H ) :   0.9765 B(  3-C , 13-H ) :   0.9331

Dispersion correction           -0.002677149
FINAL SINGLE POINT ENERGY      -158.454616135838

DIPOLE MOMENT
-------------
                                X             Y             Z
Electronic contribution:      0.65162       0.02022      -0.38644
Nuclear contribution   :     -0.63302      -0.01177       0.37643
                        -----------------------------------------
Total Dipole Moment    :      0.01860       0.00845      -0.01001
                        -----------------------------------------
Magnitude (a.u.)       :      0.02276
Magnitude (Debye)      :      0.05784

Rotational constants in cm-1:     0.480601     0.156500     0.138605
Rotational constants in MHz : 14408.061205  4691.756081  4155.280646

                             ****ORCA TERMINATED NORMALLY****
TOTAL RUN TIME: 0 days 0 hours 0 minutes 13 seconds 887 msec
