                         Program Version 5.0.0 -  RELEASE  -
|  1> !wB97X-D3 RIJCOSX def2-TZVPD def2/J TightSCF
|  2> *xyz 0 1
|  3> C          0.64866        1.00359       -3.64560
|  4> C          0.13297        2.38587       -4.02462
|  5> C         -1.36646        2.47911       -4.31393
|  6> C         -2.35773        2.30686       -3.13675
|  7> H         -1.63680        1.72709       -5.06399
|  8> H         -1.58235        3.44561       -4.76869
|  9> O         -3.44376        2.84652       -3.25274
| 10> F         -1.97092        1.58304       -2.15123
| 11> H          0.41484        3.10285       -3.24517
| 12> H          0.68317        2.68756       -4.91972
| 13> H          0.37534        0.30051       -4.40446
| 14> H          0.21856        0.70606       -2.71212
| 15> H          1.71431        1.03324       -3.55398
| 16> *
| 17> %MaxCore 64000
| 18>
| 19> %pal nprocs 18
| 20> end
| 21>
| 22> %scf
| 23>   MaxIter 150
| 24> end
| 25>
| 26>
| 27>                          ****END OF INPUT****

CARTESIAN COORDINATES (ANGSTROEM)
---------------------------------
  C      0.648660    1.003590   -3.645600
  C      0.132970    2.385870   -4.024620
  C     -1.366460    2.479110   -4.313930
  C     -2.357730    2.306860   -3.136750
  H     -1.636800    1.727090   -5.063990
  H     -1.582350    3.445610   -4.768690
  O     -3.443760    2.846520   -3.252740
  F     -1.970920    1.583040   -2.151230
  H      0.414840    3.102850   -3.245170
  H      0.683170    2.687560   -4.919720
  H      0.375340    0.300510   -4.404460
  H      0.218560    0.706060   -2.712120
  H      1.714310    1.033240   -3.553980

 Total Charge           Charge          ....    0
 Multiplicity           Mult            ....    1
 Number of Electrons    NEL             ....   48
 Basis Dimension        Dim             ....  291

ORBITAL ENERGIES
----------------

  NO   OCC          E(Eh)            E(eV)
   0   2.0000     -24.846852      -676.1172
   1   2.0000     -19.241019      -523.5747
   2   2.0000     -10.454039      -284.4689
   3   2.0000     -10.305997      -280.4404
   4   2.0000     -10.289973      -280.0044
   5   2.0000     -10.265791      -279.3464
   6   2.0000      -1.417703       -38.5777
   7   2.0000      -1.172369       -31.9018
   8   2.0000      -0.931267       -25.3411
   9   2.0000      -0.843105       -22.9421
  10   2.0000      -0.762427       -20.7467
  11   2.0000      -0.725396       -19.7390
  12   2.0000      -0.647480       -17.6188
  13   2.0000      -0.636249       -17.3132
  14   2.0000      -0.604199       -16.4411
  15   2.0000      -0.561550       -15.2806
  16   2.0000      -0.557380       -15.1671
  17   2.0000      -0.526777       -14.3343
  18   2.0000      -0.507017       -13.7966
  19   2.0000      -0.470972       -12.8158
  20   2.0000      -0.464608       -12.6426
  21   2.0000      -0.442979       -12.0541
  22   2.0000      -0.441550       -12.0152
  23   2.0000      -0.391430       -10.6514
  24   0.0000       0.056411         1.5350
  25   0.0000       0.068571         1.8659
  26   0.0000       0.083513         2.2725
  27   0.0000       0.085715         2.3324
  28   0.0000       0.092654         2.5212

MULLIKEN ATOMIC CHARGES
-----------------------
   0 C :   -1.224953
   1 C :   -0.170691
   2 C :   -0.435409
   3 C :    0.550722
   4 H :    0.285012
   5 H :    0.262648
   6 O :   -0.557253
   7 F :   -0.218794
   8 H :    0.271361
   9 H :    0.267466
  10 H :    0.334271
  11 H :    0.324429
  12 H :    0.311192
Sum of atomic charges:    0.0000000

LOEWDIN ATOMIC CHARGES
----------------------
   0 C :   -0.111765
   1 C :   -0.260668
   2 C :   -0.108424
   3 C :   -0.465137
   4 H :    0.127775
   5 H :    0.118839
   6 O :    0.106877
   7 F :    0.175318
   8 H :    0.113362
   9 H :    0.106853
  10 H :    0.070917
  11 H :    0.058417
  12 H :    0.067636

  Mayer bond orders larger than 0.100000
B(  0-C ,  1-C ) :   0.5796 B(  0-C ,  2-C ) :   0.1865 B(  0-C , 10-H ) :   0.9543
B(  0-C , 11-H ) :   0.9713 B(  0-C , 12-H ) :   0.9678 B(  1-C ,  2-C ) :   0.7905
B(  1-C ,  8-H ) :   0.9653 B(  1-C ,  9-H ) :   0.9675 B(  2-C ,  3-C ) :   0.9788
B(  2-C ,  4-H ) :   0.8895 B(  2-C ,  5-H ) :   0.9804 B(  3-C ,  6-O ) :   1.6777
B(  3-C ,  7-F ) :   0.9685

Dispersion correction           -0.003170670
FINAL SINGLE POINT ENERGY      -331.760396951028

DIPOLE MOMENT
-------------
                                X             Y             Z
Electronic contribution:     -8.88199       0.74770       5.45640
Nuclear contribution   :      9.96624      -0.95867      -5.90440
                        -----------------------------------------
Total Dipole Moment    :      1.08426      -0.21097      -0.44800
                        -----------------------------------------
Magnitude (a.u.)       :      1.19198
Magnitude (Debye)      :      3.02978

Rotational constants in cm-1:     0.233484     0.076940     0.061803
Rotational constants in MHz :  6999.682494  2306.588565  1852.797552

                             ****ORCA TERMINATED NORMALLY****
TOTAL RUN TIME: 0 days 0 hours 0 minutes 23 seconds 812 msec
