                         Program Version 5.0.0 -  RELEASE  -
|  1> !PBE0 D3BJ RIJCOSX def2-SVP def2/J TightSCF
|  2> *xyz -1 1
|  3> C          0.61188        1.65763       -4.50029
|  4> C          1.69499        1.54179       -5.57045
|  5> H          2.69733        1.73466       -5.18400
|  6> H          1.50666        2.27224       -6.35808
|  7> S          1.78029       -0.03313       -6.42874
|  8> O          2.56929        0.21366       -7.60736
|  9> O          0.41688       -0.46297       -6.61859
| 10> O          2.50513       -0.93326       -5.48257
| 11> H         -0.34424        1.45871       -4.93752
| 12> H          0.61845        2.64655       -4.09174
| 13> H          0.80247        0.94882       -3.72173
| 14> *
| 15> %MaxCore 64000
| 16>
| 17> %pal nprocs 4
| 18> end
| 19>
| 20> %scf
| 21>   MaxIter 150
| 22> end
| 23>
| 24>
| 25>                          ****END OF INPUT****

CARTESIAN COORDINATES (ANGSTROEM)
---------------------------------
  C      0.611880    1.657630   -4.500290
  C      1.694990    1.541790   -5.570450
  H      2.697330    1.734660   -5.184000
  H      1.506660    2.272240   -6.358080
  S      1.780290   -0.033130   -6.428740
  O      2.569290    0.213660   -7.607360
  O      0.416880   -0.462970   -6.618590
  O      2.505130   -0.933260   -5.482570
  H     -0.344240    1.458710   -4.937520
  H      0.618450    2.646550   -4.091740
  H      0.802470    0.948820   -3.721730

 Total Charge           Charge          ....   -1
 Multiplicity           Mult            ....    1
 Number of Electrons    NEL             ....   58
 Basis Dimension        Dim             ....  113

ORBITAL ENERGIES
----------------

  NO   OCC          E(Eh)            E(eV)
   0   2.0000     -88.997551     -2421.7465
   1   2.0000     -18.964225      -516.0428
   2   2.0000     -18.962597      -515.9985
   3   2.0000     -18.940726      -515.4034
   4   2.0000     -10.082861      -274.3686
   5   2.0000     -10.078647      -274.2539
   6   2.0000      -7.964406      -216.7225
   7   2.0000      -5.906149      -160.7145
   8   2.0000      -5.905848      -160.7063
   9   2.0000      -5.905661      -160.7012
  10   2.0000      -0.931122       -25.3371
  11   2.0000      -0.794306       -21.6142
  12   2.0000      -0.757027       -20.5998
  13   2.0000      -0.639969       -17.4144
  14   2.0000      -0.512340       -13.9415
  15   2.0000      -0.378456       -10.2983
  16   2.0000      -0.322464        -8.7747
  17   2.0000      -0.312583        -8.5058
  18   2.0000      -0.276274        -7.5178
  19   2.0000      -0.255430        -6.9506
  20   2.0000      -0.252057        -6.8588
  21   2.0000      -0.230133        -6.2622
  22   2.0000      -0.214703        -5.8424
  23   2.0000      -0.136436        -3.7126
  24   2.0000      -0.135102        -3.6763
  25   2.0000      -0.104285        -2.8378
  26   2.0000      -0.096368        -2.6223
  27   2.0000      -0.077535        -2.1098
  28   2.0000      -0.045562        -1.2398
  29   0.0000       0.212752         5.7893
  30   0.0000       0.265264         7.2182
  31   0.0000       0.270007         7.3473
  32   0.0000       0.277201         7.5430
  33   0.0000       0.302912         8.2427

MULLIKEN ATOMIC CHARGES
-----------------------
   0 C :   -0.028166
   1 C :   -0.155362
   2 H :    0.028490
   3 H :    0.016975
   4 S :    0.884723
   5 O :   -0.577485
   6 O :   -0.577593
   7 O :   -0.638680
   8 H :    0.030691
   9 H :   -0.010830
  10 H :    0.027237
Sum of atomic charges:   -1.0000000

LOEWDIN ATOMIC CHARGES
----------------------
   0 C :   -0.081863
   1 C :   -0.197403
   2 H :    0.013960
   3 H :    0.007319
   4 S :    1.089843
   5 O :   -0.604447
   6 O :   -0.604378
   7 O :   -0.668572
   8 H :    0.020325
   9 H :    0.005274
  10 H :    0.019943

  Mayer bond orders larger than 0.100000
B(  0-C ,  1-C ) :   1.0537 B(  0-C ,  8-H ) :   0.9663 B(  0-C ,  9-H ) :   0.9637
B(  0-C , 10-H ) :   0.9685 B(  1-C ,  2-H ) :   0.9444 B(  1-C ,  3-H ) :   0.9407
B(  1-C ,  4-S ) :   0.8882 B(  4-S ,  5-O ) :   1.6333 B(  4-S ,  6-O ) :   1.6235
B(  4-S ,  7-O ) :   1.5697

Dispersion correction           -0.008245618
FINAL SINGLE POINT ENERGY      -702.262224275359

DIPOLE MOMENT
-------------
                                X             Y             Z
Electronic contribution:      2.25731      -5.73629      -5.07947
Nuclear contribution   :     -2.69163       7.29476       5.86550
                        -----------------------------------------
Total Dipole Moment    :     -0.43432       1.55847       0.78603
                        -----------------------------------------
Magnitude (a.u.)       :      1.79870
Magnitude (Debye)      :      4.57192

Rotational constants in cm-1:     0.163060     0.082831     0.081111
Rotational constants in MHz :  4888.419330  2483.225008  2431.646841

                             ****ORCA TERMINATED NORMALLY****
TOTAL RUN TIME: 0 days 0 hours 0 minutes 8 seconds 286 msec
