                         Program Version 5.0.0 -  RELEASE  -
|  1> !PBE0 D3BJ RIJCOSX def2-SVP def2/J TightSCF
|  2> *xyz 1 1
|  3> C          1.96337       -1.74915       -1.89689
|  4> N          2.73849       -2.01517       -3.09711
|  5> C          4.04974       -2.15472       -3.15204
|  6> N          4.65821       -1.98629       -4.31866
|  7> N          4.76423       -2.45444       -2.05049
|  8> H          4.28736       -2.77626       -1.21750
|  9> H          5.75082       -2.65835       -2.12599
| 10> H          2.34518       -1.69027       -3.97145
| 11> H          4.10900       -1.59268       -5.07176
| 12> H          5.64910       -2.15646       -4.42724
| 13> C          2.08852       -0.30091       -1.41520
| 14> H          2.23127       -2.45162       -1.10264
| 15> H          0.93025       -1.97780       -2.15544
| 16> H          1.82118        0.36368       -2.21003
| 17> H          3.09792       -0.11068       -1.11551
| 18> H          1.43391       -0.14382       -0.58352
| 19> *
| 20> %MaxCore 64000
| 21>
| 22> %pal nprocs 4
| 23> end
| 24>
| 25> %scf
| 26>   MaxIter 150
| 27> end
| 28>
| 29>
| 30>                          ****END OF INPUT****

CARTESIAN COORDINATES (ANGSTROEM)
---------------------------------
  C      1.963370   -1.749150   -1.896890
  N      2.738490   -2.015170   -3.097110
  C      4.049740   -2.154720   -3.152040
  N      4.658210   -1.986290   -4.318660
  N      4.764230   -2.454440   -2.050490
  H      4.287360   -2.776260   -1.217500
  H      5.750820   -2.658350   -2.125990
  H      2.345180   -1.690270   -3.971450
  H      4.109000   -1.592680   -5.071760
  H      5.649100   -2.156460   -4.427240
  C      2.088520   -0.300910   -1.415200
  H      2.231270   -2.451620   -1.102640
  H      0.930250   -1.977800   -2.155440
  H      1.821180    0.363680   -2.210030
  H      3.097920   -0.110680   -1.115510
  H      1.433910   -0.143820   -0.583520

 Total Charge           Charge          ....    1
 Multiplicity           Mult            ....    1
 Number of Electrons    NEL             ....   48
 Basis Dimension        Dim             ....  134

ORBITAL ENERGIES
----------------

  NO   OCC          E(Eh)            E(eV)
   0   2.0000     -14.618837      -397.7988
   1   2.0000     -14.617106      -397.7517
   2   2.0000     -14.615896      -397.7188
   3   2.0000     -10.564248      -287.4678
   4   2.0000     -10.438624      -284.0494
   5   2.0000     -10.367339      -282.1096
   6   2.0000      -1.236762       -33.6540
   7   2.0000      -1.122851       -30.5543
   8   2.0000      -1.108698       -30.1692
   9   2.0000      -0.946324       -25.7508
  10   2.0000      -0.856275       -23.3004
  11   2.0000      -0.819690       -22.3049
  12   2.0000      -0.799947       -21.7677
  13   2.0000      -0.759601       -20.6698
  14   2.0000      -0.709544       -19.3077
  15   2.0000      -0.701223       -19.0812
  16   2.0000      -0.671758       -18.2795
  17   2.0000      -0.641531       -17.4569
  18   2.0000      -0.612755       -16.6739
  19   2.0000      -0.576414       -15.6850
  20   2.0000      -0.542517       -14.7626
  21   2.0000      -0.522401       -14.2152
  22   2.0000      -0.488341       -13.2884
  23   2.0000      -0.460993       -12.5443
  24   0.0000      -0.152598        -4.1524
  25   0.0000      -0.129568        -3.5257
  26   0.0000      -0.096166        -2.6168
  27   0.0000      -0.084553        -2.3008
  28   0.0000      -0.061968        -1.6862

MULLIKEN ATOMIC CHARGES
-----------------------
   0 C :   -0.028570
   1 N :   -0.166383
   2 C :    0.132928
   3 N :   -0.070461
   4 N :   -0.098720
   5 H :    0.181402
   6 H :    0.180283
   7 H :    0.170802
   8 H :    0.181269
   9 H :    0.186521
  10 C :   -0.051614
  11 H :    0.079205
  12 H :    0.095393
  13 H :    0.062373
  14 H :    0.055653
  15 H :    0.089919
Sum of atomic charges:    1.0000000

LOEWDIN ATOMIC CHARGES
----------------------
   0 C :    0.032220
   1 N :    0.028227
   2 C :    0.146212
   3 N :    0.047474
   4 N :    0.035940
   5 H :    0.109749
   6 H :    0.112222
   7 H :    0.105431
   8 H :    0.111933
   9 H :    0.115345
  10 C :   -0.057770
  11 H :    0.038280
  12 H :    0.053730
  13 H :    0.036613
  14 H :    0.031633
  15 H :    0.052761

  Mayer bond orders larger than 0.100000
B(  0-C ,  1-N ) :   0.9324 B(  0-C , 10-C ) :   1.0791 B(  0-C , 11-H ) :   0.9525
B(  0-C , 12-H ) :   0.9477 B(  1-N ,  2-C ) :   1.3658 B(  1-N ,  7-H ) :   0.9080
B(  2-C ,  3-N ) :   1.3954 B(  2-C ,  4-N ) :   1.3754 B(  3-N ,  8-H ) :   0.9225
B(  3-N ,  9-H ) :   0.9240 B(  4-N ,  5-H ) :   0.9219 B(  4-N ,  6-H ) :   0.9259
B( 10-C , 13-H ) :   0.9691 B( 10-C , 14-H ) :   0.9676 B( 10-C , 15-H ) :   0.9632

Dispersion correction           -0.010477708
FINAL SINGLE POINT ENERGY      -283.872887866936

DIPOLE MOMENT
-------------
                                X             Y             Z
Electronic contribution:      3.08238      -2.73254      -3.13847
Nuclear contribution   :     -2.17768       2.37118       2.44574
                        -----------------------------------------
Total Dipole Moment    :      0.90470      -0.36136      -0.69273
                        -----------------------------------------
Magnitude (a.u.)       :      1.19538
Magnitude (Debye)      :      3.03842

Rotational constants in cm-1:     0.215650     0.075183     0.066454
Rotational constants in MHz :  6465.033740  2253.919004  1992.232519

                             ****ORCA TERMINATED NORMALLY****
TOTAL RUN TIME: 0 days 0 hours 0 minutes 10 seconds 64 msec
