                         Program Version 5.0.0 -  RELEASE  -
|  1> !PBE0 D3BJ RIJCOSX def2-SVP def2/J TightSCF
|  2> *xyz 0 1
|  3> C          0.61188        1.65763       -4.50029
|  4> C          1.69499        1.54179       -5.57045
|  5> H          2.69733        1.73466       -5.18400
|  6> H          1.50666        2.27224       -6.35808
|  7> S          1.78029       -0.03313       -6.42874
|  8> F          2.56929        0.21366       -7.60736
|  9> O          0.41688       -0.46297       -6.61859
| 10> O          2.50513       -0.93326       -5.48257
| 11> H         -0.34424        1.45871       -4.93752
| 12> H          0.61845        2.64655       -4.09174
| 13> H          0.80247        0.94882       -3.72173
| 14> *
| 15> %MaxCore 64000
| 16>
| 17> %pal nprocs 4
| 18> end
| 19>
| 20> %scf
| 21>   MaxIter 150
| 22> end
| 23>
| 24>
| 25>                          ****END OF INPUT****

CARTESIAN COORDINATES (ANGSTROEM)
---------------------------------
  C      0.611880    1.657630   -4.500290
  C      1.694990    1.541790   -5.570450
  H      2.697330    1.734660   -5.184000
  H      1.506660    2.272240   -6.358080
  S      1.780290   -0.033130   -6.428740
  F      2.569290    0.213660   -7.607360
  O      0.416880   -0.462970   -6.618590
  O      2.505130   -0.933260   -5.482570
  H     -0.344240    1.458710   -4.937520
  H      0.618450    2.646550   -4.091740
  H      0.802470    0.948820   -3.721730

 Total Charge           Charge          ....    0
 Multiplicity           Mult            ....    1
 Number of Electrons    NEL             ....   58
 Basis Dimension        Dim             ....  113

ORBITAL ENERGIES
----------------

  NO   OCC          E(Eh)            E(eV)
   0   2.0000     -89.272574     -2429.2302
   1   2.0000     -24.889930      -677.2894
   2   2.0000     -19.215877      -522.8906
   3   2.0000     -19.194148      -522.2993
   4   2.0000     -10.291333      -280.0414
   5   2.0000     -10.251784      -278.9652
   6   2.0000      -8.241819      -224.2713
   7   2.0000      -6.187432      -168.3686
   8   2.0000      -6.180964      -168.1926
   9   2.0000      -6.179796      -168.1608
  10   2.0000      -1.404871       -38.2285
  11   2.0000      -1.124860       -30.6090
  12   2.0000      -1.012844       -27.5609
  13   2.0000      -0.840173       -22.8623
  14   2.0000      -0.753112       -20.4932
  15   2.0000      -0.692017       -18.8307
  16   2.0000      -0.602456       -16.3937
  17   2.0000      -0.602392       -16.3919
  18   2.0000      -0.566352       -15.4112
  19   2.0000      -0.507879       -13.8201
  20   2.0000      -0.492664       -13.4061
  21   2.0000      -0.448095       -12.1933
  22   2.0000      -0.443912       -12.0794
  23   2.0000      -0.421004       -11.4561
  24   2.0000      -0.400084       -10.8868
  25   2.0000      -0.389166       -10.5898
  26   2.0000      -0.339411        -9.2358
  27   2.0000      -0.319082        -8.6827
  28   2.0000      -0.303693        -8.2639
  29   0.0000       0.043941         1.1957
  30   0.0000       0.054199         1.4748
  31   0.0000       0.089178         2.4267
  32   0.0000       0.093566         2.5461
  33   0.0000       0.106461         2.8969

MULLIKEN ATOMIC CHARGES
-----------------------
   0 C :   -0.038503
   1 C :   -0.189095
   2 H :    0.095969
   3 H :    0.077493
   4 S :    0.962542
   5 F :   -0.173705
   6 O :   -0.440474
   7 O :   -0.498370
   8 H :    0.071048
   9 H :    0.060598
  10 H :    0.072498
Sum of atomic charges:    0.0000000

LOEWDIN ATOMIC CHARGES
----------------------
   0 C :   -0.054522
   1 C :   -0.161334
   2 H :    0.042644
   3 H :    0.032428
   4 S :    1.150551
   5 F :   -0.113815
   6 O :   -0.476552
   7 O :   -0.538093
   8 H :    0.038449
   9 H :    0.040346
  10 H :    0.039899

  Mayer bond orders larger than 0.100000
B(  0-C ,  1-C ) :   1.0669 B(  0-C ,  8-H ) :   0.9669 B(  0-C ,  9-H ) :   0.9627
B(  0-C , 10-H ) :   0.9713 B(  1-C ,  2-H ) :   0.9300 B(  1-C ,  3-H ) :   0.9280
B(  1-C ,  4-S ) :   0.9191 B(  4-S ,  5-F ) :   1.0198 B(  4-S ,  6-O ) :   1.7746
B(  4-S ,  7-O ) :   1.7237

Dispersion correction           -0.007882782
FINAL SINGLE POINT ENERGY      -726.748646883252

DIPOLE MOMENT
-------------
                                X             Y             Z
Electronic contribution:      3.87477      -5.67134      -7.58030
Nuclear contribution   :     -3.66946       7.33549       7.42434
                        -----------------------------------------
Total Dipole Moment    :      0.20530       1.66415      -0.15595
                        -----------------------------------------
Magnitude (a.u.)       :      1.68401
Magnitude (Debye)      :      4.28041

Rotational constants in cm-1:     0.158379     0.080294     0.077843
Rotational constants in MHz :  4748.076444  2407.152850  2333.668303

                             ****ORCA TERMINATED NORMALLY****
TOTAL RUN TIME: 0 days 0 hours 0 minutes 8 seconds 331 msec
