                         Program Version 5.0.0 -  RELEASE  -
|  1> !PBE0 D3BJ RIJCOSX def2-SVP def2/J TightSCF
|  2> *xyz 0 1
|  3> C          1.96337       -1.74915       -1.89689
|  4> C          2.73849       -2.01517       -3.09711
|  5> C          4.04974       -2.15472       -3.15204
|  6> N          4.65821       -1.98629       -4.31866
|  7> N          4.76423       -2.45444       -2.05049
|  8> H          4.28736       -2.77626       -1.21750
|  9> H          5.75082       -2.65835       -2.12599
| 10> H          2.34518       -1.69027       -3.97145
| 11> H          4.10900       -1.59268       -5.07176
| 12> H          5.64910       -2.15646       -4.42724
| 13> C          2.08852       -0.30091       -1.41520
| 14> H          2.23127       -2.45162       -1.10264
| 15> H          0.93025       -1.97780       -2.15544
| 16> H          1.82118        0.36368       -2.21003
| 17> H          3.09792       -0.11068       -1.11551
| 18> H          1.43391       -0.14382       -0.58352
| 19> *
| 20> %MaxCore 64000
| 21>
| 22> %pal nprocs 4
| 23> end
| 24>
| 25> %scf
| 26>   MaxIter 150
| 27> end
| 28>
| 29>
| 30>                          ****END OF INPUT****

CARTESIAN COORDINATES (ANGSTROEM)
---------------------------------
  C      1.963370   -1.749150   -1.896890
  C      2.738490   -2.015170   -3.097110
  C      4.049740   -2.154720   -3.152040
  N      4.658210   -1.986290   -4.318660
  N      4.764230   -2.454440   -2.050490
  H      4.287360   -2.776260   -1.217500
  H      5.750820   -2.658350   -2.125990
  H      2.345180   -1.690270   -3.971450
  H      4.109000   -1.592680   -5.071760
  H      5.649100   -2.156460   -4.427240
  C      2.088520   -0.300910   -1.415200
  H      2.231270   -2.451620   -1.102640
  H      0.930250   -1.977800   -2.155440
  H      1.821180    0.363680   -2.210030
  H      3.097920   -0.110680   -1.115510
  H      1.433910   -0.143820   -0.583520

 Total Charge           Charge          ....    0
 Multiplicity           Mult            ....    1
 Number of Electrons    NEL             ....   48
 Basis Dimension        Dim             ....  134

ORBITAL ENERGIES
----------------

  NO   OCC          E(Eh)            E(eV)
   0   2.0000     -14.388059      -391.5190
   1   2.0000     -14.385446      -391.4479
   2   2.0000     -10.266248      -279.3588
   3   2.0000     -10.200231      -277.5624
   4   2.0000     -10.191122      -277.3145
   5   2.0000     -10.141035      -275.9516
   6   2.0000      -0.970089       -26.3975
   7   2.0000      -0.878983       -23.9184
   8   2.0000      -0.782017       -21.2798
   9   2.0000      -0.701339       -19.0844
  10   2.0000      -0.624128       -16.9834
  11   2.0000      -0.587394       -15.9838
  12   2.0000      -0.551199       -14.9989
  13   2.0000      -0.516806       -14.0630
  14   2.0000      -0.481152       -13.0928
  15   2.0000      -0.445428       -12.1207
  16   2.0000      -0.426104       -11.5949
  17   2.0000      -0.391129       -10.6432
  18   2.0000      -0.385994       -10.5034
  19   2.0000      -0.361795        -9.8449
  20   2.0000      -0.332563        -9.0495
  21   2.0000      -0.321870        -8.7585
  22   2.0000      -0.268697        -7.3116
  23   2.0000      -0.158087        -4.3018
  24   0.0000       0.054911         1.4942
  25   0.0000       0.086719         2.3597
  26   0.0000       0.096131         2.6158
  27   0.0000       0.113291         3.0828
  28   0.0000       0.121066         3.2944

MULLIKEN ATOMIC CHARGES
-----------------------
   0 C :   -0.034016
   1 C :   -0.178915
   2 C :   -0.012081
   3 N :   -0.110111
   4 N :   -0.140001
   5 H :    0.131940
   6 H :    0.113143
   7 H :   -0.079099
   8 H :    0.134800
   9 H :    0.112765
  10 C :   -0.005546
  11 H :   -0.001077
  12 H :    0.015945
  13 H :    0.016977
  14 H :    0.020950
  15 H :    0.014326
Sum of atomic charges:    0.0000000

LOEWDIN ATOMIC CHARGES
----------------------
   0 C :   -0.049698
   1 C :   -0.234043
   2 C :    0.026948
   3 N :   -0.024699
   4 N :   -0.034061
   5 H :    0.081078
   6 H :    0.066756
   7 H :   -0.009385
   8 H :    0.085615
   9 H :    0.067232
  10 C :   -0.064617
  11 H :    0.010746
  12 H :    0.026353
  13 H :    0.019781
  14 H :    0.017980
  15 H :    0.014014

  Mayer bond orders larger than 0.100000
B(  0-C ,  1-C ) :   1.0968 B(  0-C , 10-C ) :   1.0710 B(  0-C , 11-H ) :   0.9393
B(  0-C , 12-H ) :   0.9299 B(  1-C ,  2-C ) :   1.6870 B(  1-C ,  7-H ) :   0.9317
B(  2-C ,  3-N ) :   1.2376 B(  2-C ,  4-N ) :   1.2322 B(  3-N ,  8-H ) :   0.9346
B(  3-N ,  9-H ) :   0.9492 B(  4-N ,  5-H ) :   0.9411 B(  4-N ,  6-H ) :   0.9499
B( 10-C , 13-H ) :   0.9696 B( 10-C , 14-H ) :   0.9736 B( 10-C , 15-H ) :   0.9655

Dispersion correction           -0.010898923
FINAL SINGLE POINT ENERGY      -267.407180904488

DIPOLE MOMENT
-------------
                                X             Y             Z
Electronic contribution:      3.48544      -2.47755      -2.56098
Nuclear contribution   :     -2.31778       2.31977       2.35294
                        -----------------------------------------
Total Dipole Moment    :      1.16766      -0.15778      -0.20804
                        -----------------------------------------
Magnitude (a.u.)       :      1.19650
Magnitude (Debye)      :      3.04126

Rotational constants in cm-1:     0.219415     0.075373     0.066689
Rotational constants in MHz :  6577.897266  2259.621393  1999.290981

                             ****ORCA TERMINATED NORMALLY****
TOTAL RUN TIME: 0 days 0 hours 0 minutes 11 seconds 416 msec
