                         Program Version 5.0.0 -  RELEASE  -
|  1> !PBE0 D3BJ RIJCOSX def2-SVP def2/J TightSCF
|  2> *xyz 0 1
|  3> C          0.61188        1.65763       -4.50029
|  4> C          1.69499        1.54179       -5.57045
|  5> H          2.69733        1.73466       -5.18400
|  6> H          1.50666        2.27224       -6.35808
|  7> S          1.78029       -0.03313       -6.42874
|  8> O          2.56929        0.21366       -7.60736
|  9> F          0.41688       -0.46297       -6.61859
| 10> O          2.50513       -0.93326       -5.48257
| 11> H         -0.34424        1.45871       -4.93752
| 12> H          0.61845        2.64655       -4.09174
| 13> H          0.80247        0.94882       -3.72173
| 14> *
| 15> %MaxCore 64000
| 16>
| 17> %pal nprocs 4
| 18> end
| 19>
| 20> %scf
| 21>   MaxIter 150
| 22> end
| 23>
| 24>
| 25>                          ****END OF INPUT****

CARTESIAN COORDINATES (ANGSTROEM)
---------------------------------
  C      0.611880    1.657630   -4.500290
  C      1.694990    1.541790   -5.570450
  H      2.697330    1.734660   -5.184000
  H      1.506660    2.272240   -6.358080
  S      1.780290   -0.033130   -6.428740
  O      2.569290    0.213660   -7.607360
  F      0.416880   -0.462970   -6.618590
  O      2.505130   -0.933260   -5.482570
  H     -0.344240    1.458710   -4.937520
  H      0.618450    2.646550   -4.091740
  H      0.802470    0.948820   -3.721730

 Total Charge           Charge          ....    0
 Multiplicity           Mult            ....    1
 Number of Electrons    NEL             ....   58
 Basis Dimension        Dim             ....  113

ORBITAL ENERGIES
----------------

  NO   OCC          E(Eh)            E(eV)
   0   2.0000     -89.272137     -2429.2183
   1   2.0000     -24.889764      -677.2849
   2   2.0000     -19.215139      -522.8705
   3   2.0000     -19.194435      -522.3071
   4   2.0000     -10.291021      -280.0329
   5   2.0000     -10.257506      -279.1209
   6   2.0000      -8.241429      -224.2607
   7   2.0000      -6.187176      -168.3616
   8   2.0000      -6.180490      -168.1797
   9   2.0000      -6.179361      -168.1490
  10   2.0000      -1.403307       -38.1859
  11   2.0000      -1.125867       -30.6364
  12   2.0000      -1.012647       -27.5555
  13   2.0000      -0.844269       -22.9737
  14   2.0000      -0.749161       -20.3857
  15   2.0000      -0.696996       -18.9662
  16   2.0000      -0.613942       -16.7062
  17   2.0000      -0.600798       -16.3486
  18   2.0000      -0.556259       -15.1366
  19   2.0000      -0.508983       -13.8501
  20   2.0000      -0.488836       -13.3019
  21   2.0000      -0.462442       -12.5837
  22   2.0000      -0.445179       -12.1139
  23   2.0000      -0.424623       -11.5546
  24   2.0000      -0.406816       -11.0700
  25   2.0000      -0.387705       -10.5500
  26   2.0000      -0.338774        -9.2185
  27   2.0000      -0.319140        -8.6842
  28   2.0000      -0.303858        -8.2684
  29   0.0000       0.032211         0.8765
  30   0.0000       0.065381         1.7791
  31   0.0000       0.086164         2.3446
  32   0.0000       0.098982         2.6934
  33   0.0000       0.107290         2.9195

MULLIKEN ATOMIC CHARGES
-----------------------
   0 C :   -0.059055
   1 C :   -0.189342
   2 H :    0.119713
   3 H :    0.089130
   4 S :    0.961605
   5 O :   -0.435217
   6 F :   -0.176879
   7 O :   -0.497546
   8 H :    0.051913
   9 H :    0.065044
  10 H :    0.070634
Sum of atomic charges:    0.0000000

LOEWDIN ATOMIC CHARGES
----------------------
   0 C :   -0.070498
   1 C :   -0.156910
   2 H :    0.058449
   3 H :    0.037909
   4 S :    1.151084
   5 O :   -0.473688
   6 F :   -0.115879
   7 O :   -0.537599
   8 H :    0.028924
   9 H :    0.041551
  10 H :    0.036657

  Mayer bond orders larger than 0.100000
B(  0-C ,  1-C ) :   1.0431 B(  0-C ,  8-H ) :   0.9728 B(  0-C ,  9-H ) :   0.9626
B(  0-C , 10-H ) :   0.9700 B(  1-C ,  2-H ) :   0.9330 B(  1-C ,  3-H ) :   0.9322
B(  1-C ,  4-S ) :   0.9235 B(  4-S ,  5-O ) :   1.7825 B(  4-S ,  6-F ) :   1.0124
B(  4-S ,  7-O ) :   1.7231

Dispersion correction           -0.007835120
FINAL SINGLE POINT ENERGY      -726.748496131569

DIPOLE MOMENT
-------------
                                X             Y             Z
Electronic contribution:      0.24765      -6.80609      -5.88747
Nuclear contribution   :     -1.42658       8.04056       6.39401
                        -----------------------------------------
Total Dipole Moment    :     -1.17893       1.23447       0.50655
                        -----------------------------------------
Magnitude (a.u.)       :      1.78056
Magnitude (Debye)      :      4.52582

Rotational constants in cm-1:     0.153659     0.082363     0.078978
Rotational constants in MHz :  4606.587369  2469.179541  2367.702074

                             ****ORCA TERMINATED NORMALLY****
TOTAL RUN TIME: 0 days 0 hours 0 minutes 8 seconds 243 msec
