                         Program Version 5.0.0 -  RELEASE  -
|  1> !PBE0 D3BJ RIJCOSX def2-SVP def2/J TightSCF
|  2> *xyz 0 1
|  3> C          1.96337       -1.74915       -1.89689
|  4> N          2.73849       -2.01517       -3.09711
|  5> C          4.04974       -2.15472       -3.15204
|  6> C          4.65821       -1.98629       -4.31866
|  7> N          4.76423       -2.45444       -2.05049
|  8> H          4.28736       -2.77626       -1.21750
|  9> H          5.75082       -2.65835       -2.12599
| 10> H          2.34518       -1.69027       -3.97145
| 11> H          4.10900       -1.59268       -5.07176
| 12> H          5.64910       -2.15646       -4.42724
| 13> C          2.08852       -0.30091       -1.41520
| 14> H          2.23127       -2.45162       -1.10264
| 15> H          0.93025       -1.97780       -2.15544
| 16> H          1.82118        0.36368       -2.21003
| 17> H          3.09792       -0.11068       -1.11551
| 18> H          1.43391       -0.14382       -0.58352
| 19> *
| 20> %MaxCore 64000
| 21>
| 22> %pal nprocs 4
| 23> end
| 24>
| 25> %scf
| 26>   MaxIter 150
| 27> end
| 28>
| 29>
| 30>                          ****END OF INPUT****

CARTESIAN COORDINATES (ANGSTROEM)
---------------------------------
  C      1.963370   -1.749150   -1.896890
  N      2.738490   -2.015170   -3.097110
  C      4.049740   -2.154720   -3.152040
  C      4.658210   -1.986290   -4.318660
  N      4.764230   -2.454440   -2.050490
  H      4.287360   -2.776260   -1.217500
  H      5.750820   -2.658350   -2.125990
  H      2.345180   -1.690270   -3.971450
  H      4.109000   -1.592680   -5.071760
  H      5.649100   -2.156460   -4.427240
  C      2.088520   -0.300910   -1.415200
  H      2.231270   -2.451620   -1.102640
  H      0.930250   -1.977800   -2.155440
  H      1.821180    0.363680   -2.210030
  H      3.097920   -0.110680   -1.115510
  H      1.433910   -0.143820   -0.583520

 Total Charge           Charge          ....    0
 Multiplicity           Mult            ....    1
 Number of Electrons    NEL             ....   48
 Basis Dimension        Dim             ....  134

ORBITAL ENERGIES
----------------

  NO   OCC          E(Eh)            E(eV)
   0   2.0000     -14.386859      -391.4863
   1   2.0000     -14.386750      -391.4834
   2   2.0000     -10.269311      -279.4422
   3   2.0000     -10.267745      -279.3995
   4   2.0000     -10.219067      -278.0750
   5   2.0000     -10.137596      -275.8580
   6   2.0000      -0.980818       -26.6894
   7   2.0000      -0.893181       -24.3047
   8   2.0000      -0.783165       -21.3110
   9   2.0000      -0.710730       -19.3399
  10   2.0000      -0.639700       -17.4071
  11   2.0000      -0.608257       -16.5515
  12   2.0000      -0.544864       -14.8265
  13   2.0000      -0.505922       -13.7668
  14   2.0000      -0.488899       -13.3036
  15   2.0000      -0.447291       -12.1714
  16   2.0000      -0.442268       -12.0347
  17   2.0000      -0.409983       -11.1562
  18   2.0000      -0.389709       -10.6045
  19   2.0000      -0.382867       -10.4183
  20   2.0000      -0.367451        -9.9988
  21   2.0000      -0.364286        -9.9127
  22   2.0000      -0.258216        -7.0264
  23   2.0000      -0.164278        -4.4702
  24   0.0000       0.053642         1.4597
  25   0.0000       0.081846         2.2271
  26   0.0000       0.096186         2.6174
  27   0.0000       0.108022         2.9394
  28   0.0000       0.119282         3.2458

MULLIKEN ATOMIC CHARGES
-----------------------
   0 C :    0.007490
   1 N :   -0.185603
   2 C :   -0.003634
   3 C :   -0.104777
   4 N :   -0.147361
   5 H :    0.113856
   6 H :    0.133187
   7 H :    0.131722
   8 H :   -0.043860
   9 H :   -0.042539
  10 C :   -0.035595
  11 H :    0.032672
  12 H :    0.037117
  13 H :    0.034217
  14 H :    0.042538
  15 H :    0.030570
Sum of atomic charges:    0.0000000

LOEWDIN ATOMIC CHARGES
----------------------
   0 C :    0.020452
   1 N :   -0.030148
   2 C :    0.031894
   3 C :   -0.259322
   4 N :   -0.033288
   5 H :    0.064532
   6 H :    0.084794
   7 H :    0.085341
   8 H :   -0.007081
   9 H :   -0.006474
  10 C :   -0.074335
  11 H :    0.019266
  12 H :    0.027309
  13 H :    0.025313
  14 H :    0.026994
  15 H :    0.024753

  Mayer bond orders larger than 0.100000
B(  0-C ,  1-N ) :   1.0186 B(  0-C , 10-C ) :   1.0671 B(  0-C , 11-H ) :   0.9543
B(  0-C , 12-H ) :   0.9573 B(  1-N ,  2-C ) :   1.2000 B(  1-N ,  7-H ) :   0.9223
B(  2-C ,  3-C ) :   1.7460 B(  2-C ,  4-N ) :   1.2053 B(  3-C ,  8-H ) :   0.9328
B(  3-C ,  9-H ) :   0.9469 B(  4-N ,  5-H ) :   0.9492 B(  4-N ,  6-H ) :   0.9439
B( 10-C , 13-H ) :   0.9701 B( 10-C , 14-H ) :   0.9676 B( 10-C , 15-H ) :   0.9639

Dispersion correction           -0.010812887
FINAL SINGLE POINT ENERGY      -267.403001043031

DIPOLE MOMENT
-------------
                                X             Y             Z
Electronic contribution:      1.43176      -2.38024      -1.17237
Nuclear contribution   :     -1.91052       2.32590       2.09379
                        -----------------------------------------
Total Dipole Moment    :     -0.47877      -0.05435       0.92143
                        -----------------------------------------
Magnitude (a.u.)       :      1.03981
Magnitude (Debye)      :      2.64298

Rotational constants in cm-1:     0.219448     0.077923     0.068804
Rotational constants in MHz :  6578.886179  2336.083179  2062.700476

                             ****ORCA TERMINATED NORMALLY****
TOTAL RUN TIME: 0 days 0 hours 0 minutes 10 seconds 960 msec
