                         Program Version 5.0.0 -  RELEASE  -
|  1> !PBE0 D3BJ RIJCOSX def2-SVP def2/J TightSCF
|  2> *xyz 0 1
|  3> C          0.61188        1.65763       -4.50029
|  4> C          1.69499        1.54179       -5.57045
|  5> H          2.69733        1.73466       -5.18400
|  6> H          1.50666        2.27224       -6.35808
|  7> S          1.78029       -0.03313       -6.42874
|  8> O          2.56929        0.21366       -7.60736
|  9> O          0.41688       -0.46297       -6.61859
| 10> F          2.50513       -0.93326       -5.48257
| 11> H         -0.34424        1.45871       -4.93752
| 12> H          0.61845        2.64655       -4.09174
| 13> H          0.80247        0.94882       -3.72173
| 14> *
| 15> %MaxCore 64000
| 16>
| 17> %pal nprocs 4
| 18> end
| 19>
| 20> %scf
| 21>   MaxIter 150
| 22> end
| 23>
| 24>
| 25>                          ****END OF INPUT****

CARTESIAN COORDINATES (ANGSTROEM)
---------------------------------
  C      0.611880    1.657630   -4.500290
  C      1.694990    1.541790   -5.570450
  H      2.697330    1.734660   -5.184000
  H      1.506660    2.272240   -6.358080
  S      1.780290   -0.033130   -6.428740
  O      2.569290    0.213660   -7.607360
  O      0.416880   -0.462970   -6.618590
  F      2.505130   -0.933260   -5.482570
  H     -0.344240    1.458710   -4.937520
  H      0.618450    2.646550   -4.091740
  H      0.802470    0.948820   -3.721730

 Total Charge           Charge          ....    0
 Multiplicity           Mult            ....    1
 Number of Electrons    NEL             ....   58
 Basis Dimension        Dim             ....  113

ORBITAL ENERGIES
----------------

  NO   OCC          E(Eh)            E(eV)
   0   2.0000     -89.271099     -2429.1901
   1   2.0000     -24.861239      -676.5087
   2   2.0000     -19.216856      -522.9172
   3   2.0000     -19.215302      -522.8749
   4   2.0000     -10.290068      -280.0070
   5   2.0000     -10.252452      -278.9834
   6   2.0000      -8.240127      -224.2252
   7   2.0000      -6.185468      -168.3151
   8   2.0000      -6.179621      -168.1560
   9   2.0000      -6.178381      -168.1223
  10   2.0000      -1.357711       -36.9452
  11   2.0000      -1.138476       -30.9795
  12   2.0000      -1.043515       -28.3955
  13   2.0000      -0.840748       -22.8779
  14   2.0000      -0.734101       -19.9759
  15   2.0000      -0.683364       -18.5953
  16   2.0000      -0.588594       -16.0165
  17   2.0000      -0.568909       -15.4808
  18   2.0000      -0.557526       -15.1710
  19   2.0000      -0.506180       -13.7738
  20   2.0000      -0.490581       -13.3494
  21   2.0000      -0.466776       -12.7016
  22   2.0000      -0.444579       -12.0976
  23   2.0000      -0.417689       -11.3659
  24   2.0000      -0.412543       -11.2259
  25   2.0000      -0.391097       -10.6423
  26   2.0000      -0.347323        -9.4511
  27   2.0000      -0.339234        -9.2310
  28   2.0000      -0.327013        -8.8985
  29   0.0000       0.040037         1.0895
  30   0.0000       0.064176         1.7463
  31   0.0000       0.090821         2.4714
  32   0.0000       0.096739         2.6324
  33   0.0000       0.107364         2.9215

MULLIKEN ATOMIC CHARGES
-----------------------
   0 C :   -0.048387
   1 C :   -0.201382
   2 H :    0.090218
   3 H :    0.112112
   4 S :    0.977250
   5 O :   -0.443869
   6 O :   -0.446488
   7 F :   -0.228481
   8 H :    0.075205
   9 H :    0.059317
  10 H :    0.054504
Sum of atomic charges:   -0.0000000

LOEWDIN ATOMIC CHARGES
----------------------
   0 C :   -0.066873
   1 C :   -0.162855
   2 H :    0.039150
   3 H :    0.053968
   4 S :    1.158765
   5 O :   -0.480183
   6 O :   -0.480379
   7 F :   -0.171036
   8 H :    0.038494
   9 H :    0.039242
  10 H :    0.031708

  Mayer bond orders larger than 0.100000
B(  0-C ,  1-C ) :   1.0467 B(  0-C ,  8-H ) :   0.9671 B(  0-C ,  9-H ) :   0.9616
B(  0-C , 10-H ) :   0.9740 B(  1-C ,  2-H ) :   0.9324 B(  1-C ,  3-H ) :   0.9341
B(  1-C ,  4-S ) :   0.9171 B(  4-S ,  5-O ) :   1.7885 B(  4-S ,  6-O ) :   1.7813
B(  4-S ,  7-F ) :   0.9570

Dispersion correction           -0.007854096
FINAL SINGLE POINT ENERGY      -726.774390844205

DIPOLE MOMENT
-------------
                                X             Y             Z
Electronic contribution:      3.78703      -7.63049      -3.96330
Nuclear contribution   :     -3.60260       8.53062       5.21025
                        -----------------------------------------
Total Dipole Moment    :      0.18443       0.90012       1.24694
                        -----------------------------------------
Magnitude (a.u.)       :      1.54890
Magnitude (Debye)      :      3.93700

Rotational constants in cm-1:     0.154011     0.080858     0.079602
Rotational constants in MHz :  4617.134198  2424.070332  2386.404775

                             ****ORCA TERMINATED NORMALLY****
TOTAL RUN TIME: 0 days 0 hours 0 minutes 7 seconds 954 msec
