                         Program Version 5.0.0 -  RELEASE  -
|  1> !PBE0 D3BJ RIJCOSX def2-SVP def2/J TightSCF
|  2> *xyz 0 1
|  3> C          1.96337       -1.74915       -1.89689
|  4> N          2.73849       -2.01517       -3.09711
|  5> C          4.04974       -2.15472       -3.15204
|  6> N          4.65821       -1.98629       -4.31866
|  7> C          4.76423       -2.45444       -2.05049
|  8> H          4.28736       -2.77626       -1.21750
|  9> H          5.75082       -2.65835       -2.12599
| 10> H          2.34518       -1.69027       -3.97145
| 11> H          4.10900       -1.59268       -5.07176
| 12> H          5.64910       -2.15646       -4.42724
| 13> C          2.08852       -0.30091       -1.41520
| 14> H          2.23127       -2.45162       -1.10264
| 15> H          0.93025       -1.97780       -2.15544
| 16> H          1.82118        0.36368       -2.21003
| 17> H          3.09792       -0.11068       -1.11551
| 18> H          1.43391       -0.14382       -0.58352
| 19> *
| 20> %MaxCore 64000
| 21>
| 22> %pal nprocs 4
| 23> end
| 24>
| 25> %scf
| 26>   MaxIter 150
| 27> end
| 28>
| 29>
| 30>                          ****END OF INPUT****

CARTESIAN COORDINATES (ANGSTROEM)
---------------------------------
  C      1.963370   -1.749150   -1.896890
  N      2.738490   -2.015170   -3.097110
  C      4.049740   -2.154720   -3.152040
  N      4.658210   -1.986290   -4.318660
  C      4.764230   -2.454440   -2.050490
  H      4.287360   -2.776260   -1.217500
  H      5.750820   -2.658350   -2.125990
  H      2.345180   -1.690270   -3.971450
  H      4.109000   -1.592680   -5.071760
  H      5.649100   -2.156460   -4.427240
  C      2.088520   -0.300910   -1.415200
  H      2.231270   -2.451620   -1.102640
  H      0.930250   -1.977800   -2.155440
  H      1.821180    0.363680   -2.210030
  H      3.097920   -0.110680   -1.115510
  H      1.433910   -0.143820   -0.583520

 Total Charge           Charge          ....    0
 Multiplicity           Mult            ....    1
 Number of Electrons    NEL             ....   48
 Basis Dimension        Dim             ....  134

ORBITAL ENERGIES
----------------

  NO   OCC          E(Eh)            E(eV)
   0   2.0000     -14.390783      -391.5931
   1   2.0000     -14.388982      -391.5441
   2   2.0000     -10.269540      -279.4484
   3   2.0000     -10.261794      -279.2376
   4   2.0000     -10.211591      -277.8715
   5   2.0000     -10.136125      -275.8180
   6   2.0000      -0.986483       -26.8436
   7   2.0000      -0.897471       -24.4214
   8   2.0000      -0.765586       -20.8327
   9   2.0000      -0.714425       -19.4405
  10   2.0000      -0.653155       -17.7732
  11   2.0000      -0.570538       -15.5251
  12   2.0000      -0.557061       -15.1584
  13   2.0000      -0.532735       -14.4965
  14   2.0000      -0.477919       -13.0048
  15   2.0000      -0.448598       -12.2070
  16   2.0000      -0.427077       -11.6214
  17   2.0000      -0.405176       -11.0254
  18   2.0000      -0.387568       -10.5463
  19   2.0000      -0.373089       -10.1523
  20   2.0000      -0.369865       -10.0645
  21   2.0000      -0.354329        -9.6418
  22   2.0000      -0.256259        -6.9732
  23   2.0000      -0.163870        -4.4591
  24   0.0000       0.052442         1.4270
  25   0.0000       0.085169         2.3176
  26   0.0000       0.100373         2.7313
  27   0.0000       0.106118         2.8876
  28   0.0000       0.127528         3.4702

MULLIKEN ATOMIC CHARGES
-----------------------
   0 C :    0.035153
   1 N :   -0.204503
   2 C :    0.002990
   3 N :   -0.126506
   4 C :   -0.131937
   5 H :   -0.031973
   6 H :   -0.046640
   7 H :    0.106506
   8 H :    0.109941
   9 H :    0.138928
  10 C :   -0.041119
  11 H :    0.055353
  12 H :    0.030158
  13 H :    0.019766
  14 H :    0.052540
  15 H :    0.031342
Sum of atomic charges:    0.0000000

LOEWDIN ATOMIC CHARGES
----------------------
   0 C :    0.034659
   1 N :   -0.029221
   2 C :    0.029853
   3 N :   -0.022159
   4 C :   -0.274440
   5 H :   -0.006170
   6 H :   -0.008297
   7 H :    0.063795
   8 H :    0.064559
   9 H :    0.087598
  10 C :   -0.072168
  11 H :    0.032117
  12 H :    0.023664
  13 H :    0.018879
  14 H :    0.031618
  15 H :    0.025713

  Mayer bond orders larger than 0.100000
B(  0-C ,  1-N ) :   1.0030 B(  0-C , 10-C ) :   1.0876 B(  0-C , 11-H ) :   0.9472
B(  0-C , 12-H ) :   0.9592 B(  1-N ,  2-C ) :   1.1753 B(  1-N ,  7-H ) :   0.9350
B(  2-C ,  3-N ) :   1.2283 B(  2-C ,  4-C ) :   1.7352 B(  3-N ,  8-H ) :   0.9498
B(  3-N ,  9-H ) :   0.9414 B(  4-C ,  5-H ) :   0.9400 B(  4-C ,  6-H ) :   0.9433
B( 10-C , 13-H ) :   0.9697 B( 10-C , 14-H ) :   0.9651 B( 10-C , 15-H ) :   0.9659

Dispersion correction           -0.010869444
FINAL SINGLE POINT ENERGY      -267.401562253143

DIPOLE MOMENT
-------------
                                X             Y             Z
Electronic contribution:      1.34406      -1.81385      -3.55269
Nuclear contribution   :     -1.88803       2.22658       2.57497
                        -----------------------------------------
Total Dipole Moment    :     -0.54397       0.41273      -0.97772
                        -----------------------------------------
Magnitude (a.u.)       :      1.19255
Magnitude (Debye)      :      3.03123

Rotational constants in cm-1:     0.226509     0.075782     0.067928
Rotational constants in MHz :  6790.555051  2271.890226  2036.439218

                             ****ORCA TERMINATED NORMALLY****
TOTAL RUN TIME: 0 days 0 hours 0 minutes 11 seconds 460 msec
