                         Program Version 5.0.0 -  RELEASE  -
|  1> !PBE0 D3BJ RIJCOSX def2-TZVP def2/J TightSCF xyzfile
|  2>
|  3> *xyzfile 0 1 D1.xyz
|  4>
|  5> %MaxCore 64000
|  6>
|  7> %pal nprocs 18
|  8> end
|  9>
| 10> %scf
| 11>   MaxIter 150
| 12> end
| 13>
| 14>
| 15>                          ****END OF INPUT****

CARTESIAN COORDINATES (ANGSTROEM)
---------------------------------
  C      1.963365   -1.749150   -1.896887
  C      2.738490   -2.015170   -3.097113
  C      0.611877    1.657634   -4.500288
  C      1.694991    1.541794   -5.570447
  H      2.697326    1.734659   -5.183996
  H      1.506656    2.272239   -6.358076
  S      1.780287   -0.033128   -6.428739
  C      4.049736   -2.154717   -3.152044
  N      4.658206   -1.986293   -4.318655
  N      4.764231   -2.454435   -2.050491
  H      4.287363   -2.776259   -1.217496
  H      5.750825   -2.658351   -2.125988
  H      2.345176   -1.690274   -3.971447
  H      4.109004   -1.592677   -5.071760
  H      5.649095   -2.156462   -4.427237
  F      2.569287    0.213657   -7.607360
  O      0.416880   -0.462969   -6.618595
  C      2.088520   -0.300912   -1.415204
  H      2.231272   -2.451616   -1.102643
  H      0.930249   -1.977801   -2.155438
  C      0.680356    0.655418   -3.348038
  H     -0.356865    1.549231   -4.991128
  H      0.650228    2.675438   -4.096000
  C      1.968993    0.733582   -2.535654
  H      3.051356   -0.168602   -0.911868
  H      1.316501   -0.136231   -0.657252
  O      2.505129   -0.933263   -5.482570
  H      2.824195    0.624726   -3.208464
  H      2.058919    1.730331   -2.093112
  H      0.542252   -0.344731   -3.766662
  H     -0.174219    0.829692   -2.685182

 Total Charge           Charge          ....    0
 Multiplicity           Mult            ....    1
 Number of Electrons    NEL             ....  120
 Basis Dimension        Dim             ....  542

ORBITAL ENERGIES
----------------

  NO   OCC          E(Eh)            E(eV)
   0   2.0000     -89.270231     -2429.1665
   1   2.0000     -24.901766      -677.6115
   2   2.0000     -19.228336      -523.2296
   3   2.0000     -19.215644      -522.8842
   4   2.0000     -14.364178      -390.8692
   5   2.0000     -14.349122      -390.4594
   6   2.0000     -10.283652      -279.8324
   7   2.0000     -10.244674      -278.7718
   8   2.0000     -10.238127      -278.5936
   9   2.0000     -10.212855      -277.9059
  10   2.0000     -10.201323      -277.5921
  11   2.0000     -10.190979      -277.3106
  12   2.0000     -10.179152      -276.9888
  13   2.0000     -10.105590      -274.9871
  14   2.0000      -8.216857      -223.5921
  15   2.0000      -6.157112      -167.5435
  16   2.0000      -6.150802      -167.3718
  17   2.0000      -6.150700      -167.3691
  18   2.0000      -1.427058       -38.8322
  19   2.0000      -1.142344       -31.0848
  20   2.0000      -1.044270       -28.4160
  21   2.0000      -0.962891       -26.2016
  22   2.0000      -0.872928       -23.7536
  23   2.0000      -0.858266       -23.3546
  24   2.0000      -0.812865       -22.1192
  25   2.0000      -0.776261       -21.1231
  26   2.0000      -0.745964       -20.2987
  27   2.0000      -0.710786       -19.3415
  28   2.0000      -0.671322       -18.2676
  29   2.0000      -0.636682       -17.3250
  30   2.0000      -0.620108       -16.8740
  31   2.0000      -0.604685       -16.4543
  32   2.0000      -0.603334       -16.4175
  33   2.0000      -0.567077       -15.4309
  34   2.0000      -0.563705       -15.3392
  35   2.0000      -0.538435       -14.6516
  36   2.0000      -0.512449       -13.9444
  37   2.0000      -0.505652       -13.7595
  38   2.0000      -0.499357       -13.5882
  39   2.0000      -0.480181       -13.0664
  40   2.0000      -0.476165       -12.9571
  41   2.0000      -0.456616       -12.4252
  42   2.0000      -0.445604       -12.1255
  43   2.0000      -0.437162       -11.8958
  44   2.0000      -0.424960       -11.5637
  45   2.0000      -0.412000       -11.2111
  46   2.0000      -0.394723       -10.7410
  47   2.0000      -0.389184       -10.5902
  48   2.0000      -0.379558       -10.3283
  49   2.0000      -0.371580       -10.1112
  50   2.0000      -0.361243        -9.8299
  51   2.0000      -0.345721        -9.4075
  52   2.0000      -0.340432        -9.2636
  53   2.0000      -0.334662        -9.1066
  54   2.0000      -0.332153        -9.0383
  55   2.0000      -0.321195        -8.7402
  56   2.0000      -0.307272        -8.3613
  57   2.0000      -0.294109        -8.0031
  58   2.0000      -0.254286        -6.9195
  59   2.0000      -0.144762        -3.9392
  60   0.0000       0.023150         0.6299
  61   0.0000       0.031277         0.8511
  62   0.0000       0.045015         1.2249
  63   0.0000       0.062339         1.6963
  64   0.0000       0.064073         1.7435

MULLIKEN ATOMIC CHARGES
-----------------------
   0 C :   -0.285500
   1 C :   -0.291049
   2 C :   -0.157297
   3 C :   -0.303224
   4 H :    0.164009
   5 H :    0.154643
   6 S :    0.829296
   7 C :    0.217173
   8 N :   -0.462431
   9 N :   -0.481442
  10 H :    0.240801
  11 H :    0.214582
  12 H :    0.154882
  13 H :    0.245768
  14 H :    0.206766
  15 F :   -0.087662
  16 O :   -0.383200
  17 C :   -0.113302
  18 H :    0.080245
  19 H :    0.108141
  20 C :   -0.293149
  21 H :    0.135413
  22 H :    0.116960
  23 C :   -0.188256
  24 H :    0.088882
  25 H :    0.076069
  26 O :   -0.457313
  27 H :    0.120912
  28 H :    0.091804
  29 H :    0.153403
  30 H :    0.104075
Sum of atomic charges:   -0.0000000

LOEWDIN ATOMIC CHARGES
----------------------
   0 C :   -0.298248
   1 C :   -0.289422
   2 C :   -0.279320
   3 C :   -0.374268
   4 H :    0.144193
   5 H :    0.140384
   6 S :    0.544181
   7 C :   -0.469313
   8 N :   -0.019037
   9 N :   -0.025716
  10 H :    0.172509
  11 H :    0.156978
  12 H :    0.120697
  13 H :    0.161829
  14 H :    0.154017
  15 F :    0.104355
  16 O :   -0.242120
  17 C :   -0.264394
  18 H :    0.127839
  19 H :    0.141434
  20 C :   -0.268232
  21 H :    0.148078
  22 H :    0.148901
  23 C :   -0.273522
  24 H :    0.135487
  25 H :    0.128479
  26 O :   -0.287713
  27 H :    0.140817
  28 H :    0.132405
  29 H :    0.147456
  30 H :    0.141266

  Mayer bond orders larger than 0.100000
B(  0-C ,  1-C ) :   1.0347 B(  0-C , 17-C ) :   0.9702 B(  0-C , 18-H ) :   0.9692
B(  0-C , 19-H ) :   0.9788 B(  1-C ,  7-C ) :   1.6963 B(  1-C , 12-H ) :   0.9925
B(  2-C ,  3-C ) :   0.9966 B(  2-C , 20-C ) :   1.0095 B(  2-C , 21-H ) :   0.9530
B(  2-C , 22-H ) :   0.9395 B(  3-C ,  4-H ) :   0.9345 B(  3-C ,  5-H ) :   0.9315
B(  3-C ,  6-S ) :   0.9235 B(  6-S , 15-F ) :   1.1591 B(  6-S , 16-O ) :   1.9513
B(  6-S , 26-O ) :   1.7531 B(  7-C ,  8-N ) :   1.2233 B(  7-C ,  9-N ) :   1.1718
B(  8-N , 13-H ) :   0.8725 B(  8-N , 14-H ) :   0.9236 B(  9-N , 10-H ) :   0.9116
B(  9-N , 11-H ) :   0.9208 B( 17-C , 23-C ) :   1.0227 B( 17-C , 24-H ) :   0.9507
B( 17-C , 25-H ) :   0.9588 B( 20-C , 23-C ) :   0.9802 B( 20-C , 29-H ) :   0.9647
B( 20-C , 30-H ) :   0.9560 B( 23-C , 27-H ) :   0.9593 B( 23-C , 28-H ) :   0.9532

Dispersion correction           -0.033191757
FINAL SINGLE POINT ENERGY     -1072.410134660761

DIPOLE MOMENT
-------------
                                X             Y             Z
Electronic contribution:      0.83935      -1.04689     -23.57389
Nuclear contribution   :      0.18720       2.58739      22.98820
                        -----------------------------------------
Total Dipole Moment    :      1.02655       1.54050      -0.58569
                        -----------------------------------------
Magnitude (a.u.)       :      1.94164
Magnitude (Debye)      :      4.93527

Rotational constants in cm-1:     0.028798     0.014448     0.010940
Rotational constants in MHz :   863.355869   433.126694   327.985023

                             ****ORCA TERMINATED NORMALLY****
TOTAL RUN TIME: 0 days 0 hours 0 minutes 58 seconds 434 msec
