                         Program Version 5.0.0 -  RELEASE  -
|  1> !PBE0 D3BJ RIJCOSX def2-TZVP def2/J TightSCF xyzfile
|  2>
|  3> *xyzfile 0 1 D2.xyz
|  4>
|  5> %MaxCore 64000
|  6>
|  7> %pal nprocs 18
|  8> end
|  9>
| 10> %scf
| 11>   MaxIter 150
| 12> end
| 13>
| 14>
| 15>                          ****END OF INPUT****

CARTESIAN COORDINATES (ANGSTROEM)
---------------------------------
  C      1.963365   -1.749150   -1.896887
  N      2.738490   -2.015170   -3.097113
  C      0.611877    1.657634   -4.500288
  C      1.694991    1.541794   -5.570447
  H      2.697326    1.734659   -5.183996
  H      1.506656    2.272239   -6.358076
  S      1.780287   -0.033128   -6.428739
  C      4.049736   -2.154717   -3.152044
  C      4.658206   -1.986293   -4.318655
  N      4.764231   -2.454435   -2.050491
  H      4.287363   -2.776259   -1.217496
  H      5.750825   -2.658351   -2.125988
  H      2.345176   -1.690274   -3.971447
  H      4.109004   -1.592677   -5.071760
  H      5.649095   -2.156462   -4.427237
  F      2.569287    0.213657   -7.607360
  O      0.416880   -0.462969   -6.618595
  C      2.088520   -0.300912   -1.415204
  H      2.231272   -2.451616   -1.102643
  H      0.930249   -1.977801   -2.155438
  C      0.680356    0.655418   -3.348038
  H     -0.356865    1.549231   -4.991128
  H      0.650228    2.675438   -4.096000
  C      1.968993    0.733582   -2.535654
  H      3.051356   -0.168602   -0.911868
  H      1.316501   -0.136231   -0.657252
  O      2.505129   -0.933263   -5.482570
  H      2.824195    0.624726   -3.208464
  H      2.058919    1.730331   -2.093112
  H      0.542252   -0.344731   -3.766662
  H     -0.174219    0.829692   -2.685182

 Total Charge           Charge          ....    0
 Multiplicity           Mult            ....    1
 Number of Electrons    NEL             ....  120
 Basis Dimension        Dim             ....  542

ORBITAL ENERGIES
----------------

  NO   OCC          E(Eh)            E(eV)
   0   2.0000     -89.273525     -2429.2561
   1   2.0000     -24.903728      -677.6649
   2   2.0000     -19.230584      -523.2908
   3   2.0000     -19.215823      -522.8891
   4   2.0000     -14.362066      -390.8117
   5   2.0000     -14.350377      -390.4936
   6   2.0000     -10.287482      -279.9366
   7   2.0000     -10.253075      -279.0004
   8   2.0000     -10.242834      -278.7217
   9   2.0000     -10.238912      -278.6150
  10   2.0000     -10.227506      -278.3046
  11   2.0000     -10.217576      -278.0344
  12   2.0000     -10.212736      -277.9027
  13   2.0000     -10.099175      -274.8125
  14   2.0000      -8.219930      -223.6757
  15   2.0000      -6.159978      -167.6215
  16   2.0000      -6.154010      -167.4591
  17   2.0000      -6.153886      -167.4557
  18   2.0000      -1.428411       -38.8691
  19   2.0000      -1.144573       -31.1454
  20   2.0000      -1.045693       -28.4548
  21   2.0000      -0.971604       -26.4387
  22   2.0000      -0.888610       -24.1803
  23   2.0000      -0.865357       -23.5475
  24   2.0000      -0.815994       -22.2043
  25   2.0000      -0.782109       -21.2823
  26   2.0000      -0.744461       -20.2578
  27   2.0000      -0.717454       -19.5229
  28   2.0000      -0.679455       -18.4889
  29   2.0000      -0.645200       -17.5568
  30   2.0000      -0.622481       -16.9386
  31   2.0000      -0.611627       -16.6432
  32   2.0000      -0.605881       -16.4868
  33   2.0000      -0.582088       -15.8394
  34   2.0000      -0.573891       -15.6164
  35   2.0000      -0.530843       -14.4450
  36   2.0000      -0.516286       -14.0489
  37   2.0000      -0.512836       -13.9550
  38   2.0000      -0.491520       -13.3749
  39   2.0000      -0.488430       -13.2909
  40   2.0000      -0.479206       -13.0399
  41   2.0000      -0.471494       -12.8300
  42   2.0000      -0.453384       -12.3372
  43   2.0000      -0.444483       -12.0950
  44   2.0000      -0.428762       -11.6672
  45   2.0000      -0.413921       -11.2634
  46   2.0000      -0.399481       -10.8704
  47   2.0000      -0.396092       -10.7782
  48   2.0000      -0.384139       -10.4529
  49   2.0000      -0.374856       -10.2003
  50   2.0000      -0.366989        -9.9863
  51   2.0000      -0.365965        -9.9584
  52   2.0000      -0.359301        -9.7771
  53   2.0000      -0.344321        -9.3694
  54   2.0000      -0.340065        -9.2536
  55   2.0000      -0.334213        -9.0944
  56   2.0000      -0.330329        -8.9887
  57   2.0000      -0.315211        -8.5773
  58   2.0000      -0.242693        -6.6040
  59   2.0000      -0.148641        -4.0447
  60   0.0000       0.019919         0.5420
  61   0.0000       0.026690         0.7263
  62   0.0000       0.044588         1.2133
  63   0.0000       0.057271         1.5584
  64   0.0000       0.064006         1.7417

MULLIKEN ATOMIC CHARGES
-----------------------
   0 C :   -0.263154
   1 N :   -0.229798
   2 C :   -0.157940
   3 C :   -0.309224
   4 H :    0.172065
   5 H :    0.156534
   6 S :    0.842885
   7 C :    0.286887
   8 C :   -0.546224
   9 N :   -0.494604
  10 H :    0.219906
  11 H :    0.238229
  12 H :    0.240647
  13 H :    0.129990
  14 H :    0.079895
  15 F :   -0.082499
  16 O :   -0.390103
  17 C :   -0.084990
  18 H :    0.111901
  19 H :    0.137163
  20 C :   -0.285801
  21 H :    0.138185
  22 H :    0.120985
  23 C :   -0.270146
  24 H :    0.104617
  25 H :    0.085986
  26 O :   -0.452951
  27 H :    0.146127
  28 H :    0.102015
  29 H :    0.144321
  30 H :    0.109093
Sum of atomic charges:    0.0000000

LOEWDIN ATOMIC CHARGES
----------------------
   0 C :   -0.305367
   1 N :    0.126924
   2 C :   -0.277845
   3 C :   -0.373214
   4 H :    0.146401
   5 H :    0.141258
   6 S :    0.549547
   7 C :   -0.475180
   8 C :   -0.358314
   9 N :   -0.024055
  10 H :    0.157452
  11 H :    0.172432
  12 H :    0.177815
  13 H :    0.095450
  14 H :    0.089594
  15 F :    0.111519
  16 O :   -0.246648
  17 C :   -0.273916
  18 H :    0.126972
  19 H :    0.134468
  20 C :   -0.272414
  21 H :    0.149114
  22 H :    0.150058
  23 C :   -0.274764
  24 H :    0.139132
  25 H :    0.134324
  26 O :   -0.286108
  27 H :    0.145060
  28 H :    0.136849
  29 H :    0.141531
  30 H :    0.141926

  Mayer bond orders larger than 0.100000
B(  0-C ,  1-N ) :   1.0048 B(  0-C , 17-C ) :   0.9412 B(  0-C , 18-H ) :   0.9751
B(  0-C , 19-H ) :   0.9792 B(  1-N ,  7-C ) :   1.2513 B(  1-N , 12-H ) :   0.8822
B(  2-C ,  3-C ) :   0.9953 B(  2-C , 20-C ) :   1.0124 B(  2-C , 21-H ) :   0.9524
B(  2-C , 22-H ) :   0.9407 B(  3-C ,  4-H ) :   0.9341 B(  3-C ,  5-H ) :   0.9326
B(  3-C ,  6-S ) :   0.9231 B(  6-S , 15-F ) :   1.1714 B(  6-S , 16-O ) :   1.9434
B(  6-S , 26-O ) :   1.7493 B(  7-C ,  8-C ) :   1.6653 B(  7-C ,  9-N ) :   1.1346
B(  8-C , 13-H ) :   0.9725 B(  8-C , 14-H ) :   0.9903 B(  9-N , 10-H ) :   0.9127
B(  9-N , 11-H ) :   0.9199 B( 17-C , 23-C ) :   1.0096 B( 17-C , 24-H ) :   0.9465
B( 17-C , 25-H ) :   0.9536 B( 20-C , 23-C ) :   0.9882 B( 20-C , 29-H ) :   0.9620
B( 20-C , 30-H ) :   0.9555 B( 23-C , 27-H ) :   0.9545 B( 23-C , 28-H ) :   0.9524

Dispersion correction           -0.033028518
FINAL SINGLE POINT ENERGY     -1072.406737742156

DIPOLE MOMENT
-------------
                                X             Y             Z
Electronic contribution:     -0.86608      -0.84903     -22.50290
Nuclear contribution   :      0.43347       2.59110      22.83150
                        -----------------------------------------
Total Dipole Moment    :     -0.43261       1.74207       0.32859
                        -----------------------------------------
Magnitude (a.u.)       :      1.82481
Magnitude (Debye)      :      4.63831

Rotational constants in cm-1:     0.029257     0.014415     0.010996
Rotational constants in MHz :   877.098782   432.159206   329.643335

                             ****ORCA TERMINATED NORMALLY****
TOTAL RUN TIME: 0 days 0 hours 1 minutes 1 seconds 877 msec
