                         Program Version 5.0.0 -  RELEASE  -
|  1> !PBE0 D3BJ RIJCOSX def2-TZVP def2/J TightSCF xyzfile
|  2>
|  3> *xyzfile 0 1 D3.xyz
|  4>
|  5> %MaxCore 64000
|  6>
|  7> %pal nprocs 18
|  8> end
|  9>
| 10> %scf
| 11>   MaxIter 150
| 12> end
| 13>
| 14>
| 15>                          ****END OF INPUT****

CARTESIAN COORDINATES (ANGSTROEM)
---------------------------------
  C      1.963365   -1.749150   -1.896887
  N      2.738490   -2.015170   -3.097113
  C      0.611877    1.657634   -4.500288
  C      1.694991    1.541794   -5.570447
  H      2.697326    1.734659   -5.183996
  H      1.506656    2.272239   -6.358076
  S      1.780287   -0.033128   -6.428739
  C      4.049736   -2.154717   -3.152044
  N      4.658206   -1.986293   -4.318655
  C      4.764231   -2.454435   -2.050491
  H      4.287363   -2.776259   -1.217496
  H      5.750825   -2.658351   -2.125988
  H      2.345176   -1.690274   -3.971447
  H      4.109004   -1.592677   -5.071760
  H      5.649095   -2.156462   -4.427237
  F      2.569287    0.213657   -7.607360
  O      0.416880   -0.462969   -6.618595
  C      2.088520   -0.300912   -1.415204
  H      2.231272   -2.451616   -1.102643
  H      0.930249   -1.977801   -2.155438
  C      0.680356    0.655418   -3.348038
  H     -0.356865    1.549231   -4.991128
  H      0.650228    2.675438   -4.096000
  C      1.968993    0.733582   -2.535654
  H      3.051356   -0.168602   -0.911868
  H      1.316501   -0.136231   -0.657252
  O      2.505129   -0.933263   -5.482570
  H      2.824195    0.624726   -3.208464
  H      2.058919    1.730331   -2.093112
  H      0.542252   -0.344731   -3.766662
  H     -0.174219    0.829692   -2.685182

 Total Charge           Charge          ....    0
 Multiplicity           Mult            ....    1
 Number of Electrons    NEL             ....  120
 Basis Dimension        Dim             ....  542

ORBITAL ENERGIES
----------------

  NO   OCC          E(Eh)            E(eV)
   0   2.0000     -89.290415     -2429.7157
   1   2.0000     -24.918912      -678.0781
   2   2.0000     -19.245580      -523.6989
   3   2.0000     -19.238061      -523.4943
   4   2.0000     -14.351728      -390.5304
   5   2.0000     -14.348986      -390.4558
   6   2.0000     -10.298667      -280.2410
   7   2.0000     -10.259452      -279.1739
   8   2.0000     -10.240233      -278.6509
   9   2.0000     -10.236135      -278.5394
  10   2.0000     -10.230628      -278.3896
  11   2.0000     -10.218397      -278.0567
  12   2.0000     -10.207146      -277.7506
  13   2.0000     -10.107353      -275.0351
  14   2.0000      -8.236766      -224.1338
  15   2.0000      -6.176897      -168.0819
  16   2.0000      -6.170993      -167.9212
  17   2.0000      -6.170523      -167.9085
  18   2.0000      -1.443773       -39.2870
  19   2.0000      -1.161343       -31.6017
  20   2.0000      -1.065087       -28.9825
  21   2.0000      -0.972817       -26.4717
  22   2.0000      -0.887099       -24.1392
  23   2.0000      -0.873136       -23.7592
  24   2.0000      -0.819607       -22.3026
  25   2.0000      -0.783412       -21.3177
  26   2.0000      -0.746222       -20.3057
  27   2.0000      -0.709876       -19.3167
  28   2.0000      -0.698231       -18.9998
  29   2.0000      -0.657182       -17.8828
  30   2.0000      -0.634521       -17.2662
  31   2.0000      -0.622859       -16.9489
  32   2.0000      -0.608442       -16.5565
  33   2.0000      -0.588295       -16.0083
  34   2.0000      -0.555866       -15.1259
  35   2.0000      -0.539027       -14.6677
  36   2.0000      -0.531727       -14.4690
  37   2.0000      -0.521702       -14.1962
  38   2.0000      -0.510882       -13.9018
  39   2.0000      -0.493825       -13.4377
  40   2.0000      -0.477691       -12.9986
  41   2.0000      -0.469324       -12.7710
  42   2.0000      -0.453699       -12.3458
  43   2.0000      -0.438603       -11.9350
  44   2.0000      -0.433960       -11.8087
  45   2.0000      -0.429180       -11.6786
  46   2.0000      -0.402827       -10.9615
  47   2.0000      -0.397935       -10.8284
  48   2.0000      -0.383137       -10.4257
  49   2.0000      -0.379475       -10.3260
  50   2.0000      -0.375455       -10.2167
  51   2.0000      -0.363417        -9.8891
  52   2.0000      -0.361301        -9.8315
  53   2.0000      -0.353639        -9.6230
  54   2.0000      -0.347754        -9.4629
  55   2.0000      -0.340337        -9.2610
  56   2.0000      -0.337307        -9.1786
  57   2.0000      -0.325476        -8.8567
  58   2.0000      -0.235209        -6.4004
  59   2.0000      -0.150266        -4.0889
  60   0.0000       0.006119         0.1665
  61   0.0000       0.018891         0.5141
  62   0.0000       0.047119         1.2822
  63   0.0000       0.052072         1.4169
  64   0.0000       0.054857         1.4927

MULLIKEN ATOMIC CHARGES
-----------------------
   0 C :   -0.213971
   1 N :   -0.246629
   2 C :   -0.158107
   3 C :   -0.310297
   4 H :    0.172648
   5 H :    0.161878
   6 S :    0.851690
   7 C :    0.287668
   8 N :   -0.474981
   9 C :   -0.552672
  10 H :    0.091257
  11 H :    0.080277
  12 H :    0.230678
  13 H :    0.236359
  14 H :    0.232721
  15 F :   -0.080832
  16 O :   -0.378248
  17 C :   -0.103465
  18 H :    0.127523
  19 H :    0.130366
  20 C :   -0.287035
  21 H :    0.140258
  22 H :    0.124401
  23 C :   -0.269962
  24 H :    0.121968
  25 H :    0.090077
  26 O :   -0.489350
  27 H :    0.126107
  28 H :    0.102903
  29 H :    0.143699
  30 H :    0.113072
Sum of atomic charges:    0.0000000

LOEWDIN ATOMIC CHARGES
----------------------
   0 C :   -0.286356
   1 N :    0.125684
   2 C :   -0.277309
   3 C :   -0.371815
   4 H :    0.146298
   5 H :    0.143040
   6 S :    0.554172
   7 C :   -0.477610
   8 N :   -0.015459
   9 C :   -0.372265
  10 H :    0.094517
  11 H :    0.090369
  12 H :    0.165405
  13 H :    0.149304
  14 H :    0.170343
  15 F :    0.112205
  16 O :   -0.236847
  17 C :   -0.270378
  18 H :    0.137695
  19 H :    0.131711
  20 C :   -0.272527
  21 H :    0.149433
  22 H :    0.151546
  23 C :   -0.275750
  24 H :    0.145537
  25 H :    0.135401
  26 O :   -0.307914
  27 H :    0.140192
  28 H :    0.136985
  29 H :    0.140916
  30 H :    0.143478

  Mayer bond orders larger than 0.100000
B(  0-C ,  1-N ) :   0.9944 B(  0-C , 17-C ) :   0.9708 B(  0-C , 18-H ) :   0.9603
B(  0-C , 19-H ) :   0.9775 B(  1-N ,  7-C ) :   1.2248 B(  1-N , 12-H ) :   0.8863
B(  2-C ,  3-C ) :   0.9921 B(  2-C , 20-C ) :   1.0092 B(  2-C , 21-H ) :   0.9529
B(  2-C , 22-H ) :   0.9388 B(  3-C ,  4-H ) :   0.9323 B(  3-C ,  5-H ) :   0.9316
B(  3-C ,  6-S ) :   0.9258 B(  6-S , 15-F ) :   1.1737 B(  6-S , 16-O ) :   1.9573
B(  6-S , 26-O ) :   1.7129 B(  7-C ,  8-N ) :   1.1801 B(  7-C ,  9-C ) :   1.6558
B(  8-N , 13-H ) :   0.8814 B(  8-N , 14-H ) :   0.9198 B(  9-C , 10-H ) :   0.9889
B(  9-C , 11-H ) :   0.9880 B( 17-C , 23-C ) :   1.0152 B( 17-C , 24-H ) :   0.9415
B( 17-C , 25-H ) :   0.9599 B( 20-C , 23-C ) :   0.9830 B( 20-C , 29-H ) :   0.9652
B( 20-C , 30-H ) :   0.9564 B( 23-C , 27-H ) :   0.9578 B( 23-C , 28-H ) :   0.9517

Dispersion correction           -0.032971056
FINAL SINGLE POINT ENERGY     -1072.417773295652

DIPOLE MOMENT
-------------
                                X             Y             Z
Electronic contribution:     -1.11028      -0.24127     -24.60024
Nuclear contribution   :      0.44707       2.53104      23.12246
                        -----------------------------------------
Total Dipole Moment    :     -0.66321       2.28978      -1.47777
                        -----------------------------------------
Magnitude (a.u.)       :      2.80477
Magnitude (Debye)      :      7.12916

Rotational constants in cm-1:     0.028906     0.014696     0.011110
Rotational constants in MHz :   866.591909   440.585554   333.081943

                             ****ORCA TERMINATED NORMALLY****
TOTAL RUN TIME: 0 days 0 hours 0 minutes 55 seconds 776 msec
