                         Program Version 5.0.0 -  RELEASE  -
|  1> !PBE0 D3BJ RIJCOSX def2-TZVP def2/J TightSCF xyzfile
|  2>
|  3> *xyzfile 0 1 D8.xyz
|  4>
|  5> %MaxCore 64000
|  6>
|  7> %pal nprocs 18
|  8> end
|  9>
| 10> %scf
| 11>   MaxIter 150
| 12> end
| 13>
| 14>
| 15>                          ****END OF INPUT****

CARTESIAN COORDINATES (ANGSTROEM)
---------------------------------
  C      1.963365   -1.749150   -1.896887
  N      2.738490   -2.015170   -3.097113
  C      0.611877    1.657634   -4.500288
  C      1.694991    1.541794   -5.570447
  H      2.697326    1.734659   -5.183996
  H      1.506656    2.272239   -6.358076
  S      1.780287   -0.033128   -6.428739
  C      4.049736   -2.154717   -3.152044
  C      4.658206   -1.986293   -4.318655
  N      4.764231   -2.454435   -2.050491
  H      4.287363   -2.776259   -1.217496
  H      5.750825   -2.658351   -2.125988
  H      2.345176   -1.690274   -3.971447
  H      4.109004   -1.592677   -5.071760
  H      5.649095   -2.156462   -4.427237
  O      2.569287    0.213657   -7.607360
  O      0.416880   -0.462969   -6.618595
  C      2.088520   -0.300912   -1.415204
  H      2.231272   -2.451616   -1.102643
  H      0.930249   -1.977801   -2.155438
  C      0.680356    0.655418   -3.348038
  H     -0.356865    1.549231   -4.991128
  H      0.650228    2.675438   -4.096000
  C      1.968993    0.733582   -2.535654
  H      3.051356   -0.168602   -0.911868
  H      1.316501   -0.136231   -0.657252
  F      2.505129   -0.933263   -5.482570
  H      2.824195    0.624726   -3.208464
  H      2.058919    1.730331   -2.093112
  H      0.542252   -0.344731   -3.766662
  H     -0.174219    0.829692   -2.685182

 Total Charge           Charge          ....    0
 Multiplicity           Mult            ....    1
 Number of Electrons    NEL             ....  120
 Basis Dimension        Dim             ....  542

ORBITAL ENERGIES
----------------

  NO   OCC          E(Eh)            E(eV)
   0   2.0000     -89.262000     -2428.9425
   1   2.0000     -24.877688      -676.9563
   2   2.0000     -19.224175      -523.1164
   3   2.0000     -19.222145      -523.0612
   4   2.0000     -14.381978      -391.3535
   5   2.0000     -14.380065      -391.3015
   6   2.0000     -10.281774      -279.7813
   7   2.0000     -10.263723      -279.2901
   8   2.0000     -10.261203      -279.2215
   9   2.0000     -10.250786      -278.9381
  10   2.0000     -10.237987      -278.5898
  11   2.0000     -10.230893      -278.3968
  12   2.0000     -10.226891      -278.2879
  13   2.0000     -10.127381      -275.5800
  14   2.0000      -8.208636      -223.3684
  15   2.0000      -6.149237      -167.3293
  16   2.0000      -6.142810      -167.1544
  17   2.0000      -6.142027      -167.1331
  18   2.0000      -1.390167       -37.8284
  19   2.0000      -1.148875       -31.2625
  20   2.0000      -1.057773       -28.7835
  21   2.0000      -0.996729       -27.1224
  22   2.0000      -0.910864       -24.7859
  23   2.0000      -0.867667       -23.6104
  24   2.0000      -0.823883       -22.4190
  25   2.0000      -0.787774       -21.4364
  26   2.0000      -0.742800       -20.2126
  27   2.0000      -0.731871       -19.9152
  28   2.0000      -0.693130       -18.8610
  29   2.0000      -0.654194       -17.8015
  30   2.0000      -0.614101       -16.7105
  31   2.0000      -0.613564       -16.6959
  32   2.0000      -0.592626       -16.1262
  33   2.0000      -0.587047       -15.9744
  34   2.0000      -0.568677       -15.4745
  35   2.0000      -0.548229       -14.9181
  36   2.0000      -0.518281       -14.1032
  37   2.0000      -0.512432       -13.9440
  38   2.0000      -0.503278       -13.6949
  39   2.0000      -0.497308       -13.5324
  40   2.0000      -0.485826       -13.2200
  41   2.0000      -0.478171       -13.0117
  42   2.0000      -0.460174       -12.5220
  43   2.0000      -0.452197       -12.3049
  44   2.0000      -0.438275       -11.9261
  45   2.0000      -0.420095       -11.4314
  46   2.0000      -0.414592       -11.2816
  47   2.0000      -0.407778       -11.0962
  48   2.0000      -0.397242       -10.8095
  49   2.0000      -0.389137       -10.5890
  50   2.0000      -0.382111       -10.3978
  51   2.0000      -0.376698       -10.2505
  52   2.0000      -0.361531        -9.8378
  53   2.0000      -0.356946        -9.7130
  54   2.0000      -0.351732        -9.5711
  55   2.0000      -0.343751        -9.3539
  56   2.0000      -0.342772        -9.3273
  57   2.0000      -0.339123        -9.2280
  58   2.0000      -0.265663        -7.2291
  59   2.0000      -0.173438        -4.7195
  60   0.0000       0.020649         0.5619
  61   0.0000       0.030770         0.8373
  62   0.0000       0.040012         1.0888
  63   0.0000       0.050801         1.3824
  64   0.0000       0.055383         1.5070

MULLIKEN ATOMIC CHARGES
-----------------------
   0 C :   -0.262949
   1 N :   -0.241568
   2 C :   -0.136020
   3 C :   -0.327326
   4 H :    0.169773
   5 H :    0.177190
   6 S :    0.838681
   7 C :    0.311896
   8 C :   -0.565518
   9 N :   -0.488728
  10 H :    0.225714
  11 H :    0.244241
  12 H :    0.223081
  13 H :    0.122686
  14 H :    0.095326
  15 O :   -0.403639
  16 O :   -0.404767
  17 C :   -0.083391
  18 H :    0.120285
  19 H :    0.145297
  20 C :   -0.315595
  21 H :    0.142070
  22 H :    0.116236
  23 C :   -0.275514
  24 H :    0.109727
  25 H :    0.095187
  26 F :   -0.130049
  27 H :    0.135878
  28 H :    0.112159
  29 H :    0.133658
  30 H :    0.115977
Sum of atomic charges:   -0.0000000

LOEWDIN ATOMIC CHARGES
----------------------
   0 C :   -0.301048
   1 N :    0.123082
   2 C :   -0.285616
   3 C :   -0.369975
   4 H :    0.143272
   5 H :    0.155393
   6 S :    0.546682
   7 C :   -0.472926
   8 C :   -0.352087
   9 N :   -0.015784
  10 H :    0.160597
  11 H :    0.175912
  12 H :    0.176950
  13 H :    0.093795
  14 H :    0.095469
  15 O :   -0.250258
  16 O :   -0.254340
  17 C :   -0.272664
  18 H :    0.129851
  19 H :    0.136624
  20 C :   -0.276716
  21 H :    0.149531
  22 H :    0.147679
  23 C :   -0.275570
  24 H :    0.140337
  25 H :    0.137383
  26 F :    0.053792
  27 H :    0.140716
  28 H :    0.140643
  29 H :    0.135222
  30 H :    0.144055

  Mayer bond orders larger than 0.100000
B(  0-C ,  1-N ) :   0.9845 B(  0-C , 17-C ) :   0.9423 B(  0-C , 18-H ) :   0.9743
B(  0-C , 19-H ) :   0.9768 B(  1-N ,  7-C ) :   1.2471 B(  1-N , 12-H ) :   0.9078
B(  2-C ,  3-C ) :   0.9771 B(  2-C , 20-C ) :   0.9998 B(  2-C , 21-H ) :   0.9525
B(  2-C , 22-H ) :   0.9392 B(  3-C ,  4-H ) :   0.9414 B(  3-C ,  5-H ) :   0.9356
B(  3-C ,  6-S ) :   0.9115 B(  6-S , 15-O ) :   1.9702 B(  6-S , 16-O ) :   1.9269
B(  6-S , 26-F ) :   1.0352 B(  7-C ,  8-C ) :   1.6347 B(  7-C ,  9-N ) :   1.1506
B(  8-C , 13-H ) :   0.9878 B(  8-C , 14-H ) :   0.9936 B(  9-N , 10-H ) :   0.9109
B(  9-N , 11-H ) :   0.9173 B( 17-C , 23-C ) :   1.0019 B( 17-C , 24-H ) :   0.9474
B( 17-C , 25-H ) :   0.9543 B( 20-C , 23-C ) :   0.9769 B( 20-C , 29-H ) :   0.9733
B( 20-C , 30-H ) :   0.9545 B( 23-C , 27-H ) :   0.9595 B( 23-C , 28-H ) :   0.9534

Dispersion correction           -0.032638375
FINAL SINGLE POINT ENERGY     -1072.423461154323

DIPOLE MOMENT
-------------
                                X             Y             Z
Electronic contribution:     -0.84301      -2.97179     -18.34737
Nuclear contribution   :      0.50676       3.90127      20.40426
                        -----------------------------------------
Total Dipole Moment    :     -0.33625       0.92949       2.05689
                        -----------------------------------------
Magnitude (a.u.)       :      2.28206
Magnitude (Debye)      :      5.80054

Rotational constants in cm-1:     0.029548     0.014706     0.011197
Rotational constants in MHz :   885.834387   440.871746   335.667619

                             ****ORCA TERMINATED NORMALLY****
TOTAL RUN TIME: 0 days 0 hours 1 minutes 0 seconds 597 msec
