                         Program Version 5.0.0 -  RELEASE  -
|  1> !PBE0 D3BJ RIJCOSX def2-TZVP def2/J TightSCF xyzfile
|  2>
|  3> *xyzfile 0 1 D9.xyz
|  4>
|  5> %MaxCore 64000
|  6>
|  7> %pal nprocs 18
|  8> end
|  9>
| 10> %scf
| 11>   MaxIter 150
| 12> end
| 13>
| 14>
| 15>                          ****END OF INPUT****

CARTESIAN COORDINATES (ANGSTROEM)
---------------------------------
  C      1.963365   -1.749150   -1.896887
  N      2.738490   -2.015170   -3.097113
  C      0.611877    1.657634   -4.500288
  C      1.694991    1.541794   -5.570447
  H      2.697326    1.734659   -5.183996
  H      1.506656    2.272239   -6.358076
  S      1.780287   -0.033128   -6.428739
  C      4.049736   -2.154717   -3.152044
  N      4.658206   -1.986293   -4.318655
  C      4.764231   -2.454435   -2.050491
  H      4.287363   -2.776259   -1.217496
  H      5.750825   -2.658351   -2.125988
  H      2.345176   -1.690274   -3.971447
  H      4.109004   -1.592677   -5.071760
  H      5.649095   -2.156462   -4.427237
  O      2.569287    0.213657   -7.607360
  O      0.416880   -0.462969   -6.618595
  C      2.088520   -0.300912   -1.415204
  H      2.231272   -2.451616   -1.102643
  H      0.930249   -1.977801   -2.155438
  C      0.680356    0.655418   -3.348038
  H     -0.356865    1.549231   -4.991128
  H      0.650228    2.675438   -4.096000
  C      1.968993    0.733582   -2.535654
  H      3.051356   -0.168602   -0.911868
  H      1.316501   -0.136231   -0.657252
  F      2.505129   -0.933263   -5.482570
  H      2.824195    0.624726   -3.208464
  H      2.058919    1.730331   -2.093112
  H      0.542252   -0.344731   -3.766662
  H     -0.174219    0.829692   -2.685182

 Total Charge           Charge          ....    0
 Multiplicity           Mult            ....    1
 Number of Electrons    NEL             ....  120
 Basis Dimension        Dim             ....  542

ORBITAL ENERGIES
----------------

  NO   OCC          E(Eh)            E(eV)
   0   2.0000     -89.276058     -2429.3250
   1   2.0000     -24.900215      -677.5693
   2   2.0000     -19.237274      -523.4728
   3   2.0000     -19.236784      -523.4595
   4   2.0000     -14.381506      -391.3407
   5   2.0000     -14.378904      -391.2699
   6   2.0000     -10.292051      -280.0609
   7   2.0000     -10.263351      -279.2800
   8   2.0000     -10.256382      -279.0903
   9   2.0000     -10.254498      -279.0391
  10   2.0000     -10.240495      -278.6580
  11   2.0000     -10.231432      -278.4114
  12   2.0000     -10.221211      -278.1333
  13   2.0000     -10.128769      -275.6178
  14   2.0000      -8.222890      -223.7562
  15   2.0000      -6.163699      -167.7228
  16   2.0000      -6.156828      -167.5358
  17   2.0000      -6.156191      -167.5185
  18   2.0000      -1.412227       -38.4286
  19   2.0000      -1.163212       -31.6526
  20   2.0000      -1.071455       -29.1558
  21   2.0000      -1.000860       -27.2348
  22   2.0000      -0.912935       -24.8422
  23   2.0000      -0.873643       -23.7730
  24   2.0000      -0.824695       -22.4411
  25   2.0000      -0.785963       -21.3872
  26   2.0000      -0.756663       -20.5898
  27   2.0000      -0.720305       -19.6005
  28   2.0000      -0.713998       -19.4289
  29   2.0000      -0.659330       -17.9413
  30   2.0000      -0.625887       -17.0312
  31   2.0000      -0.620189       -16.8762
  32   2.0000      -0.603812       -16.4306
  33   2.0000      -0.585491       -15.9320
  34   2.0000      -0.566301       -15.4098
  35   2.0000      -0.556489       -15.1428
  36   2.0000      -0.535106       -14.5610
  37   2.0000      -0.522838       -14.2271
  38   2.0000      -0.515897       -14.0383
  39   2.0000      -0.499111       -13.5815
  40   2.0000      -0.489440       -13.3183
  41   2.0000      -0.478199       -13.0125
  42   2.0000      -0.461069       -12.5463
  43   2.0000      -0.453540       -12.3415
  44   2.0000      -0.442354       -12.0371
  45   2.0000      -0.426255       -11.5990
  46   2.0000      -0.414668       -11.2837
  47   2.0000      -0.413480       -11.2514
  48   2.0000      -0.395337       -10.7577
  49   2.0000      -0.385626       -10.4934
  50   2.0000      -0.384289       -10.4570
  51   2.0000      -0.378344       -10.2953
  52   2.0000      -0.372203       -10.1282
  53   2.0000      -0.360947        -9.8219
  54   2.0000      -0.355354        -9.6697
  55   2.0000      -0.353056        -9.6071
  56   2.0000      -0.349526        -9.5111
  57   2.0000      -0.339304        -9.2329
  58   2.0000      -0.261356        -7.1119
  59   2.0000      -0.172527        -4.6947
  60   0.0000       0.008179         0.2226
  61   0.0000       0.029642         0.8066
  62   0.0000       0.040934         1.1139
  63   0.0000       0.046305         1.2600
  64   0.0000       0.055186         1.5017

MULLIKEN ATOMIC CHARGES
-----------------------
   0 C :   -0.214654
   1 N :   -0.257472
   2 C :   -0.134024
   3 C :   -0.328695
   4 H :    0.169635
   5 H :    0.181696
   6 S :    0.834477
   7 C :    0.289010
   8 N :   -0.477621
   9 C :   -0.534528
  10 H :    0.097919
  11 H :    0.088584
  12 H :    0.207276
  13 H :    0.228928
  14 H :    0.248001
  15 O :   -0.400920
  16 O :   -0.392679
  17 C :   -0.101229
  18 H :    0.135199
  19 H :    0.139011
  20 C :   -0.318623
  21 H :    0.143629
  22 H :    0.119309
  23 C :   -0.274554
  24 H :    0.127141
  25 H :    0.098706
  26 F :   -0.153971
  27 H :    0.114510
  28 H :    0.112767
  29 H :    0.133742
  30 H :    0.119430
Sum of atomic charges:    0.0000000

LOEWDIN ATOMIC CHARGES
----------------------
   0 C :   -0.282622
   1 N :    0.120932
   2 C :   -0.285027
   3 C :   -0.369312
   4 H :    0.142752
   5 H :    0.156803
   6 S :    0.544862
   7 C :   -0.481161
   8 N :   -0.012166
   9 C :   -0.352591
  10 H :    0.097234
  11 H :    0.093588
  12 H :    0.162837
  13 H :    0.151448
  14 H :    0.178047
  15 O :   -0.249685
  16 O :   -0.245879
  17 C :   -0.269201
  18 H :    0.140368
  19 H :    0.134028
  20 C :   -0.276992
  21 H :    0.149789
  22 H :    0.148969
  23 C :   -0.276746
  24 H :    0.146527
  25 H :    0.138327
  26 F :    0.038550
  27 H :    0.135448
  28 H :    0.140720
  29 H :    0.134737
  30 H :    0.145415

  Mayer bond orders larger than 0.100000
B(  0-C ,  1-N ) :   0.9762 B(  0-C , 17-C ) :   0.9708 B(  0-C , 18-H ) :   0.9593
B(  0-C , 19-H ) :   0.9753 B(  1-N ,  7-C ) :   1.2075 B(  1-N , 12-H ) :   0.9121
B(  2-C ,  3-C ) :   0.9749 B(  2-C , 20-C ) :   0.9959 B(  2-C , 21-H ) :   0.9529
B(  2-C , 22-H ) :   0.9378 B(  3-C ,  4-H ) :   0.9394 B(  3-C ,  5-H ) :   0.9344
B(  3-C ,  6-S ) :   0.9138 B(  6-S , 15-O ) :   1.9731 B(  6-S , 16-O ) :   1.9386
B(  6-S , 26-F ) :   1.0058 B(  7-C ,  8-N ) :   1.1650 B(  7-C ,  9-C ) :   1.6775
B(  8-N , 13-H ) :   0.9036 B(  8-N , 14-H ) :   0.9136 B(  9-C , 10-H ) :   0.9870
B(  9-C , 11-H ) :   0.9867 B( 17-C , 23-C ) :   1.0071 B( 17-C , 24-H ) :   0.9429
B( 17-C , 25-H ) :   0.9599 B( 20-C , 23-C ) :   0.9730 B( 20-C , 29-H ) :   0.9759
B( 20-C , 30-H ) :   0.9552 B( 23-C , 27-H ) :   0.9621 B( 23-C , 28-H ) :   0.9526

Dispersion correction           -0.032584571
FINAL SINGLE POINT ENERGY     -1072.425919088380

DIPOLE MOMENT
-------------
                                X             Y             Z
Electronic contribution:     -1.03634      -2.39493     -20.40627
Nuclear contribution   :      0.52036       3.84122      20.69523
                        -----------------------------------------
Total Dipole Moment    :     -0.51598       1.44629       0.28895
                        -----------------------------------------
Magnitude (a.u.)       :      1.56253
Magnitude (Debye)      :      3.97163

Rotational constants in cm-1:     0.029184     0.014996     0.011314
Rotational constants in MHz :   874.907122   449.569665   339.178205

                             ****ORCA TERMINATED NORMALLY****
TOTAL RUN TIME: 0 days 0 hours 0 minutes 53 seconds 246 msec
