                         Program Version 5.0.0 -  RELEASE  -
|  1> !TPSS D3BJ RIJCOSX def2-SVPD def2/J TightSCF
|  2> *xyz -1 1
|  3> C          0.61188        1.65763       -4.50029
|  4> C          1.69499        1.54179       -5.57045
|  5> H          2.69733        1.73466       -5.18400
|  6> H          1.50666        2.27224       -6.35808
|  7> S          1.78029       -0.03313       -6.42874
|  8> O          2.56929        0.21366       -7.60736
|  9> O          0.41688       -0.46297       -6.61859
| 10> C          0.68036        0.65542       -3.34804
| 11> H         -0.35687        1.54923       -4.99113
| 12> H          0.65023        2.67544       -4.09600
| 13> O          2.50513       -0.93326       -5.48257
| 14> H          0.64318       -0.34009       -3.73853
| 15> H         -0.14865        0.81153       -2.68980
| 16> H          1.59447        0.79330       -2.80925
| 17> *
| 18> %MaxCore 64000
| 19>
| 20> %pal nprocs 8
| 21> end
| 22>
| 23> %scf
| 24>   MaxIter 150
| 25> end
| 26>
| 27>
| 28>                          ****END OF INPUT****

CARTESIAN COORDINATES (ANGSTROEM)
---------------------------------
  C      0.611880    1.657630   -4.500290
  C      1.694990    1.541790   -5.570450
  H      2.697330    1.734660   -5.184000
  H      1.506660    2.272240   -6.358080
  S      1.780290   -0.033130   -6.428740
  O      2.569290    0.213660   -7.607360
  O      0.416880   -0.462970   -6.618590
  C      0.680360    0.655420   -3.348040
  H     -0.356870    1.549230   -4.991130
  H      0.650230    2.675440   -4.096000
  O      2.505130   -0.933260   -5.482570
  H      0.643180   -0.340090   -3.738530
  H     -0.148650    0.811530   -2.689800
  H      1.594470    0.793300   -2.809250

 Total Charge           Charge          ....   -1
 Multiplicity           Mult            ....    1
 Number of Electrons    NEL             ....   66
 Basis Dimension        Dim             ....  212

ORBITAL ENERGIES
----------------

  NO   OCC          E(Eh)            E(eV)
   0   2.0000     -88.367345     -2404.5977
   1   2.0000     -18.684149      -508.4216
   2   2.0000     -18.682576      -508.3787
   3   2.0000     -18.665104      -507.9033
   4   2.0000      -9.870680      -268.5949
   5   2.0000      -9.861927      -268.3567
   6   2.0000      -9.854027      -268.1417
   7   2.0000      -7.727300      -210.2705
   8   2.0000      -5.713424      -155.4702
   9   2.0000      -5.713124      -155.4620
  10   2.0000      -5.712299      -155.4396
  11   2.0000      -0.856269       -23.3003
  12   2.0000      -0.728008       -19.8101
  13   2.0000      -0.695069       -18.9138
  14   2.0000      -0.592182       -16.1141
  15   2.0000      -0.508376       -13.8336
  16   2.0000      -0.417740       -11.3673
  17   2.0000      -0.331105        -9.0098
  18   2.0000      -0.286719        -7.8020
  19   2.0000      -0.276452        -7.5226
  20   2.0000      -0.250427        -6.8145
  21   2.0000      -0.239015        -6.5039
  22   2.0000      -0.215889        -5.8746
  23   2.0000      -0.207954        -5.6587
  24   2.0000      -0.186504        -5.0750
  25   2.0000      -0.178396        -4.8544
  26   2.0000      -0.166776        -4.5382
  27   2.0000      -0.107852        -2.9348
  28   2.0000      -0.107196        -2.9170
  29   2.0000      -0.077411        -2.1065
  30   2.0000      -0.071425        -1.9436
  31   2.0000      -0.054093        -1.4720
  32   2.0000      -0.022512        -0.6126
  33   0.0000       0.126728         3.4484
  34   0.0000       0.151974         4.1354
  35   0.0000       0.158905         4.3240
  36   0.0000       0.165799         4.5116
  37   0.0000       0.185917         5.0590

MULLIKEN ATOMIC CHARGES
-----------------------
   0 C :   -0.307632
   1 C :   -0.011758
   2 H :    0.018132
   3 H :    0.019393
   4 S :    1.226343
   5 O :   -0.798714
   6 O :   -0.771294
   7 C :    0.700040
   8 H :    0.025015
   9 H :   -0.134201
  10 O :   -0.809531
  11 H :   -0.060053
  12 H :   -0.072099
  13 H :   -0.023642
Sum of atomic charges:   -1.0000000

LOEWDIN ATOMIC CHARGES
----------------------
   0 C :   -0.089844
   1 C :   -0.092235
   2 H :    0.002843
   3 H :   -0.005650
   4 S :    0.839997
   5 O :   -0.561375
   6 O :   -0.555074
   7 C :    0.129289
   8 H :    0.008895
   9 H :    0.000817
  10 O :   -0.586165
  11 H :   -0.030864
  12 H :   -0.037066
  13 H :   -0.023568

  Mayer bond orders larger than 0.100000
B(  0-C ,  1-C ) :   1.2652 B(  0-C ,  2-H ) :   0.1254 B(  0-C ,  3-H ) :   0.1370
B(  0-C ,  7-C ) :   1.2793 B(  0-C ,  8-H ) :   0.8931 B(  0-C ,  9-H ) :   0.9073
B(  0-C , 11-H ) :   0.2204 B(  0-C , 12-H ) :   0.2109 B(  0-C , 13-H ) :   0.2171
B(  1-C ,  2-H ) :   0.9340 B(  1-C ,  3-H ) :   0.9092 B(  1-C ,  4-S ) :   0.9006
B(  1-C ,  8-H ) :   0.1396 B(  1-C ,  9-H ) :   0.1413 B(  4-S ,  5-O ) :   1.3708
B(  4-S ,  6-O ) :   1.3108 B(  4-S , 10-O ) :   1.2754 B(  7-C , 11-H ) :   0.8320
B(  7-C , 12-H ) :   0.7661 B(  7-C , 13-H ) :   0.7715

Dispersion correction           -0.016760335
FINAL SINGLE POINT ENERGY      -742.147945408299

DIPOLE MOMENT
-------------
                                X             Y             Z
Electronic contribution:      3.18818      -5.31631      -8.63522
Nuclear contribution   :     -3.81113       6.97418       9.97106
                        -----------------------------------------
Total Dipole Moment    :     -0.62296       1.65787       1.33584
                        -----------------------------------------
Magnitude (a.u.)       :      2.21835
Magnitude (Debye)      :      5.63860

Rotational constants in cm-1:     0.136135     0.055477     0.052562
Rotational constants in MHz :  4081.221574  1663.170947  1575.772362

                             ****ORCA TERMINATED NORMALLY****
TOTAL RUN TIME: 0 days 0 hours 0 minutes 8 seconds 729 msec
