                         Program Version 5.0.0 -  RELEASE  -
|  1> !TPSS D3BJ RIJCOSX def2-SVPD def2/J TightSCF
|  2> *xyz 1 1
|  3> C          1.96337       -1.74915       -1.89689
|  4> N          2.73849       -2.01517       -3.09711
|  5> C          4.04974       -2.15472       -3.15204
|  6> N          4.65821       -1.98629       -4.31866
|  7> N          4.76423       -2.45444       -2.05049
|  8> H          4.28736       -2.77626       -1.21750
|  9> H          5.75082       -2.65835       -2.12599
| 10> H          2.34518       -1.69027       -3.97145
| 11> H          4.10900       -1.59268       -5.07176
| 12> H          5.64910       -2.15646       -4.42724
| 13> C          2.08852       -0.30091       -1.41520
| 14> H          2.23127       -2.45162       -1.10264
| 15> H          0.93025       -1.97780       -2.15544
| 16> C          1.96899        0.73358       -2.53565
| 17> H          3.05136       -0.16860       -0.91187
| 18> H          1.31650       -0.13623       -0.65725
| 19> H          2.73046        0.55745       -3.26643
| 20> H          2.08619        1.71595       -2.12808
| 21> H          1.00672        0.65098       -2.99620
| 22> *
| 23> %MaxCore 64000
| 24>
| 25> %pal nprocs 8
| 26> end
| 27>
| 28> %scf
| 29>   MaxIter 150
| 30> end
| 31>
| 32>
| 33>                          ****END OF INPUT****

CARTESIAN COORDINATES (ANGSTROEM)
---------------------------------
  C      1.963370   -1.749150   -1.896890
  N      2.738490   -2.015170   -3.097110
  C      4.049740   -2.154720   -3.152040
  N      4.658210   -1.986290   -4.318660
  N      4.764230   -2.454440   -2.050490
  H      4.287360   -2.776260   -1.217500
  H      5.750820   -2.658350   -2.125990
  H      2.345180   -1.690270   -3.971450
  H      4.109000   -1.592680   -5.071760
  H      5.649100   -2.156460   -4.427240
  C      2.088520   -0.300910   -1.415200
  H      2.231270   -2.451620   -1.102640
  H      0.930250   -1.977800   -2.155440
  C      1.968990    0.733580   -2.535650
  H      3.051360   -0.168600   -0.911870
  H      1.316500   -0.136230   -0.657250
  H      2.730460    0.557450   -3.266430
  H      2.086190    1.715950   -2.128080
  H      1.006720    0.650980   -2.996200

 Total Charge           Charge          ....    1
 Multiplicity           Mult            ....    1
 Number of Electrons    NEL             ....   56
 Basis Dimension        Dim             ....  236

ORBITAL ENERGIES
----------------

  NO   OCC          E(Eh)            E(eV)
   0   2.0000     -14.340917      -390.2362
   1   2.0000     -14.338255      -390.1638
   2   2.0000     -14.336437      -390.1143
   3   2.0000     -10.321438      -280.8606
   4   2.0000     -10.204171      -277.6696
   5   2.0000     -10.144353      -276.0419
   6   2.0000     -10.123255      -275.4678
   7   2.0000      -1.138870       -30.9902
   8   2.0000      -1.033775       -28.1305
   9   2.0000      -1.022427       -27.8217
  10   2.0000      -0.877082       -23.8666
  11   2.0000      -0.807672       -21.9779
  12   2.0000      -0.772680       -21.0257
  13   2.0000      -0.734744       -19.9934
  14   2.0000      -0.719386       -19.5755
  15   2.0000      -0.679087       -18.4789
  16   2.0000      -0.648507       -17.6468
  17   2.0000      -0.642711       -17.4891
  18   2.0000      -0.612185       -16.6584
  19   2.0000      -0.582014       -15.8374
  20   2.0000      -0.561094       -15.2681
  21   2.0000      -0.544033       -14.8039
  22   2.0000      -0.511792       -13.9266
  23   2.0000      -0.470436       -12.8012
  24   2.0000      -0.459327       -12.4989
  25   2.0000      -0.447604       -12.1799
  26   2.0000      -0.435366       -11.8469
  27   2.0000      -0.410209       -11.1623
  28   0.0000      -0.194729        -5.2988
  29   0.0000      -0.168725        -4.5912
  30   0.0000      -0.137920        -3.7530
  31   0.0000      -0.124743        -3.3944
  32   0.0000      -0.103597        -2.8190

MULLIKEN ATOMIC CHARGES
-----------------------
   0 C :    0.758342
   1 N :   -0.461896
   2 C :    1.469386
   3 N :   -0.156995
   4 N :   -0.033173
   5 H :   -0.019568
   6 H :   -0.148028
   7 H :   -0.124880
   8 H :    0.020600
   9 H :   -0.089291
  10 C :   -0.346822
  11 H :   -0.084433
  12 H :   -0.235095
  13 C :    0.710908
  14 H :    0.002547
  15 H :   -0.072201
  16 H :   -0.153259
  17 H :   -0.060958
  18 H :    0.024817
Sum of atomic charges:    1.0000000

LOEWDIN ATOMIC CHARGES
----------------------
   0 C :    0.085526
   1 N :    0.044493
   2 C :   -0.040306
   3 N :    0.268816
   4 N :    0.284657
   5 H :    0.021149
   6 H :    0.034966
   7 H :    0.050073
   8 H :    0.036854
   9 H :    0.042021
  10 C :   -0.036537
  11 H :    0.023194
  12 H :    0.038798
  13 C :    0.146378
  14 H :    0.017357
  15 H :    0.033572
  16 H :   -0.037473
  17 H :   -0.004299
  18 H :   -0.009241

  Mayer bond orders larger than 0.100000
B(  0-C ,  1-N ) :   0.9522 B(  0-C ,  2-C ) :  -0.1071 B(  0-C ,  7-H ) :  -0.1389
B(  0-C , 10-C ) :   1.0847 B(  0-C , 11-H ) :   0.8902 B(  0-C , 12-H ) :   0.7537
B(  0-C , 15-H ) :   0.1074 B(  1-N ,  2-C ) :   1.0253 B(  1-N ,  3-N ) :   0.3393
B(  1-N ,  4-N ) :   0.2199 B(  1-N ,  7-H ) :   1.2166 B(  1-N , 11-H ) :   0.1191
B(  1-N , 12-H ) :   0.2592 B(  2-C ,  3-N ) :   0.6924 B(  2-C ,  4-N ) :   0.9095
B(  2-C ,  5-H ) :  -0.1190 B(  2-C ,  6-H ) :  -0.1722 B(  2-C ,  7-H ) :  -0.2065
B(  2-C ,  8-H ) :  -0.1502 B(  2-C ,  9-H ) :  -0.1765 B(  3-N ,  4-N ) :   0.1859
B(  3-N ,  8-H ) :   1.1302 B(  3-N ,  9-H ) :   1.3062 B(  4-N ,  5-H ) :   1.0746
B(  4-N ,  6-H ) :   1.3095 B(  5-H ,  6-H ) :  -0.2061 B(  8-H ,  9-H ) :  -0.1766
B( 10-C , 12-H ) :   0.1313 B( 10-C , 13-C ) :   1.3121 B( 10-C , 14-H ) :   0.9421
B( 10-C , 15-H ) :   0.9626 B( 10-C , 16-H ) :   0.2061 B( 10-C , 17-H ) :   0.1998
B( 10-C , 18-H ) :   0.1976 B( 13-C , 16-H ) :   0.8456 B( 13-C , 17-H ) :   0.8041
B( 13-C , 18-H ) :   0.7701 B( 16-H , 18-H ) :   0.1080

Dispersion correction           -0.019920696
FINAL SINGLE POINT ENERGY      -323.565573931429

DIPOLE MOMENT
-------------
                                X             Y             Z
Electronic contribution:      3.87661      -4.88146      -2.30979
Nuclear contribution   :     -2.72963       4.05673       1.67650
                        -----------------------------------------
Total Dipole Moment    :      1.14698      -0.82472      -0.63329
                        -----------------------------------------
Magnitude (a.u.)       :      1.54816
Magnitude (Debye)      :      3.93510

Rotational constants in cm-1:     0.140891     0.054763     0.048590
Rotational constants in MHz :  4223.814968  1641.764475  1456.690885

                             ****ORCA TERMINATED NORMALLY****
TOTAL RUN TIME: 0 days 0 hours 0 minutes 9 seconds 669 msec
