                         Program Version 5.0.0 -  RELEASE  -
|  1> !TPSS D3BJ RIJCOSX def2-SVPD def2/J TightSCF xyzfile
|  2>
|  3> *xyzfile 0 1 B.xyz
|  4>
|  5> %MaxCore 64000
|  6>
|  7> %pal nprocs 4
|  8> end
|  9>
| 10> %scf
| 11>   MaxIter 150
| 12> end
| 13>
| 14>
| 15>                          ****END OF INPUT****

CARTESIAN COORDINATES (ANGSTROEM)
---------------------------------
  C      1.963365   -1.749150   -1.896887
  N      2.738490   -2.015170   -3.097113
  C      0.611877    1.657634   -4.500288
  C      1.694991    1.541794   -5.570447
  H      2.697326    1.734659   -5.183996
  H      1.506656    2.272239   -6.358076
  S      1.780287   -0.033128   -6.428739
  C      4.049736   -2.154717   -3.152044
  N      4.658206   -1.986293   -4.318655
  N      4.764231   -2.454435   -2.050491
  H      4.287363   -2.776259   -1.217496
  H      5.750825   -2.658351   -2.125988
  H      2.345176   -1.690274   -3.971447
  H      4.109004   -1.592677   -5.071760
  H      5.649095   -2.156462   -4.427237
  O      2.569287    0.213657   -7.607360
  O      0.416880   -0.462969   -6.618595
  C      2.088520   -0.300912   -1.415204
  H      2.231272   -2.451616   -1.102643
  H      0.930249   -1.977801   -2.155438
  C      0.680356    0.655418   -3.348038
  H     -0.356865    1.549231   -4.991128
  H      0.650228    2.675438   -4.096000
  C      1.968993    0.733582   -2.535654
  H      3.051356   -0.168602   -0.911868
  H      1.316501   -0.136231   -0.657252
  O      2.505129   -0.933263   -5.482570
  H      2.824195    0.624726   -3.208464
  H      2.058919    1.730331   -2.093112
  H      0.542252   -0.344731   -3.766662
  H     -0.174219    0.829692   -2.685182

 Total Charge           Charge          ....    0
 Multiplicity           Mult            ....    1
 Number of Electrons    NEL             ....  120
 Basis Dimension        Dim             ....  432

ORBITAL ENERGIES
----------------

  NO   OCC          E(Eh)            E(eV)
   0   2.0000     -88.514721     -2408.6080
   1   2.0000     -18.840765      -512.6833
   2   2.0000     -18.819747      -512.1114
   3   2.0000     -18.818621      -512.0807
   4   2.0000     -14.204704      -386.5297
   5   2.0000     -14.176024      -385.7492
   6   2.0000     -14.170045      -385.5865
   7   2.0000     -10.171085      -276.7693
   8   2.0000     -10.074113      -274.1306
   9   2.0000     -10.024698      -272.7859
  10   2.0000     -10.005752      -272.2703
  11   2.0000      -9.993929      -271.9486
  12   2.0000      -9.990033      -271.8426
  13   2.0000      -9.989869      -271.8381
  14   2.0000      -7.873576      -214.2509
  15   2.0000      -5.860668      -159.4769
  16   2.0000      -5.859163      -159.4359
  17   2.0000      -5.857990      -159.4040
  18   2.0000      -1.002918       -27.2908
  19   2.0000      -0.987819       -26.8799
  20   2.0000      -0.887066       -24.1383
  21   2.0000      -0.873312       -23.7640
  22   2.0000      -0.863795       -23.5051
  23   2.0000      -0.861130       -23.4326
  24   2.0000      -0.757903       -20.6236
  25   2.0000      -0.720578       -19.6079
  26   2.0000      -0.676162       -18.3993
  27   2.0000      -0.641103       -17.4453
  28   2.0000      -0.616723       -16.7819
  29   2.0000      -0.587012       -15.9734
  30   2.0000      -0.577950       -15.7268
  31   2.0000      -0.546944       -14.8831
  32   2.0000      -0.524730       -14.2786
  33   2.0000      -0.509318       -13.8592
  34   2.0000      -0.498723       -13.5709
  35   2.0000      -0.475514       -12.9394
  36   2.0000      -0.458034       -12.4637
  37   2.0000      -0.440075       -11.9751
  38   2.0000      -0.436502       -11.8778
  39   2.0000      -0.426596       -11.6083
  40   2.0000      -0.412758       -11.2317
  41   2.0000      -0.397113       -10.8060
  42   2.0000      -0.386581       -10.5194
  43   2.0000      -0.377665       -10.2768
  44   2.0000      -0.360133        -9.7997
  45   2.0000      -0.353237        -9.6121
  46   2.0000      -0.341879        -9.3030
  47   2.0000      -0.334236        -9.0950
  48   2.0000      -0.328323        -8.9341
  49   2.0000      -0.300682        -8.1820
  50   2.0000      -0.297348        -8.0913
  51   2.0000      -0.293083        -7.9752
  52   2.0000      -0.281068        -7.6482
  53   2.0000      -0.263499        -7.1702
  54   2.0000      -0.260058        -7.0765
  55   2.0000      -0.252783        -6.8786
  56   2.0000      -0.221730        -6.0336
  57   2.0000      -0.211307        -5.7500
  58   2.0000      -0.207201        -5.6382
  59   2.0000      -0.178006        -4.8438
  60   0.0000      -0.048766        -1.3270
  61   0.0000      -0.043678        -1.1885
  62   0.0000      -0.013629        -0.3709
  63   0.0000       0.012022         0.3271
  64   0.0000       0.018534         0.5043

MULLIKEN ATOMIC CHARGES
-----------------------
   0 C :    0.927316
   1 N :   -0.046104
   2 C :    0.398175
   3 C :    0.083877
   4 H :    0.090945
   5 H :   -0.082898
   6 S :    1.309553
   7 C :    1.413250
   8 N :    0.167150
   9 N :    0.009714
  10 H :   -0.043762
  11 H :   -0.182558
  12 H :   -0.580351
  13 H :   -0.127196
  14 H :   -0.210425
  15 O :   -0.776310
  16 O :   -0.789099
  17 C :    0.361538
  18 H :   -0.408897
  19 H :   -0.085848
  20 C :   -0.057609
  21 H :    0.039102
  22 H :   -0.032542
  23 C :   -0.034294
  24 H :   -0.039831
  25 H :   -0.013196
  26 O :   -0.894778
  27 H :    0.086440
  28 H :   -0.286482
  29 H :   -0.029886
  30 H :   -0.164994
Sum of atomic charges:   -0.0000000

LOEWDIN ATOMIC CHARGES
----------------------
   0 C :    0.084918
   1 N :    0.075768
   2 C :   -0.026095
   3 C :   -0.064328
   4 H :    0.002307
   5 H :    0.011759
   6 S :    0.935434
   7 C :   -0.038292
   8 N :    0.283471
   9 N :    0.254933
  10 H :    0.003035
  11 H :    0.015752
  12 H :   -0.069310
  13 H :   -0.059325
  14 H :    0.025589
  15 O :   -0.509400
  16 O :   -0.505526
  17 C :   -0.004478
  18 H :    0.006420
  19 H :    0.028910
  20 C :   -0.018212
  21 H :    0.023013
  22 H :    0.020415
  23 C :   -0.019703
  24 H :    0.010399
  25 H :    0.022819
  26 O :   -0.544009
  27 H :    0.003506
  28 H :    0.023894
  29 H :    0.001556
  30 H :    0.024779

  Mayer bond orders larger than 0.100000
B(  0-C ,  1-N ) :   0.8728 B(  0-C , 12-H ) :  -0.3071 B(  0-C , 17-C ) :   1.0644
B(  0-C , 18-H ) :   0.9145 B(  0-C , 19-H ) :   0.6745 B(  0-C , 23-C ) :   0.1006
B(  0-C , 25-H ) :   0.1082 B(  1-N ,  7-C ) :   1.0813 B(  1-N ,  8-N ) :   0.1540
B(  1-N ,  9-N ) :   0.2444 B(  1-N , 12-H ) :   1.2103 B(  1-N , 18-H ) :   0.1106
B(  1-N , 19-H ) :   0.1637 B(  2-C ,  3-C ) :   1.2481 B(  2-C ,  4-H ) :   0.1000
B(  2-C ,  5-H ) :   0.1629 B(  2-C , 20-C ) :   1.2692 B(  2-C , 21-H ) :   0.6716
B(  2-C , 22-H ) :   0.7864 B(  2-C , 29-H ) :   0.1047 B(  3-C ,  4-H ) :   0.8813
B(  3-C ,  5-H ) :   0.8783 B(  3-C ,  6-S ) :   0.9554 B(  3-C , 21-H ) :   0.1308
B(  3-C , 22-H ) :   0.1363 B(  6-S , 15-O ) :   1.3675 B(  6-S , 16-O ) :   1.2813
B(  6-S , 26-O ) :   1.1070 B(  7-C ,  8-N ) :   0.7868 B(  7-C ,  9-N ) :   0.8412
B(  7-C , 10-H ) :  -0.1199 B(  7-C , 11-H ) :  -0.1408 B(  7-C , 12-H ) :  -0.4481
B(  7-C , 13-H ) :  -0.2051 B(  7-C , 14-H ) :  -0.2470 B(  8-N ,  9-N ) :   0.1705
B(  8-N , 13-H ) :   1.1153 B(  8-N , 14-H ) :   1.4033 B(  9-N , 10-H ) :   1.0842
B(  9-N , 11-H ) :   1.3081 B( 10-H , 11-H ) :  -0.2142 B( 12-H , 19-H ) :   0.1554
B( 12-H , 27-H ) :   0.1079 B( 12-H , 28-H ) :  -0.1149 B( 13-H , 14-H ) :  -0.2219
B( 13-H , 26-O ) :   0.2404 B( 16-O , 26-O ) :   0.1281 B( 17-C , 18-H ) :   0.1415
B( 17-C , 23-C ) :   1.2550 B( 17-C , 24-H ) :   0.7801 B( 17-C , 25-H ) :   0.8463
B( 18-H , 19-H ) :  -0.1213 B( 20-C , 21-H ) :   0.2512 B( 20-C , 23-C ) :   1.1930
B( 20-C , 27-H ) :   0.1062 B( 20-C , 28-H ) :   0.1406 B( 20-C , 29-H ) :   0.9399
B( 20-C , 30-H ) :   0.8620 B( 23-C , 24-H ) :   0.1935 B( 23-C , 25-H ) :   0.1238
B( 23-C , 27-H ) :   0.8643 B( 23-C , 28-H ) :   0.9453 B( 23-C , 30-H ) :   0.1344

Dispersion correction           -0.047080020
FINAL SINGLE POINT ENERGY     -1064.681282953186

DIPOLE MOMENT
-------------
                                X             Y             Z
Electronic contribution:      2.20867      -4.95594     -14.27286
Nuclear contribution   :      0.44641       3.59123      19.13564
                        -----------------------------------------
Total Dipole Moment    :      2.65508      -1.36471       4.86278
                        -----------------------------------------
Magnitude (a.u.)       :      5.70600
Magnitude (Debye)      :     14.50350

Rotational constants in cm-1:     0.029186     0.014646     0.011115
Rotational constants in MHz :   874.975540   439.070287   333.231642

                             ****ORCA TERMINATED NORMALLY****
TOTAL RUN TIME: 0 days 0 hours 1 minutes 1 seconds 806 msec
