                         Program Version 5.0.0 -  RELEASE  -
|  1> !TPSS D3BJ RIJCOSX def2-SVPD def2/J TightSCF
|  2> *xyz 0 1
|  3> C          0.61188        1.65763       -4.50029
|  4> C          1.69499        1.54179       -5.57045
|  5> H          2.69733        1.73466       -5.18400
|  6> H          1.50666        2.27224       -6.35808
|  7> S          1.78029       -0.03313       -6.42874
|  8> F          2.56929        0.21366       -7.60736
|  9> O          0.41688       -0.46297       -6.61859
| 10> C          0.68036        0.65542       -3.34804
| 11> H         -0.35687        1.54923       -4.99113
| 12> H          0.65023        2.67544       -4.09600
| 13> O          2.50513       -0.93326       -5.48257
| 14> H          0.64318       -0.34009       -3.73853
| 15> H         -0.14865        0.81153       -2.68980
| 16> H          1.59447        0.79330       -2.80925
| 17> *
| 18> %MaxCore 64000
| 19>
| 20> %pal nprocs 8
| 21> end
| 22>
| 23> %scf
| 24>   MaxIter 150
| 25> end
| 26>
| 27>
| 28>                          ****END OF INPUT****

CARTESIAN COORDINATES (ANGSTROEM)
---------------------------------
  C      0.611880    1.657630   -4.500290
  C      1.694990    1.541790   -5.570450
  H      2.697330    1.734660   -5.184000
  H      1.506660    2.272240   -6.358080
  S      1.780290   -0.033130   -6.428740
  F      2.569290    0.213660   -7.607360
  O      0.416880   -0.462970   -6.618590
  C      0.680360    0.655420   -3.348040
  H     -0.356870    1.549230   -4.991130
  H      0.650230    2.675440   -4.096000
  O      2.505130   -0.933260   -5.482570
  H      0.643180   -0.340090   -3.738530
  H     -0.148650    0.811530   -2.689800
  H      1.594470    0.793300   -2.809250

 Total Charge           Charge          ....    0
 Multiplicity           Mult            ....    1
 Number of Electrons    NEL             ....   66
 Basis Dimension        Dim             ....  212

ORBITAL ENERGIES
----------------

  NO   OCC          E(Eh)            E(eV)
   0   2.0000     -88.620768     -2411.4937
   1   2.0000     -24.542141      -667.8256
   2   2.0000     -18.914202      -514.6816
   3   2.0000     -18.895326      -514.1680
   4   2.0000     -10.060821      -273.7688
   5   2.0000     -10.029754      -272.9235
   6   2.0000      -9.994298      -271.9587
   7   2.0000      -7.981935      -217.1995
   8   2.0000      -5.972229      -162.5126
   9   2.0000      -5.965691      -162.3347
  10   2.0000      -5.963804      -162.2834
  11   2.0000      -1.294344       -35.2209
  12   2.0000      -1.032111       -28.0852
  13   2.0000      -0.928191       -25.2574
  14   2.0000      -0.767476       -20.8841
  15   2.0000      -0.697337       -18.9755
  16   2.0000      -0.650138       -17.6911
  17   2.0000      -0.583028       -15.8650
  18   2.0000      -0.529931       -14.4202
  19   2.0000      -0.525980       -14.3126
  20   2.0000      -0.504792       -13.7361
  21   2.0000      -0.449731       -12.2378
  22   2.0000      -0.440350       -11.9825
  23   2.0000      -0.412865       -11.2346
  24   2.0000      -0.402488       -10.9523
  25   2.0000      -0.386113       -10.5067
  26   2.0000      -0.345997        -9.4150
  27   2.0000      -0.337871        -9.1939
  28   2.0000      -0.333759        -9.0820
  29   2.0000      -0.321328        -8.7438
  30   2.0000      -0.294848        -8.0232
  31   2.0000      -0.274455        -7.4683
  32   2.0000      -0.260110        -7.0779
  33   0.0000      -0.019924        -0.5422
  34   0.0000      -0.001665        -0.0453
  35   0.0000       0.022331         0.6077
  36   0.0000       0.026563         0.7228
  37   0.0000       0.028061         0.7636

MULLIKEN ATOMIC CHARGES
-----------------------
   0 C :   -0.312757
   1 C :   -0.035200
   2 H :    0.068402
   3 H :    0.072182
   4 S :    1.434825
   5 F :   -0.416361
   6 O :   -0.643188
   7 C :    0.713698
   8 H :    0.042140
   9 H :   -0.103903
  10 O :   -0.681592
  11 H :   -0.077025
  12 H :   -0.050432
  13 H :   -0.010791
Sum of atomic charges:    0.0000000

LOEWDIN ATOMIC CHARGES
----------------------
   0 C :   -0.058915
   1 C :   -0.057261
   2 H :    0.021967
   3 H :    0.011555
   4 S :    1.103327
   5 F :   -0.250253
   6 O :   -0.446483
   7 C :    0.151926
   8 H :    0.023006
   9 H :    0.028944
  10 O :   -0.475288
  11 H :   -0.025818
  12 H :   -0.015361
  13 H :   -0.011346

  Mayer bond orders larger than 0.100000
B(  0-C ,  1-C ) :   1.3250 B(  0-C ,  2-H ) :   0.1219 B(  0-C ,  3-H ) :   0.1491
B(  0-C ,  7-C ) :   1.3032 B(  0-C ,  8-H ) :   0.8880 B(  0-C ,  9-H ) :   0.9035
B(  0-C , 11-H ) :   0.2040 B(  0-C , 12-H ) :   0.2012 B(  0-C , 13-H ) :   0.2100
B(  1-C ,  2-H ) :   0.9245 B(  1-C ,  3-H ) :   0.8577 B(  1-C ,  4-S ) :   0.9407
B(  1-C ,  8-H ) :   0.1337 B(  1-C ,  9-H ) :   0.1270 B(  4-S ,  5-F ) :   0.6859
B(  4-S ,  6-O ) :   1.5034 B(  4-S , 10-O ) :   1.4612 B(  7-C , 11-H ) :   0.8409
B(  7-C , 12-H ) :   0.7653 B(  7-C , 13-H ) :   0.7714

Dispersion correction           -0.016216190
FINAL SINGLE POINT ENERGY      -766.636463877226

DIPOLE MOMENT
-------------
                                X             Y             Z
Electronic contribution:      5.09314      -5.46061     -11.96330
Nuclear contribution   :     -4.93724       7.05784      11.92827
                        -----------------------------------------
Total Dipole Moment    :      0.15590       1.59723      -0.03503
                        -----------------------------------------
Magnitude (a.u.)       :      1.60520
Magnitude (Debye)      :      4.08010

Rotational constants in cm-1:     0.134572     0.053398     0.050578
Rotational constants in MHz :  4034.377338  1600.833917  1516.302250

                             ****ORCA TERMINATED NORMALLY****
TOTAL RUN TIME: 0 days 0 hours 0 minutes 8 seconds 659 msec
