                         Program Version 5.0.0 -  RELEASE  -
|  1> !TPSS D3BJ RIJCOSX def2-SVPD def2/J TightSCF
|  2> *xyz 0 1
|  3> C          1.96337       -1.74915       -1.89689
|  4> C          2.73849       -2.01517       -3.09711
|  5> C          4.04974       -2.15472       -3.15204
|  6> N          4.65821       -1.98629       -4.31866
|  7> N          4.76423       -2.45444       -2.05049
|  8> H          4.28736       -2.77626       -1.21750
|  9> H          5.75082       -2.65835       -2.12599
| 10> H          2.34518       -1.69027       -3.97145
| 11> H          4.10900       -1.59268       -5.07176
| 12> H          5.64910       -2.15646       -4.42724
| 13> C          2.08852       -0.30091       -1.41520
| 14> H          2.23127       -2.45162       -1.10264
| 15> H          0.93025       -1.97780       -2.15544
| 16> C          1.96899        0.73358       -2.53565
| 17> H          3.05136       -0.16860       -0.91187
| 18> H          1.31650       -0.13623       -0.65725
| 19> H          2.73046        0.55745       -3.26643
| 20> H          2.08619        1.71595       -2.12808
| 21> H          1.00672        0.65098       -2.99620
| 22> *
| 23> %MaxCore 64000
| 24>
| 25> %pal nprocs 8
| 26> end
| 27>
| 28> %scf
| 29>   MaxIter 150
| 30> end
| 31>
| 32>
| 33>                          ****END OF INPUT****

CARTESIAN COORDINATES (ANGSTROEM)
---------------------------------
  C      1.963370   -1.749150   -1.896890
  C      2.738490   -2.015170   -3.097110
  C      4.049740   -2.154720   -3.152040
  N      4.658210   -1.986290   -4.318660
  N      4.764230   -2.454440   -2.050490
  H      4.287360   -2.776260   -1.217500
  H      5.750820   -2.658350   -2.125990
  H      2.345180   -1.690270   -3.971450
  H      4.109000   -1.592680   -5.071760
  H      5.649100   -2.156460   -4.427240
  C      2.088520   -0.300910   -1.415200
  H      2.231270   -2.451620   -1.102640
  H      0.930250   -1.977800   -2.155440
  C      1.968990    0.733580   -2.535650
  H      3.051360   -0.168600   -0.911870
  H      1.316500   -0.136230   -0.657250
  H      2.730460    0.557450   -3.266430
  H      2.086190    1.715950   -2.128080
  H      1.006720    0.650980   -2.996200

 Total Charge           Charge          ....    0
 Multiplicity           Mult            ....    1
 Number of Electrons    NEL             ....   56
 Basis Dimension        Dim             ....  236

ORBITAL ENERGIES
----------------

  NO   OCC          E(Eh)            E(eV)
   0   2.0000     -14.120946      -384.2505
   1   2.0000     -14.119454      -384.2099
   2   2.0000     -10.036466      -273.1061
   3   2.0000      -9.976330      -271.4697
   4   2.0000      -9.974366      -271.4163
   5   2.0000      -9.969096      -271.2729
   6   2.0000      -9.919373      -269.9199
   7   2.0000      -0.886732       -24.1292
   8   2.0000      -0.803558       -21.8659
   9   2.0000      -0.719974       -19.5915
  10   2.0000      -0.656895       -17.8750
  11   2.0000      -0.601832       -16.3767
  12   2.0000      -0.545707       -14.8494
  13   2.0000      -0.518451       -14.1078
  14   2.0000      -0.497368       -13.5341
  15   2.0000      -0.459628       -12.5071
  16   2.0000      -0.432424       -11.7669
  17   2.0000      -0.402733       -10.9589
  18   2.0000      -0.392548       -10.6818
  19   2.0000      -0.366385        -9.9698
  20   2.0000      -0.343252        -9.3404
  21   2.0000      -0.333598        -9.0777
  22   2.0000      -0.318025        -8.6539
  23   2.0000      -0.293053        -7.9744
  24   2.0000      -0.276803        -7.5322
  25   2.0000      -0.273681        -7.4472
  26   2.0000      -0.225793        -6.1441
  27   2.0000      -0.130215        -3.5433
  28   0.0000      -0.000516        -0.0141
  29   0.0000       0.026481         0.7206
  30   0.0000       0.029573         0.8047
  31   0.0000       0.042558         1.1581
  32   0.0000       0.057398         1.5619

MULLIKEN ATOMIC CHARGES
-----------------------
   0 C :    0.267803
   1 C :   -0.421652
   2 C :    0.871582
   3 N :   -0.104240
   4 N :   -0.103457
   5 H :   -0.004166
   6 H :   -0.263019
   7 H :   -0.034156
   8 H :    0.041560
   9 H :   -0.210339
  10 C :   -0.308747
  11 H :   -0.078946
  12 H :   -0.057867
  13 C :    0.672588
  14 H :   -0.018669
  15 H :   -0.054424
  16 H :   -0.143995
  17 H :   -0.054339
  18 H :    0.004483
Sum of atomic charges:   -0.0000000

LOEWDIN ATOMIC CHARGES
----------------------
   0 C :   -0.054484
   1 C :   -0.046541
   2 C :   -0.217604
   3 N :    0.183854
   4 N :    0.204775
   5 H :   -0.008105
   6 H :   -0.014507
   7 H :   -0.051811
   8 H :    0.005857
   9 H :   -0.008779
  10 C :   -0.063179
  11 H :   -0.001957
  12 H :    0.009557
  13 C :    0.128144
  14 H :    0.008872
  15 H :    0.007136
  16 H :   -0.034031
  17 H :   -0.027054
  18 H :   -0.020141

  Mayer bond orders larger than 0.100000
B(  0-C ,  1-C ) :   1.2050 B(  0-C ,  7-H ) :   0.3089 B(  0-C , 10-C ) :   1.1287
B(  0-C , 11-H ) :   0.8475 B(  0-C , 12-H ) :   0.7586 B(  0-C , 14-H ) :   0.1061
B(  0-C , 15-H ) :   0.1422 B(  1-C ,  2-C ) :   1.7682 B(  1-C ,  3-N ) :   0.3052
B(  1-C ,  4-N ) :   0.2461 B(  1-C ,  7-H ) :   0.6727 B(  1-C , 11-H ) :   0.2205
B(  1-C , 12-H ) :   0.2611 B(  2-C ,  3-N ) :   0.7908 B(  2-C ,  4-N ) :   0.8674
B(  2-C ,  6-H ) :  -0.2237 B(  2-C ,  7-H ) :   0.2925 B(  2-C ,  9-H ) :  -0.1677
B(  3-N ,  4-N ) :   0.1298 B(  3-N ,  8-H ) :   1.1015 B(  3-N ,  9-H ) :   1.3482
B(  4-N ,  5-H ) :   1.0387 B(  4-N ,  6-H ) :   1.4133 B(  5-H ,  6-H ) :  -0.2039
B(  8-H ,  9-H ) :  -0.1750 B( 10-C , 12-H ) :   0.1115 B( 10-C , 13-C ) :   1.2945
B( 10-C , 14-H ) :   0.9541 B( 10-C , 15-H ) :   0.8980 B( 10-C , 16-H ) :   0.2393
B( 10-C , 17-H ) :   0.2109 B( 10-C , 18-H ) :   0.2127 B( 13-C , 16-H ) :   0.8446
B( 13-C , 17-H ) :   0.7763 B( 13-C , 18-H ) :   0.7741 B( 16-H , 18-H ) :   0.1010

Dispersion correction           -0.020630932
FINAL SINGLE POINT ENERGY      -307.086548342904

DIPOLE MOMENT
-------------
                                X             Y             Z
Electronic contribution:      3.84066      -4.07134      -1.74369
Nuclear contribution   :     -2.83106       3.92601       1.57906
                        -----------------------------------------
Total Dipole Moment    :      1.00959      -0.14533      -0.16463
                        -----------------------------------------
Magnitude (a.u.)       :      1.03320
Magnitude (Debye)      :      2.62618

Rotational constants in cm-1:     0.142679     0.055043     0.048600
Rotational constants in MHz :  4277.395781  1650.135877  1456.977167

                             ****ORCA TERMINATED NORMALLY****
TOTAL RUN TIME: 0 days 0 hours 0 minutes 10 seconds 410 msec
