                         Program Version 5.0.0 -  RELEASE  -
|  1> !TPSS D3BJ RIJCOSX def2-SVPD def2/J TightSCF
|  2> *xyz 0 1
|  3> C          0.61188        1.65763       -4.50029
|  4> C          1.69499        1.54179       -5.57045
|  5> H          2.69733        1.73466       -5.18400
|  6> H          1.50666        2.27224       -6.35808
|  7> S          1.78029       -0.03313       -6.42874
|  8> O          2.56929        0.21366       -7.60736
|  9> F          0.41688       -0.46297       -6.61859
| 10> C          0.68036        0.65542       -3.34804
| 11> H         -0.35687        1.54923       -4.99113
| 12> H          0.65023        2.67544       -4.09600
| 13> O          2.50513       -0.93326       -5.48257
| 14> H          0.64318       -0.34009       -3.73853
| 15> H         -0.14865        0.81153       -2.68980
| 16> H          1.59447        0.79330       -2.80925
| 17> *
| 18> %MaxCore 64000
| 19>
| 20> %pal nprocs 8
| 21> end
| 22>
| 23> %scf
| 24>   MaxIter 150
| 25> end
| 26>
| 27>
| 28>                          ****END OF INPUT****

CARTESIAN COORDINATES (ANGSTROEM)
---------------------------------
  C      0.611880    1.657630   -4.500290
  C      1.694990    1.541790   -5.570450
  H      2.697330    1.734660   -5.184000
  H      1.506660    2.272240   -6.358080
  S      1.780290   -0.033130   -6.428740
  O      2.569290    0.213660   -7.607360
  F      0.416880   -0.462970   -6.618590
  C      0.680360    0.655420   -3.348040
  H     -0.356870    1.549230   -4.991130
  H      0.650230    2.675440   -4.096000
  O      2.505130   -0.933260   -5.482570
  H      0.643180   -0.340090   -3.738530
  H     -0.148650    0.811530   -2.689800
  H      1.594470    0.793300   -2.809250

 Total Charge           Charge          ....    0
 Multiplicity           Mult            ....    1
 Number of Electrons    NEL             ....   66
 Basis Dimension        Dim             ....  212

ORBITAL ENERGIES
----------------

  NO   OCC          E(Eh)            E(eV)
   0   2.0000     -88.620482     -2411.4859
   1   2.0000     -24.542359      -667.8315
   2   2.0000     -18.913087      -514.6512
   3   2.0000     -18.894788      -514.1533
   4   2.0000     -10.060695      -273.7654
   5   2.0000     -10.034288      -273.0469
   6   2.0000     -10.002589      -272.1843
   7   2.0000      -7.981631      -217.1912
   8   2.0000      -5.972115      -162.5095
   9   2.0000      -5.965267      -162.3232
  10   2.0000      -5.963438      -162.2734
  11   2.0000      -1.293316       -35.1929
  12   2.0000      -1.032502       -28.0958
  13   2.0000      -0.927594       -25.2411
  14   2.0000      -0.772189       -21.0123
  15   2.0000      -0.695693       -18.9308
  16   2.0000      -0.654709       -17.8155
  17   2.0000      -0.585984       -15.9454
  18   2.0000      -0.540472       -14.7070
  19   2.0000      -0.529065       -14.3966
  20   2.0000      -0.493848       -13.4383
  21   2.0000      -0.451331       -12.2813
  22   2.0000      -0.440467       -11.9857
  23   2.0000      -0.417765       -11.3680
  24   2.0000      -0.401247       -10.9185
  25   2.0000      -0.393516       -10.7081
  26   2.0000      -0.349322        -9.5055
  27   2.0000      -0.344752        -9.3812
  28   2.0000      -0.341238        -9.2855
  29   2.0000      -0.327667        -8.9163
  30   2.0000      -0.291440        -7.9305
  31   2.0000      -0.274987        -7.4828
  32   2.0000      -0.258541        -7.0353
  33   0.0000      -0.026284        -0.7152
  34   0.0000       0.007094         0.1930
  35   0.0000       0.019774         0.5381
  36   0.0000       0.024252         0.6599
  37   0.0000       0.025530         0.6947

MULLIKEN ATOMIC CHARGES
-----------------------
   0 C :   -0.293065
   1 C :   -0.008840
   2 H :    0.064937
   3 H :    0.060381
   4 S :    1.389800
   5 O :   -0.657925
   6 F :   -0.383957
   7 C :    0.736588
   8 H :    0.017852
   9 H :   -0.107474
  10 O :   -0.675821
  11 H :   -0.088863
  12 H :   -0.048948
  13 H :   -0.004663
Sum of atomic charges:    0.0000000

LOEWDIN ATOMIC CHARGES
----------------------
   0 C :   -0.073940
   1 C :   -0.044615
   2 H :    0.034803
   3 H :    0.015568
   4 S :    1.099670
   5 O :   -0.446938
   6 F :   -0.247224
   7 C :    0.147813
   8 H :    0.017129
   9 H :    0.026763
  10 O :   -0.472985
  11 H :   -0.031901
  12 H :   -0.015738
  13 H :   -0.008404

  Mayer bond orders larger than 0.100000
B(  0-C ,  1-C ) :   1.2667 B(  0-C ,  2-H ) :   0.1213 B(  0-C ,  3-H ) :   0.1350
B(  0-C ,  7-C ) :   1.3064 B(  0-C ,  8-H ) :   0.8940 B(  0-C ,  9-H ) :   0.9080
B(  0-C , 11-H ) :   0.2087 B(  0-C , 12-H ) :   0.2012 B(  0-C , 13-H ) :   0.2156
B(  1-C ,  2-H ) :   0.9214 B(  1-C ,  3-H ) :   0.9057 B(  1-C ,  4-S ) :   0.9695
B(  1-C ,  8-H ) :   0.1259 B(  1-C ,  9-H ) :   0.1278 B(  4-S ,  5-O ) :   1.5743
B(  4-S ,  6-F ) :   0.6719 B(  4-S , 10-O ) :   1.4856 B(  7-C , 11-H ) :   0.8324
B(  7-C , 12-H ) :   0.7654 B(  7-C , 13-H ) :   0.7717 B( 11-H , 13-H ) :   0.1041

Dispersion correction           -0.016085964
FINAL SINGLE POINT ENERGY      -766.635526999431

DIPOLE MOMENT
-------------
                                X             Y             Z
Electronic contribution:      1.48112      -6.57955     -10.24939
Nuclear contribution   :     -2.62245       7.78551      10.86491
                        -----------------------------------------
Total Dipole Moment    :     -1.14133       1.20596       0.61552
                        -----------------------------------------
Magnitude (a.u.)       :      1.77083
Magnitude (Debye)      :      4.50109

Rotational constants in cm-1:     0.129509     0.054228     0.052367
Rotational constants in MHz :  3882.596420  1625.701900  1569.934536

                             ****ORCA TERMINATED NORMALLY****
TOTAL RUN TIME: 0 days 0 hours 0 minutes 7 seconds 808 msec
