                         Program Version 5.0.0 -  RELEASE  -
|  1> !TPSS D3BJ RIJCOSX def2-SVPD def2/J TightSCF
|  2> *xyz 0 1
|  3> C          1.96337       -1.74915       -1.89689
|  4> N          2.73849       -2.01517       -3.09711
|  5> C          4.04974       -2.15472       -3.15204
|  6> C          4.65821       -1.98629       -4.31866
|  7> N          4.76423       -2.45444       -2.05049
|  8> H          4.28736       -2.77626       -1.21750
|  9> H          5.75082       -2.65835       -2.12599
| 10> H          2.34518       -1.69027       -3.97145
| 11> H          4.10900       -1.59268       -5.07176
| 12> H          5.64910       -2.15646       -4.42724
| 13> C          2.08852       -0.30091       -1.41520
| 14> H          2.23127       -2.45162       -1.10264
| 15> H          0.93025       -1.97780       -2.15544
| 16> C          1.96899        0.73358       -2.53565
| 17> H          3.05136       -0.16860       -0.91187
| 18> H          1.31650       -0.13623       -0.65725
| 19> H          2.73046        0.55745       -3.26643
| 20> H          2.08619        1.71595       -2.12808
| 21> H          1.00672        0.65098       -2.99620
| 22> *
| 23> %MaxCore 64000
| 24>
| 25> %pal nprocs 8
| 26> end
| 27>
| 28> %scf
| 29>   MaxIter 150
| 30> end
| 31>
| 32>
| 33>                          ****END OF INPUT****

CARTESIAN COORDINATES (ANGSTROEM)
---------------------------------
  C      1.963370   -1.749150   -1.896890
  N      2.738490   -2.015170   -3.097110
  C      4.049740   -2.154720   -3.152040
  C      4.658210   -1.986290   -4.318660
  N      4.764230   -2.454440   -2.050490
  H      4.287360   -2.776260   -1.217500
  H      5.750820   -2.658350   -2.125990
  H      2.345180   -1.690270   -3.971450
  H      4.109000   -1.592680   -5.071760
  H      5.649100   -2.156460   -4.427240
  C      2.088520   -0.300910   -1.415200
  H      2.231270   -2.451620   -1.102640
  H      0.930250   -1.977800   -2.155440
  C      1.968990    0.733580   -2.535650
  H      3.051360   -0.168600   -0.911870
  H      1.316500   -0.136230   -0.657250
  H      2.730460    0.557450   -3.266430
  H      2.086190    1.715950   -2.128080
  H      1.006720    0.650980   -2.996200

 Total Charge           Charge          ....    0
 Multiplicity           Mult            ....    1
 Number of Electrons    NEL             ....   56
 Basis Dimension        Dim             ....  236

ORBITAL ENERGIES
----------------

  NO   OCC          E(Eh)            E(eV)
   0   2.0000     -14.118467      -384.1830
   1   2.0000     -14.115278      -384.0962
   2   2.0000     -10.038268      -273.1552
   3   2.0000     -10.036478      -273.1064
   4   2.0000      -9.999144      -272.0905
   5   2.0000      -9.988156      -271.7915
   6   2.0000      -9.913750      -269.7669
   7   2.0000      -0.893876       -24.3236
   8   2.0000      -0.814416       -22.1614
   9   2.0000      -0.722687       -19.6653
  10   2.0000      -0.663735       -18.0612
  11   2.0000      -0.612702       -16.6725
  12   2.0000      -0.557159       -15.1611
  13   2.0000      -0.536691       -14.6041
  14   2.0000      -0.487718       -13.2715
  15   2.0000      -0.450899       -12.2696
  16   2.0000      -0.438608       -11.9351
  17   2.0000      -0.414324       -11.2743
  18   2.0000      -0.403557       -10.9813
  19   2.0000      -0.366024        -9.9600
  20   2.0000      -0.352216        -9.5843
  21   2.0000      -0.349483        -9.5099
  22   2.0000      -0.333393        -9.0721
  23   2.0000      -0.314669        -8.5626
  24   2.0000      -0.311236        -8.4692
  25   2.0000      -0.302946        -8.2436
  26   2.0000      -0.214602        -5.8396
  27   2.0000      -0.132731        -3.6118
  28   0.0000       0.000436         0.0119
  29   0.0000       0.020690         0.5630
  30   0.0000       0.030863         0.8398
  31   0.0000       0.036549         0.9945
  32   0.0000       0.055582         1.5125

MULLIKEN ATOMIC CHARGES
-----------------------
   0 C :    0.762440
   1 N :   -0.391018
   2 C :    0.699603
   3 C :    0.264801
   4 N :    0.083259
   5 H :   -0.108092
   6 H :   -0.185148
   7 H :   -0.151515
   8 H :   -0.197441
   9 H :   -0.385929
  10 C :   -0.377346
  11 H :   -0.116361
  12 H :   -0.281123
  13 C :    0.693822
  14 H :    0.013445
  15 H :   -0.122307
  16 H :   -0.126323
  17 H :   -0.081243
  18 H :    0.006477
Sum of atomic charges:    0.0000000

LOEWDIN ATOMIC CHARGES
----------------------
   0 C :    0.054643
   1 N :   -0.015715
   2 C :   -0.241111
   3 C :    0.149810
   4 N :    0.203006
   5 H :   -0.024510
   6 H :    0.003296
   7 H :    0.027486
   8 H :   -0.102164
   9 H :   -0.100681
  10 C :   -0.056325
  11 H :    0.005208
  12 H :    0.015711
  13 C :    0.133425
  14 H :    0.010367
  15 H :    0.010800
  16 H :   -0.030485
  17 H :   -0.021859
  18 H :   -0.020904

  Mayer bond orders larger than 0.100000
B(  0-C ,  1-N ) :   0.9321 B(  0-C ,  7-H ) :  -0.1385 B(  0-C , 10-C ) :   1.0604
B(  0-C , 11-H ) :   0.8890 B(  0-C , 12-H ) :   0.7576 B(  0-C , 15-H ) :   0.1175
B(  1-N ,  2-C ) :   1.0646 B(  1-N ,  3-C ) :   0.2901 B(  1-N ,  4-N ) :   0.1585
B(  1-N ,  7-H ) :   1.1463 B(  1-N , 11-H ) :   0.1366 B(  1-N , 12-H ) :   0.2658
B(  2-C ,  3-C ) :   1.2643 B(  2-C ,  4-N ) :   0.9763 B(  2-C ,  6-H ) :  -0.1196
B(  2-C ,  7-H ) :  -0.1385 B(  2-C ,  9-H ) :   0.1577 B(  3-C ,  4-N ) :   0.2224
B(  3-C ,  8-H ) :   0.9147 B(  3-C ,  9-H ) :   0.8075 B(  4-N ,  5-H ) :   1.0507
B(  4-N ,  6-H ) :   1.2752 B(  5-H ,  6-H ) :  -0.1973 B( 10-C , 12-H ) :   0.1390
B( 10-C , 13-C ) :   1.3013 B( 10-C , 14-H ) :   0.9365 B( 10-C , 15-H ) :   0.9966
B( 10-C , 16-H ) :   0.2121 B( 10-C , 17-H ) :   0.2045 B( 10-C , 18-H ) :   0.2017
B( 13-C , 16-H ) :   0.8544 B( 13-C , 17-H ) :   0.7941 B( 13-C , 18-H ) :   0.7738
B( 16-H , 18-H ) :   0.1081

Dispersion correction           -0.020451267
FINAL SINGLE POINT ENERGY      -307.084228160625

DIPOLE MOMENT
-------------
                                X             Y             Z
Electronic contribution:      1.95626      -3.92876      -0.44829
Nuclear contribution   :     -2.41054       3.93233       1.31148
                        -----------------------------------------
Total Dipole Moment    :     -0.45428       0.00357       0.86319
                        -----------------------------------------
Magnitude (a.u.)       :      0.97544
Magnitude (Debye)      :      2.47937

Rotational constants in cm-1:     0.144008     0.056232     0.050126
Rotational constants in MHz :  4317.255215  1685.791221  1502.728769

                             ****ORCA TERMINATED NORMALLY****
TOTAL RUN TIME: 0 days 0 hours 0 minutes 10 seconds 776 msec
