                         Program Version 5.0.0 -  RELEASE  -
|  1> !TPSS D3BJ RIJCOSX def2-SVPD def2/J TightSCF
|  2> *xyz 0 1
|  3> C          0.61188        1.65763       -4.50029
|  4> C          1.69499        1.54179       -5.57045
|  5> H          2.69733        1.73466       -5.18400
|  6> H          1.50666        2.27224       -6.35808
|  7> S          1.78029       -0.03313       -6.42874
|  8> O          2.56929        0.21366       -7.60736
|  9> O          0.41688       -0.46297       -6.61859
| 10> C          0.68036        0.65542       -3.34804
| 11> H         -0.35687        1.54923       -4.99113
| 12> H          0.65023        2.67544       -4.09600
| 13> F          2.50513       -0.93326       -5.48257
| 14> H          0.64318       -0.34009       -3.73853
| 15> H         -0.14865        0.81153       -2.68980
| 16> H          1.59447        0.79330       -2.80925
| 17> *
| 18> %MaxCore 64000
| 19>
| 20> %pal nprocs 8
| 21> end
| 22>
| 23> %scf
| 24>   MaxIter 150
| 25> end
| 26>
| 27>
| 28>                          ****END OF INPUT****

CARTESIAN COORDINATES (ANGSTROEM)
---------------------------------
  C      0.611880    1.657630   -4.500290
  C      1.694990    1.541790   -5.570450
  H      2.697330    1.734660   -5.184000
  H      1.506660    2.272240   -6.358080
  S      1.780290   -0.033130   -6.428740
  O      2.569290    0.213660   -7.607360
  O      0.416880   -0.462970   -6.618590
  C      0.680360    0.655420   -3.348040
  H     -0.356870    1.549230   -4.991130
  H      0.650230    2.675440   -4.096000
  F      2.505130   -0.933260   -5.482570
  H      0.643180   -0.340090   -3.738530
  H     -0.148650    0.811530   -2.689800
  H      1.594470    0.793300   -2.809250

 Total Charge           Charge          ....    0
 Multiplicity           Mult            ....    1
 Number of Electrons    NEL             ....   66
 Basis Dimension        Dim             ....  212

ORBITAL ENERGIES
----------------

  NO   OCC          E(Eh)            E(eV)
   0   2.0000     -88.617923     -2411.4163
   1   2.0000     -24.515333      -667.0961
   2   2.0000     -18.913447      -514.6611
   3   2.0000     -18.912581      -514.6375
   4   2.0000     -10.059551      -273.7343
   5   2.0000     -10.030113      -272.9333
   6   2.0000     -10.006626      -272.2941
   7   2.0000      -7.979026      -217.1203
   8   2.0000      -5.969057      -162.4263
   9   2.0000      -5.963073      -162.2635
  10   2.0000      -5.961109      -162.2100
  11   2.0000      -1.249931       -34.0123
  12   2.0000      -1.043341       -28.3908
  13   2.0000      -0.954955       -25.9857
  14   2.0000      -0.769902       -20.9501
  15   2.0000      -0.692450       -18.8425
  16   2.0000      -0.638181       -17.3658
  17   2.0000      -0.582428       -15.8487
  18   2.0000      -0.516589       -14.0571
  19   2.0000      -0.499731       -13.5984
  20   2.0000      -0.496359       -13.5066
  21   2.0000      -0.451867       -12.2959
  22   2.0000      -0.436759       -11.8848
  23   2.0000      -0.415111       -11.2957
  24   2.0000      -0.407514       -11.0890
  25   2.0000      -0.397524       -10.8172
  26   2.0000      -0.352845        -9.6014
  27   2.0000      -0.349556        -9.5119
  28   2.0000      -0.336840        -9.1659
  29   2.0000      -0.327468        -8.9109
  30   2.0000      -0.299336        -8.1454
  31   2.0000      -0.291755        -7.9390
  32   2.0000      -0.280022        -7.6198
  33   0.0000      -0.017703        -0.4817
  34   0.0000       0.005750         0.1565
  35   0.0000       0.017709         0.4819
  36   0.0000       0.023967         0.6522
  37   0.0000       0.030209         0.8220

MULLIKEN ATOMIC CHARGES
-----------------------
   0 C :   -0.268551
   1 C :   -0.032034
   2 H :    0.072960
   3 H :    0.070491
   4 S :    1.397011
   5 O :   -0.669584
   6 O :   -0.654564
   7 C :    0.702668
   8 H :    0.043704
   9 H :   -0.103910
  10 F :   -0.398226
  11 H :   -0.103327
  12 H :   -0.046843
  13 H :   -0.009795
Sum of atomic charges:   -0.0000000

LOEWDIN ATOMIC CHARGES
----------------------
   0 C :   -0.068818
   1 C :   -0.047198
   2 H :    0.020723
   3 H :    0.026781
   4 S :    1.094714
   5 O :   -0.448072
   6 O :   -0.444680
   7 C :    0.146596
   8 H :    0.023312
   9 H :    0.026942
  10 F :   -0.273336
  11 H :   -0.029584
  12 H :   -0.013422
  13 H :   -0.013958

  Mayer bond orders larger than 0.100000
B(  0-C ,  1-C ) :   1.3066 B(  0-C ,  2-H ) :   0.1260 B(  0-C ,  3-H ) :   0.1287
B(  0-C ,  7-C ) :   1.2994 B(  0-C ,  8-H ) :   0.8938 B(  0-C ,  9-H ) :   0.8962
B(  0-C , 11-H ) :   0.2026 B(  0-C , 12-H ) :   0.2003 B(  0-C , 13-H ) :   0.2093
B(  1-C ,  2-H ) :   0.9194 B(  1-C ,  3-H ) :   0.8887 B(  1-C ,  4-S ) :   0.9686
B(  1-C ,  8-H ) :   0.1371 B(  1-C ,  9-H ) :   0.1289 B(  4-S ,  5-O ) :   1.5674
B(  4-S ,  6-O ) :   1.5250 B(  4-S , 10-F ) :   0.6107 B(  7-C , 11-H ) :   0.8426
B(  7-C , 12-H ) :   0.7724 B(  7-C , 13-H ) :   0.7760

Dispersion correction           -0.016090145
FINAL SINGLE POINT ENERGY      -766.659574714785

DIPOLE MOMENT
-------------
                                X             Y             Z
Electronic contribution:      4.97506      -7.38412      -8.32652
Nuclear contribution   :     -4.86824       8.29128       9.64318
                        -----------------------------------------
Total Dipole Moment    :      0.10682       0.90716       1.31666
                        -----------------------------------------
Magnitude (a.u.)       :      1.60248
Magnitude (Debye)      :      4.07319

Rotational constants in cm-1:     0.129339     0.055092     0.051542
Rotational constants in MHz :  3877.477482  1651.602611  1545.182728

                             ****ORCA TERMINATED NORMALLY****
TOTAL RUN TIME: 0 days 0 hours 0 minutes 8 seconds 321 msec
