                         Program Version 5.0.0 -  RELEASE  -
|  1> !TPSS D3BJ RIJCOSX def2-SVPD def2/J TightSCF
|  2> *xyz 0 1
|  3> C          1.96337       -1.74915       -1.89689
|  4> N          2.73849       -2.01517       -3.09711
|  5> C          4.04974       -2.15472       -3.15204
|  6> N          4.65821       -1.98629       -4.31866
|  7> C          4.76423       -2.45444       -2.05049
|  8> H          4.28736       -2.77626       -1.21750
|  9> H          5.75082       -2.65835       -2.12599
| 10> H          2.34518       -1.69027       -3.97145
| 11> H          4.10900       -1.59268       -5.07176
| 12> H          5.64910       -2.15646       -4.42724
| 13> C          2.08852       -0.30091       -1.41520
| 14> H          2.23127       -2.45162       -1.10264
| 15> H          0.93025       -1.97780       -2.15544
| 16> C          1.96899        0.73358       -2.53565
| 17> H          3.05136       -0.16860       -0.91187
| 18> H          1.31650       -0.13623       -0.65725
| 19> H          2.73046        0.55745       -3.26643
| 20> H          2.08619        1.71595       -2.12808
| 21> H          1.00672        0.65098       -2.99620
| 22> *
| 23> %MaxCore 64000
| 24>
| 25> %pal nprocs 8
| 26> end
| 27>
| 28> %scf
| 29>   MaxIter 150
| 30> end
| 31>
| 32>
| 33>                          ****END OF INPUT****

CARTESIAN COORDINATES (ANGSTROEM)
---------------------------------
  C      1.963370   -1.749150   -1.896890
  N      2.738490   -2.015170   -3.097110
  C      4.049740   -2.154720   -3.152040
  N      4.658210   -1.986290   -4.318660
  C      4.764230   -2.454440   -2.050490
  H      4.287360   -2.776260   -1.217500
  H      5.750820   -2.658350   -2.125990
  H      2.345180   -1.690270   -3.971450
  H      4.109000   -1.592680   -5.071760
  H      5.649100   -2.156460   -4.427240
  C      2.088520   -0.300910   -1.415200
  H      2.231270   -2.451620   -1.102640
  H      0.930250   -1.977800   -2.155440
  C      1.968990    0.733580   -2.535650
  H      3.051360   -0.168600   -0.911870
  H      1.316500   -0.136230   -0.657250
  H      2.730460    0.557450   -3.266430
  H      2.086190    1.715950   -2.128080
  H      1.006720    0.650980   -2.996200

 Total Charge           Charge          ....    0
 Multiplicity           Mult            ....    1
 Number of Electrons    NEL             ....   56
 Basis Dimension        Dim             ....  236

ORBITAL ENERGIES
----------------

  NO   OCC          E(Eh)            E(eV)
   0   2.0000     -14.120970      -384.2511
   1   2.0000     -14.119024      -384.1982
   2   2.0000     -10.037874      -273.1444
   3   2.0000     -10.032662      -273.0026
   4   2.0000      -9.993773      -271.9444
   5   2.0000      -9.987738      -271.7802
   6   2.0000      -9.913600      -269.7628
   7   2.0000      -0.899526       -24.4773
   8   2.0000      -0.818360       -22.2687
   9   2.0000      -0.713983       -19.4285
  10   2.0000      -0.649208       -17.6658
  11   2.0000      -0.633820       -17.2471
  12   2.0000      -0.555882       -15.1263
  13   2.0000      -0.504969       -13.7409
  14   2.0000      -0.500162       -13.6101
  15   2.0000      -0.480103       -13.0643
  16   2.0000      -0.430449       -11.7131
  17   2.0000      -0.409335       -11.1386
  18   2.0000      -0.397624       -10.8199
  19   2.0000      -0.364143        -9.9088
  20   2.0000      -0.352370        -9.5885
  21   2.0000      -0.341844        -9.3020
  22   2.0000      -0.331104        -9.0098
  23   2.0000      -0.313714        -8.5366
  24   2.0000      -0.310035        -8.4365
  25   2.0000      -0.296288        -8.0624
  26   2.0000      -0.212953        -5.7948
  27   2.0000      -0.133773        -3.6401
  28   0.0000      -0.003711        -0.1010
  29   0.0000       0.023521         0.6400
  30   0.0000       0.033484         0.9111
  31   0.0000       0.037931         1.0322
  32   0.0000       0.052279         1.4226

MULLIKEN ATOMIC CHARGES
-----------------------
   0 C :    0.723065
   1 N :   -0.428857
   2 C :    0.792090
   3 N :   -0.041087
   4 C :    0.262556
   5 H :   -0.027583
   6 H :   -0.552985
   7 H :   -0.237649
   8 H :   -0.089832
   9 H :   -0.127453
  10 C :   -0.340371
  11 H :    0.011804
  12 H :   -0.299233
  13 C :    0.690227
  14 H :   -0.029506
  15 H :   -0.096241
  16 H :   -0.138638
  17 H :   -0.078157
  18 H :    0.007848
Sum of atomic charges:   -0.0000000

LOEWDIN ATOMIC CHARGES
----------------------
   0 C :    0.064117
   1 N :   -0.018940
   2 C :   -0.243121
   3 N :    0.188466
   4 C :    0.165052
   5 H :   -0.113181
   6 H :   -0.107585
   7 H :    0.013579
   8 H :   -0.011675
   9 H :    0.010400
  10 C :   -0.049646
  11 H :    0.014104
  12 H :    0.015771
  13 C :    0.128540
  14 H :    0.011599
  15 H :    0.013442
  16 H :   -0.035910
  17 H :   -0.022304
  18 H :   -0.022709

  Mayer bond orders larger than 0.100000
B(  0-C ,  1-N ) :   0.9038 B(  0-C ,  4-C ) :   0.1143 B(  0-C ,  7-H ) :  -0.1381
B(  0-C , 10-C ) :   1.0381 B(  0-C , 11-H ) :   0.8728 B(  0-C , 12-H ) :   0.8264
B(  0-C , 15-H ) :   0.1145 B(  1-N ,  2-C ) :   0.9162 B(  1-N ,  3-N ) :   0.2375
B(  1-N ,  4-C ) :   0.3754 B(  1-N ,  7-H ) :   1.2419 B(  1-N , 12-H ) :   0.2128
B(  2-C ,  3-N ) :   0.7950 B(  2-C ,  4-C ) :   1.5372 B(  2-C ,  5-H ) :   0.2495
B(  2-C ,  6-H ) :   0.1463 B(  2-C ,  7-H ) :  -0.1998 B(  2-C ,  9-H ) :  -0.1227
B(  3-N ,  4-C ) :   0.2393 B(  3-N ,  8-H ) :   1.1475 B(  3-N ,  9-H ) :   1.2882
B(  4-C ,  5-H ) :   0.6314 B(  4-C ,  6-H ) :   0.9606 B(  5-H , 11-H ) :   0.1225
B(  8-H ,  9-H ) :  -0.1608 B( 10-C , 12-H ) :   0.1328 B( 10-C , 13-C ) :   1.2950
B( 10-C , 14-H ) :   0.9640 B( 10-C , 15-H ) :   0.9600 B( 10-C , 16-H ) :   0.2185
B( 10-C , 17-H ) :   0.2043 B( 10-C , 18-H ) :   0.2033 B( 11-H , 12-H ) :  -0.1241
B( 13-C , 16-H ) :   0.8523 B( 13-C , 17-H ) :   0.7936 B( 13-C , 18-H ) :   0.7703
B( 16-H , 18-H ) :   0.1024

Dispersion correction           -0.020525612
FINAL SINGLE POINT ENERGY      -307.083248023441

DIPOLE MOMENT
-------------
                                X             Y             Z
Electronic contribution:      1.88246      -3.43207      -2.60904
Nuclear contribution   :     -2.38731       3.82978       1.80833
                        -----------------------------------------
Total Dipole Moment    :     -0.50485       0.39771      -0.80071
                        -----------------------------------------
Magnitude (a.u.)       :      1.02674
Magnitude (Debye)      :      2.60976

Rotational constants in cm-1:     0.144922     0.055791     0.049560
Rotational constants in MHz :  4344.653038  1672.561873  1485.775629

                             ****ORCA TERMINATED NORMALLY****
TOTAL RUN TIME: 0 days 0 hours 0 minutes 11 seconds 9 msec
