                         Program Version 5.0.0 -  RELEASE  -
|  1> !TPSS D3BJ RIJCOSX def2-SVPD def2/J TightSCF xyzfile
|  2>
|  3> *xyzfile 0 1 D4.xyz
|  4>
|  5> %MaxCore 64000
|  6>
|  7> %pal nprocs 4
|  8> end
|  9>
| 10> %scf
| 11>   MaxIter 150
| 12> end
| 13>
| 14>
| 15>                          ****END OF INPUT****

CARTESIAN COORDINATES (ANGSTROEM)
---------------------------------
  C      1.963365   -1.749150   -1.896887
  C      2.738490   -2.015170   -3.097113
  C      0.611877    1.657634   -4.500288
  C      1.694991    1.541794   -5.570447
  H      2.697326    1.734659   -5.183996
  H      1.506656    2.272239   -6.358076
  S      1.780287   -0.033128   -6.428739
  C      4.049736   -2.154717   -3.152044
  N      4.658206   -1.986293   -4.318655
  N      4.764231   -2.454435   -2.050491
  H      4.287363   -2.776259   -1.217496
  H      5.750825   -2.658351   -2.125988
  H      2.345176   -1.690274   -3.971447
  H      4.109004   -1.592677   -5.071760
  H      5.649095   -2.156462   -4.427237
  O      2.569287    0.213657   -7.607360
  F      0.416880   -0.462969   -6.618595
  C      2.088520   -0.300912   -1.415204
  H      2.231272   -2.451616   -1.102643
  H      0.930249   -1.977801   -2.155438
  C      0.680356    0.655418   -3.348038
  H     -0.356865    1.549231   -4.991128
  H      0.650228    2.675438   -4.096000
  C      1.968993    0.733582   -2.535654
  H      3.051356   -0.168602   -0.911868
  H      1.316501   -0.136231   -0.657252
  O      2.505129   -0.933263   -5.482570
  H      2.824195    0.624726   -3.208464
  H      2.058919    1.730331   -2.093112
  H      0.542252   -0.344731   -3.766662
  H     -0.174219    0.829692   -2.685182

 Total Charge           Charge          ....    0
 Multiplicity           Mult            ....    1
 Number of Electrons    NEL             ....  120
 Basis Dimension        Dim             ....  432

ORBITAL ENERGIES
----------------

  NO   OCC          E(Eh)            E(eV)
   0   2.0000     -88.632201     -2411.8048
   1   2.0000     -24.550566      -668.0549
   2   2.0000     -18.921804      -514.8885
   3   2.0000     -18.908480      -514.5259
   4   2.0000     -14.104351      -383.7989
   5   2.0000     -14.088776      -383.3751
   6   2.0000     -10.064022      -273.8560
   7   2.0000     -10.030523      -272.9444
   8   2.0000     -10.015189      -272.5271
   9   2.0000     -10.003281      -272.2031
  10   2.0000      -9.988370      -271.7974
  11   2.0000      -9.976259      -271.4678
  12   2.0000      -9.965208      -271.1671
  13   2.0000      -9.889745      -269.1136
  14   2.0000      -7.992230      -217.4796
  15   2.0000      -5.982650      -162.7962
  16   2.0000      -5.976287      -162.6230
  17   2.0000      -5.973878      -162.5575
  18   2.0000      -1.300814       -35.3970
  19   2.0000      -1.043611       -28.3981
  20   2.0000      -0.943839       -25.6832
  21   2.0000      -0.864852       -23.5338
  22   2.0000      -0.782311       -21.2878
  23   2.0000      -0.777124       -21.1466
  24   2.0000      -0.729432       -19.8489
  25   2.0000      -0.692237       -18.8367
  26   2.0000      -0.666613       -18.1395
  27   2.0000      -0.636884       -17.3305
  28   2.0000      -0.598007       -16.2726
  29   2.0000      -0.568736       -15.4761
  30   2.0000      -0.546708       -14.8767
  31   2.0000      -0.543264       -14.7830
  32   2.0000      -0.529177       -14.3997
  33   2.0000      -0.504232       -13.7208
  34   2.0000      -0.496752       -13.5173
  35   2.0000      -0.477535       -12.9944
  36   2.0000      -0.454497       -12.3675
  37   2.0000      -0.450870       -12.2688
  38   2.0000      -0.435083       -11.8392
  39   2.0000      -0.430104       -11.7037
  40   2.0000      -0.422451       -11.4955
  41   2.0000      -0.402434       -10.9508
  42   2.0000      -0.397117       -10.8061
  43   2.0000      -0.391217       -10.6456
  44   2.0000      -0.380455       -10.3527
  45   2.0000      -0.352598        -9.5947
  46   2.0000      -0.347768        -9.4632
  47   2.0000      -0.341907        -9.3038
  48   2.0000      -0.334798        -9.1103
  49   2.0000      -0.322537        -8.7767
  50   2.0000      -0.312531        -8.5044
  51   2.0000      -0.301273        -8.1981
  52   2.0000      -0.297344        -8.0912
  53   2.0000      -0.290514        -7.9053
  54   2.0000      -0.283676        -7.7192
  55   2.0000      -0.276737        -7.5304
  56   2.0000      -0.267680        -7.2839
  57   2.0000      -0.243486        -6.6256
  58   2.0000      -0.204795        -5.5728
  59   2.0000      -0.109982        -2.9928
  60   0.0000      -0.029988        -0.8160
  61   0.0000       0.004180         0.1137
  62   0.0000       0.011044         0.3005
  63   0.0000       0.014719         0.4005
  64   0.0000       0.019441         0.5290

MULLIKEN ATOMIC CHARGES
-----------------------
   0 C :    0.252218
   1 C :   -0.103461
   2 C :    0.397903
   3 C :    0.054981
   4 H :    0.139950
   5 H :   -0.050586
   6 S :    1.478512
   7 C :    0.799687
   8 N :    0.107228
   9 N :   -0.066028
  10 H :   -0.024875
  11 H :   -0.270336
  12 H :   -0.228585
  13 H :   -0.120257
  14 H :   -0.273390
  15 O :   -0.666078
  16 F :   -0.441257
  17 C :    0.510648
  18 H :   -0.336025
  19 H :    0.117291
  20 C :   -0.016924
  21 H :    0.006883
  22 H :   -0.022914
  23 C :   -0.173286
  24 H :    0.004435
  25 H :    0.051837
  26 O :   -0.789130
  27 H :    0.046978
  28 H :   -0.177796
  29 H :   -0.046797
  30 H :   -0.160829
Sum of atomic charges:   -0.0000000

LOEWDIN ATOMIC CHARGES
----------------------
   0 C :   -0.042531
   1 C :   -0.025896
   2 C :   -0.028879
   3 C :   -0.029347
   4 H :    0.029773
   5 H :    0.016874
   6 S :    1.165908
   7 C :   -0.196308
   8 N :    0.207451
   9 N :    0.199277
  10 H :   -0.012825
  11 H :   -0.018523
  12 H :   -0.135163
  13 H :   -0.071471
  14 H :   -0.010405
  15 O :   -0.434871
  16 F :   -0.233285
  17 C :   -0.014088
  18 H :   -0.005638
  19 H :    0.003498
  20 C :   -0.014795
  21 H :    0.018861
  22 H :    0.031304
  23 C :   -0.018499
  24 H :    0.013673
  25 H :    0.008989
  26 O :   -0.460796
  27 H :    0.006869
  28 H :    0.018019
  29 H :    0.003785
  30 H :    0.029040

  Mayer bond orders larger than 0.100000
B(  0-C ,  1-C ) :   1.0221 B(  0-C ,  7-C ) :   0.1455 B(  0-C , 12-H ) :   0.4436
B(  0-C , 17-C ) :   1.0933 B(  0-C , 18-H ) :   0.8675 B(  0-C , 19-H ) :   0.6764
B(  0-C , 23-C ) :   0.1516 B(  0-C , 24-H ) :   0.1324 B(  0-C , 25-H ) :   0.1908
B(  1-C ,  7-C ) :   1.7092 B(  1-C ,  8-N ) :   0.2706 B(  1-C ,  9-N ) :   0.2769
B(  1-C , 10-H ) :  -0.1135 B(  1-C , 12-H ) :   0.2018 B(  1-C , 18-H ) :   0.2387
B(  1-C , 19-H ) :   0.2678 B(  1-C , 28-H ) :   0.1071 B(  2-C ,  3-C ) :   1.2652
B(  2-C ,  4-H ) :   0.1010 B(  2-C ,  5-H ) :   0.1748 B(  2-C , 20-C ) :   1.2512
B(  2-C , 21-H ) :   0.6796 B(  2-C , 22-H ) :   0.7911 B(  3-C ,  4-H ) :   0.8765
B(  3-C ,  5-H ) :   0.8736 B(  3-C ,  6-S ) :   1.0248 B(  3-C , 21-H ) :   0.1110
B(  3-C , 22-H ) :   0.1211 B(  6-S , 15-O ) :   1.5479 B(  6-S , 16-F ) :   0.5557
B(  6-S , 26-O ) :   1.3477 B(  7-C ,  8-N ) :   0.7408 B(  7-C ,  9-N ) :   0.8479
B(  7-C , 11-H ) :  -0.2097 B(  7-C , 12-H ) :   0.4858 B(  7-C , 13-H ) :  -0.1163
B(  7-C , 14-H ) :  -0.2844 B(  8-N ,  9-N ) :   0.1174 B(  8-N , 12-H ) :   0.1058
B(  8-N , 13-H ) :   1.1387 B(  8-N , 14-H ) :   1.4262 B(  9-N , 10-H ) :   1.0606
B(  9-N , 11-H ) :   1.4041 B( 10-H , 11-H ) :  -0.2096 B( 12-H , 23-C ) :   0.1107
B( 12-H , 27-H ) :   0.1038 B( 12-H , 28-H ) :  -0.1402 B( 13-H , 14-H ) :  -0.2107
B( 13-H , 26-O ) :   0.1191 B( 16-F , 26-O ) :   0.1513 B( 17-C , 23-C ) :   1.2349
B( 17-C , 24-H ) :   0.7502 B( 17-C , 25-H ) :   0.7009 B( 17-C , 27-H ) :   0.1095
B( 17-C , 28-H ) :   0.1000 B( 20-C , 21-H ) :   0.2508 B( 20-C , 22-H ) :   0.1001
B( 20-C , 23-C ) :   1.2056 B( 20-C , 27-H ) :   0.1084 B( 20-C , 28-H ) :   0.1576
B( 20-C , 29-H ) :   0.9229 B( 20-C , 30-H ) :   0.8619 B( 23-C , 24-H ) :   0.2266
B( 23-C , 25-H ) :   0.1456 B( 23-C , 27-H ) :   0.8985 B( 23-C , 28-H ) :   0.9011
B( 23-C , 29-H ) :   0.1192 B( 23-C , 30-H ) :   0.1496

Dispersion correction           -0.047280973
FINAL SINGLE POINT ENERGY     -1072.520312431053

DIPOLE MOMENT
-------------
                                X             Y             Z
Electronic contribution:     -2.95100      -2.19951     -21.74117
Nuclear contribution   :      2.64598       3.36033      21.85869
                        -----------------------------------------
Total Dipole Moment    :     -0.30502       1.16082       0.11752
                        -----------------------------------------
Magnitude (a.u.)       :      1.20597
Magnitude (Debye)      :      3.06532

Rotational constants in cm-1:     0.028973     0.014435     0.011026
Rotational constants in MHz :   868.588266   432.748309   330.548534

                             ****ORCA TERMINATED NORMALLY****
TOTAL RUN TIME: 0 days 0 hours 1 minutes 4 seconds 69 msec
