                         Program Version 5.0.0 -  RELEASE  -
|  1> !TPSS D3BJ RIJCOSX def2-SVPD def2/J TightSCF xyzfile
|  2>
|  3> *xyzfile 0 1 D7.xyz
|  4>
|  5> %MaxCore 64000
|  6>
|  7> %pal nprocs 4
|  8> end
|  9>
| 10> %scf
| 11>   MaxIter 150
| 12> end
| 13>
| 14>
| 15>                          ****END OF INPUT****

CARTESIAN COORDINATES (ANGSTROEM)
---------------------------------
  C      1.963365   -1.749150   -1.896887
  C      2.738490   -2.015170   -3.097113
  C      0.611877    1.657634   -4.500288
  C      1.694991    1.541794   -5.570447
  H      2.697326    1.734659   -5.183996
  H      1.506656    2.272239   -6.358076
  S      1.780287   -0.033128   -6.428739
  C      4.049736   -2.154717   -3.152044
  N      4.658206   -1.986293   -4.318655
  N      4.764231   -2.454435   -2.050491
  H      4.287363   -2.776259   -1.217496
  H      5.750825   -2.658351   -2.125988
  H      2.345176   -1.690274   -3.971447
  H      4.109004   -1.592677   -5.071760
  H      5.649095   -2.156462   -4.427237
  O      2.569287    0.213657   -7.607360
  O      0.416880   -0.462969   -6.618595
  C      2.088520   -0.300912   -1.415204
  H      2.231272   -2.451616   -1.102643
  H      0.930249   -1.977801   -2.155438
  C      0.680356    0.655418   -3.348038
  H     -0.356865    1.549231   -4.991128
  H      0.650228    2.675438   -4.096000
  C      1.968993    0.733582   -2.535654
  H      3.051356   -0.168602   -0.911868
  H      1.316501   -0.136231   -0.657252
  F      2.505129   -0.933263   -5.482570
  H      2.824195    0.624726   -3.208464
  H      2.058919    1.730331   -2.093112
  H      0.542252   -0.344731   -3.766662
  H     -0.174219    0.829692   -2.685182

 Total Charge           Charge          ....    0
 Multiplicity           Mult            ....    1
 Number of Electrons    NEL             ....  120
 Basis Dimension        Dim             ....  432

ORBITAL ENERGIES
----------------

  NO   OCC          E(Eh)            E(eV)
   0   2.0000     -88.621913     -2411.5249
   1   2.0000     -24.527044      -667.4148
   2   2.0000     -18.916253      -514.7374
   3   2.0000     -18.915842      -514.7262
   4   2.0000     -14.122723      -384.2988
   5   2.0000     -14.117667      -384.1613
   6   2.0000     -10.058227      -273.6983
   7   2.0000     -10.038131      -273.1514
   8   2.0000     -10.023677      -272.7581
   9   2.0000     -10.004381      -272.2330
  10   2.0000      -9.996226      -272.0111
  11   2.0000      -9.986324      -271.7417
  12   2.0000      -9.979346      -271.5518
  13   2.0000      -9.917034      -269.8562
  14   2.0000      -7.982159      -217.2056
  15   2.0000      -5.972455      -162.5188
  16   2.0000      -5.966139      -162.3469
  17   2.0000      -5.964125      -162.2921
  18   2.0000      -1.264079       -34.3973
  19   2.0000      -1.047460       -28.5028
  20   2.0000      -0.957528       -26.0557
  21   2.0000      -0.888164       -24.1682
  22   2.0000      -0.805448       -21.9173
  23   2.0000      -0.772961       -21.0333
  24   2.0000      -0.736496       -20.0411
  25   2.0000      -0.694141       -18.8885
  26   2.0000      -0.673287       -18.3211
  27   2.0000      -0.638339       -17.3701
  28   2.0000      -0.610117       -16.6021
  29   2.0000      -0.573626       -15.6092
  30   2.0000      -0.538938       -14.6652
  31   2.0000      -0.527150       -14.3445
  32   2.0000      -0.522806       -14.2263
  33   2.0000      -0.510397       -13.8886
  34   2.0000      -0.497223       -13.5301
  35   2.0000      -0.496152       -13.5010
  36   2.0000      -0.461533       -12.5589
  37   2.0000      -0.449143       -12.2218
  38   2.0000      -0.446014       -12.1366
  39   2.0000      -0.429957       -11.6997
  40   2.0000      -0.425695       -11.5837
  41   2.0000      -0.411046       -11.1851
  42   2.0000      -0.405052       -11.0220
  43   2.0000      -0.391314       -10.6482
  44   2.0000      -0.381721       -10.3872
  45   2.0000      -0.357805        -9.7364
  46   2.0000      -0.355220        -9.6660
  47   2.0000      -0.353106        -9.6085
  48   2.0000      -0.344072        -9.3627
  49   2.0000      -0.328997        -8.9525
  50   2.0000      -0.318043        -8.6544
  51   2.0000      -0.308510        -8.3950
  52   2.0000      -0.300241        -8.1700
  53   2.0000      -0.295037        -8.0284
  54   2.0000      -0.288800        -7.8586
  55   2.0000      -0.283745        -7.7211
  56   2.0000      -0.278265        -7.5720
  57   2.0000      -0.274796        -7.4776
  58   2.0000      -0.227111        -6.1800
  59   2.0000      -0.132404        -3.6029
  60   0.0000      -0.017367        -0.4726
  61   0.0000      -0.000019        -0.0005
  62   0.0000       0.007035         0.1914
  63   0.0000       0.013051         0.3551
  64   0.0000       0.020034         0.5452

MULLIKEN ATOMIC CHARGES
-----------------------
   0 C :    0.259671
   1 C :   -0.078153
   2 C :    0.427846
   3 C :    0.046593
   4 H :    0.177313
   5 H :   -0.114180
   6 S :    1.462686
   7 C :    0.837116
   8 N :    0.143658
   9 N :   -0.069909
  10 H :   -0.015196
  11 H :   -0.266088
  12 H :   -0.283334
  13 H :   -0.175056
  14 H :   -0.262574
  15 O :   -0.691594
  16 O :   -0.708511
  17 C :    0.492632
  18 H :   -0.331743
  19 H :    0.124672
  20 C :   -0.043337
  21 H :    0.017927
  22 H :   -0.016149
  23 C :   -0.158683
  24 H :    0.000516
  25 H :    0.053523
  26 F :   -0.485570
  27 H :    0.029410
  28 H :   -0.161052
  29 H :   -0.085193
  30 H :   -0.127238
Sum of atomic charges:   -0.0000000

LOEWDIN ATOMIC CHARGES
----------------------
   0 C :   -0.038675
   1 C :   -0.024830
   2 C :   -0.023514
   3 C :   -0.035329
   4 H :    0.015053
   5 H :    0.026691
   6 S :    1.121689
   7 C :   -0.195597
   8 N :    0.204333
   9 N :    0.205976
  10 H :   -0.008217
  11 H :   -0.013776
  12 H :   -0.107911
  13 H :   -0.049586
  14 H :   -0.003384
  15 O :   -0.441314
  16 O :   -0.431186
  17 C :   -0.012748
  18 H :   -0.001909
  19 H :    0.008165
  20 C :   -0.013049
  21 H :    0.024723
  22 H :    0.030674
  23 C :   -0.023196
  24 H :    0.013796
  25 H :    0.012289
  26 F :   -0.296416
  27 H :    0.001698
  28 H :    0.019922
  29 H :    0.004672
  30 H :    0.030959

  Mayer bond orders larger than 0.100000
B(  0-C ,  1-C ) :   1.0553 B(  0-C ,  7-C ) :   0.1415 B(  0-C , 12-H ) :   0.4358
B(  0-C , 17-C ) :   1.1043 B(  0-C , 18-H ) :   0.8499 B(  0-C , 19-H ) :   0.6796
B(  0-C , 23-C ) :   0.1552 B(  0-C , 24-H ) :   0.1222 B(  0-C , 25-H ) :   0.1742
B(  1-C ,  7-C ) :   1.6468 B(  1-C ,  8-N ) :   0.2887 B(  1-C ,  9-N ) :   0.2614
B(  1-C , 10-H ) :  -0.1104 B(  1-C , 18-H ) :   0.2561 B(  1-C , 19-H ) :   0.2758
B(  2-C ,  3-C ) :   1.2579 B(  2-C ,  4-H ) :   0.1204 B(  2-C ,  5-H ) :   0.1729
B(  2-C , 20-C ) :   1.2588 B(  2-C , 21-H ) :   0.6861 B(  2-C , 22-H ) :   0.7727
B(  3-C ,  4-H ) :   0.8560 B(  3-C ,  5-H ) :   0.8381 B(  3-C ,  6-S ) :   1.0427
B(  3-C , 21-H ) :   0.1270 B(  3-C , 22-H ) :   0.1175 B(  6-S , 15-O ) :   1.5063
B(  6-S , 16-O ) :   1.4589 B(  6-S , 26-F ) :   0.5974 B(  7-C ,  8-N ) :   0.7627
B(  7-C ,  9-N ) :   0.8696 B(  7-C , 11-H ) :  -0.2185 B(  7-C , 12-H ) :   0.4893
B(  7-C , 13-H ) :  -0.1009 B(  7-C , 14-H ) :  -0.2740 B(  8-N ,  9-N ) :   0.1158
B(  8-N , 13-H ) :   1.1507 B(  8-N , 14-H ) :   1.4057 B(  9-N , 10-H ) :   1.0494
B(  9-N , 11-H ) :   1.4082 B( 10-H , 11-H ) :  -0.2100 B( 12-H , 23-C ) :   0.1199
B( 12-H , 28-H ) :  -0.1012 B( 13-H , 14-H ) :  -0.1926 B( 13-H , 26-F ) :   0.1723
B( 17-C , 23-C ) :   1.2338 B( 17-C , 24-H ) :   0.7628 B( 17-C , 25-H ) :   0.7057
B( 17-C , 27-H ) :   0.1182 B( 17-C , 28-H ) :   0.1045 B( 20-C , 21-H ) :   0.2548
B( 20-C , 22-H ) :   0.1028 B( 20-C , 23-C ) :   1.2004 B( 20-C , 28-H ) :   0.1586
B( 20-C , 29-H ) :   0.9502 B( 20-C , 30-H ) :   0.8434 B( 23-C , 24-H ) :   0.2320
B( 23-C , 25-H ) :   0.1440 B( 23-C , 27-H ) :   0.9003 B( 23-C , 28-H ) :   0.9013
B( 23-C , 30-H ) :   0.1579

Dispersion correction           -0.046851707
FINAL SINGLE POINT ENERGY     -1072.537759550468

DIPOLE MOMENT
-------------
                                X             Y             Z
Electronic contribution:      0.77181      -3.14803     -19.43182
Nuclear contribution   :      0.26049       3.89757      20.56096
                        -----------------------------------------
Total Dipole Moment    :      1.03230       0.74954       1.12915
                        -----------------------------------------
Magnitude (a.u.)       :      1.70365
Magnitude (Debye)      :      4.33033

Rotational constants in cm-1:     0.029090     0.014735     0.011139
Rotational constants in MHz :   872.086433   441.731892   333.928051

                             ****ORCA TERMINATED NORMALLY****
TOTAL RUN TIME: 0 days 0 hours 1 minutes 8 seconds 74 msec
