                         Program Version 5.0.0 -  RELEASE  -
|  1> !DLPNO-CCSD(T) aug-cc-pVTZ aug-cc-pVTZ/C TightSCF TightPNO RIJCOSX def2/J
|  2> *xyz -1 1
|  3> C         -1.10433        0.25137       -2.86006
|  4> C         -0.71189        0.84252       -4.21834
|  5> H          0.15463        1.49980       -4.13091
|  6> H         -1.53813        1.45922       -4.58267
|  7> C         -0.39762       -0.20587       -5.28802
|  8> O          0.61717       -0.00535       -5.99827
|  9> O         -1.13317       -1.22138       -5.34147
| 10> C         -0.19626       -0.86337       -2.32576
| 11> H         -1.14384        1.06671       -2.12968
| 12> H         -2.11440       -0.15683       -2.93032
| 13> H         -0.15538       -1.66172       -3.03700
| 14> H         -0.58845       -1.22999       -1.40020
| 15> H          0.78852       -0.47602       -2.16737
| 16> *
| 17>
| 18> %MaxCore 64000
| 19>
| 20> %pal nprocs 2
| 21> end
| 22>
| 23> %scf
| 24>   MaxIter 150
| 25> end
| 26>
| 27>
| 28>                          ****END OF INPUT****

CARTESIAN COORDINATES (ANGSTROEM)
---------------------------------
  C     -1.104330    0.251370   -2.860060
  C     -0.711890    0.842520   -4.218340
  H      0.154630    1.499800   -4.130910
  H     -1.538130    1.459220   -4.582670
  C     -0.397620   -0.205870   -5.288020
  O      0.617170   -0.005350   -5.998270
  O     -1.133170   -1.221380   -5.341470
  C     -0.196260   -0.863370   -2.325760
  H     -1.143840    1.066710   -2.129680
  H     -2.114400   -0.156830   -2.930320
  H     -0.155380   -1.661720   -3.037000
  H     -0.588450   -1.229990   -1.400200
  H      0.788520   -0.476020   -2.167370

 Total Charge           Charge          ....   -1
 Multiplicity           Mult            ....    1
 Number of Electrons    NEL             ....   48
 Basis Dimension        Dim             ....  437

ORBITAL ENERGIES
----------------

  NO   OCC          E(Eh)            E(eV)
   0   2.0000     -20.285442      -551.9949
   1   2.0000     -20.284960      -551.9818
   2   2.0000     -11.127239      -302.7876
   3   2.0000     -11.076451      -301.4055
   4   2.0000     -11.064308      -301.0751
   5   2.0000     -11.054144      -300.7986
   6   2.0000      -1.166319       -31.7372
   7   2.0000      -1.059021       -28.8174
   8   2.0000      -0.909754       -24.7557
   9   2.0000      -0.795095       -21.6356
  10   2.0000      -0.668761       -18.1979
  11   2.0000      -0.516335       -14.0502
  12   2.0000      -0.475528       -12.9398
  13   2.0000      -0.464845       -12.6491
  14   2.0000      -0.425235       -11.5712
  15   2.0000      -0.411141       -11.1877
  16   2.0000      -0.383768       -10.4428
  17   2.0000      -0.354314        -9.6414
  18   2.0000      -0.347906        -9.4670
  19   2.0000      -0.322676        -8.7804
  20   2.0000      -0.308609        -8.3977
  21   2.0000      -0.200503        -5.4560
  22   2.0000      -0.197434        -5.3724
  23   2.0000      -0.187696        -5.1075
  24   0.0000       0.113210         3.0806
  25   0.0000       0.123396         3.3578
  26   0.0000       0.131641         3.5821
  27   0.0000       0.141775         3.8579
  28   0.0000       0.148109         4.0302

MULLIKEN ATOMIC CHARGES
-----------------------
   0 C :   -0.367178
   1 C :   -0.242118
   2 H :    0.199574
   3 H :    0.244228
   4 C :    0.624529
   5 O :   -0.933079
   6 O :   -0.913720
   7 C :   -1.025448
   8 H :    0.278992
   9 H :    0.248777
  10 H :    0.363781
  11 H :    0.238363
  12 H :    0.283298
Sum of atomic charges:   -1.0000000

LOEWDIN ATOMIC CHARGES
----------------------
   0 C :    0.226175
   1 C :    0.192374
   2 H :   -0.195262
   3 H :   -0.174739
   4 C :   -1.205794
   5 O :    0.248885
   6 O :    0.269151
   7 C :    0.576416
   8 H :   -0.168489
   9 H :   -0.166720
  10 H :   -0.211917
  11 H :   -0.199391
  12 H :   -0.190688

  Mayer bond orders larger than 0.100000
B(  0-C ,  1-C ) :   0.8766 B(  0-C ,  7-C ) :   0.7948 B(  0-C ,  8-H ) :   0.9303
B(  0-C ,  9-H ) :   0.9558 B(  1-C ,  2-H ) :   0.9814 B(  1-C ,  3-H ) :   0.9836
B(  1-C ,  4-C ) :   0.6723 B(  4-C ,  5-O ) :   1.2786 B(  4-C ,  6-O ) :   1.3580
B(  7-C , 10-H ) :   0.8720 B(  7-C , 11-H ) :   1.0402 B(  7-C , 12-H ) :   0.9412

E(0)                                       ...   -305.422638167
E(0)                                       ...   -305.422638167
E(CORR)(strong-pairs)                      ...     -1.211488780
E(CORR)(weak-pairs)                        ...     -0.001171610
E(CORR)(corrected)                         ...     -1.212660390
E(TOT)                                     ...   -306.635298557
E(CCSD(T))                                 ...   -306.686798614
FINAL SINGLE POINT ENERGY      -306.686798613662

DIPOLE MOMENT
-------------
                                X             Y             Z
Electronic contribution:      0.62930      -0.94217      -6.99842
Nuclear contribution   :     -1.15173       1.87787       9.37659
                        -----------------------------------------
Total Dipole Moment    :     -0.52243       0.93570       2.37817
                        -----------------------------------------
Magnitude (a.u.)       :      2.60848
Magnitude (Debye)      :      6.63023

Rotational constants in cm-1:     0.203160     0.081703     0.075834
Rotational constants in MHz :  6090.598467  2449.397428  2273.436534

                             ****ORCA TERMINATED NORMALLY****
TOTAL RUN TIME: 0 days 0 hours 48 minutes 52 seconds 355 msec
