                         Program Version 5.0.0 -  RELEASE  -
|  1> !DLPNO-CCSD(T) aug-cc-pVTZ aug-cc-pVTZ/C TightSCF TightPNO RIJCOSX def2/J
|  2> *xyz 1 1
|  3> C          2.23447       -2.98975       -2.39762
|  4> N          2.75680       -2.94555       -3.76503
|  5> C          1.98721       -2.59045       -4.81898
|  6> N          0.74322       -3.01749       -4.91352
|  7> N          2.49964       -1.84860       -5.80324
|  8> H          3.30978       -1.29282       -5.55895
|  9> H          1.80103       -1.30430       -6.28913
| 10> H          3.71612       -2.62880       -3.82953
| 11> H          0.39583       -3.62775       -4.18502
| 12> H          0.03920       -2.45438       -5.37137
| 13> C          2.19120       -1.61950       -1.71549
| 14> H          2.87278       -3.66637       -1.82801
| 15> H          1.24619       -3.44744       -2.40784
| 16> C          1.29873       -0.55431       -2.35977
| 17> H          1.87292       -1.78796       -0.68131
| 18> H          3.21681       -1.23843       -1.65443
| 19> H          1.61097       -0.39090       -3.37007
| 20> H          1.37981        0.35955       -1.80916
| 21> H          0.28197       -0.88750       -2.35015
| 22> *
| 23>
| 24> %MaxCore 64000
| 25>
| 26> %pal nprocs 2
| 27> end
| 28>
| 29> %scf
| 30>   MaxIter 150
| 31> end
| 32>
| 33>
| 34>                          ****END OF INPUT****

CARTESIAN COORDINATES (ANGSTROEM)
---------------------------------
  C      2.234470   -2.989750   -2.397620
  N      2.756800   -2.945550   -3.765030
  C      1.987210   -2.590450   -4.818980
  N      0.743220   -3.017490   -4.913520
  N      2.499640   -1.848600   -5.803240
  H      3.309780   -1.292820   -5.558950
  H      1.801030   -1.304300   -6.289130
  H      3.716120   -2.628800   -3.829530
  H      0.395830   -3.627750   -4.185020
  H      0.039200   -2.454380   -5.371370
  C      2.191200   -1.619500   -1.715490
  H      2.872780   -3.666370   -1.828010
  H      1.246190   -3.447440   -2.407840
  C      1.298730   -0.554310   -2.359770
  H      1.872920   -1.787960   -0.681310
  H      3.216810   -1.238430   -1.654430
  H      1.610970   -0.390900   -3.370070
  H      1.379810    0.359550   -1.809160
  H      0.281970   -0.887500   -2.350150

 Total Charge           Charge          ....    1
 Multiplicity           Mult            ....    1
 Number of Electrons    NEL             ....   56
 Basis Dimension        Dim             ....  598

ORBITAL ENERGIES
----------------

  NO   OCC          E(Eh)            E(eV)
   0   2.0000     -15.790346      -429.6771
   1   2.0000     -15.787518      -429.6002
   2   2.0000     -15.779860      -429.3918
   3   2.0000     -11.591648      -315.4248
   4   2.0000     -11.432491      -311.0939
   5   2.0000     -11.371150      -309.4247
   6   2.0000     -11.351784      -308.8977
   7   2.0000      -1.544703       -42.0335
   8   2.0000      -1.404601       -38.2211
   9   2.0000      -1.398819       -38.0638
  10   2.0000      -1.208585       -32.8873
  11   2.0000      -1.111570       -30.2474
  12   2.0000      -1.042345       -28.3636
  13   2.0000      -0.979533       -26.6544
  14   2.0000      -0.970102       -26.3978
  15   2.0000      -0.922825       -25.1113
  16   2.0000      -0.871040       -23.7022
  17   2.0000      -0.853369       -23.2214
  18   2.0000      -0.816031       -22.2053
  19   2.0000      -0.787116       -21.4185
  20   2.0000      -0.760053       -20.6821
  21   2.0000      -0.745104       -20.2753
  22   2.0000      -0.713116       -19.4049
  23   2.0000      -0.672787       -18.3075
  24   2.0000      -0.639580       -17.4039
  25   2.0000      -0.637486       -17.3469
  26   2.0000      -0.625963       -17.0333
  27   2.0000      -0.580205       -15.7882
  28   0.0000      -0.092367        -2.5134
  29   0.0000      -0.075567        -2.0563
  30   0.0000      -0.070178        -1.9096
  31   0.0000      -0.058349        -1.5878
  32   0.0000      -0.048393        -1.3168

MULLIKEN ATOMIC CHARGES
-----------------------
   0 C :   -0.396422
   1 N :   -0.168703
   2 C :    1.030544
   3 N :   -0.382292
   4 N :   -0.503035
   5 H :    0.156603
   6 H :    0.152334
   7 H :    0.054238
   8 H :    0.194925
   9 H :    0.126542
  10 C :   -0.393839
  11 H :    0.337402
  12 H :    0.281838
  13 C :   -0.973378
  14 H :    0.358829
  15 H :    0.238639
  16 H :    0.379989
  17 H :    0.212234
  18 H :    0.293552
Sum of atomic charges:    1.0000000

LOEWDIN ATOMIC CHARGES
----------------------
   0 C :    0.245690
   1 N :    0.638272
   2 C :   -0.382366
   3 N :    0.947118
   4 N :    0.946311
   5 H :   -0.247249
   6 H :   -0.255225
   7 H :   -0.248107
   8 H :   -0.263723
   9 H :   -0.225033
  10 C :    0.309943
  11 H :   -0.121393
  12 H :   -0.154771
  13 C :    0.620086
  14 H :   -0.131631
  15 H :   -0.139163
  16 H :   -0.202610
  17 H :   -0.162438
  18 H :   -0.173712

  Mayer bond orders larger than 0.100000
B(  0-C ,  1-N ) :   0.8881 B(  0-C , 10-C ) :   0.9358 B(  0-C , 11-H ) :   0.8987
B(  0-C , 12-H ) :   0.9170 B(  1-N ,  2-C ) :   0.9658 B(  1-N ,  7-H ) :   1.0383
B(  2-C ,  3-N ) :   0.8072 B(  2-C ,  4-N ) :   0.7264 B(  3-N ,  8-H ) :   0.9917
B(  3-N ,  9-H ) :   1.0873 B(  4-N ,  5-H ) :   1.0298 B(  4-N ,  6-H ) :   1.0276
B( 10-C , 13-C ) :   0.8080 B( 10-C , 14-H ) :   0.8550 B( 10-C , 15-H ) :   0.9795
B( 13-C , 16-H ) :   0.8428 B( 13-C , 17-H ) :   1.0924 B( 13-C , 18-H ) :   0.9414

E(0)                                       ...   -321.742127565
E(0)                                       ...   -321.742127565
E(CORR)(strong-pairs)                      ...     -1.372263692
E(CORR)(weak-pairs)                        ...     -0.001575175
E(CORR)(corrected)                         ...     -1.373838866
E(TOT)                                     ...   -323.115966431
E(CCSD(T))                                 ...   -323.171605023
FINAL SINGLE POINT ENERGY      -323.171605023487

DIPOLE MOMENT
-------------
                                X             Y             Z
Electronic contribution:      1.20655      -3.53686      -5.59127
Nuclear contribution   :     -1.48325       3.81474       4.74728
                        -----------------------------------------
Total Dipole Moment    :     -0.27670       0.27788      -0.84399
                        -----------------------------------------
Magnitude (a.u.)       :      0.93065
Magnitude (Debye)      :      2.36552

Rotational constants in cm-1:     0.127669     0.058023     0.053953
Rotational constants in MHz :  3827.411023  1739.493733  1617.466565

                             ****ORCA TERMINATED NORMALLY****
TOTAL RUN TIME: 0 days 2 hours 28 minutes 31 seconds 874 msec
