                         Program Version 5.0.0 -  RELEASE  -
|  1> !DLPNO-CCSD(T) aug-cc-pVTZ aug-cc-pVTZ/C TightSCF TightPNO RIJCOSX def2/J
|  2> *xyz 0 1
|  3> C         -1.10433        0.25137       -2.86006
|  4> C         -0.71189        0.84252       -4.21834
|  5> H          0.15463        1.49980       -4.13091
|  6> H         -1.53813        1.45922       -4.58267
|  7> C         -0.39762       -0.20587       -5.28802
|  8> F          0.61717       -0.00535       -5.99827
|  9> O         -1.13317       -1.22138       -5.34147
| 10> C         -0.19626       -0.86337       -2.32576
| 11> H         -1.14384        1.06671       -2.12968
| 12> H         -2.11440       -0.15683       -2.93032
| 13> H         -0.15538       -1.66172       -3.03700
| 14> H         -0.58845       -1.22999       -1.40020
| 15> H          0.78852       -0.47602       -2.16737
| 16> *
| 17>
| 18> %MaxCore 64000
| 19>
| 20> %pal nprocs 2
| 21> end
| 22>
| 23> %scf
| 24>   MaxIter 150
| 25> end
| 26>
| 27>
| 28>                          ****END OF INPUT****

CARTESIAN COORDINATES (ANGSTROEM)
---------------------------------
  C     -1.104330    0.251370   -2.860060
  C     -0.711890    0.842520   -4.218340
  H      0.154630    1.499800   -4.130910
  H     -1.538130    1.459220   -4.582670
  C     -0.397620   -0.205870   -5.288020
  F      0.617170   -0.005350   -5.998270
  O     -1.133170   -1.221380   -5.341470
  C     -0.196260   -0.863370   -2.325760
  H     -1.143840    1.066710   -2.129680
  H     -2.114400   -0.156830   -2.930320
  H     -0.155380   -1.661720   -3.037000
  H     -0.588450   -1.229990   -1.400200
  H      0.788520   -0.476020   -2.167370

 Total Charge           Charge          ....    0
 Multiplicity           Mult            ....    1
 Number of Electrons    NEL             ....   48
 Basis Dimension        Dim             ....  437

ORBITAL ENERGIES
----------------

  NO   OCC          E(Eh)            E(eV)
   0   2.0000     -26.376246      -717.7341
   1   2.0000     -20.562025      -559.5211
   2   2.0000     -11.430551      -311.0411
   3   2.0000     -11.260687      -306.4189
   4   2.0000     -11.238569      -305.8170
   5   2.0000     -11.211239      -305.0733
   6   2.0000      -1.730572       -47.0913
   7   2.0000      -1.375306       -37.4240
   8   2.0000      -1.089182       -29.6381
   9   2.0000      -0.988765       -26.9057
  10   2.0000      -0.905025       -24.6270
  11   2.0000      -0.835193       -22.7268
  12   2.0000      -0.770392       -20.9634
  13   2.0000      -0.761949       -20.7337
  14   2.0000      -0.711498       -19.3608
  15   2.0000      -0.639433       -17.3999
  16   2.0000      -0.626244       -17.0410
  17   2.0000      -0.580979       -15.8093
  18   2.0000      -0.574145       -15.6233
  19   2.0000      -0.514777       -14.0078
  20   2.0000      -0.505610       -13.7583
  21   2.0000      -0.491165       -13.3653
  22   2.0000      -0.483680       -13.1616
  23   2.0000      -0.462517       -12.5857
  24   0.0000       0.026873         0.7313
  25   0.0000       0.037267         1.0141
  26   0.0000       0.038795         1.0557
  27   0.0000       0.045639         1.2419
  28   0.0000       0.058805         1.6002

MULLIKEN ATOMIC CHARGES
-----------------------
   0 C :   -0.365122
   1 C :   -0.311454
   2 H :    0.223798
   3 H :    0.295802
   4 C :    0.706161
   5 F :   -0.315201
   6 O :   -0.707563
   7 C :   -0.994837
   8 H :    0.304804
   9 H :    0.264347
  10 H :    0.349913
  11 H :    0.259757
  12 H :    0.289596
Sum of atomic charges:    0.0000000

LOEWDIN ATOMIC CHARGES
----------------------
   0 C :    0.260180
   1 C :    0.263579
   2 H :   -0.172269
   3 H :   -0.153940
   4 C :   -0.917885
   5 F :    0.587067
   6 O :    0.402513
   7 C :    0.598543
   8 H :   -0.144857
   9 H :   -0.152592
  10 H :   -0.208990
  11 H :   -0.178224
  12 H :   -0.183124

  Mayer bond orders larger than 0.100000
B(  0-C ,  1-C ) :   0.8937 B(  0-C ,  7-C ) :   0.8065 B(  0-C ,  8-H ) :   0.9084
B(  0-C ,  9-H ) :   0.9505 B(  1-C ,  2-H ) :   0.9672 B(  1-C ,  3-H ) :   0.9284
B(  1-C ,  4-C ) :   0.7378 B(  4-C ,  5-F ) :   0.7370 B(  4-C ,  6-O ) :   1.6359
B(  7-C , 10-H ) :   0.8886 B(  7-C , 11-H ) :   1.0239 B(  7-C , 12-H ) :   0.9340

E(0)                                       ...   -329.973700749
E(0)                                       ...   -329.973700749
E(CORR)(strong-pairs)                      ...     -1.212160080
E(CORR)(weak-pairs)                        ...     -0.001147499
E(CORR)(corrected)                         ...     -1.213307579
E(TOT)                                     ...   -331.187008328
E(CCSD(T))                                 ...   -331.234914899
FINAL SINGLE POINT ENERGY      -331.234914898756

DIPOLE MOMENT
-------------
                                X             Y             Z
Electronic contribution:      2.64495      -0.57212     -10.62522
Nuclear contribution   :     -2.39146       1.63977      11.24418
                        -----------------------------------------
Total Dipole Moment    :      0.25349       1.06765       0.61896
                        -----------------------------------------
Magnitude (a.u.)       :      1.25986
Magnitude (Debye)      :      3.20230

Rotational constants in cm-1:     0.198868     0.077542     0.072498
Rotational constants in MHz :  5961.919605  2324.650173  2173.425242

                             ****ORCA TERMINATED NORMALLY****
TOTAL RUN TIME: 0 days 0 hours 40 minutes 46 seconds 677 msec
