                         Program Version 5.0.0 -  RELEASE  -
|  1> !DLPNO-CCSD(T) aug-cc-pVTZ aug-cc-pVTZ/C TightSCF TightPNO RIJCOSX def2/J
|  2> *xyz 0 1
|  3> C          2.23447       -2.98975       -2.39762
|  4> C          2.75680       -2.94555       -3.76503
|  5> C          1.98721       -2.59045       -4.81898
|  6> N          0.74322       -3.01749       -4.91352
|  7> N          2.49964       -1.84860       -5.80324
|  8> H          3.30978       -1.29282       -5.55895
|  9> H          1.80103       -1.30430       -6.28913
| 10> H          3.71612       -2.62880       -3.82953
| 11> H          0.39583       -3.62775       -4.18502
| 12> H          0.03920       -2.45438       -5.37137
| 13> C          2.19120       -1.61950       -1.71549
| 14> H          2.87278       -3.66637       -1.82801
| 15> H          1.24619       -3.44744       -2.40784
| 16> C          1.29873       -0.55431       -2.35977
| 17> H          1.87292       -1.78796       -0.68131
| 18> H          3.21681       -1.23843       -1.65443
| 19> H          1.61097       -0.39090       -3.37007
| 20> H          1.37981        0.35955       -1.80916
| 21> H          0.28197       -0.88750       -2.35015
| 22> *
| 23>
| 24> %MaxCore 64000
| 25>
| 26> %pal nprocs 2
| 27> end
| 28>
| 29> %scf
| 30>   MaxIter 150
| 31> end
| 32>
| 33>
| 34>                          ****END OF INPUT****

CARTESIAN COORDINATES (ANGSTROEM)
---------------------------------
  C      2.234470   -2.989750   -2.397620
  C      2.756800   -2.945550   -3.765030
  C      1.987210   -2.590450   -4.818980
  N      0.743220   -3.017490   -4.913520
  N      2.499640   -1.848600   -5.803240
  H      3.309780   -1.292820   -5.558950
  H      1.801030   -1.304300   -6.289130
  H      3.716120   -2.628800   -3.829530
  H      0.395830   -3.627750   -4.185020
  H      0.039200   -2.454380   -5.371370
  C      2.191200   -1.619500   -1.715490
  H      2.872780   -3.666370   -1.828010
  H      1.246190   -3.447440   -2.407840
  C      1.298730   -0.554310   -2.359770
  H      1.872920   -1.787960   -0.681310
  H      3.216810   -1.238430   -1.654430
  H      1.610970   -0.390900   -3.370070
  H      1.379810    0.359550   -1.809160
  H      0.281970   -0.887500   -2.350150

 Total Charge           Charge          ....    0
 Multiplicity           Mult            ....    1
 Number of Electrons    NEL             ....   56
 Basis Dimension        Dim             ....  598

ORBITAL ENERGIES
----------------

  NO   OCC          E(Eh)            E(eV)
   0   2.0000     -15.568376      -423.6371
   1   2.0000     -15.566478      -423.5854
   2   2.0000     -11.291109      -307.2467
   3   2.0000     -11.204072      -304.8783
   4   2.0000     -11.199267      -304.7476
   5   2.0000     -11.198202      -304.7186
   6   2.0000     -11.141574      -303.1776
   7   2.0000      -1.291565       -35.1453
   8   2.0000      -1.176648       -32.0182
   9   2.0000      -1.064520       -28.9671
  10   2.0000      -0.984369       -26.7861
  11   2.0000      -0.902212       -24.5504
  12   2.0000      -0.813082       -22.1251
  13   2.0000      -0.772780       -21.0284
  14   2.0000      -0.726085       -19.7578
  15   2.0000      -0.690589       -18.7919
  16   2.0000      -0.639253       -17.3950
  17   2.0000      -0.619304       -16.8521
  18   2.0000      -0.605488       -16.4762
  19   2.0000      -0.573915       -15.6170
  20   2.0000      -0.545286       -14.8380
  21   2.0000      -0.529225       -14.4010
  22   2.0000      -0.502755       -13.6807
  23   2.0000      -0.479838       -13.0571
  24   2.0000      -0.456346       -12.4178
  25   2.0000      -0.453366       -12.3367
  26   2.0000      -0.427983       -11.6460
  27   2.0000      -0.259815        -7.0699
  28   0.0000       0.023183         0.6308
  29   0.0000       0.034081         0.9274
  30   0.0000       0.037162         1.0112
  31   0.0000       0.041415         1.1270
  32   0.0000       0.051811         1.4099

MULLIKEN ATOMIC CHARGES
-----------------------
   0 C :   -0.193698
   1 C :   -0.409837
   2 C :    1.095810
   3 N :   -0.638355
   4 N :   -0.738094
   5 H :    0.071581
   6 H :    0.127927
   7 H :    0.154595
   8 H :    0.078985
   9 H :    0.058500
  10 C :   -0.405661
  11 H :    0.215417
  12 H :    0.231015
  13 C :   -1.012665
  14 H :    0.276920
  15 H :    0.237032
  16 H :    0.361404
  17 H :    0.211595
  18 H :    0.277529
Sum of atomic charges:   -0.0000000

LOEWDIN ATOMIC CHARGES
----------------------
   0 C :    0.217853
   1 C :    0.217535
   2 C :   -0.448014
   3 N :    0.866172
   4 N :    0.865831
   5 H :   -0.276229
   6 H :   -0.291507
   7 H :   -0.280686
   8 H :   -0.290687
   9 H :   -0.265796
  10 C :    0.279801
  11 H :   -0.152986
  12 H :   -0.176914
  13 C :    0.600451
  14 H :   -0.152431
  15 H :   -0.146605
  16 H :   -0.202873
  17 H :   -0.182690
  18 H :   -0.180225

  Mayer bond orders larger than 0.100000
B(  0-C ,  1-C ) :   0.7549 B(  0-C , 10-C ) :   0.8346 B(  0-C , 11-H ) :   1.0607
B(  0-C , 12-H ) :   0.9544 B(  1-C ,  2-C ) :   1.2437 B(  1-C ,  3-N ) :  -0.2546
B(  1-C ,  7-H ) :   1.0797 B(  1-C , 10-C ) :   0.1311 B(  2-C ,  3-N ) :   0.4794
B(  2-C ,  4-N ) :   0.3504 B(  3-N ,  8-H ) :   1.1453 B(  3-N ,  9-H ) :   1.1577
B(  4-N ,  5-H ) :   1.1367 B(  4-N ,  6-H ) :   1.0259 B( 10-C , 13-C ) :   0.7804
B( 10-C , 14-H ) :   0.9269 B( 10-C , 15-H ) :   0.9737 B( 13-C , 16-H ) :   0.8497
B( 13-C , 17-H ) :   1.0686 B( 13-C , 18-H ) :   0.9657

E(0)                                       ...   -305.288310832
E(0)                                       ...   -305.288310832
E(CORR)(strong-pairs)                      ...     -1.356904584
E(CORR)(weak-pairs)                        ...     -0.001579681
E(CORR)(corrected)                         ...     -1.358484266
E(TOT)                                     ...   -306.646795098
E(CCSD(T))                                 ...   -306.703067290
FINAL SINGLE POINT ENERGY      -306.703067289988

DIPOLE MOMENT
-------------
                                X             Y             Z
Electronic contribution:      0.52213      -2.76618      -5.03998
Nuclear contribution   :     -1.30515       3.65216       4.73330
                        -----------------------------------------
Total Dipole Moment    :     -0.78302       0.88598      -0.30668
                        -----------------------------------------
Magnitude (a.u.)       :      1.22153
Magnitude (Debye)      :      3.10488

Rotational constants in cm-1:     0.129987     0.058163     0.054282
Rotational constants in MHz :  3896.918182  1743.696851  1627.337267

                             ****ORCA TERMINATED NORMALLY****
TOTAL RUN TIME: 0 days 2 hours 22 minutes 2 seconds 796 msec
