                         Program Version 5.0.0 -  RELEASE  -
|  1> !DLPNO-CCSD(T) aug-cc-pVTZ aug-cc-pVTZ/C TightSCF TightPNO RIJCOSX def2/J
|  2> *xyz 0 1
|  3> C         -1.10433        0.25137       -2.86006
|  4> C         -0.71189        0.84252       -4.21834
|  5> H          0.15463        1.49980       -4.13091
|  6> H         -1.53813        1.45922       -4.58267
|  7> C         -0.39762       -0.20587       -5.28802
|  8> O          0.61717       -0.00535       -5.99827
|  9> F         -1.13317       -1.22138       -5.34147
| 10> C         -0.19626       -0.86337       -2.32576
| 11> H         -1.14384        1.06671       -2.12968
| 12> H         -2.11440       -0.15683       -2.93032
| 13> H         -0.15538       -1.66172       -3.03700
| 14> H         -0.58845       -1.22999       -1.40020
| 15> H          0.78852       -0.47602       -2.16737
| 16> *
| 17>
| 18> %MaxCore 64000
| 19>
| 20> %pal nprocs 8
| 21> end
| 22>
| 23> %scf
| 24>   MaxIter 150
| 25> end
| 26>
| 27>
| 28>                          ****END OF INPUT****

CARTESIAN COORDINATES (ANGSTROEM)
---------------------------------
  C     -1.104330    0.251370   -2.860060
  C     -0.711890    0.842520   -4.218340
  H      0.154630    1.499800   -4.130910
  H     -1.538130    1.459220   -4.582670
  C     -0.397620   -0.205870   -5.288020
  O      0.617170   -0.005350   -5.998270
  F     -1.133170   -1.221380   -5.341470
  C     -0.196260   -0.863370   -2.325760
  H     -1.143840    1.066710   -2.129680
  H     -2.114400   -0.156830   -2.930320
  H     -0.155380   -1.661720   -3.037000
  H     -0.588450   -1.229990   -1.400200
  H      0.788520   -0.476020   -2.167370

 Total Charge           Charge          ....    0
 Multiplicity           Mult            ....    1
 Number of Electrons    NEL             ....   48
 Basis Dimension        Dim             ....  437

ORBITAL ENERGIES
----------------

  NO   OCC          E(Eh)            E(eV)
   0   2.0000     -26.376444      -717.7395
   1   2.0000     -20.561830      -559.5158
   2   2.0000     -11.429004      -310.9990
   3   2.0000     -11.259438      -306.3849
   4   2.0000     -11.244200      -305.9702
   5   2.0000     -11.220816      -305.3339
   6   2.0000      -1.731026       -47.1036
   7   2.0000      -1.373691       -37.3800
   8   2.0000      -1.095616       -29.8132
   9   2.0000      -0.989177       -26.9169
  10   2.0000      -0.905626       -24.6433
  11   2.0000      -0.841169       -22.8894
  12   2.0000      -0.775997       -21.1160
  13   2.0000      -0.770574       -20.9684
  14   2.0000      -0.695462       -18.9245
  15   2.0000      -0.646271       -17.5859
  16   2.0000      -0.625848       -17.0302
  17   2.0000      -0.590573       -16.0703
  18   2.0000      -0.572232       -15.5712
  19   2.0000      -0.526441       -14.3252
  20   2.0000      -0.516072       -14.0430
  21   2.0000      -0.499316       -13.5871
  22   2.0000      -0.482913       -13.1407
  23   2.0000      -0.455564       -12.3965
  24   0.0000       0.025889         0.7045
  25   0.0000       0.035469         0.9652
  26   0.0000       0.038619         1.0509
  27   0.0000       0.044713         1.2167
  28   0.0000       0.058686         1.5969

MULLIKEN ATOMIC CHARGES
-----------------------
   0 C :   -0.388790
   1 C :   -0.268101
   2 H :    0.262258
   3 H :    0.299789
   4 C :    0.703637
   5 O :   -0.730447
   6 F :   -0.316560
   7 C :   -0.996558
   8 H :    0.290243
   9 H :    0.251662
  10 H :    0.316535
  11 H :    0.273906
  12 H :    0.302427
Sum of atomic charges:   -0.0000000

LOEWDIN ATOMIC CHARGES
----------------------
   0 C :    0.257855
   1 C :    0.260623
   2 H :   -0.163717
   3 H :   -0.155554
   4 C :   -0.927044
   5 O :    0.386477
   6 F :    0.594596
   7 C :    0.601972
   8 H :   -0.143451
   9 H :   -0.156005
  10 H :   -0.199748
  11 H :   -0.177869
  12 H :   -0.178136

  Mayer bond orders larger than 0.100000
B(  0-C ,  1-C ) :   0.8921 B(  0-C ,  7-C ) :   0.8007 B(  0-C ,  8-H ) :   0.9200
B(  0-C ,  9-H ) :   0.9601 B(  1-C ,  2-H ) :   0.9529 B(  1-C ,  3-H ) :   0.9410
B(  1-C ,  4-C ) :   0.7421 B(  1-C ,  6-F ) :   0.1120 B(  4-C ,  5-O ) :   1.5594
B(  4-C ,  6-F ) :   0.8124 B(  7-C , 10-H ) :   0.9118 B(  7-C , 11-H ) :   1.0101
B(  7-C , 12-H ) :   0.9267

E(0)                                       ...   -329.973444025
E(0)                                       ...   -329.973444025
E(CORR)(strong-pairs)                      ...     -1.211713611
E(CORR)(weak-pairs)                        ...     -0.001140791
E(CORR)(corrected)                         ...     -1.212854402
E(TOT)                                     ...   -331.186298427
E(CCSD(T))                                 ...   -331.234054157
FINAL SINGLE POINT ENERGY      -331.234054156611

DIPOLE MOMENT
-------------
                                X             Y             Z
Electronic contribution:     -0.43423      -2.69349      -9.40597
Nuclear contribution   :     -0.41432       3.01336      10.50227
                        -----------------------------------------
Total Dipole Moment    :     -0.84855       0.31988       1.09630
                        -----------------------------------------
Magnitude (a.u.)       :      1.42275
Magnitude (Debye)      :      3.61635

Rotational constants in cm-1:     0.192167     0.080512     0.073747
Rotational constants in MHz :  5761.018137  2413.690728  2210.882638

                             ****ORCA TERMINATED NORMALLY****
TOTAL RUN TIME: 0 days 0 hours 12 minutes 35 seconds 273 msec
