                         Program Version 5.0.0 -  RELEASE  -
|  1> !DLPNO-CCSD(T) aug-cc-pVTZ aug-cc-pVTZ/C TightSCF TightPNO RIJCOSX def2/J
|  2> *xyz 0 1
|  3> C          2.23447       -2.98975       -2.39762
|  4> N          2.75680       -2.94555       -3.76503
|  5> C          1.98721       -2.59045       -4.81898
|  6> C          0.74322       -3.01749       -4.91352
|  7> N          2.49964       -1.84860       -5.80324
|  8> H          3.30978       -1.29282       -5.55895
|  9> H          1.80103       -1.30430       -6.28913
| 10> H          3.71612       -2.62880       -3.82953
| 11> H          0.39583       -3.62775       -4.18502
| 12> H          0.03920       -2.45438       -5.37137
| 13> C          2.19120       -1.61950       -1.71549
| 14> H          2.87278       -3.66637       -1.82801
| 15> H          1.24619       -3.44744       -2.40784
| 16> C          1.29873       -0.55431       -2.35977
| 17> H          1.87292       -1.78796       -0.68131
| 18> H          3.21681       -1.23843       -1.65443
| 19> H          1.61097       -0.39090       -3.37007
| 20> H          1.37981        0.35955       -1.80916
| 21> H          0.28197       -0.88750       -2.35015
| 22> *
| 23>
| 24> %MaxCore 64000
| 25>
| 26> %pal nprocs 2
| 27> end
| 28>
| 29> %scf
| 30>   MaxIter 150
| 31> end
| 32>
| 33>
| 34>                          ****END OF INPUT****

CARTESIAN COORDINATES (ANGSTROEM)
---------------------------------
  C      2.234470   -2.989750   -2.397620
  N      2.756800   -2.945550   -3.765030
  C      1.987210   -2.590450   -4.818980
  C      0.743220   -3.017490   -4.913520
  N      2.499640   -1.848600   -5.803240
  H      3.309780   -1.292820   -5.558950
  H      1.801030   -1.304300   -6.289130
  H      3.716120   -2.628800   -3.829530
  H      0.395830   -3.627750   -4.185020
  H      0.039200   -2.454380   -5.371370
  C      2.191200   -1.619500   -1.715490
  H      2.872780   -3.666370   -1.828010
  H      1.246190   -3.447440   -2.407840
  C      1.298730   -0.554310   -2.359770
  H      1.872920   -1.787960   -0.681310
  H      3.216810   -1.238430   -1.654430
  H      1.610970   -0.390900   -3.370070
  H      1.379810    0.359550   -1.809160
  H      0.281970   -0.887500   -2.350150

 Total Charge           Charge          ....    0
 Multiplicity           Mult            ....    1
 Number of Electrons    NEL             ....   56
 Basis Dimension        Dim             ....  598

ORBITAL ENERGIES
----------------

  NO   OCC          E(Eh)            E(eV)
   0   2.0000     -15.563787      -423.5122
   1   2.0000     -15.560531      -423.4236
   2   2.0000     -11.285541      -307.0952
   3   2.0000     -11.258813      -306.3679
   4   2.0000     -11.223966      -305.4196
   5   2.0000     -11.206907      -304.9554
   6   2.0000     -11.133635      -302.9616
   7   2.0000      -1.286535       -35.0084
   8   2.0000      -1.186899       -32.2972
   9   2.0000      -1.049299       -28.5529
  10   2.0000      -0.983046       -26.7500
  11   2.0000      -0.931945       -25.3595
  12   2.0000      -0.821953       -22.3665
  13   2.0000      -0.762244       -20.7417
  14   2.0000      -0.724285       -19.7088
  15   2.0000      -0.689228       -18.7548
  16   2.0000      -0.639651       -17.4058
  17   2.0000      -0.621660       -16.9162
  18   2.0000      -0.583612       -15.8809
  19   2.0000      -0.575381       -15.6569
  20   2.0000      -0.559945       -15.2369
  21   2.0000      -0.535533       -14.5726
  22   2.0000      -0.522253       -14.2112
  23   2.0000      -0.505825       -13.7642
  24   2.0000      -0.487658       -13.2698
  25   2.0000      -0.476269       -12.9599
  26   2.0000      -0.396098       -10.7784
  27   2.0000      -0.278538        -7.5794
  28   0.0000       0.024498         0.6666
  29   0.0000       0.033610         0.9146
  30   0.0000       0.036381         0.9900
  31   0.0000       0.040460         1.1010
  32   0.0000       0.052128         1.4185

MULLIKEN ATOMIC CHARGES
-----------------------
   0 C :   -0.481989
   1 N :   -0.457515
   2 C :    1.399067
   3 C :   -1.293333
   4 N :   -0.815051
   5 H :    0.154197
   6 H :    0.058755
   7 H :    0.021838
   8 H :    0.549783
   9 H :    0.157422
  10 C :   -0.364131
  11 H :    0.311640
  12 H :    0.344175
  13 C :   -1.023684
  14 H :    0.342298
  15 H :    0.206130
  16 H :    0.401281
  17 H :    0.187562
  18 H :    0.301554
Sum of atomic charges:    0.0000000

LOEWDIN ATOMIC CHARGES
----------------------
   0 C :    0.216223
   1 N :    0.581688
   2 C :   -0.470132
   3 C :    0.545394
   4 N :    0.861206
   5 H :   -0.287767
   6 H :   -0.286006
   7 H :   -0.277933
   8 H :   -0.319731
   9 H :   -0.290730
  10 C :    0.289031
  11 H :   -0.140710
  12 H :   -0.168806
  13 C :    0.605358
  14 H :   -0.149025
  15 H :   -0.150515
  16 H :   -0.200239
  17 H :   -0.181506
  18 H :   -0.175800

  Mayer bond orders larger than 0.100000
B(  0-C ,  1-N ) :   0.9678 B(  0-C , 10-C ) :   0.9125 B(  0-C , 11-H ) :   0.9330
B(  0-C , 12-H ) :   0.9098 B(  1-N ,  2-C ) :   0.5886 B(  1-N ,  7-H ) :   1.0473
B(  2-C ,  3-C ) :   1.0198 B(  2-C ,  4-N ) :   0.3140 B(  2-C ,  9-H ) :  -0.1582
B(  3-C ,  8-H ) :   0.5865 B(  3-C ,  9-H ) :   1.3439 B(  4-N ,  5-H ) :   0.9750
B(  4-N ,  6-H ) :   1.1534 B( 10-C , 13-C ) :   0.7816 B( 10-C , 14-H ) :   0.8662
B( 10-C , 15-H ) :   0.9983 B( 13-C , 16-H ) :   0.8208 B( 13-C , 17-H ) :   1.1048
B( 13-C , 18-H ) :   0.9463

E(0)                                       ...   -305.286757946
E(0)                                       ...   -305.286757946
E(CORR)(strong-pairs)                      ...     -1.353540214
E(CORR)(weak-pairs)                        ...     -0.001568056
E(CORR)(corrected)                         ...     -1.355108269
E(TOT)                                     ...   -306.641866215
E(CCSD(T))                                 ...   -306.697624988
FINAL SINGLE POINT ENERGY      -306.697624987897

DIPOLE MOMENT
-------------
                                X             Y             Z
Electronic contribution:      2.36650      -2.62673      -3.84508
Nuclear contribution   :     -1.74624       3.63640       4.48172
                        -----------------------------------------
Total Dipole Moment    :      0.62027       1.00967       0.63664
                        -----------------------------------------
Magnitude (a.u.)       :      1.34517
Magnitude (Debye)      :      3.41914

Rotational constants in cm-1:     0.131012     0.059513     0.054636
Rotational constants in MHz :  3927.631151  1784.169731  1637.945644

                             ****ORCA TERMINATED NORMALLY****
TOTAL RUN TIME: 0 days 2 hours 15 minutes 55 seconds 89 msec
