                         Program Version 5.0.0 -  RELEASE  -
|  1> !DLPNO-CCSD(T) aug-cc-pVTZ aug-cc-pVTZ/C TightSCF TightPNO RIJCOSX def2/J
|  2> *xyz 0 1
|  3> C          2.23447       -2.98975       -2.39762
|  4> N          2.75680       -2.94555       -3.76503
|  5> C          1.98721       -2.59045       -4.81898
|  6> N          0.74322       -3.01749       -4.91352
|  7> C          2.49964       -1.84860       -5.80324
|  8> H          3.30978       -1.29282       -5.55895
|  9> H          1.80103       -1.30430       -6.28913
| 10> H          3.71612       -2.62880       -3.82953
| 11> H          0.39583       -3.62775       -4.18502
| 12> H          0.03920       -2.45438       -5.37137
| 13> C          2.19120       -1.61950       -1.71549
| 14> H          2.87278       -3.66637       -1.82801
| 15> H          1.24619       -3.44744       -2.40784
| 16> C          1.29873       -0.55431       -2.35977
| 17> H          1.87292       -1.78796       -0.68131
| 18> H          3.21681       -1.23843       -1.65443
| 19> H          1.61097       -0.39090       -3.37007
| 20> H          1.37981        0.35955       -1.80916
| 21> H          0.28197       -0.88750       -2.35015
| 22> *
| 23>
| 24> %MaxCore 64000
| 25>
| 26> %pal nprocs 2
| 27> end
| 28>
| 29> %scf
| 30>   MaxIter 150
| 31> end
| 32>
| 33>
| 34>                          ****END OF INPUT****

CARTESIAN COORDINATES (ANGSTROEM)
---------------------------------
  C      2.234470   -2.989750   -2.397620
  N      2.756800   -2.945550   -3.765030
  C      1.987210   -2.590450   -4.818980
  N      0.743220   -3.017490   -4.913520
  C      2.499640   -1.848600   -5.803240
  H      3.309780   -1.292820   -5.558950
  H      1.801030   -1.304300   -6.289130
  H      3.716120   -2.628800   -3.829530
  H      0.395830   -3.627750   -4.185020
  H      0.039200   -2.454380   -5.371370
  C      2.191200   -1.619500   -1.715490
  H      2.872780   -3.666370   -1.828010
  H      1.246190   -3.447440   -2.407840
  C      1.298730   -0.554310   -2.359770
  H      1.872920   -1.787960   -0.681310
  H      3.216810   -1.238430   -1.654430
  H      1.610970   -0.390900   -3.370070
  H      1.379810    0.359550   -1.809160
  H      0.281970   -0.887500   -2.350150

 Total Charge           Charge          ....    0
 Multiplicity           Mult            ....    1
 Number of Electrons    NEL             ....   56
 Basis Dimension        Dim             ....  598

ORBITAL ENERGIES
----------------

  NO   OCC          E(Eh)            E(eV)
   0   2.0000     -15.566053      -423.5738
   1   2.0000     -15.561250      -423.4432
   2   2.0000     -11.292698      -307.2899
   3   2.0000     -11.267913      -306.6155
   4   2.0000     -11.227763      -305.5230
   5   2.0000     -11.209326      -305.0213
   6   2.0000     -11.128437      -302.8202
   7   2.0000      -1.290304       -35.1110
   8   2.0000      -1.188001       -32.3272
   9   2.0000      -1.057835       -28.7852
  10   2.0000      -0.989476       -26.9250
  11   2.0000      -0.920851       -25.0576
  12   2.0000      -0.817077       -22.2338
  13   2.0000      -0.803839       -21.8736
  14   2.0000      -0.724396       -19.7118
  15   2.0000      -0.667196       -18.1553
  16   2.0000      -0.657264       -17.8851
  17   2.0000      -0.618924       -16.8418
  18   2.0000      -0.612421       -16.6648
  19   2.0000      -0.563160       -15.3244
  20   2.0000      -0.548791       -14.9334
  21   2.0000      -0.539289       -14.6748
  22   2.0000      -0.522412       -14.2156
  23   2.0000      -0.506602       -13.7853
  24   2.0000      -0.489716       -13.3258
  25   2.0000      -0.483213       -13.1489
  26   2.0000      -0.398251       -10.8370
  27   2.0000      -0.274948        -7.4817
  28   0.0000       0.024787         0.6745
  29   0.0000       0.032876         0.8946
  30   0.0000       0.035476         0.9654
  31   0.0000       0.039922         1.0863
  32   0.0000       0.052766         1.4358

MULLIKEN ATOMIC CHARGES
-----------------------
   0 C :   -0.439033
   1 N :   -0.377810
   2 C :    1.552642
   3 N :   -0.709794
   4 C :   -1.480284
   5 H :    0.272647
   6 H :    0.355351
   7 H :   -0.009541
   8 H :    0.140458
   9 H :    0.035317
  10 C :   -0.401983
  11 H :    0.317766
  12 H :    0.278917
  13 C :   -0.992571
  14 H :    0.337353
  15 H :    0.218555
  16 H :    0.427317
  17 H :    0.200043
  18 H :    0.274650
Sum of atomic charges:   -0.0000000

LOEWDIN ATOMIC CHARGES
----------------------
   0 C :    0.212352
   1 N :    0.584722
   2 C :   -0.475283
   3 N :    0.865112
   4 C :    0.546784
   5 H :   -0.317598
   6 H :   -0.325049
   7 H :   -0.270630
   8 H :   -0.300684
   9 H :   -0.254830
  10 C :    0.289128
  11 H :   -0.141222
  12 H :   -0.167500
  13 C :    0.609656
  14 H :   -0.150638
  15 H :   -0.146714
  16 H :   -0.199527
  17 H :   -0.178996
  18 H :   -0.179081

  Mayer bond orders larger than 0.100000
B(  0-C ,  1-N ) :   0.9821 B(  0-C , 10-C ) :   0.9149 B(  0-C , 11-H ) :   0.9154
B(  0-C , 12-H ) :   0.9342 B(  1-N ,  2-C ) :   0.6420 B(  1-N ,  4-C ) :  -0.1060
B(  1-N ,  7-H ) :   1.0948 B(  2-C ,  3-N ) :   0.4021 B(  2-C ,  4-C ) :   0.6715
B(  2-C ,  5-H ) :  -0.1093 B(  3-N ,  8-H ) :   1.0298 B(  3-N ,  9-H ) :   1.1975
B(  4-C ,  5-H ) :   1.0454 B(  4-C ,  6-H ) :   0.9502 B( 10-C , 13-C ) :   0.7915
B( 10-C , 14-H ) :   0.8748 B( 10-C , 15-H ) :   0.9862 B( 13-C , 16-H ) :   0.7989
B( 13-C , 17-H ) :   1.0945 B( 13-C , 18-H ) :   0.9615

E(0)                                       ...   -305.280845839
E(0)                                       ...   -305.280845839
E(CORR)(strong-pairs)                      ...     -1.353440051
E(CORR)(weak-pairs)                        ...     -0.001557908
E(CORR)(corrected)                         ...     -1.354997959
E(TOT)                                     ...   -306.635843798
E(CCSD(T))                                 ...   -306.691779615
FINAL SINGLE POINT ENERGY      -306.691779615377

DIPOLE MOMENT
-------------
                                X             Y             Z
Electronic contribution:      0.69219      -3.80507      -2.91425
Nuclear contribution   :     -1.36148       3.89245       4.28682
                        -----------------------------------------
Total Dipole Moment    :     -0.66929       0.08738       1.37258
                        -----------------------------------------
Magnitude (a.u.)       :      1.52956
Magnitude (Debye)      :      3.88783

Rotational constants in cm-1:     0.130039     0.059901     0.055416
Rotational constants in MHz :  3898.472533  1795.778295  1661.317267

                             ****ORCA TERMINATED NORMALLY****
TOTAL RUN TIME: 0 days 2 hours 31 minutes 30 seconds 162 msec
