                         Program Version 5.0.0 -  RELEASE  -
|  1> !DLPNO-CCSD(T) aug-cc-pVTZ aug-cc-pVTZ/C TightSCF TightPNO RIJCOSX def2/J
|  2>
|  3> *xyzfile 0 1 D1.xyz
|  4>
|  5> %MaxCore 64000
|  6>
|  7> %pal nprocs 18
|  8> end
|  9>
| 10> %scf
| 11>   MaxIter 150
| 12> end
| 13>
| 14>
| 15>                          ****END OF INPUT****

CARTESIAN COORDINATES (ANGSTROEM)
---------------------------------
  C      2.234473   -2.989754   -2.397622
  C      2.756799   -2.945553   -3.765029
  C     -1.104325    0.251374   -2.860056
  C     -0.711893    0.842517   -4.218344
  H      0.154626    1.499800   -4.130909
  H     -1.538134    1.459222   -4.582671
  C     -0.397624   -0.205875   -5.288018
  C      1.987208   -2.590451   -4.818975
  N      0.743221   -3.017493   -4.913524
  N      2.499636   -1.848598   -5.803241
  H      3.309780   -1.292818   -5.558947
  H      1.801025   -1.304298   -6.289129
  H      3.716116   -2.628797   -3.829533
  H      0.395828   -3.627747   -4.185024
  H      0.039201   -2.454383   -5.371367
  F      0.617165   -0.005348   -5.998273
  O     -1.133173   -1.221380   -5.341465
  C      2.191199   -1.619503   -1.715492
  H      2.872783   -3.666368   -1.828014
  H      1.246188   -3.447444   -2.407842
  C      1.298729   -0.554314   -2.359773
  H      1.872917   -1.787955   -0.681310
  H      3.216809   -1.238432   -1.654428
  C     -0.196255   -0.863365   -2.325763
  H      1.612531   -0.371346   -3.393065
  H      1.480944    0.388638   -1.834444
  H     -0.404105   -1.761825   -2.909448
  H     -0.490439   -1.087880   -1.294131
  H     -1.143842    1.066711   -2.129680
  H     -2.114401   -0.156834   -2.930323

 Total Charge           Charge          ....    0
 Multiplicity           Mult            ....    1
 Number of Electrons    NEL             ....  102
 Basis Dimension        Dim             ....  989

ORBITAL ENERGIES
----------------

  NO   OCC          E(Eh)            E(eV)
   0   2.0000     -26.412347      -718.7165
   1   2.0000     -20.592951      -560.3627
   2   2.0000     -15.549425      -423.1214
   3   2.0000     -15.536567      -422.7715
   4   2.0000     -11.462532      -311.9113
   5   2.0000     -11.277981      -306.8895
   6   2.0000     -11.276021      -306.8361
   7   2.0000     -11.246360      -306.0290
   8   2.0000     -11.223552      -305.4084
   9   2.0000     -11.220037      -305.3127
  10   2.0000     -11.205756      -304.9241
  11   2.0000     -11.193894      -304.6013
  12   2.0000     -11.127500      -302.7947
  13   2.0000      -1.771041       -48.1925
  14   2.0000      -1.415035       -38.5051
  15   2.0000      -1.275993       -34.7215
  16   2.0000      -1.160144       -31.5691
  17   2.0000      -1.113767       -30.3071
  18   2.0000      -1.066805       -29.0293
  19   2.0000      -1.021414       -27.7941
  20   2.0000      -0.965995       -26.2860
  21   2.0000      -0.935250       -25.4494
  22   2.0000      -0.891532       -24.2598
  23   2.0000      -0.839336       -22.8395
  24   2.0000      -0.817047       -22.2330
  25   2.0000      -0.803183       -21.8557
  26   2.0000      -0.787787       -21.4368
  27   2.0000      -0.755994       -20.5716
  28   2.0000      -0.745475       -20.2854
  29   2.0000      -0.705555       -19.1991
  30   2.0000      -0.674696       -18.3594
  31   2.0000      -0.658419       -17.9165
  32   2.0000      -0.647456       -17.6182
  33   2.0000      -0.628885       -17.1128
  34   2.0000      -0.616414       -16.7735
  35   2.0000      -0.605188       -16.4680
  36   2.0000      -0.584862       -15.9149
  37   2.0000      -0.570270       -15.5178
  38   2.0000      -0.552697       -15.0397
  39   2.0000      -0.540850       -14.7173
  40   2.0000      -0.528434       -14.3794
  41   2.0000      -0.521326       -14.1860
  42   2.0000      -0.506840       -13.7918
  43   2.0000      -0.494262       -13.4496
  44   2.0000      -0.486455       -13.2371
  45   2.0000      -0.477134       -12.9835
  46   2.0000      -0.458830       -12.4854
  47   2.0000      -0.449556       -12.2330
  48   2.0000      -0.442210       -12.0332
  49   2.0000      -0.405511       -11.0345
  50   2.0000      -0.246940        -6.7196
  51   0.0000       0.019281         0.5247
  52   0.0000       0.030112         0.8194
  53   0.0000       0.032014         0.8711
  54   0.0000       0.036964         1.0058
  55   0.0000       0.045259         1.2316

MULLIKEN ATOMIC CHARGES
-----------------------
   0 C :   -0.028265
   1 C :   -0.717175
   2 C :   -0.527050
   3 C :   -0.400597
   4 H :    0.218298
   5 H :    0.362959
   6 C :    1.062477
   7 C :    1.511137
   8 N :   -0.705831
   9 N :   -0.982559
  10 H :   -0.060487
  11 H :    0.299826
  12 H :    0.158618
  13 H :   -0.053401
  14 H :    0.182748
  15 F :   -0.421848
  16 O :   -0.838750
  17 C :   -0.597539
  18 H :    0.396663
  19 H :   -0.044791
  20 C :   -0.460951
  21 H :    0.140407
  22 H :    0.194408
  23 C :   -0.337768
  24 H :    0.224324
  25 H :    0.289676
  26 H :    0.344585
  27 H :    0.366575
  28 H :    0.250102
  29 H :    0.174207
Sum of atomic charges:    0.0000000

LOEWDIN ATOMIC CHARGES
----------------------
   0 C :    0.223057
   1 C :    0.220998
   2 C :    0.296644
   3 C :    0.292328
   4 H :   -0.165825
   5 H :   -0.145480
   6 C :   -0.801822
   7 C :   -0.433568
   8 N :    0.877799
   9 N :    0.871583
  10 H :   -0.270174
  11 H :   -0.467533
  12 H :   -0.283967
  13 H :   -0.275941
  14 H :   -0.553066
  15 F :    0.706747
  16 O :    0.546309
  17 C :    0.307998
  18 H :   -0.150087
  19 H :   -0.178998
  20 C :    0.285105
  21 H :   -0.147286
  22 H :   -0.139965
  23 C :    0.288446
  24 H :   -0.173095
  25 H :   -0.135546
  26 H :   -0.187087
  27 H :   -0.127693
  28 H :   -0.135374
  29 H :   -0.144509

  Mayer bond orders larger than 0.100000
B(  0-C ,  1-C ) :   0.7182 B(  0-C ,  7-C ) :  -0.1087 B(  0-C , 17-C ) :   0.7941
B(  0-C , 18-H ) :   0.9395 B(  0-C , 19-H ) :   1.0919 B(  1-C ,  7-C ) :   1.2898
B(  1-C ,  8-N ) :  -0.2252 B(  1-C , 12-H ) :   1.1049 B(  1-C , 17-C ) :   0.1054
B(  1-C , 18-H ) :  -0.1970 B(  1-C , 19-H ) :   0.1921 B(  1-C , 20-C ) :   0.1106
B(  2-C ,  3-C ) :   0.9193 B(  2-C ,  6-C ) :   0.1124 B(  2-C , 23-C ) :   0.8611
B(  2-C , 28-H ) :   0.9603 B(  2-C , 29-H ) :   1.0654 B(  3-C ,  4-H ) :   1.0144
B(  3-C ,  5-H ) :   0.8968 B(  3-C ,  6-C ) :   0.8015 B(  5-H ,  6-C ) :  -0.1065
B(  6-C , 15-F ) :   0.4831 B(  6-C , 16-O ) :   1.3407 B(  7-C ,  8-N ) :   0.3339
B(  7-C ,  9-N ) :   0.1564 B(  7-C , 10-H ) :  -0.1754 B(  7-C , 13-H ) :  -0.1700
B(  8-N , 13-H ) :   1.3182 B(  8-N , 14-H ) :   0.9279 B(  9-N , 10-H ) :   1.3272
B(  9-N , 11-H ) :   0.7407 B( 17-C , 20-C ) :   0.9260 B( 17-C , 21-H ) :   1.0169
B( 17-C , 22-H ) :   1.0409 B( 20-C , 23-C ) :   0.8234 B( 20-C , 24-H ) :   0.9613
B( 20-C , 25-H ) :   0.9572 B( 23-C , 26-H ) :   1.0177 B( 23-C , 27-H ) :   0.8595

E(0)                                       ...   -634.072100848
E(0)                                       ...   -634.072100848
E(CORR)(strong-pairs)                      ...     -2.551629545
E(CORR)(weak-pairs)                        ...     -0.004113920
E(CORR)(corrected)                         ...     -2.555743465
E(TOT)                                     ...   -636.627844312
E(CCSD(T))                                 ...   -636.736044903
FINAL SINGLE POINT ENERGY      -636.736044902540

DIPOLE MOMENT
-------------
                                X             Y             Z
Electronic contribution:     -3.15347       2.44565     -14.49731
Nuclear contribution   :      2.31842      -0.27661      14.74721
                        -----------------------------------------
Total Dipole Moment    :     -0.83505       2.16904       0.24989
                        -----------------------------------------
Magnitude (a.u.)       :      2.33762
Magnitude (Debye)      :      5.94177

Rotational constants in cm-1:     0.032691     0.023990     0.017099
Rotational constants in MHz :   980.050971   719.190545   512.606858

                             ****ORCA TERMINATED NORMALLY****
TOTAL RUN TIME: 0 days 4 hours 10 minutes 29 seconds 468 msec
