                         Program Version 5.0.0 -  RELEASE  -
|  1> !DLPNO-CCSD(T) aug-cc-pVTZ aug-cc-pVTZ/C TightSCF TightPNO RIJCOSX def2/J
|  2>
|  3> *xyzfile 0 1 D2.xyz
|  4>
|  5> %MaxCore 64000
|  6>
|  7> %pal nprocs 18
|  8> end
|  9>
| 10> %scf
| 11>   MaxIter 150
| 12> end
| 13>
| 14>
| 15>                          ****END OF INPUT****

CARTESIAN COORDINATES (ANGSTROEM)
---------------------------------
  C      2.234473   -2.989754   -2.397622
  N      2.756799   -2.945553   -3.765029
  C     -1.104325    0.251374   -2.860056
  C     -0.711893    0.842517   -4.218344
  H      0.154626    1.499800   -4.130909
  H     -1.538134    1.459222   -4.582671
  C     -0.397624   -0.205875   -5.288018
  C      1.987208   -2.590451   -4.818975
  C      0.743221   -3.017493   -4.913524
  N      2.499636   -1.848598   -5.803241
  H      3.309780   -1.292818   -5.558947
  H      1.801025   -1.304298   -6.289129
  H      3.716116   -2.628797   -3.829533
  H      0.395828   -3.627747   -4.185024
  H      0.039201   -2.454383   -5.371367
  F      0.617165   -0.005348   -5.998273
  O     -1.133173   -1.221380   -5.341465
  C      2.191199   -1.619503   -1.715492
  H      2.872783   -3.666368   -1.828014
  H      1.246188   -3.447444   -2.407842
  C      1.298729   -0.554314   -2.359773
  H      1.872917   -1.787955   -0.681310
  H      3.216809   -1.238432   -1.654428
  C     -0.196255   -0.863365   -2.325763
  H      1.612531   -0.371346   -3.393065
  H      1.480944    0.388638   -1.834444
  H     -0.404105   -1.761825   -2.909448
  H     -0.490439   -1.087880   -1.294131
  H     -1.143842    1.066711   -2.129680
  H     -2.114401   -0.156834   -2.930323

 Total Charge           Charge          ....    0
 Multiplicity           Mult            ....    1
 Number of Electrons    NEL             ....  102
 Basis Dimension        Dim             ....  989

ORBITAL ENERGIES
----------------

  NO   OCC          E(Eh)            E(eV)
   0   2.0000     -26.394007      -718.2174
   1   2.0000     -20.567197      -559.6619
   2   2.0000     -15.549657      -423.1277
   3   2.0000     -15.545070      -423.0029
   4   2.0000     -11.439442      -311.2830
   5   2.0000     -11.267286      -306.5984
   6   2.0000     -11.265054      -306.5377
   7   2.0000     -11.254659      -306.2548
   8   2.0000     -11.239721      -305.8484
   9   2.0000     -11.227069      -305.5041
  10   2.0000     -11.225492      -305.4612
  11   2.0000     -11.219436      -305.2964
  12   2.0000     -11.108623      -302.2810
  13   2.0000      -1.752584       -47.6902
  14   2.0000      -1.388672       -37.7877
  15   2.0000      -1.274200       -34.6728
  16   2.0000      -1.176625       -32.0176
  17   2.0000      -1.105789       -30.0900
  18   2.0000      -1.057926       -28.7876
  19   2.0000      -0.995917       -27.1003
  20   2.0000      -0.966441       -26.2982
  21   2.0000      -0.938695       -25.5432
  22   2.0000      -0.899875       -24.4869
  23   2.0000      -0.842583       -22.9278
  24   2.0000      -0.809762       -22.0348
  25   2.0000      -0.791793       -21.5458
  26   2.0000      -0.771389       -20.9906
  27   2.0000      -0.750022       -20.4091
  28   2.0000      -0.722409       -19.6578
  29   2.0000      -0.711924       -19.3724
  30   2.0000      -0.673764       -18.3341
  31   2.0000      -0.657098       -17.8805
  32   2.0000      -0.640443       -17.4273
  33   2.0000      -0.621022       -16.8989
  34   2.0000      -0.610152       -16.6031
  35   2.0000      -0.588514       -16.0143
  36   2.0000      -0.576874       -15.6975
  37   2.0000      -0.569499       -15.4969
  38   2.0000      -0.561021       -15.2662
  39   2.0000      -0.542436       -14.7604
  40   2.0000      -0.526161       -14.3176
  41   2.0000      -0.514442       -13.9987
  42   2.0000      -0.512991       -13.9592
  43   2.0000      -0.504099       -13.7172
  44   2.0000      -0.493532       -13.4297
  45   2.0000      -0.473012       -12.8713
  46   2.0000      -0.460551       -12.5322
  47   2.0000      -0.456227       -12.4146
  48   2.0000      -0.444366       -12.0918
  49   2.0000      -0.385634       -10.4936
  50   2.0000      -0.261678        -7.1206
  51   0.0000       0.020426         0.5558
  52   0.0000       0.027675         0.7531
  53   0.0000       0.030806         0.8383
  54   0.0000       0.037336         1.0160
  55   0.0000       0.043601         1.1864

MULLIKEN ATOMIC CHARGES
-----------------------
   0 C :   -0.411116
   1 N :   -0.491523
   2 C :   -0.533991
   3 C :   -0.393106
   4 H :    0.212087
   5 H :    0.361243
   6 C :    1.050565
   7 C :    1.238635
   8 C :   -1.033667
   9 N :   -0.871806
  10 H :    0.071622
  11 H :    0.162625
  12 H :   -0.033421
  13 H :    0.473568
  14 H :    0.228014
  15 F :   -0.457219
  16 O :   -0.831982
  17 C :   -0.559187
  18 H :    0.401626
  19 H :    0.144699
  20 C :   -0.452032
  21 H :    0.229089
  22 H :    0.176407
  23 C :   -0.308898
  24 H :    0.210290
  25 H :    0.297862
  26 H :    0.373385
  27 H :    0.328681
  28 H :    0.248566
  29 H :    0.168985
Sum of atomic charges:   -0.0000000

LOEWDIN ATOMIC CHARGES
----------------------
   0 C :    0.223854
   1 N :    0.586059
   2 C :    0.297487
   3 C :    0.288687
   4 H :   -0.168439
   5 H :   -0.146611
   6 C :   -0.807758
   7 C :   -0.448478
   8 C :    0.539511
   9 N :    0.863054
  10 H :   -0.282218
  11 H :   -0.462386
  12 H :   -0.279096
  13 H :   -0.294156
  14 H :   -0.549378
  15 F :    0.704307
  16 O :    0.544116
  17 C :    0.316773
  18 H :   -0.137576
  19 H :   -0.170688
  20 C :    0.285972
  21 H :   -0.143958
  22 H :   -0.143804
  23 C :    0.291142
  24 H :   -0.172229
  25 H :   -0.135260
  26 H :   -0.188783
  27 H :   -0.129388
  28 H :   -0.137627
  29 H :   -0.143131

  Mayer bond orders larger than 0.100000
B(  0-C ,  1-N ) :   0.9268 B(  0-C , 17-C ) :   0.8775 B(  0-C , 18-H ) :   0.8634
B(  0-C , 19-H ) :   1.0974 B(  1-N ,  7-C ) :   0.3909 B(  1-N , 12-H ) :   1.1091
B(  1-N , 19-H ) :   0.1540 B(  2-C ,  3-C ) :   0.9173 B(  2-C ,  6-C ) :   0.1192
B(  2-C , 23-C ) :   0.8652 B(  2-C , 28-H ) :   0.9592 B(  2-C , 29-H ) :   1.0659
B(  3-C ,  4-H ) :   1.0309 B(  3-C ,  5-H ) :   0.9016 B(  3-C ,  6-C ) :   0.7775
B(  5-H ,  6-C ) :  -0.1060 B(  6-C , 15-F ) :   0.4340 B(  6-C , 16-O ) :   1.4410
B(  7-C ,  8-C ) :   1.3579 B(  7-C ,  9-N ) :   0.2243 B(  7-C , 10-H ) :  -0.1283
B(  7-C , 14-H ) :  -0.1517 B(  8-C ,  9-N ) :  -0.1898 B(  8-C , 13-H ) :   0.7693
B(  8-C , 14-H ) :   1.1529 B(  9-N , 10-H ) :   1.0779 B(  9-N , 11-H ) :   1.0835
B( 11-H , 15-F ) :  -0.1282 B( 13-H , 14-H ) :   0.1190 B( 17-C , 20-C ) :   0.9117
B( 17-C , 21-H ) :   0.9633 B( 17-C , 22-H ) :   1.0738 B( 20-C , 23-C ) :   0.8162
B( 20-C , 24-H ) :   0.9504 B( 20-C , 25-H ) :   0.9678 B( 23-C , 26-H ) :   0.9794
B( 23-C , 27-H ) :   0.8768

E(0)                                       ...   -634.054212182
E(0)                                       ...   -634.054212182
E(CORR)(strong-pairs)                      ...     -2.551263686
E(CORR)(weak-pairs)                        ...     -0.004202437
E(CORR)(corrected)                         ...     -2.555466123
E(TOT)                                     ...   -636.609678305
E(CCSD(T))                                 ...   -636.717614710
FINAL SINGLE POINT ENERGY      -636.717614709842

DIPOLE MOMENT
-------------
                                X             Y             Z
Electronic contribution:     -1.47864       2.34865     -13.43858
Nuclear contribution   :      2.00823      -0.28769      14.57028
                        -----------------------------------------
Total Dipole Moment    :      0.52959       2.06096       1.13170
                        -----------------------------------------
Magnitude (a.u.)       :      2.41014
Magnitude (Debye)      :      6.12609

Rotational constants in cm-1:     0.033070     0.023715     0.016943
Rotational constants in MHz :   991.423248   710.957140   507.940500

                             ****ORCA TERMINATED NORMALLY****
TOTAL RUN TIME: 0 days 4 hours 42 minutes 25 seconds 768 msec
