                         Program Version 5.0.0 -  RELEASE  -
|  1> !DLPNO-CCSD(T) aug-cc-pVTZ aug-cc-pVTZ/C TightSCF TightPNO RIJCOSX def2/J
|  2>
|  3> *xyzfile 0 1 D3.xyz
|  4>
|  5> %MaxCore 64000
|  6>
|  7> %pal nprocs 18
|  8> end
|  9>
| 10> %scf
| 11>   MaxIter 150
| 12> end
| 13>
| 14>
| 15>                          ****END OF INPUT****

CARTESIAN COORDINATES (ANGSTROEM)
---------------------------------
  C      2.234473   -2.989754   -2.397622
  N      2.756799   -2.945553   -3.765029
  C     -1.104325    0.251374   -2.860056
  C     -0.711893    0.842517   -4.218344
  H      0.154626    1.499800   -4.130909
  H     -1.538134    1.459222   -4.582671
  C     -0.397624   -0.205875   -5.288018
  C      1.987208   -2.590451   -4.818975
  N      0.743221   -3.017493   -4.913524
  C      2.499636   -1.848598   -5.803241
  H      3.309780   -1.292818   -5.558947
  H      1.801025   -1.304298   -6.289129
  H      3.716116   -2.628797   -3.829533
  H      0.395828   -3.627747   -4.185024
  H      0.039201   -2.454383   -5.371367
  F      0.617165   -0.005348   -5.998273
  O     -1.133173   -1.221380   -5.341465
  C      2.191199   -1.619503   -1.715492
  H      2.872783   -3.666368   -1.828014
  H      1.246188   -3.447444   -2.407842
  C      1.298729   -0.554314   -2.359773
  H      1.872917   -1.787955   -0.681310
  H      3.216809   -1.238432   -1.654428
  C     -0.196255   -0.863365   -2.325763
  H      1.612531   -0.371346   -3.393065
  H      1.480944    0.388638   -1.834444
  H     -0.404105   -1.761825   -2.909448
  H     -0.490439   -1.087880   -1.294131
  H     -1.143842    1.066711   -2.129680
  H     -2.114401   -0.156834   -2.930323

 Total Charge           Charge          ....    0
 Multiplicity           Mult            ....    1
 Number of Electrons    NEL             ....  102
 Basis Dimension        Dim             ....  989

ORBITAL ENERGIES
----------------

  NO   OCC          E(Eh)            E(eV)
   0   2.0000     -26.386065      -718.0013
   1   2.0000     -20.580504      -560.0240
   2   2.0000     -15.551559      -423.1794
   3   2.0000     -15.533802      -422.6962
   4   2.0000     -11.450433      -311.5821
   5   2.0000     -11.277420      -306.8742
   6   2.0000     -11.270234      -306.6787
   7   2.0000     -11.263369      -306.4919
   8   2.0000     -11.246825      -306.0417
   9   2.0000     -11.230101      -305.5866
  10   2.0000     -11.229708      -305.5759
  11   2.0000     -11.229202      -305.5621
  12   2.0000     -11.111736      -302.3657
  13   2.0000      -1.745391       -47.4945
  14   2.0000      -1.403236       -38.1840
  15   2.0000      -1.275846       -34.7175
  16   2.0000      -1.173271       -31.9263
  17   2.0000      -1.112848       -30.2821
  18   2.0000      -1.064544       -28.9677
  19   2.0000      -1.008220       -27.4351
  20   2.0000      -0.966765       -26.3070
  21   2.0000      -0.936256       -25.4768
  22   2.0000      -0.892174       -24.2773
  23   2.0000      -0.842343       -22.9213
  24   2.0000      -0.808789       -22.0083
  25   2.0000      -0.792702       -21.5705
  26   2.0000      -0.777941       -21.1688
  27   2.0000      -0.770344       -20.9621
  28   2.0000      -0.731945       -19.9172
  29   2.0000      -0.707962       -19.2646
  30   2.0000      -0.669569       -18.2199
  31   2.0000      -0.654117       -17.7994
  32   2.0000      -0.645642       -17.5688
  33   2.0000      -0.636206       -17.3120
  34   2.0000      -0.620044       -16.8723
  35   2.0000      -0.599403       -16.3106
  36   2.0000      -0.585773       -15.9397
  37   2.0000      -0.566748       -15.4220
  38   2.0000      -0.548109       -14.9148
  39   2.0000      -0.535753       -14.5786
  40   2.0000      -0.533026       -14.5044
  41   2.0000      -0.519975       -14.1492
  42   2.0000      -0.514793       -14.0082
  43   2.0000      -0.503529       -13.7017
  44   2.0000      -0.497328       -13.5330
  45   2.0000      -0.484595       -13.1865
  46   2.0000      -0.478023       -13.0077
  47   2.0000      -0.463423       -12.6104
  48   2.0000      -0.461794       -12.5661
  49   2.0000      -0.382730       -10.4146
  50   2.0000      -0.261050        -7.1035
  51   0.0000       0.021188         0.5766
  52   0.0000       0.026968         0.7338
  53   0.0000       0.030461         0.8289
  54   0.0000       0.036476         0.9925
  55   0.0000       0.044678         1.2157

MULLIKEN ATOMIC CHARGES
-----------------------
   0 C :   -0.386738
   1 N :   -0.530197
   2 C :   -0.530854
   3 C :   -0.383468
   4 H :    0.213325
   5 H :    0.358430
   6 C :    1.050227
   7 C :    1.672855
   8 N :   -0.712916
   9 C :   -1.521450
  10 H :    0.094591
  11 H :    0.693335
  12 H :   -0.071796
  13 H :    0.044372
  14 H :    0.060644
  15 F :   -0.424094
  16 O :   -0.868926
  17 C :   -0.599428
  18 H :    0.459503
  19 H :    0.034326
  20 C :   -0.413243
  21 H :    0.225356
  22 H :    0.164448
  23 C :   -0.352731
  24 H :    0.235686
  25 H :    0.350602
  26 H :    0.373978
  27 H :    0.354101
  28 H :    0.247558
  29 H :    0.162504
Sum of atomic charges:    0.0000000

LOEWDIN ATOMIC CHARGES
----------------------
   0 C :    0.220331
   1 N :    0.590910
   2 C :    0.297190
   3 C :    0.293868
   4 H :   -0.164812
   5 H :   -0.145122
   6 C :   -0.800958
   7 C :   -0.458682
   8 N :    0.873818
   9 C :    0.540818
  10 H :   -0.309748
  11 H :   -0.486646
  12 H :   -0.271999
  13 H :   -0.285825
  14 H :   -0.544330
  15 F :    0.707892
  16 O :    0.543537
  17 C :    0.317780
  18 H :   -0.137991
  19 H :   -0.169443
  20 C :    0.290029
  21 H :   -0.145111
  22 H :   -0.140154
  23 C :    0.287556
  24 H :   -0.171881
  25 H :   -0.132988
  26 H :   -0.188327
  27 H :   -0.129747
  28 H :   -0.135919
  29 H :   -0.144047

  Mayer bond orders larger than 0.100000
B(  0-C ,  1-N ) :   1.0165 B(  0-C , 17-C ) :   0.8656 B(  0-C , 18-H ) :   0.8162
B(  0-C , 19-H ) :   1.1178 B(  1-N ,  7-C ) :   0.3856 B(  1-N ,  9-C ) :  -0.1545
B(  1-N , 12-H ) :   1.1731 B(  1-N , 18-H ) :  -0.1004 B(  1-N , 19-H ) :   0.1599
B(  2-C ,  3-C ) :   0.9134 B(  2-C ,  6-C ) :   0.1190 B(  2-C , 23-C ) :   0.8656
B(  2-C , 28-H ) :   0.9609 B(  2-C , 29-H ) :   1.0802 B(  3-C ,  4-H ) :   1.0161
B(  3-C ,  5-H ) :   0.8967 B(  3-C ,  6-C ) :   0.8122 B(  6-C , 15-F ) :   0.5315
B(  6-C , 16-O ) :   1.3195 B(  7-C ,  8-N ) :   0.2600 B(  7-C ,  9-C ) :   0.9112
B(  7-C , 10-H ) :  -0.2011 B(  8-N , 13-H ) :   1.1254 B(  8-N , 14-H ) :   1.1430
B(  9-C , 10-H ) :   1.4812 B(  9-C , 11-H ) :   0.4398 B( 11-H , 15-F ) :  -0.1237
B( 17-C , 20-C ) :   0.9214 B( 17-C , 21-H ) :   0.9676 B( 17-C , 22-H ) :   1.0759
B( 20-C , 23-C ) :   0.8383 B( 20-C , 24-H ) :   0.9070 B( 20-C , 25-H ) :   0.9271
B( 23-C , 26-H ) :   0.9992 B( 23-C , 27-H ) :   0.8676

E(0)                                       ...   -634.059995667
E(0)                                       ...   -634.059995667
E(CORR)(strong-pairs)                      ...     -2.548973989
E(CORR)(weak-pairs)                        ...     -0.004183453
E(CORR)(corrected)                         ...     -2.553157442
E(TOT)                                     ...   -636.613153109
E(CCSD(T))                                 ...   -636.721077860
FINAL SINGLE POINT ENERGY      -636.721077860263

DIPOLE MOMENT
-------------
                                X             Y             Z
Electronic contribution:     -2.90916       1.47963     -12.56652
Nuclear contribution   :      2.27881      -0.10762      14.43322
                        -----------------------------------------
Total Dipole Moment    :     -0.63035       1.37201       1.86670
                        -----------------------------------------
Magnitude (a.u.)       :      2.40090
Magnitude (Debye)      :      6.10260

Rotational constants in cm-1:     0.033336     0.023673     0.017062
Rotational constants in MHz :   999.388459   709.685364   511.514310

                             ****ORCA TERMINATED NORMALLY****
TOTAL RUN TIME: 0 days 3 hours 54 minutes 17 seconds 852 msec
