                         Program Version 5.0.0 -  RELEASE  -
|  1> !DLPNO-CCSD(T) aug-cc-pVTZ aug-cc-pVTZ/C TightSCF TightPNO RIJCOSX def2/J
|  2>
|  3> *xyzfile 0 1 D4.xyz
|  4>
|  5> %MaxCore 64000
|  6>
|  7> %pal nprocs 18
|  8> end
|  9>
| 10> %scf
| 11>   MaxIter 150
| 12> end
| 13>
| 14>
| 15>                          ****END OF INPUT****

CARTESIAN COORDINATES (ANGSTROEM)
---------------------------------
  C      2.234473   -2.989754   -2.397622
  C      2.756799   -2.945553   -3.765029
  C     -1.104325    0.251374   -2.860056
  C     -0.711893    0.842517   -4.218344
  H      0.154626    1.499800   -4.130909
  H     -1.538134    1.459222   -4.582671
  C     -0.397624   -0.205875   -5.288018
  C      1.987208   -2.590451   -4.818975
  N      0.743221   -3.017493   -4.913524
  N      2.499636   -1.848598   -5.803241
  H      3.309780   -1.292818   -5.558947
  H      1.801025   -1.304298   -6.289129
  H      3.716116   -2.628797   -3.829533
  H      0.395828   -3.627747   -4.185024
  H      0.039201   -2.454383   -5.371367
  O      0.617165   -0.005348   -5.998273
  F     -1.133173   -1.221380   -5.341465
  C      2.191199   -1.619503   -1.715492
  H      2.872783   -3.666368   -1.828014
  H      1.246188   -3.447444   -2.407842
  C      1.298729   -0.554314   -2.359773
  H      1.872917   -1.787955   -0.681310
  H      3.216809   -1.238432   -1.654428
  C     -0.196255   -0.863365   -2.325763
  H      1.612531   -0.371346   -3.393065
  H      1.480944    0.388638   -1.834444
  H     -0.404105   -1.761825   -2.909448
  H     -0.490439   -1.087880   -1.294131
  H     -1.143842    1.066711   -2.129680
  H     -2.114401   -0.156834   -2.930323

 Total Charge           Charge          ....    0
 Multiplicity           Mult            ....    1
 Number of Electrons    NEL             ....  102
 Basis Dimension        Dim             ....  989

ORBITAL ENERGIES
----------------

  NO   OCC          E(Eh)            E(eV)
   0   2.0000     -26.412648      -718.7247
   1   2.0000     -20.593623      -560.3810
   2   2.0000     -15.550841      -423.1599
   3   2.0000     -15.531487      -422.6332
   4   2.0000     -11.461002      -311.8697
   5   2.0000     -11.276297      -306.8436
   6   2.0000     -11.274864      -306.8046
   7   2.0000     -11.250678      -306.1465
   8   2.0000     -11.230322      -305.5926
   9   2.0000     -11.218083      -305.2595
  10   2.0000     -11.205185      -304.9086
  11   2.0000     -11.194204      -304.6098
  12   2.0000     -11.125978      -302.7533
  13   2.0000      -1.772247       -48.2253
  14   2.0000      -1.412746       -38.4428
  15   2.0000      -1.273788       -34.6615
  16   2.0000      -1.157354       -31.4932
  17   2.0000      -1.118272       -30.4297
  18   2.0000      -1.067126       -29.0380
  19   2.0000      -1.020470       -27.7684
  20   2.0000      -0.961893       -26.1744
  21   2.0000      -0.934941       -25.4410
  22   2.0000      -0.895112       -24.3572
  23   2.0000      -0.839914       -22.8552
  24   2.0000      -0.828251       -22.5378
  25   2.0000      -0.809157       -22.0183
  26   2.0000      -0.786915       -21.4130
  27   2.0000      -0.762244       -20.7417
  28   2.0000      -0.729555       -19.8522
  29   2.0000      -0.703400       -19.1405
  30   2.0000      -0.669679       -18.2229
  31   2.0000      -0.658028       -17.9058
  32   2.0000      -0.649016       -17.6606
  33   2.0000      -0.619680       -16.8624
  34   2.0000      -0.617978       -16.8160
  35   2.0000      -0.605432       -16.4747
  36   2.0000      -0.594024       -16.1642
  37   2.0000      -0.564941       -15.3728
  38   2.0000      -0.556656       -15.1474
  39   2.0000      -0.545246       -14.8369
  40   2.0000      -0.536618       -14.6021
  41   2.0000      -0.516169       -14.0457
  42   2.0000      -0.511029       -13.9058
  43   2.0000      -0.495223       -13.4757
  44   2.0000      -0.486793       -13.2463
  45   2.0000      -0.473058       -12.8726
  46   2.0000      -0.459915       -12.5149
  47   2.0000      -0.447708       -12.1828
  48   2.0000      -0.443406       -12.0657
  49   2.0000      -0.404993       -11.0204
  50   2.0000      -0.245444        -6.6789
  51   0.0000       0.018975         0.5163
  52   0.0000       0.029961         0.8153
  53   0.0000       0.031433         0.8553
  54   0.0000       0.036869         1.0033
  55   0.0000       0.045499         1.2381

MULLIKEN ATOMIC CHARGES
-----------------------
   0 C :   -0.032971
   1 C :   -0.732086
   2 C :   -0.542184
   3 C :   -0.369059
   4 H :    0.222632
   5 H :    0.393873
   6 C :    1.037797
   7 C :    1.561617
   8 N :   -0.715349
   9 N :   -1.002807
  10 H :   -0.064360
  11 H :    0.277133
  12 H :    0.165985
  13 H :   -0.055133
  14 H :    0.220968
  15 O :   -0.804747
  16 F :   -0.473986
  17 C :   -0.599596
  18 H :    0.393140
  19 H :   -0.047743
  20 C :   -0.455863
  21 H :    0.141003
  22 H :    0.200883
  23 C :   -0.383342
  24 H :    0.278471
  25 H :    0.289073
  26 H :    0.354455
  27 H :    0.341578
  28 H :    0.231712
  29 H :    0.168907
Sum of atomic charges:    0.0000000

LOEWDIN ATOMIC CHARGES
----------------------
   0 C :    0.221061
   1 C :    0.221615
   2 C :    0.292128
   3 C :    0.291003
   4 H :   -0.156730
   5 H :   -0.146878
   6 C :   -0.808682
   7 C :   -0.433025
   8 N :    0.877347
   9 N :    0.870787
  10 H :   -0.266990
  11 H :   -0.522796
  12 H :   -0.281965
  13 H :   -0.280575
  14 H :   -0.495089
  15 O :    0.542309
  16 F :    0.713454
  17 C :    0.307886
  18 H :   -0.150276
  19 H :   -0.180533
  20 C :    0.288515
  21 H :   -0.148326
  22 H :   -0.138872
  23 C :    0.287480
  24 H :   -0.173887
  25 H :   -0.134411
  26 H :   -0.184559
  27 H :   -0.127361
  28 H :   -0.134304
  29 H :   -0.148323

  Mayer bond orders larger than 0.100000
B(  0-C ,  1-C ) :   0.7199 B(  0-C ,  7-C ) :  -0.1178 B(  0-C , 17-C ) :   0.7978
B(  0-C , 18-H ) :   0.9427 B(  0-C , 19-H ) :   1.0927 B(  1-C ,  7-C ) :   1.2872
B(  1-C ,  8-N ) :  -0.2455 B(  1-C , 12-H ) :   1.0987 B(  1-C , 17-C ) :   0.1074
B(  1-C , 18-H ) :  -0.1939 B(  1-C , 19-H ) :   0.1920 B(  1-C , 20-C ) :   0.1115
B(  2-C ,  3-C ) :   0.9024 B(  2-C ,  6-C ) :   0.1246 B(  2-C , 23-C ) :   0.8675
B(  2-C , 28-H ) :   0.9786 B(  2-C , 29-H ) :   1.0584 B(  3-C ,  4-H ) :   0.9994
B(  3-C ,  5-H ) :   0.9037 B(  3-C ,  6-C ) :   0.7969 B(  3-C , 16-F ) :   0.1666
B(  5-H ,  6-C ) :  -0.1339 B(  6-C , 15-O ) :   1.3068 B(  6-C , 16-F ) :   0.5171
B(  7-C ,  8-N ) :   0.3461 B(  7-C ,  9-N ) :   0.1087 B(  7-C , 10-H ) :  -0.1827
B(  7-C , 13-H ) :  -0.1608 B(  8-N , 13-H ) :   1.3315 B(  8-N , 14-H ) :   0.9412
B(  9-N , 10-H ) :   1.3359 B(  9-N , 11-H ) :   0.7276 B( 17-C , 20-C ) :   0.9338
B( 17-C , 21-H ) :   1.0168 B( 17-C , 22-H ) :   1.0295 B( 20-C , 23-C ) :   0.8374
B( 20-C , 24-H ) :   0.9282 B( 20-C , 25-H ) :   0.9674 B( 23-C , 26-H ) :   0.9911
B( 23-C , 27-H ) :   0.9065

E(0)                                       ...   -634.072417046
E(0)                                       ...   -634.072417046
E(CORR)(strong-pairs)                      ...     -2.551373501
E(CORR)(weak-pairs)                        ...     -0.004183272
E(CORR)(corrected)                         ...     -2.555556773
E(TOT)                                     ...   -636.627973818
E(CCSD(T))                                 ...   -636.736057358
FINAL SINGLE POINT ENERGY      -636.736057357627

DIPOLE MOMENT
-------------
                                X             Y             Z
Electronic contribution:     -6.18784       0.35755     -13.34603
Nuclear contribution   :      4.38568       1.15960      13.97148
                        -----------------------------------------
Total Dipole Moment    :     -1.80216       1.51715       0.62545
                        -----------------------------------------
Magnitude (a.u.)       :      2.43736
Magnitude (Debye)      :      6.19526

Rotational constants in cm-1:     0.032892     0.023844     0.017123
Rotational constants in MHz :   986.091711   714.821905   513.334630

                             ****ORCA TERMINATED NORMALLY****
TOTAL RUN TIME: 0 days 4 hours 21 minutes 29 seconds 63 msec
