                         Program Version 5.0.0 -  RELEASE  -
|  1> !M062X D3Zero RIJCOSX def2-TZVP def2/J TightSCF
|  2> *xyz -1 1
|  3> C          4.93020       -7.37532       -2.64962
|  4> C          3.84189       -6.95161       -3.63283
|  5> H          3.45814       -5.95442       -3.40712
|  6> H          2.98848       -7.64361       -3.56708
|  7> S          4.31812       -6.91593       -5.36869
|  8> O          5.40615       -5.89948       -5.51297
|  9> O          3.11191       -6.44508       -6.04379
| 10> O          4.76340       -8.23942       -5.69863
| 11> H          5.27901       -8.35440       -2.90385
| 12> H          4.53000       -7.38577       -1.65734
| 13> H          5.74437       -6.68276       -2.69856
| 14> *
| 15>
| 16> %MaxCore 64000
| 17>
| 18> %pal nprocs 4
| 19> end
| 20>
| 21> %scf
| 22>   MaxIter 150
| 23> end
| 24>
| 25>
| 26>                          ****END OF INPUT****

CARTESIAN COORDINATES (ANGSTROEM)
---------------------------------
  C      4.930200   -7.375320   -2.649620
  C      3.841890   -6.951610   -3.632830
  H      3.458140   -5.954420   -3.407120
  H      2.988480   -7.643610   -3.567080
  S      4.318120   -6.915930   -5.368690
  O      5.406150   -5.899480   -5.512970
  O      3.111910   -6.445080   -6.043790
  O      4.763400   -8.239420   -5.698630
  H      5.279010   -8.354400   -2.903850
  H      4.530000   -7.385770   -1.657340
  H      5.744370   -6.682760   -2.698560

 Total Charge           Charge          ....   -1
 Multiplicity           Mult            ....    1
 Number of Electrons    NEL             ....   58
 Basis Dimension        Dim             ....  222

ORBITAL ENERGIES
----------------

  NO   OCC          E(Eh)            E(eV)
   0   2.0000     -89.886076     -2445.9245
   1   2.0000     -19.405001      -528.0369
   2   2.0000     -19.395175      -527.7695
   3   2.0000     -19.387605      -527.5636
   4   2.0000     -10.397548      -282.9317
   5   2.0000     -10.390538      -282.7409
   6   2.0000      -8.210348      -223.4149
   7   2.0000      -6.133013      -166.8878
   8   2.0000      -6.131894      -166.8573
   9   2.0000      -6.131678      -166.8514
  10   2.0000      -1.039668       -28.2908
  11   2.0000      -0.909050       -24.7365
  12   2.0000      -0.878534       -23.9061
  13   2.0000      -0.729909       -19.8618
  14   2.0000      -0.594810       -16.1856
  15   2.0000      -0.465533       -12.6678
  16   2.0000      -0.389744       -10.6055
  17   2.0000      -0.388223       -10.5641
  18   2.0000      -0.348266        -9.4768
  19   2.0000      -0.337564        -9.1856
  20   2.0000      -0.325774        -8.8648
  21   2.0000      -0.293810        -7.9950
  22   2.0000      -0.276482        -7.5234
  23   2.0000      -0.223119        -6.0714
  24   2.0000      -0.220496        -6.0000
  25   2.0000      -0.185488        -5.0474
  26   2.0000      -0.170052        -4.6273
  27   2.0000      -0.166015        -4.5175
  28   2.0000      -0.132061        -3.5936
  29   0.0000       0.202885         5.5208
  30   0.0000       0.246849         6.7171
  31   0.0000       0.263273         7.1640
  32   0.0000       0.266107         7.2411
  33   0.0000       0.293410         7.9841

MULLIKEN ATOMIC CHARGES
-----------------------
   0 C :   -0.402773
   1 C :   -0.302587
   2 H :    0.119231
   3 H :    0.111679
   4 S :    0.912341
   5 O :   -0.631222
   6 O :   -0.598728
   7 O :   -0.573637
   8 H :    0.135725
   9 H :    0.094039
  10 H :    0.135932
Sum of atomic charges:   -1.0000000

LOEWDIN ATOMIC CHARGES
----------------------
   0 C :   -0.344267
   1 C :   -0.433149
   2 H :    0.121697
   3 H :    0.122405
   4 S :    0.442442
   5 O :   -0.455032
   6 O :   -0.410121
   7 O :   -0.376982
   8 H :    0.115528
   9 H :    0.101680
  10 H :    0.115798

  Mayer bond orders larger than 0.100000
B(  0-C ,  1-C ) :   0.9287 B(  0-C ,  8-H ) :   0.9725 B(  0-C ,  9-H ) :   0.9704
B(  0-C , 10-H ) :   0.9720 B(  1-C ,  2-H ) :   0.9646 B(  1-C ,  3-H ) :   0.9614
B(  1-C ,  4-S ) :   0.8754 B(  4-S ,  5-O ) :   1.7052 B(  4-S ,  6-O ) :   1.7741
B(  4-S ,  7-O ) :   1.7740

Dispersion correction           -0.000150687
FINAL SINGLE POINT ENERGY      -703.155548861356

DIPOLE MOMENT
-------------
                                X             Y             Z
Electronic contribution:     -0.37037       0.80433      -7.79865
Nuclear contribution   :      0.07504      -1.14369       9.75001
                        -----------------------------------------
Total Dipole Moment    :     -0.29533      -0.33936       1.95136
                        -----------------------------------------
Magnitude (a.u.)       :      2.00254
Magnitude (Debye)      :      5.09006

Rotational constants in cm-1:     0.160553     0.082191     0.080550
Rotational constants in MHz :  4813.250478  2464.013016  2414.833054

                             ****ORCA TERMINATED NORMALLY****
TOTAL RUN TIME: 0 days 0 hours 0 minutes 27 seconds 135 msec
