                         Program Version 5.0.0 -  RELEASE  -
|  1> !M062X D3Zero RIJCOSX def2-TZVP def2/J TightSCF
|  2> *xyz 1 1
|  3> C          5.55821       -1.99291       -6.21505
|  4> C          4.18188       -2.58967       -6.29891
|  5> N          3.14587       -1.76843       -6.48675
|  6> N          4.01910       -3.86431       -6.22743
|  7> H          4.76849       -4.59115       -5.99077
|  8> H          3.12241       -4.33339       -6.31462
|  9> H          3.28164       -0.77779       -6.56655
| 10> H          2.21255       -2.13419       -6.56225
| 11> C          6.41926       -2.54294       -5.07763
| 12> H          6.03683       -2.19819       -7.17685
| 13> H          5.46761       -0.90737       -6.12797
| 14> H          6.50056       -3.60553       -5.17358
| 15> H          5.96544       -2.30329       -4.13874
| 16> H          7.39438       -2.10494       -5.12457
| 17> *
| 18>
| 19> %MaxCore 64000
| 20>
| 21> %pal nprocs 4
| 22> end
| 23>
| 24> %scf
| 25>   MaxIter 150
| 26> end
| 27>
| 28>
| 29>                          ****END OF INPUT****

CARTESIAN COORDINATES (ANGSTROEM)
---------------------------------
  C      5.558210   -1.992910   -6.215050
  C      4.181880   -2.589670   -6.298910
  N      3.145870   -1.768430   -6.486750
  N      4.019100   -3.864310   -6.227430
  H      4.768490   -4.591150   -5.990770
  H      3.122410   -4.333390   -6.314620
  H      3.281640   -0.777790   -6.566550
  H      2.212550   -2.134190   -6.562250
  C      6.419260   -2.542940   -5.077630
  H      6.036830   -2.198190   -7.176850
  H      5.467610   -0.907370   -6.127970
  H      6.500560   -3.605530   -5.173580
  H      5.965440   -2.303290   -4.138740
  H      7.394380   -2.104940   -5.124570

 Total Charge           Charge          ....    1
 Multiplicity           Mult            ....    1
 Number of Electrons    NEL             ....   40
 Basis Dimension        Dim             ....  209

ORBITAL ENERGIES
----------------

  NO   OCC          E(Eh)            E(eV)
   0   2.0000     -15.000181      -408.1757
   1   2.0000     -14.988367      -407.8542
   2   2.0000     -10.864558      -295.6397
   3   2.0000     -10.733850      -292.0829
   4   2.0000     -10.689482      -290.8756
   5   2.0000      -1.315992       -35.8100
   6   2.0000      -1.210993       -32.9528
   7   2.0000      -1.066453       -29.0197
   8   2.0000      -0.955018       -25.9874
   9   2.0000      -0.898411       -24.4470
  10   2.0000      -0.848429       -23.0869
  11   2.0000      -0.824062       -22.4239
  12   2.0000      -0.767230       -20.8774
  13   2.0000      -0.727613       -19.7993
  14   2.0000      -0.690092       -18.7783
  15   2.0000      -0.672953       -18.3120
  16   2.0000      -0.611377       -16.6364
  17   2.0000      -0.602891       -16.4055
  18   2.0000      -0.587178       -15.9779
  19   2.0000      -0.554947       -15.1009
  20   0.0000      -0.164211        -4.4684
  21   0.0000      -0.128448        -3.4952
  22   0.0000      -0.091885        -2.5003
  23   0.0000      -0.081953        -2.2301
  24   0.0000      -0.055889        -1.5208

MULLIKEN ATOMIC CHARGES
-----------------------
   0 C :   -0.315253
   1 C :    0.493435
   2 N :   -0.436286
   3 N :   -0.447533
   4 H :    0.341583
   5 H :    0.302040
   6 H :    0.310028
   7 H :    0.289097
   8 C :   -0.394746
   9 H :    0.208607
  10 H :    0.165409
  11 H :    0.122087
  12 H :    0.173463
  13 H :    0.188070
Sum of atomic charges:    1.0000000

LOEWDIN ATOMIC CHARGES
----------------------
   0 C :   -0.220189
   1 C :   -0.290554
   2 N :    0.098325
   3 N :    0.109056
   4 H :    0.239525
   5 H :    0.203537
   6 H :    0.202369
   7 H :    0.194534
   8 C :   -0.264696
   9 H :    0.175795
  10 H :    0.160259
  11 H :    0.118743
  12 H :    0.132910
  13 H :    0.140386

  Mayer bond orders larger than 0.100000
B(  0-C ,  1-C ) :   0.9399 B(  0-C ,  8-C ) :   0.9549 B(  0-C ,  9-H ) :   0.9247
B(  0-C , 10-H ) :   0.9766 B(  1-C ,  2-N ) :   1.3852 B(  1-C ,  3-N ) :   1.4214
B(  2-N ,  6-H ) :   0.8909 B(  2-N ,  7-H ) :   0.8996 B(  3-N ,  4-H ) :   0.8664
B(  3-N ,  5-H ) :   0.8913 B(  8-C , 11-H ) :   0.9654 B(  8-C , 12-H ) :   0.9604
B(  8-C , 13-H ) :   0.9652

Dispersion correction           -0.000203409
FINAL SINGLE POINT ENERGY      -228.999948774416

DIPOLE MOMENT
-------------
                                X             Y             Z
Electronic contribution:     -3.76789      -0.47826      -1.56358
Nuclear contribution   :      2.76041       0.12669       1.26265
                        -----------------------------------------
Total Dipole Moment    :     -1.00748      -0.35157      -0.30093
                        -----------------------------------------
Magnitude (a.u.)       :      1.10868
Magnitude (Debye)      :      2.81805

Rotational constants in cm-1:     0.280918     0.124524     0.094121
Rotational constants in MHz :  8421.697738  3733.133254  2821.684112

                             ****ORCA TERMINATED NORMALLY****
TOTAL RUN TIME: 0 days 0 hours 0 minutes 29 seconds 250 msec
