                         Program Version 5.0.0 -  RELEASE  -
|  1> !M062X D3Zero RIJCOSX def2-TZVP def2/J TightSCF xyzfile
|  2>
|  3> *xyzfile 0 1 B.xyz
|  4>
|  5> %MaxCore 64000
|  6>
|  7> %pal nprocs 18
|  8> end
|  9>
| 10> %scf
| 11>   MaxIter 150
| 12> end
| 13>
| 14>
| 15>                          ****END OF INPUT****

CARTESIAN COORDINATES (ANGSTROEM)
---------------------------------
  C      5.558206   -1.992914   -6.215054
  C      4.930199   -7.375319   -2.649623
  C      3.841892   -6.951611   -3.632829
  H      3.458144   -5.954425   -3.407121
  H      2.988484   -7.643606   -3.567078
  S      4.318115   -6.915930   -5.368692
  C      4.181880   -2.589671   -6.298911
  N      3.145873   -1.768431   -6.486753
  N      4.019102   -3.864307   -6.227427
  H      4.768490   -4.591153   -5.990773
  H      3.122405   -4.333392   -6.314620
  H      3.281635   -0.777786   -6.566549
  H      2.212549   -2.134193   -6.562246
  O      5.406154   -5.899480   -5.512972
  O      3.111910   -6.445079   -6.043792
  C      6.419260   -2.542944   -5.077630
  C      5.872267   -5.002756   -2.427819
  C      6.173994   -6.485522   -2.606315
  H      6.734852   -6.613767   -3.534015
  H      6.821463   -6.831018   -1.793617
  H      4.469612   -7.406168   -1.655876
  H      5.230134   -8.398678   -2.885906
  C      5.896512   -2.169314   -3.694552
  H      7.428880   -2.143665   -5.208078
  H      6.505894   -3.627541   -5.175502
  C      6.807804   -2.623428   -2.551019
  H      4.894708   -2.589732   -3.557501
  H      5.778823   -1.081255   -3.635790
  C      7.111544   -4.122463   -2.520363
  H      7.751615   -2.071393   -2.614406
  H      6.345837   -2.326401   -1.604086
  H      5.362882   -4.828697   -1.471335
  H      5.174429   -4.702577   -3.211298
  H      7.778329   -4.329347   -1.677651
  H      7.673189   -4.402845   -3.417586
  O      4.763396   -8.239424   -5.698629
  H      6.036826   -2.198189   -7.176852
  H      5.467610   -0.907371   -6.127968

 Total Charge           Charge          ....    0
 Multiplicity           Mult            ....    1
 Number of Electrons    NEL             ....  136
 Basis Dimension        Dim             ....  634

ORBITAL ENERGIES
----------------

  NO   OCC          E(Eh)            E(eV)
   0   2.0000     -90.044697     -2450.2408
   1   2.0000     -19.571042      -532.5551
   2   2.0000     -19.557905      -532.1976
   3   2.0000     -19.551387      -532.0203
   4   2.0000     -14.838830      -403.7851
   5   2.0000     -14.801542      -402.7704
   6   2.0000     -10.699858      -291.1579
   7   2.0000     -10.594234      -288.2838
   8   2.0000     -10.561025      -287.3801
   9   2.0000     -10.548407      -287.0368
  10   2.0000     -10.536751      -286.7196
  11   2.0000     -10.529178      -286.5135
  12   2.0000     -10.524378      -286.3829
  13   2.0000     -10.517285      -286.1899
  14   2.0000     -10.516112      -286.1579
  15   2.0000     -10.508637      -285.9546
  16   2.0000      -8.369656      -227.7499
  17   2.0000      -6.292091      -171.2165
  18   2.0000      -6.291553      -171.2019
  19   2.0000      -6.290618      -171.1764
  20   2.0000      -1.203578       -32.7510
  21   2.0000      -1.151789       -31.3418
  22   2.0000      -1.067639       -29.0519
  23   2.0000      -1.061305       -28.8796
  24   2.0000      -1.042031       -28.3551
  25   2.0000      -0.942196       -25.6384
  26   2.0000      -0.905778       -24.6475
  27   2.0000      -0.880540       -23.9607
  28   2.0000      -0.837959       -22.8020
  29   2.0000      -0.800077       -21.7712
  30   2.0000      -0.764245       -20.7962
  31   2.0000      -0.741534       -20.1782
  32   2.0000      -0.712445       -19.3866
  33   2.0000      -0.685007       -18.6400
  34   2.0000      -0.676400       -18.4058
  35   2.0000      -0.659858       -17.9556
  36   2.0000      -0.642521       -17.4839
  37   2.0000      -0.619286       -16.8516
  38   2.0000      -0.594028       -16.1643
  39   2.0000      -0.576516       -15.6878
  40   2.0000      -0.562126       -15.2962
  41   2.0000      -0.544209       -14.8087
  42   2.0000      -0.539665       -14.6850
  43   2.0000      -0.525919       -14.3110
  44   2.0000      -0.517413       -14.0795
  45   2.0000      -0.509219       -13.8565
  46   2.0000      -0.501268       -13.6402
  47   2.0000      -0.497919       -13.5491
  48   2.0000      -0.486415       -13.2360
  49   2.0000      -0.467063       -12.7094
  50   2.0000      -0.462694       -12.5905
  51   2.0000      -0.459373       -12.5002
  52   2.0000      -0.437189       -11.8965
  53   2.0000      -0.431001       -11.7281
  54   2.0000      -0.424598       -11.5539
  55   2.0000      -0.406155       -11.0520
  56   2.0000      -0.397537       -10.8175
  57   2.0000      -0.393347       -10.7035
  58   2.0000      -0.391780       -10.6609
  59   2.0000      -0.382923       -10.4199
  60   2.0000      -0.381638       -10.3849
  61   2.0000      -0.373201       -10.1553
  62   2.0000      -0.366001        -9.9594
  63   2.0000      -0.358321        -9.7504
  64   2.0000      -0.338498        -9.2110
  65   2.0000      -0.335735        -9.1358
  66   2.0000      -0.315577        -8.5873
  67   2.0000      -0.303500        -8.2586
  68   0.0000      -0.008046        -0.2189
  69   0.0000       0.008599         0.2340
  70   0.0000       0.046265         1.2589
  71   0.0000       0.056419         1.5352
  72   0.0000       0.071582         1.9478

MULLIKEN ATOMIC CHARGES
-----------------------
   0 C :   -0.314098
   1 C :   -0.273962
   2 C :   -0.365189
   3 H :    0.147789
   4 H :    0.172159
   5 S :    0.966442
   6 C :    0.424269
   7 N :   -0.488571
   8 N :   -0.427438
   9 H :    0.363360
  10 H :    0.290673
  11 H :    0.276026
  12 H :    0.273699
  13 O :   -0.619449
  14 O :   -0.614001
  15 C :   -0.386156
  16 C :   -0.278012
  17 C :   -0.291253
  18 H :    0.188831
  19 H :    0.133860
  20 H :    0.137856
  21 H :    0.168794
  22 C :   -0.286478
  23 H :    0.163526
  24 H :    0.227053
  25 C :   -0.281560
  26 H :    0.168446
  27 H :    0.142750
  28 C :   -0.314454
  29 H :    0.150646
  30 H :    0.151510
  31 H :    0.143588
  32 H :    0.092310
  33 H :    0.148280
  34 H :    0.172075
  35 O :   -0.516112
  36 H :    0.196638
  37 H :    0.156158
Sum of atomic charges:   -0.0000000

LOEWDIN ATOMIC CHARGES
----------------------
   0 C :   -0.208520
   1 C :   -0.291480
   2 C :   -0.392116
   3 H :    0.124904
   4 H :    0.141423
   5 S :    0.486169
   6 C :   -0.324017
   7 N :    0.049608
   8 N :    0.113799
   9 H :    0.175090
  10 H :    0.190107
  11 H :    0.183918
  12 H :    0.183899
  13 O :   -0.383655
  14 O :   -0.387599
  15 C :   -0.255659
  16 C :   -0.276884
  17 C :   -0.276151
  18 H :    0.145611
  19 H :    0.135576
  20 H :    0.138432
  21 H :    0.146423
  22 C :   -0.275149
  23 H :    0.148151
  24 H :    0.152853
  25 C :   -0.270011
  26 H :    0.138303
  27 H :    0.136552
  28 C :   -0.271987
  29 H :    0.138471
  30 H :    0.139811
  31 H :    0.135538
  32 H :    0.130426
  33 H :    0.138952
  34 H :    0.141688
  35 O :   -0.319274
  36 H :    0.168340
  37 H :    0.148457

  Mayer bond orders larger than 0.100000
B(  0-C ,  6-C ) :   0.9373 B(  0-C , 15-C ) :   0.9196 B(  0-C , 36-H ) :   0.9503
B(  0-C , 37-H ) :   0.9934 B(  1-C ,  2-C ) :   0.9095 B(  1-C , 17-C ) :   0.9374
B(  1-C , 20-H ) :   0.9745 B(  1-C , 21-H ) :   0.9756 B(  2-C ,  3-H ) :   0.9511
B(  2-C ,  4-H ) :   0.9597 B(  2-C ,  5-S ) :   0.9110 B(  5-S , 13-O ) :   1.4497
B(  5-S , 14-O ) :   1.6562 B(  5-S , 35-O ) :   1.8840 B(  6-C ,  7-N ) :   1.2561
B(  6-C ,  8-N ) :   1.5469 B(  7-N , 11-H ) :   0.9099 B(  7-N , 12-H ) :   0.9091
B(  8-N ,  9-H ) :   0.6958 B(  8-N , 10-H ) :   0.8787 B(  9-H , 13-O ) :   0.2142
B( 15-C , 22-C ) :   0.8573 B( 15-C , 23-H ) :   0.9719 B( 15-C , 24-H ) :   0.9648
B( 16-C , 17-C ) :   0.9010 B( 16-C , 28-C ) :   0.9040 B( 16-C , 31-H ) :   0.9651
B( 16-C , 32-H ) :   0.9771 B( 17-C , 18-H ) :   0.9782 B( 17-C , 19-H ) :   0.9806
B( 22-C , 25-C ) :   0.9285 B( 22-C , 26-H ) :   0.9764 B( 22-C , 27-H ) :   0.9772
B( 25-C , 28-C ) :   0.9077 B( 25-C , 29-H ) :   0.9927 B( 25-C , 30-H ) :   0.9912
B( 28-C , 33-H ) :   0.9826 B( 28-C , 34-H ) :   0.9934

Dispersion correction           -0.002782603
FINAL SINGLE POINT ENERGY     -1127.673820695994

DIPOLE MOMENT
-------------
                                X             Y             Z
Electronic contribution:     -9.19984     -11.39705     -14.17227
Nuclear contribution   :      8.53517      16.50844      14.36520
                        -----------------------------------------
Total Dipole Moment    :     -0.66467       5.11139       0.19293
                        -----------------------------------------
Magnitude (a.u.)       :      5.15804
Magnitude (Debye)      :     13.11069

Rotational constants in cm-1:     0.017951     0.012436     0.008288
Rotational constants in MHz :   538.163255   372.824050   248.467077

                             ****ORCA TERMINATED NORMALLY****
TOTAL RUN TIME: 0 days 0 hours 1 minutes 34 seconds 144 msec
