                         Program Version 5.0.0 -  RELEASE  -
|  1> !M062X D3Zero RIJCOSX def2-TZVP def2/J TightSCF
|  2> *xyz 0 1
|  3> C          4.93020       -7.37532       -2.64962
|  4> C          3.84189       -6.95161       -3.63283
|  5> H          3.45814       -5.95442       -3.40712
|  6> H          2.98848       -7.64361       -3.56708
|  7> S          4.31812       -6.91593       -5.36869
|  8> F          5.40615       -5.89948       -5.51297
|  9> O          3.11191       -6.44508       -6.04379
| 10> O          4.76340       -8.23942       -5.69863
| 11> H          5.27901       -8.35440       -2.90385
| 12> H          4.53000       -7.38577       -1.65734
| 13> H          5.74437       -6.68276       -2.69856
| 14> *
| 15>
| 16> %MaxCore 64000
| 17>
| 18> %pal nprocs 4
| 19> end
| 20>
| 21> %scf
| 22>   MaxIter 150
| 23> end
| 24>
| 25>
| 26>                          ****END OF INPUT****

CARTESIAN COORDINATES (ANGSTROEM)
---------------------------------
  C      4.930200   -7.375320   -2.649620
  C      3.841890   -6.951610   -3.632830
  H      3.458140   -5.954420   -3.407120
  H      2.988480   -7.643610   -3.567080
  S      4.318120   -6.915930   -5.368690
  F      5.406150   -5.899480   -5.512970
  O      3.111910   -6.445080   -6.043790
  O      4.763400   -8.239420   -5.698630
  H      5.279010   -8.354400   -2.903850
  H      4.530000   -7.385770   -1.657340
  H      5.744370   -6.682760   -2.698560

 Total Charge           Charge          ....    0
 Multiplicity           Mult            ....    1
 Number of Electrons    NEL             ....   58
 Basis Dimension        Dim             ....  222

ORBITAL ENERGIES
----------------

  NO   OCC          E(Eh)            E(eV)
   0   2.0000     -90.151170     -2453.1380
   1   2.0000     -25.345542      -689.6873
   2   2.0000     -19.644598      -534.5567
   3   2.0000     -19.634365      -534.2782
   4   2.0000     -10.601991      -288.4948
   5   2.0000     -10.558029      -287.2986
   6   2.0000      -8.476043      -230.6448
   7   2.0000      -6.400830      -174.1754
   8   2.0000      -6.396060      -174.0456
   9   2.0000      -6.395238      -174.0233
  10   2.0000      -1.489148       -40.5218
  11   2.0000      -1.236962       -33.6594
  12   2.0000      -1.141154       -31.0524
  13   2.0000      -0.924088       -25.1457
  14   2.0000      -0.818417       -22.2703
  15   2.0000      -0.763543       -20.7771
  16   2.0000      -0.670397       -18.2424
  17   2.0000      -0.660090       -17.9620
  18   2.0000      -0.635187       -17.2843
  19   2.0000      -0.569427       -15.4949
  20   2.0000      -0.558770       -15.2049
  21   2.0000      -0.536155       -14.5895
  22   2.0000      -0.507698       -13.8152
  23   2.0000      -0.479703       -13.0534
  24   2.0000      -0.472908       -12.8685
  25   2.0000      -0.450191       -12.2503
  26   2.0000      -0.415666       -11.3108
  27   2.0000      -0.398713       -10.8495
  28   2.0000      -0.394104       -10.7241
  29   0.0000       0.041168         1.1202
  30   0.0000       0.080704         2.1961
  31   0.0000       0.095234         2.5914
  32   0.0000       0.104708         2.8493
  33   0.0000       0.110476         3.0062

MULLIKEN ATOMIC CHARGES
-----------------------
   0 C :   -0.409190
   1 C :   -0.306696
   2 H :    0.174042
   3 H :    0.187545
   4 S :    0.934717
   5 F :   -0.144516
   6 O :   -0.463245
   7 O :   -0.439501
   8 H :    0.168505
   9 H :    0.150581
  10 H :    0.147757
Sum of atomic charges:   -0.0000000

LOEWDIN ATOMIC CHARGES
----------------------
   0 C :   -0.315358
   1 C :   -0.393282
   2 H :    0.141174
   3 H :    0.155795
   4 S :    0.575165
   5 F :    0.027587
   6 O :   -0.299137
   7 O :   -0.266851
   8 H :    0.127235
   9 H :    0.126292
  10 H :    0.121380

  Mayer bond orders larger than 0.100000
B(  0-C ,  1-C ) :   0.9361 B(  0-C ,  8-H ) :   0.9628 B(  0-C ,  9-H ) :   0.9630
B(  0-C , 10-H ) :   0.9672 B(  1-C ,  2-H ) :   0.9444 B(  1-C ,  3-H ) :   0.9393
B(  1-C ,  4-S ) :   0.9121 B(  4-S ,  5-F ) :   1.0669 B(  4-S ,  6-O ) :   1.9071
B(  4-S ,  7-O ) :   1.9217

Dispersion correction           -0.000156631
FINAL SINGLE POINT ENERGY      -727.687446256127

DIPOLE MOMENT
-------------
                                X             Y             Z
Electronic contribution:      1.31070       2.63970      -8.72093
Nuclear contribution   :     -0.98922      -2.24849      10.35711
                        -----------------------------------------
Total Dipole Moment    :      0.32148       0.39121       1.63617
                        -----------------------------------------
Magnitude (a.u.)       :      1.71273
Magnitude (Debye)      :      4.35342

Rotational constants in cm-1:     0.151436     0.080885     0.078670
Rotational constants in MHz :  4539.936009  2424.868817  2358.476812

                             ****ORCA TERMINATED NORMALLY****
TOTAL RUN TIME: 0 days 0 hours 0 minutes 30 seconds 956 msec
