                         Program Version 5.0.0 -  RELEASE  -
|  1> !M062X D3Zero RIJCOSX def2-TZVP def2/J TightSCF
|  2> *xyz 0 1
|  3> C          5.55821       -1.99291       -6.21505
|  4> C          4.18188       -2.58967       -6.29891
|  5> C          3.14587       -1.76843       -6.48675
|  6> N          4.01910       -3.86431       -6.22743
|  7> H          4.76849       -4.59115       -5.99077
|  8> H          3.12241       -4.33339       -6.31462
|  9> H          3.28164       -0.77779       -6.56655
| 10> H          2.21255       -2.13419       -6.56225
| 11> C          6.41926       -2.54294       -5.07763
| 12> H          6.03683       -2.19819       -7.17685
| 13> H          5.46761       -0.90737       -6.12797
| 14> H          6.50056       -3.60553       -5.17358
| 15> H          5.96544       -2.30329       -4.13874
| 16> H          7.39438       -2.10494       -5.12457
| 17> *
| 18>
| 19> %MaxCore 64000
| 20>
| 21> %pal nprocs 4
| 22> end
| 23>
| 24> %scf
| 25>   MaxIter 150
| 26> end
| 27>
| 28>
| 29>                          ****END OF INPUT****

CARTESIAN COORDINATES (ANGSTROEM)
---------------------------------
  C      5.558210   -1.992910   -6.215050
  C      4.181880   -2.589670   -6.298910
  C      3.145870   -1.768430   -6.486750
  N      4.019100   -3.864310   -6.227430
  H      4.768490   -4.591150   -5.990770
  H      3.122410   -4.333390   -6.314620
  H      3.281640   -0.777790   -6.566550
  H      2.212550   -2.134190   -6.562250
  C      6.419260   -2.542940   -5.077630
  H      6.036830   -2.198190   -7.176850
  H      5.467610   -0.907370   -6.127970
  H      6.500560   -3.605530   -5.173580
  H      5.965440   -2.303290   -4.138740
  H      7.394380   -2.104940   -5.124570

 Total Charge           Charge          ....    0
 Multiplicity           Mult            ....    1
 Number of Electrons    NEL             ....   40
 Basis Dimension        Dim             ....  209

ORBITAL ENERGIES
----------------

  NO   OCC          E(Eh)            E(eV)
   0   2.0000     -14.754315      -401.4853
   1   2.0000     -10.558318      -287.3064
   2   2.0000     -10.532972      -286.6167
   3   2.0000     -10.521615      -286.3077
   4   2.0000     -10.462550      -284.7005
   5   2.0000      -1.042883       -28.3783
   6   2.0000      -0.875155       -23.8142
   7   2.0000      -0.811433       -22.0802
   8   2.0000      -0.717834       -19.5333
   9   2.0000      -0.660772       -17.9805
  10   2.0000      -0.590410       -16.0659
  11   2.0000      -0.543840       -14.7986
  12   2.0000      -0.511731       -13.9249
  13   2.0000      -0.489138       -13.3101
  14   2.0000      -0.458097       -12.4654
  15   2.0000      -0.448394       -12.2014
  16   2.0000      -0.419580       -11.4174
  17   2.0000      -0.396979       -10.8023
  18   2.0000      -0.389562       -10.6005
  19   2.0000      -0.237636        -6.4664
  20   0.0000       0.051967         1.4141
  21   0.0000       0.082566         2.2467
  22   0.0000       0.096425         2.6239
  23   0.0000       0.104268         2.8373
  24   0.0000       0.125007         3.4016

MULLIKEN ATOMIC CHARGES
-----------------------
   0 C :   -0.302190
   1 C :    0.343745
   2 C :   -0.472561
   3 N :   -0.572853
   4 H :    0.263769
   5 H :    0.254172
   6 H :    0.104655
   7 H :    0.103873
   8 C :   -0.388169
   9 H :    0.143933
  10 H :    0.135243
  11 H :    0.101823
  12 H :    0.144817
  13 H :    0.139742
Sum of atomic charges:    0.0000000

LOEWDIN ATOMIC CHARGES
----------------------
   0 C :   -0.239626
   1 C :   -0.380091
   2 C :   -0.278328
   3 N :   -0.003062
   4 H :    0.191705
   5 H :    0.175775
   6 H :    0.098830
   7 H :    0.093453
   8 C :   -0.299860
   9 H :    0.145071
  10 H :    0.148400
  11 H :    0.108526
  12 H :    0.121122
  13 H :    0.118084

  Mayer bond orders larger than 0.100000
B(  0-C ,  1-C ) :   0.9432 B(  0-C ,  8-C ) :   0.9433 B(  0-C ,  9-H ) :   0.9687
B(  0-C , 10-H ) :   0.9894 B(  1-C ,  2-C ) :   1.7057 B(  1-C ,  3-N ) :   1.0962
B(  2-C ,  6-H ) :   1.0026 B(  2-C ,  7-H ) :   1.0045 B(  3-N ,  4-H ) :   0.9153
B(  3-N ,  5-H ) :   0.9242 B(  8-C , 11-H ) :   0.9747 B(  8-C , 12-H ) :   0.9704
B(  8-C , 13-H ) :   0.9812

Dispersion correction           -0.000199845
FINAL SINGLE POINT ENERGY      -212.528221106175

DIPOLE MOMENT
-------------
                                X             Y             Z
Electronic contribution:     -2.03131      -1.07565      -1.02777
Nuclear contribution   :      2.41345       0.31141       1.16343
                        -----------------------------------------
Total Dipole Moment    :      0.38215      -0.76424       0.13566
                        -----------------------------------------
Magnitude (a.u.)       :      0.86516
Magnitude (Debye)      :      2.19907

Rotational constants in cm-1:     0.287957     0.129204     0.097498
Rotational constants in MHz :  8632.737925  3873.424745  2922.919500

                             ****ORCA TERMINATED NORMALLY****
TOTAL RUN TIME: 0 days 0 hours 0 minutes 27 seconds 997 msec
