                         Program Version 5.0.0 -  RELEASE  -
|  1> !M062X D3Zero RIJCOSX def2-TZVP def2/J TightSCF
|  2> *xyz 0 1
|  3> C          4.93020       -7.37532       -2.64962
|  4> C          3.84189       -6.95161       -3.63283
|  5> H          3.45814       -5.95442       -3.40712
|  6> H          2.98848       -7.64361       -3.56708
|  7> S          4.31812       -6.91593       -5.36869
|  8> O          5.40615       -5.89948       -5.51297
|  9> F          3.11191       -6.44508       -6.04379
| 10> O          4.76340       -8.23942       -5.69863
| 11> H          5.27901       -8.35440       -2.90385
| 12> H          4.53000       -7.38577       -1.65734
| 13> H          5.74437       -6.68276       -2.69856
| 14> *
| 15>
| 16> %MaxCore 64000
| 17>
| 18> %pal nprocs 4
| 19> end
| 20>
| 21> %scf
| 22>   MaxIter 150
| 23> end
| 24>
| 25>
| 26>                          ****END OF INPUT****

CARTESIAN COORDINATES (ANGSTROEM)
---------------------------------
  C      4.930200   -7.375320   -2.649620
  C      3.841890   -6.951610   -3.632830
  H      3.458140   -5.954420   -3.407120
  H      2.988480   -7.643610   -3.567080
  S      4.318120   -6.915930   -5.368690
  O      5.406150   -5.899480   -5.512970
  F      3.111910   -6.445080   -6.043790
  O      4.763400   -8.239420   -5.698630
  H      5.279010   -8.354400   -2.903850
  H      4.530000   -7.385770   -1.657340
  H      5.744370   -6.682760   -2.698560

 Total Charge           Charge          ....    0
 Multiplicity           Mult            ....    1
 Number of Electrons    NEL             ....   58
 Basis Dimension        Dim             ....  222

ORBITAL ENERGIES
----------------

  NO   OCC          E(Eh)            E(eV)
   0   2.0000     -90.152806     -2453.1826
   1   2.0000     -25.360286      -690.0885
   2   2.0000     -19.643844      -534.5362
   3   2.0000     -19.626642      -534.0681
   4   2.0000     -10.602832      -288.5177
   5   2.0000     -10.556493      -287.2568
   6   2.0000      -8.477686      -230.6896
   7   2.0000      -6.402465      -174.2199
   8   2.0000      -6.397520      -174.0854
   9   2.0000      -6.396986      -174.0708
  10   2.0000      -1.516600       -41.2688
  11   2.0000      -1.229796       -33.4644
  12   2.0000      -1.121925       -30.5291
  13   2.0000      -0.923940       -25.1417
  14   2.0000      -0.833663       -22.6851
  15   2.0000      -0.764309       -20.7979
  16   2.0000      -0.680161       -18.5081
  17   2.0000      -0.675639       -18.3851
  18   2.0000      -0.643818       -17.5192
  19   2.0000      -0.569790       -15.5048
  20   2.0000      -0.562773       -15.3138
  21   2.0000      -0.521941       -14.2027
  22   2.0000      -0.501449       -13.6451
  23   2.0000      -0.479011       -13.0345
  24   2.0000      -0.461131       -12.5480
  25   2.0000      -0.455832       -12.4038
  26   2.0000      -0.409432       -11.1412
  27   2.0000      -0.393173       -10.6988
  28   2.0000      -0.381561       -10.3828
  29   0.0000       0.054157         1.4737
  30   0.0000       0.072347         1.9687
  31   0.0000       0.097040         2.6406
  32   0.0000       0.100664         2.7392
  33   0.0000       0.112212         3.0534

MULLIKEN ATOMIC CHARGES
-----------------------
   0 C :   -0.406442
   1 C :   -0.302518
   2 H :    0.170551
   3 H :    0.168100
   4 S :    0.928679
   5 O :   -0.488143
   6 F :   -0.119615
   7 O :   -0.432572
   8 H :    0.165107
   9 H :    0.149650
  10 H :    0.167202
Sum of atomic charges:    0.0000000

LOEWDIN ATOMIC CHARGES
----------------------
   0 C :   -0.301311
   1 C :   -0.399337
   2 H :    0.139627
   3 H :    0.142205
   4 S :    0.569642
   5 O :   -0.339722
   6 F :    0.069901
   7 O :   -0.265289
   8 H :    0.128424
   9 H :    0.126785
  10 H :    0.129074

  Mayer bond orders larger than 0.100000
B(  0-C ,  1-C ) :   0.9491 B(  0-C ,  8-H ) :   0.9639 B(  0-C ,  9-H ) :   0.9608
B(  0-C , 10-H ) :   0.9639 B(  1-C ,  2-H ) :   0.9380 B(  1-C ,  3-H ) :   0.9358
B(  1-C ,  4-S ) :   0.9189 B(  4-S ,  5-O ) :   1.8521 B(  4-S ,  6-F ) :   1.1064
B(  4-S ,  7-O ) :   1.9233

Dispersion correction           -0.000145343
FINAL SINGLE POINT ENERGY      -727.676296626871

DIPOLE MOMENT
-------------
                                X             Y             Z
Electronic contribution:     -2.61658       1.69906      -9.64116
Nuclear contribution   :      1.40145      -1.67996      10.91024
                        -----------------------------------------
Total Dipole Moment    :     -1.21513       0.01910       1.26908
                        -----------------------------------------
Magnitude (a.u.)       :      1.75712
Magnitude (Debye)      :      4.46624

Rotational constants in cm-1:     0.155875     0.079864     0.077188
Rotational constants in MHz :  4673.017506  2394.277415  2314.027118

                             ****ORCA TERMINATED NORMALLY****
TOTAL RUN TIME: 0 days 0 hours 0 minutes 29 seconds 242 msec
