                         Program Version 5.0.0 -  RELEASE  -
|  1> !M062X D3Zero RIJCOSX def2-TZVP def2/J TightSCF
|  2> *xyz 0 1
|  3> C          5.55821       -1.99291       -6.21505
|  4> C          4.18188       -2.58967       -6.29891
|  5> N          3.14587       -1.76843       -6.48675
|  6> C          4.01910       -3.86431       -6.22743
|  7> H          4.76849       -4.59115       -5.99077
|  8> H          3.12241       -4.33339       -6.31462
|  9> H          3.28164       -0.77779       -6.56655
| 10> H          2.21255       -2.13419       -6.56225
| 11> C          6.41926       -2.54294       -5.07763
| 12> H          6.03683       -2.19819       -7.17685
| 13> H          5.46761       -0.90737       -6.12797
| 14> H          6.50056       -3.60553       -5.17358
| 15> H          5.96544       -2.30329       -4.13874
| 16> H          7.39438       -2.10494       -5.12457
| 17> *
| 18>
| 19> %MaxCore 64000
| 20>
| 21> %pal nprocs 4
| 22> end
| 23>
| 24> %scf
| 25>   MaxIter 150
| 26> end
| 27>
| 28>
| 29>                          ****END OF INPUT****

CARTESIAN COORDINATES (ANGSTROEM)
---------------------------------
  C      5.558210   -1.992910   -6.215050
  C      4.181880   -2.589670   -6.298910
  N      3.145870   -1.768430   -6.486750
  C      4.019100   -3.864310   -6.227430
  H      4.768490   -4.591150   -5.990770
  H      3.122410   -4.333390   -6.314620
  H      3.281640   -0.777790   -6.566550
  H      2.212550   -2.134190   -6.562250
  C      6.419260   -2.542940   -5.077630
  H      6.036830   -2.198190   -7.176850
  H      5.467610   -0.907370   -6.127970
  H      6.500560   -3.605530   -5.173580
  H      5.965440   -2.303290   -4.138740
  H      7.394380   -2.104940   -5.124570

 Total Charge           Charge          ....    0
 Multiplicity           Mult            ....    1
 Number of Electrons    NEL             ....   40
 Basis Dimension        Dim             ....  209

ORBITAL ENERGIES
----------------

  NO   OCC          E(Eh)            E(eV)
   0   2.0000     -14.742897      -401.1746
   1   2.0000     -10.555739      -287.2363
   2   2.0000     -10.533927      -286.6427
   3   2.0000     -10.515748      -286.1480
   4   2.0000     -10.469384      -284.8864
   5   2.0000      -1.032044       -28.0833
   6   2.0000      -0.879201       -23.9243
   7   2.0000      -0.807757       -21.9802
   8   2.0000      -0.727866       -19.8062
   9   2.0000      -0.635401       -17.2901
  10   2.0000      -0.596100       -16.2207
  11   2.0000      -0.557558       -15.1719
  12   2.0000      -0.516637       -14.0584
  13   2.0000      -0.484239       -13.1768
  14   2.0000      -0.449342       -12.2272
  15   2.0000      -0.437250       -11.8982
  16   2.0000      -0.412182       -11.2160
  17   2.0000      -0.396261       -10.7828
  18   2.0000      -0.390063       -10.6141
  19   2.0000      -0.246954        -6.7200
  20   0.0000       0.062227         1.6933
  21   0.0000       0.079637         2.1670
  22   0.0000       0.101237         2.7548
  23   0.0000       0.106554         2.8995
  24   0.0000       0.130384         3.5479

MULLIKEN ATOMIC CHARGES
-----------------------
   0 C :   -0.295308
   1 C :    0.355410
   2 N :   -0.557025
   3 C :   -0.473388
   4 H :    0.109955
   5 H :    0.103921
   6 H :    0.240423
   7 H :    0.242716
   8 C :   -0.399134
   9 H :    0.151990
  10 H :    0.113047
  11 H :    0.133683
  12 H :    0.140745
  13 H :    0.132965
Sum of atomic charges:   -0.0000000

LOEWDIN ATOMIC CHARGES
----------------------
   0 C :   -0.239430
   1 C :   -0.365122
   2 N :   -0.016061
   3 C :   -0.278243
   4 H :    0.120405
   5 H :    0.100080
   6 H :    0.162495
   7 H :    0.169228
   8 C :   -0.291322
   9 H :    0.150431
  10 H :    0.133824
  11 H :    0.118439
  12 H :    0.120255
  13 H :    0.115020

  Mayer bond orders larger than 0.100000
B(  0-C ,  1-C ) :   0.9028 B(  0-C ,  8-C ) :   0.9598 B(  0-C ,  9-H ) :   0.9665
B(  0-C , 10-H ) :   0.9949 B(  1-C ,  2-N ) :   1.0744 B(  1-C ,  3-C ) :   1.7393
B(  2-N ,  6-H ) :   0.9315 B(  2-N ,  7-H ) :   0.9288 B(  3-C ,  4-H ) :   1.0005
B(  3-C ,  5-H ) :   1.0027 B(  8-C , 11-H ) :   0.9737 B(  8-C , 12-H ) :   0.9748
B(  8-C , 13-H ) :   0.9790

Dispersion correction           -0.000200514
FINAL SINGLE POINT ENERGY      -212.538151297032

DIPOLE MOMENT
-------------
                                X             Y             Z
Electronic contribution:     -2.80325       0.81318      -1.28656
Nuclear contribution   :      2.61570      -0.17401       1.22349
                        -----------------------------------------
Total Dipole Moment    :     -0.18755       0.63917      -0.06306
                        -----------------------------------------
Magnitude (a.u.)       :      0.66910
Magnitude (Debye)      :      1.70072

Rotational constants in cm-1:     0.298189     0.125314     0.096441
Rotational constants in MHz :  8939.495008  3756.825352  2891.223400

                             ****ORCA TERMINATED NORMALLY****
TOTAL RUN TIME: 0 days 0 hours 0 minutes 28 seconds 424 msec
