                         Program Version 5.0.0 -  RELEASE  -
|  1> !M062X D3Zero RIJCOSX def2-TZVP def2/J TightSCF
|  2> *xyz 0 1
|  3> C          4.93020       -7.37532       -2.64962
|  4> C          3.84189       -6.95161       -3.63283
|  5> H          3.45814       -5.95442       -3.40712
|  6> H          2.98848       -7.64361       -3.56708
|  7> S          4.31812       -6.91593       -5.36869
|  8> O          5.40615       -5.89948       -5.51297
|  9> O          3.11191       -6.44508       -6.04379
| 10> F          4.76340       -8.23942       -5.69863
| 11> H          5.27901       -8.35440       -2.90385
| 12> H          4.53000       -7.38577       -1.65734
| 13> H          5.74437       -6.68276       -2.69856
| 14> *
| 15>
| 16> %MaxCore 64000
| 17>
| 18> %pal nprocs 4
| 19> end
| 20>
| 21> %scf
| 22>   MaxIter 150
| 23> end
| 24>
| 25>
| 26>                          ****END OF INPUT****

CARTESIAN COORDINATES (ANGSTROEM)
---------------------------------
  C      4.930200   -7.375320   -2.649620
  C      3.841890   -6.951610   -3.632830
  H      3.458140   -5.954420   -3.407120
  H      2.988480   -7.643610   -3.567080
  S      4.318120   -6.915930   -5.368690
  O      5.406150   -5.899480   -5.512970
  O      3.111910   -6.445080   -6.043790
  F      4.763400   -8.239420   -5.698630
  H      5.279010   -8.354400   -2.903850
  H      4.530000   -7.385770   -1.657340
  H      5.744370   -6.682760   -2.698560

 Total Charge           Charge          ....    0
 Multiplicity           Mult            ....    1
 Number of Electrons    NEL             ....   58
 Basis Dimension        Dim             ....  222

ORBITAL ENERGIES
----------------

  NO   OCC          E(Eh)            E(eV)
   0   2.0000     -90.154154     -2453.2193
   1   2.0000     -25.374112      -690.4647
   2   2.0000     -19.634717      -534.2878
   3   2.0000     -19.627735      -534.0978
   4   2.0000     -10.603068      -288.5241
   5   2.0000     -10.559083      -287.3273
   6   2.0000      -8.479052      -230.7267
   7   2.0000      -6.403964      -174.2607
   8   2.0000      -6.398715      -174.1179
   9   2.0000      -6.398289      -174.1063
  10   2.0000      -1.539294       -41.8863
  11   2.0000      -1.217567       -33.1317
  12   2.0000      -1.114483       -30.3266
  13   2.0000      -0.926946       -25.2235
  14   2.0000      -0.839461       -22.8429
  15   2.0000      -0.773731       -21.0543
  16   2.0000      -0.699944       -19.0464
  17   2.0000      -0.694577       -18.9004
  18   2.0000      -0.635898       -17.3037
  19   2.0000      -0.567828       -15.4514
  20   2.0000      -0.556924       -15.1547
  21   2.0000      -0.527360       -14.3502
  22   2.0000      -0.504066       -13.7163
  23   2.0000      -0.477777       -13.0010
  24   2.0000      -0.466266       -12.6877
  25   2.0000      -0.447337       -12.1727
  26   2.0000      -0.400455       -10.8969
  27   2.0000      -0.392604       -10.6833
  28   2.0000      -0.375829       -10.2268
  29   0.0000       0.042880         1.1668
  30   0.0000       0.080793         2.1985
  31   0.0000       0.092658         2.5213
  32   0.0000       0.100719         2.7407
  33   0.0000       0.110299         3.0014

MULLIKEN ATOMIC CHARGES
-----------------------
   0 C :   -0.408484
   1 C :   -0.305904
   2 H :    0.190770
   3 H :    0.171531
   4 S :    0.923736
   5 O :   -0.482923
   6 O :   -0.451325
   7 F :   -0.103368
   8 H :    0.143894
   9 H :    0.151028
  10 H :    0.171045
Sum of atomic charges:   -0.0000000

LOEWDIN ATOMIC CHARGES
----------------------
   0 C :   -0.315583
   1 C :   -0.394054
   2 H :    0.153287
   3 H :    0.143529
   4 S :    0.566908
   5 O :   -0.336229
   6 O :   -0.294060
   7 F :    0.101290
   8 H :    0.120316
   9 H :    0.126523
  10 H :    0.128073

  Mayer bond orders larger than 0.100000
B(  0-C ,  1-C ) :   0.9344 B(  0-C ,  8-H ) :   0.9672 B(  0-C ,  9-H ) :   0.9628
B(  0-C , 10-H ) :   0.9625 B(  1-C ,  2-H ) :   0.9410 B(  1-C ,  3-H ) :   0.9420
B(  1-C ,  4-S ) :   0.9102 B(  4-S ,  5-O ) :   1.8523 B(  4-S ,  6-O ) :   1.9100
B(  4-S ,  7-F ) :   1.1224

Dispersion correction           -0.000156990
FINAL SINGLE POINT ENERGY      -727.664688241685

DIPOLE MOMENT
-------------
                                X             Y             Z
Electronic contribution:      0.20095      -1.34854      -9.04361
Nuclear contribution   :     -0.31946       0.18980      10.55057
                        -----------------------------------------
Total Dipole Moment    :     -0.11850      -1.15874       1.50696
                        -----------------------------------------
Magnitude (a.u.)       :      1.90464
Magnitude (Debye)      :      4.84121

Rotational constants in cm-1:     0.151421     0.081183     0.078684
Rotational constants in MHz :  4539.489207  2433.790160  2358.892966

                             ****ORCA TERMINATED NORMALLY****
TOTAL RUN TIME: 0 days 0 hours 0 minutes 30 seconds 204 msec
