                         Program Version 5.0.0 -  RELEASE  -
|  1> !M062X D3Zero RIJCOSX def2-TZVP def2/J TightSCF xyzfile
|  2>
|  3> *xyzfile 0 1 D2.xyz
|  4>
|  5> %MaxCore 64000
|  6>
|  7> %pal nprocs 18
|  8> end
|  9>
| 10> %scf
| 11>   MaxIter 150
| 12> end
| 13>
| 14>
| 15>                          ****END OF INPUT****

CARTESIAN COORDINATES (ANGSTROEM)
---------------------------------
  C      5.558206   -1.992914   -6.215054
  C      4.930199   -7.375319   -2.649623
  C      3.841892   -6.951611   -3.632829
  H      3.458144   -5.954425   -3.407121
  H      2.988484   -7.643606   -3.567078
  S      4.318115   -6.915930   -5.368692
  C      4.181880   -2.589671   -6.298911
  N      3.145873   -1.768431   -6.486753
  C      4.019102   -3.864307   -6.227427
  H      4.768490   -4.591153   -5.990773
  H      3.122405   -4.333392   -6.314620
  H      3.281635   -0.777786   -6.566549
  H      2.212549   -2.134193   -6.562246
  F      5.406154   -5.899480   -5.512972
  O      3.111910   -6.445079   -6.043792
  C      6.419260   -2.542944   -5.077630
  C      5.872267   -5.002756   -2.427819
  C      6.173994   -6.485522   -2.606315
  H      6.734852   -6.613767   -3.534015
  H      6.821463   -6.831018   -1.793617
  H      4.469612   -7.406168   -1.655876
  H      5.230134   -8.398678   -2.885906
  C      5.896512   -2.169314   -3.694552
  H      7.428880   -2.143665   -5.208078
  H      6.505894   -3.627541   -5.175502
  C      6.807804   -2.623428   -2.551019
  H      4.894708   -2.589732   -3.557501
  H      5.778823   -1.081255   -3.635790
  C      7.111544   -4.122463   -2.520363
  H      7.751615   -2.071393   -2.614406
  H      6.345837   -2.326401   -1.604086
  H      5.362882   -4.828697   -1.471335
  H      5.174429   -4.702577   -3.211298
  H      7.778329   -4.329347   -1.677651
  H      7.673189   -4.402845   -3.417586
  O      4.763396   -8.239424   -5.698629
  H      6.036826   -2.198189   -7.176852
  H      5.467610   -0.907371   -6.127968

 Total Charge           Charge          ....    0
 Multiplicity           Mult            ....    1
 Number of Electrons    NEL             ....  136
 Basis Dimension        Dim             ....  634

ORBITAL ENERGIES
----------------

  NO   OCC          E(Eh)            E(eV)
   0   2.0000     -90.148240     -2453.0583
   1   2.0000     -25.345237      -689.6790
   2   2.0000     -19.642165      -534.4905
   3   2.0000     -19.629790      -534.1537
   4   2.0000     -14.737189      -401.0193
   5   2.0000     -10.594182      -288.2824
   6   2.0000     -10.560702      -287.3713
   7   2.0000     -10.547411      -287.0097
   8   2.0000     -10.545606      -286.9605
   9   2.0000     -10.537630      -286.7435
  10   2.0000     -10.533005      -286.6176
  11   2.0000     -10.530619      -286.5527
  12   2.0000     -10.529972      -286.5351
  13   2.0000     -10.529339      -286.5179
  14   2.0000     -10.525396      -286.4106
  15   2.0000     -10.448553      -284.3196
  16   2.0000      -8.473365      -230.5720
  17   2.0000      -6.398319      -174.1071
  18   2.0000      -6.393238      -173.9688
  19   2.0000      -6.392429      -173.9468
  20   2.0000      -1.496621       -40.7251
  21   2.0000      -1.235078       -33.6082
  22   2.0000      -1.139000       -30.9938
  23   2.0000      -1.025865       -27.9152
  24   2.0000      -0.941815       -25.6281
  25   2.0000      -0.915570       -24.9139
  26   2.0000      -0.884983       -24.0816
  27   2.0000      -0.855687       -23.2844
  28   2.0000      -0.818454       -22.2713
  29   2.0000      -0.807115       -21.9627
  30   2.0000      -0.777250       -21.1500
  31   2.0000      -0.748410       -20.3653
  32   2.0000      -0.710339       -19.3293
  33   2.0000      -0.690590       -18.7919
  34   2.0000      -0.686937       -18.6925
  35   2.0000      -0.659767       -17.9532
  36   2.0000      -0.645141       -17.5552
  37   2.0000      -0.630663       -17.1612
  38   2.0000      -0.618788       -16.8381
  39   2.0000      -0.589149       -16.0316
  40   2.0000      -0.568669       -15.4743
  41   2.0000      -0.566114       -15.4047
  42   2.0000      -0.558130       -15.1875
  43   2.0000      -0.544468       -14.8157
  44   2.0000      -0.532385       -14.4869
  45   2.0000      -0.526019       -14.3137
  46   2.0000      -0.521719       -14.1967
  47   2.0000      -0.502719       -13.6797
  48   2.0000      -0.486253       -13.2316
  49   2.0000      -0.480617       -13.0783
  50   2.0000      -0.478698       -13.0260
  51   2.0000      -0.465809       -12.6753
  52   2.0000      -0.448066       -12.1925
  53   2.0000      -0.438790       -11.9401
  54   2.0000      -0.430883       -11.7249
  55   2.0000      -0.425610       -11.5814
  56   2.0000      -0.416302       -11.3282
  57   2.0000      -0.413562       -11.2536
  58   2.0000      -0.411719       -11.2034
  59   2.0000      -0.401077       -10.9139
  60   2.0000      -0.396217       -10.7816
  61   2.0000      -0.392519       -10.6810
  62   2.0000      -0.386638       -10.5210
  63   2.0000      -0.376631       -10.2486
  64   2.0000      -0.372687       -10.1413
  65   2.0000      -0.369732       -10.0609
  66   2.0000      -0.366371        -9.9695
  67   2.0000      -0.238806        -6.4982
  68   0.0000       0.043752         1.1905
  69   0.0000       0.062195         1.6924
  70   0.0000       0.064254         1.7484
  71   0.0000       0.068907         1.8751
  72   0.0000       0.075642         2.0583

MULLIKEN ATOMIC CHARGES
-----------------------
   0 C :   -0.328828
   1 C :   -0.269507
   2 C :   -0.388410
   3 H :    0.211738
   4 H :    0.207602
   5 S :    0.953688
   6 C :    0.293530
   7 N :   -0.548503
   8 C :   -0.464448
   9 H :    0.095684
  10 H :    0.154453
  11 H :    0.235929
  12 H :    0.241543
  13 F :   -0.128832
  14 O :   -0.459746
  15 C :   -0.318871
  16 C :   -0.309847
  17 C :   -0.339325
  18 H :    0.179091
  19 H :    0.155103
  20 H :    0.159841
  21 H :    0.182552
  22 C :   -0.289799
  23 H :    0.146529
  24 H :    0.144654
  25 C :   -0.281058
  26 H :    0.178583
  27 H :    0.142449
  28 C :   -0.297365
  29 H :    0.149475
  30 H :    0.148550
  31 H :    0.156504
  32 H :    0.115437
  33 H :    0.149883
  34 H :    0.163774
  35 O :   -0.442904
  36 H :    0.164501
  37 H :    0.136346
Sum of atomic charges:    0.0000000

LOEWDIN ATOMIC CHARGES
----------------------
   0 C :   -0.215702
   1 C :   -0.288961
   2 C :   -0.366605
   3 H :    0.145112
   4 H :    0.158256
   5 S :    0.593795
   6 C :   -0.370239
   7 N :   -0.015202
   8 C :   -0.310746
   9 H :    0.099673
  10 H :    0.104777
  11 H :    0.160705
  12 H :    0.169554
  13 F :    0.054132
  14 O :   -0.272943
  15 C :   -0.260947
  16 C :   -0.276482
  17 C :   -0.277880
  18 H :    0.138025
  19 H :    0.143403
  20 H :    0.148230
  21 H :    0.148162
  22 C :   -0.271780
  23 H :    0.139401
  24 H :    0.134876
  25 C :   -0.272202
  26 H :    0.140652
  27 H :    0.138450
  28 C :   -0.273112
  29 H :    0.138620
  30 H :    0.137910
  31 H :    0.140566
  32 H :    0.133096
  33 H :    0.138595
  34 H :    0.138984
  35 O :   -0.262649
  36 H :    0.153027
  37 H :    0.137447

  Mayer bond orders larger than 0.100000
B(  0-C ,  6-C ) :   0.9026 B(  0-C , 15-C ) :   0.9387 B(  0-C , 36-H ) :   0.9709
B(  0-C , 37-H ) :   1.0044 B(  1-C ,  2-C ) :   0.8956 B(  1-C , 17-C ) :   0.9218
B(  1-C , 20-H ) :   0.9658 B(  1-C , 21-H ) :   0.9786 B(  2-C ,  3-H ) :   0.9360
B(  2-C ,  4-H ) :   0.9445 B(  2-C ,  5-S ) :   0.9204 B(  5-S , 13-F ) :   1.0294
B(  5-S , 14-O ) :   1.8595 B(  5-S , 35-O ) :   1.9441 B(  6-C ,  7-N ) :   1.0738
B(  6-C ,  8-C ) :   1.7828 B(  7-N , 11-H ) :   0.9308 B(  7-N , 12-H ) :   0.9294
B(  8-C ,  9-H ) :   1.0177 B(  8-C , 10-H ) :   0.9697 B( 15-C , 22-C ) :   0.8698
B( 15-C , 23-H ) :   0.9781 B( 15-C , 24-H ) :   0.9828 B( 16-C , 17-C ) :   0.8573
B( 16-C , 28-C ) :   0.9048 B( 16-C , 31-H ) :   0.9635 B( 16-C , 32-H ) :   0.9867
B( 17-C , 18-H ) :   0.9959 B( 17-C , 19-H ) :   0.9794 B( 22-C , 25-C ) :   0.9144
B( 22-C , 26-H ) :   0.9839 B( 22-C , 27-H ) :   0.9805 B( 25-C , 28-C ) :   0.9171
B( 25-C , 29-H ) :   0.9912 B( 25-C , 30-H ) :   0.9951 B( 28-C , 33-H ) :   0.9831
B( 28-C , 34-H ) :   0.9898

Dispersion correction           -0.002754897
FINAL SINGLE POINT ENERGY     -1135.542937703459

DIPOLE MOMENT
-------------
                                X             Y             Z
Electronic contribution:     -7.72903     -16.90938     -13.59939
Nuclear contribution   :      7.91684      17.85507      15.13212
                        -----------------------------------------
Total Dipole Moment    :      0.18781       0.94569       1.53273
                        -----------------------------------------
Magnitude (a.u.)       :      1.81076
Magnitude (Debye)      :      4.60259

Rotational constants in cm-1:     0.018015     0.012410     0.008313
Rotational constants in MHz :   540.084467   372.038374   249.228144

                             ****ORCA TERMINATED NORMALLY****
TOTAL RUN TIME: 0 days 0 hours 1 minutes 47 seconds 151 msec
