                         Program Version 5.0.0 -  RELEASE  -
|  1> !M062X D3Zero RIJCOSX def2-TZVP def2/J TightSCF xyzfile
|  2>
|  3> *xyzfile 0 1 D3.xyz
|  4>
|  5> %MaxCore 64000
|  6>
|  7> %pal nprocs 18
|  8> end
|  9>
| 10> %scf
| 11>   MaxIter 150
| 12> end
| 13>
| 14>
| 15>                          ****END OF INPUT****

CARTESIAN COORDINATES (ANGSTROEM)
---------------------------------
  C      5.558206   -1.992914   -6.215054
  C      4.930199   -7.375319   -2.649623
  C      3.841892   -6.951611   -3.632829
  H      3.458144   -5.954425   -3.407121
  H      2.988484   -7.643606   -3.567078
  S      4.318115   -6.915930   -5.368692
  C      4.181880   -2.589671   -6.298911
  C      3.145873   -1.768431   -6.486753
  N      4.019102   -3.864307   -6.227427
  H      4.768490   -4.591153   -5.990773
  H      3.122405   -4.333392   -6.314620
  H      3.281635   -0.777786   -6.566549
  H      2.212549   -2.134193   -6.562246
  O      5.406154   -5.899480   -5.512972
  F      3.111910   -6.445079   -6.043792
  C      6.419260   -2.542944   -5.077630
  C      5.872267   -5.002756   -2.427819
  C      6.173994   -6.485522   -2.606315
  H      6.734852   -6.613767   -3.534015
  H      6.821463   -6.831018   -1.793617
  H      4.469612   -7.406168   -1.655876
  H      5.230134   -8.398678   -2.885906
  C      5.896512   -2.169314   -3.694552
  H      7.428880   -2.143665   -5.208078
  H      6.505894   -3.627541   -5.175502
  C      6.807804   -2.623428   -2.551019
  H      4.894708   -2.589732   -3.557501
  H      5.778823   -1.081255   -3.635790
  C      7.111544   -4.122463   -2.520363
  H      7.751615   -2.071393   -2.614406
  H      6.345837   -2.326401   -1.604086
  H      5.362882   -4.828697   -1.471335
  H      5.174429   -4.702577   -3.211298
  H      7.778329   -4.329347   -1.677651
  H      7.673189   -4.402845   -3.417586
  O      4.763396   -8.239424   -5.698629
  H      6.036826   -2.198189   -7.176852
  H      5.467610   -0.907371   -6.127968

 Total Charge           Charge          ....    0
 Multiplicity           Mult            ....    1
 Number of Electrons    NEL             ....  136
 Basis Dimension        Dim             ....  634

ORBITAL ENERGIES
----------------

  NO   OCC          E(Eh)            E(eV)
   0   2.0000     -90.179762     -2453.9161
   1   2.0000     -25.386158      -690.7925
   2   2.0000     -19.667757      -535.1869
   3   2.0000     -19.660854      -534.9990
   4   2.0000     -14.719002      -400.5244
   5   2.0000     -10.614987      -288.8485
   6   2.0000     -10.574406      -287.7442
   7   2.0000     -10.543642      -286.9071
   8   2.0000     -10.541078      -286.8373
   9   2.0000     -10.534048      -286.6460
  10   2.0000     -10.527761      -286.4749
  11   2.0000     -10.524071      -286.3745
  12   2.0000     -10.519004      -286.2366
  13   2.0000     -10.518435      -286.2212
  14   2.0000     -10.518200      -286.2148
  15   2.0000     -10.447806      -284.2993
  16   2.0000      -8.505003      -231.4329
  17   2.0000      -6.429745      -174.9622
  18   2.0000      -6.424615      -174.8227
  19   2.0000      -6.424407      -174.8170
  20   2.0000      -1.543598       -42.0034
  21   2.0000      -1.258463       -34.2445
  22   2.0000      -1.161181       -31.5973
  23   2.0000      -1.020909       -27.7804
  24   2.0000      -0.952019       -25.9058
  25   2.0000      -0.912860       -24.8402
  26   2.0000      -0.887081       -24.1387
  27   2.0000      -0.858242       -23.3539
  28   2.0000      -0.834679       -22.7128
  29   2.0000      -0.804695       -21.8969
  30   2.0000      -0.781579       -21.2679
  31   2.0000      -0.744097       -20.2479
  32   2.0000      -0.713429       -19.4134
  33   2.0000      -0.711207       -19.3529
  34   2.0000      -0.689659       -18.7666
  35   2.0000      -0.682793       -18.5797
  36   2.0000      -0.663105       -18.0440
  37   2.0000      -0.641242       -17.4491
  38   2.0000      -0.631295       -17.1784
  39   2.0000      -0.599169       -16.3042
  40   2.0000      -0.581839       -15.8326
  41   2.0000      -0.572366       -15.5749
  42   2.0000      -0.557541       -15.1715
  43   2.0000      -0.541812       -14.7435
  44   2.0000      -0.530482       -14.4352
  45   2.0000      -0.527424       -14.3519
  46   2.0000      -0.516633       -14.0583
  47   2.0000      -0.500190       -13.6109
  48   2.0000      -0.491702       -13.3799
  49   2.0000      -0.489926       -13.3316
  50   2.0000      -0.480467       -13.0742
  51   2.0000      -0.468818       -12.7572
  52   2.0000      -0.455975       -12.4077
  53   2.0000      -0.455241       -12.3877
  54   2.0000      -0.439335       -11.9549
  55   2.0000      -0.432669       -11.7735
  56   2.0000      -0.426441       -11.6040
  57   2.0000      -0.420769       -11.4497
  58   2.0000      -0.413801       -11.2601
  59   2.0000      -0.401911       -10.9366
  60   2.0000      -0.396381       -10.7861
  61   2.0000      -0.393553       -10.7091
  62   2.0000      -0.388477       -10.5710
  63   2.0000      -0.377785       -10.2801
  64   2.0000      -0.367294        -9.9946
  65   2.0000      -0.360674        -9.8145
  66   2.0000      -0.358429        -9.7533
  67   2.0000      -0.221215        -6.0196
  68   0.0000       0.037992         1.0338
  69   0.0000       0.045300         1.2327
  70   0.0000       0.064229         1.7478
  71   0.0000       0.072149         1.9633
  72   0.0000       0.079472         2.1625

MULLIKEN ATOMIC CHARGES
-----------------------
   0 C :   -0.319727
   1 C :   -0.283847
   2 C :   -0.385740
   3 H :    0.209722
   4 H :    0.202095
   5 S :    0.967090
   6 C :    0.305509
   7 C :   -0.477027
   8 N :   -0.613464
   9 H :    0.333733
  10 H :    0.227397
  11 H :    0.098687
  12 H :    0.097348
  13 O :   -0.492211
  14 F :   -0.121005
  15 C :   -0.351475
  16 C :   -0.300759
  17 C :   -0.313717
  18 H :    0.192715
  19 H :    0.152727
  20 H :    0.168773
  21 H :    0.183779
  22 C :   -0.282977
  23 H :    0.146486
  24 H :    0.170272
  25 C :   -0.280339
  26 H :    0.168810
  27 H :    0.146345
  28 C :   -0.302870
  29 H :    0.148378
  30 H :    0.146276
  31 H :    0.151313
  32 H :    0.112675
  33 H :    0.146702
  34 H :    0.168682
  35 O :   -0.422035
  36 H :    0.154294
  37 H :    0.147387
Sum of atomic charges:    0.0000000

LOEWDIN ATOMIC CHARGES
----------------------
   0 C :   -0.213719
   1 C :   -0.277112
   2 C :   -0.371084
   3 H :    0.144961
   4 H :    0.149157
   5 S :    0.602561
   6 C :   -0.382958
   7 C :   -0.294112
   8 N :   -0.031866
   9 H :    0.154560
  10 H :    0.157729
  11 H :    0.096090
  12 H :    0.090184
  13 O :   -0.291859
  14 F :    0.080524
  15 C :   -0.270181
  16 C :   -0.275979
  17 C :   -0.273951
  18 H :    0.144935
  19 H :    0.142500
  20 H :    0.152526
  21 H :    0.149891
  22 C :   -0.270563
  23 H :    0.139454
  24 H :    0.136543
  25 C :   -0.272477
  26 H :    0.139456
  27 H :    0.140493
  28 C :   -0.271911
  29 H :    0.138557
  30 H :    0.136949
  31 H :    0.138096
  32 H :    0.132147
  33 H :    0.137489
  34 H :    0.141337
  35 O :   -0.245853
  36 H :    0.147764
  37 H :    0.149719

  Mayer bond orders larger than 0.100000
B(  0-C ,  6-C ) :   0.9304 B(  0-C , 15-C ) :   0.9163 B(  0-C , 36-H ) :   0.9791
B(  0-C , 37-H ) :   1.0011 B(  1-C ,  2-C ) :   0.9092 B(  1-C , 17-C ) :   0.9315
B(  1-C , 20-H ) :   0.9651 B(  1-C , 21-H ) :   0.9753 B(  2-C ,  3-H ) :   0.9297
B(  2-C ,  4-H ) :   0.9402 B(  2-C ,  5-S ) :   0.9319 B(  5-S , 13-O ) :   1.6956
B(  5-S , 14-F ) :   1.0892 B(  5-S , 35-O ) :   1.9619 B(  6-C ,  7-C ) :   1.7014
B(  6-C ,  8-N ) :   1.1353 B(  7-C , 11-H ) :   1.0053 B(  7-C , 12-H ) :   1.0025
B(  8-N ,  9-H ) :   0.8000 B(  8-N , 10-H ) :   0.9239 B( 15-C , 22-C ) :   0.8582
B( 15-C , 23-H ) :   0.9765 B( 15-C , 24-H ) :   0.9881 B( 16-C , 17-C ) :   0.8740
B( 16-C , 28-C ) :   0.9138 B( 16-C , 31-H ) :   0.9636 B( 16-C , 32-H ) :   0.9804
B( 17-C , 18-H ) :   0.9830 B( 17-C , 19-H ) :   0.9814 B( 22-C , 25-C ) :   0.9128
B( 22-C , 26-H ) :   0.9861 B( 22-C , 27-H ) :   0.9819 B( 25-C , 28-C ) :   0.9151
B( 25-C , 29-H ) :   0.9908 B( 25-C , 30-H ) :   0.9951 B( 28-C , 33-H ) :   0.9833
B( 28-C , 34-H ) :   0.9894

Dispersion correction           -0.002752994
FINAL SINGLE POINT ENERGY     -1135.547000451291

DIPOLE MOMENT
-------------
                                X             Y             Z
Electronic contribution:    -10.99861     -20.02954     -14.20509
Nuclear contribution   :     10.48431      18.81367      15.71750
                        -----------------------------------------
Total Dipole Moment    :     -0.51429      -1.21587       1.51241
                        -----------------------------------------
Magnitude (a.u.)       :      2.00754
Magnitude (Debye)      :      5.10277

Rotational constants in cm-1:     0.017977     0.012528     0.008321
Rotational constants in MHz :   538.924099   375.570730   249.458530

                             ****ORCA TERMINATED NORMALLY****
TOTAL RUN TIME: 0 days 0 hours 1 minutes 54 seconds 42 msec
