                         Program Version 5.0.0 -  RELEASE  -
|  1> !PBE D3BJ RIJCOSX def2-TZVP def2/J TightSCF
|  2> *xyz -1 1
|  3> C          1.44442        5.26658       -0.97546
|  4> O          1.56525        4.23349       -1.86489
|  5> C          0.14812        5.21087       -0.13809
|  6> H          1.47425        6.26464       -1.47692
|  7> H          2.28962        5.30327       -0.26445
|  8> H         -0.69779        5.17417       -0.79230
|  9> H          0.08430        6.08276        0.47887
| 10> H          0.15965        4.33708        0.47938
| 11> *
| 12> %MaxCore 64000
| 13>
| 14> %pal nprocs 4
| 15> end
| 16>
| 17> %scf
| 18>   MaxIter 150
| 19> end
| 20>
| 21>
| 22>                          ****END OF INPUT****

CARTESIAN COORDINATES (ANGSTROEM)
---------------------------------
  C      1.444420    5.266580   -0.975460
  O      1.565250    4.233490   -1.864890
  C      0.148120    5.210870   -0.138090
  H      1.474250    6.264640   -1.476920
  H      2.289620    5.303270   -0.264450
  H     -0.697790    5.174170   -0.792300
  H      0.084300    6.082760    0.478870
  H      0.159650    4.337080    0.479380

 Total Charge           Charge          ....   -1
 Multiplicity           Mult            ....    1
 Number of Electrons    NEL             ....   26
 Basis Dimension        Dim             ....  123

ORBITAL ENERGIES
----------------

  NO   OCC          E(Eh)            E(eV)
   0   2.0000     -18.404240      -500.8048
   1   2.0000      -9.684082      -263.5173
   2   2.0000      -9.663647      -262.9612
   3   2.0000      -0.586783       -15.9672
   4   2.0000      -0.448701       -12.2098
   5   2.0000      -0.304765        -8.2931
   6   2.0000      -0.193452        -5.2641
   7   2.0000      -0.173516        -4.7216
   8   2.0000      -0.121899        -3.3170
   9   2.0000      -0.104186        -2.8350
  10   2.0000      -0.059024        -1.6061
  11   2.0000       0.082088         2.2337
  12   2.0000       0.086568         2.3556
  13   0.0000       0.199135         5.4188
  14   0.0000       0.233804         6.3621
  15   0.0000       0.256781         6.9874
  16   0.0000       0.262367         7.1394
  17   0.0000       0.293315         7.9815

MULLIKEN ATOMIC CHARGES
-----------------------
   0 C :   -0.009725
   1 O :   -0.707603
   2 C :   -0.091123
   3 H :   -0.078112
   4 H :   -0.072498
   5 H :    0.007917
   6 H :   -0.059713
   7 H :    0.010857
Sum of atomic charges:   -1.0000000

LOEWDIN ATOMIC CHARGES
----------------------
   0 C :   -0.568190
   1 O :   -0.387372
   2 C :   -0.372750
   3 H :    0.046861
   4 H :    0.049529
   5 H :    0.082509
   6 H :    0.066602
   7 H :    0.082810

  Mayer bond orders larger than 0.100000
B(  0-C ,  1-O ) :   1.6994 B(  0-C ,  2-C ) :   0.8718 B(  0-C ,  3-H ) :   0.9001
B(  0-C ,  4-H ) :   0.9010 B(  1-O ,  2-C ) :  -0.3520 B(  1-O ,  6-H ) :   0.1474
B(  2-C ,  5-H ) :   0.9453 B(  2-C ,  6-H ) :   0.8864 B(  2-C ,  7-H ) :   0.9510

Dispersion correction           -0.003756101
FINAL SINGLE POINT ENERGY      -154.290210080095

DIPOLE MOMENT
-------------
                                X             Y             Z
Electronic contribution:      1.27280      -1.89860      -2.32121
Nuclear contribution   :     -1.83256       2.47114       3.17273
                        -----------------------------------------
Total Dipole Moment    :     -0.55975       0.57254       0.85153
                        -----------------------------------------
Magnitude (a.u.)       :      1.16886
Magnitude (Debye)      :      2.97100

Rotational constants in cm-1:     1.286062     0.322579     0.284728
Rotational constants in MHz : 38555.180127  9670.683110  8535.939140

                             ****ORCA TERMINATED NORMALLY****
TOTAL RUN TIME: 0 days 0 hours 0 minutes 5 seconds 970 msec
