                         Program Version 5.0.0 -  RELEASE  -
|  1> !PBE D3BJ RIJCOSX def2-TZVP def2/J TightSCF
|  2> *xyz 1 1
|  3> C         -0.70169        4.07250       -4.00392
|  4> N          0.68053        4.61482       -4.04800
|  5> H          0.69993        5.58489       -4.38827
|  6> H          1.27804        4.05598       -4.66824
|  7> H          1.08573        4.53358       -3.10652
|  8> C         -1.70347        5.09320       -3.47740
|  9> H         -0.99590        3.74039       -5.00065
| 10> H         -0.64358        3.20191       -3.35153
| 11> H         -1.73704        5.93384       -4.13853
| 12> H         -1.40338        5.41759       -2.50291
| 13> H         -2.67335        4.64479       -3.42108
| 14> *
| 15> %MaxCore 64000
| 16>
| 17> %pal nprocs 4
| 18> end
| 19>
| 20> %scf
| 21>   MaxIter 150
| 22> end
| 23>
| 24>
| 25>                          ****END OF INPUT****

CARTESIAN COORDINATES (ANGSTROEM)
---------------------------------
  C     -0.701690    4.072500   -4.003920
  N      0.680530    4.614820   -4.048000
  H      0.699930    5.584890   -4.388270
  H      1.278040    4.055980   -4.668240
  H      1.085730    4.533580   -3.106520
  C     -1.703470    5.093200   -3.477400
  H     -0.995900    3.740390   -5.000650
  H     -0.643580    3.201910   -3.351530
  H     -1.737040    5.933840   -4.138530
  H     -1.403380    5.417590   -2.502910
  H     -2.673350    4.644790   -3.421080

 Total Charge           Charge          ....    1
 Multiplicity           Mult            ....    1
 Number of Electrons    NEL             ....   26
 Basis Dimension        Dim             ....  141

ORBITAL ENERGIES
----------------

  NO   OCC          E(Eh)            E(eV)
   0   2.0000     -14.318487      -389.6259
   1   2.0000     -10.134037      -275.7612
   2   2.0000     -10.055612      -273.6271
   3   2.0000      -1.138690       -30.9853
   4   2.0000      -0.897152       -24.4127
   5   2.0000      -0.785496       -21.3744
   6   2.0000      -0.753203       -20.4957
   7   2.0000      -0.735718       -20.0199
   8   2.0000      -0.650072       -17.6894
   9   2.0000      -0.595674       -16.2091
  10   2.0000      -0.540680       -14.7127
  11   2.0000      -0.525463       -14.2986
  12   2.0000      -0.508209       -13.8291
  13   0.0000      -0.219717        -5.9788
  14   0.0000      -0.163172        -4.4401
  15   0.0000      -0.156604        -4.2614
  16   0.0000      -0.135789        -3.6950
  17   0.0000      -0.097079        -2.6417

MULLIKEN ATOMIC CHARGES
-----------------------
   0 C :   -0.215386
   1 N :   -0.255665
   2 H :    0.317944
   3 H :    0.324390
   4 H :    0.323910
   5 C :   -0.356953
   6 H :    0.190716
   7 H :    0.187111
   8 H :    0.154534
   9 H :    0.147626
  10 H :    0.181773
Sum of atomic charges:    1.0000000

LOEWDIN ATOMIC CHARGES
----------------------
   0 C :   -0.287589
   1 N :    0.177037
   2 H :    0.220187
   3 H :    0.221576
   4 H :    0.224758
   5 C :   -0.279474
   6 H :    0.154708
   7 H :    0.153575
   8 H :    0.132880
   9 H :    0.131910
  10 H :    0.150433

  Mayer bond orders larger than 0.100000
B(  0-C ,  1-N ) :   0.8857 B(  0-C ,  5-C ) :   1.0241 B(  0-C ,  6-H ) :   0.9423
B(  0-C ,  7-H ) :   0.9448 B(  1-N ,  2-H ) :   0.8730 B(  1-N ,  3-H ) :   0.8790
B(  1-N ,  4-H ) :   0.8804 B(  5-C ,  8-H ) :   0.9534 B(  5-C ,  9-H ) :   0.9541
B(  5-C , 10-H ) :   0.9499

Dispersion correction           -0.006154957
FINAL SINGLE POINT ENERGY      -135.398984951058

DIPOLE MOMENT
-------------
                                X             Y             Z
Electronic contribution:      1.75576      -0.32566      -0.45224
Nuclear contribution   :     -0.23930       0.27560       0.19485
                        -----------------------------------------
Total Dipole Moment    :      1.51646      -0.05006      -0.25739
                        -----------------------------------------
Magnitude (a.u.)       :      1.53896
Magnitude (Debye)      :      3.91174

Rotational constants in cm-1:     1.018556     0.279088     0.248454
Rotational constants in MHz : 30535.536069  8366.847891  7448.451392

                             ****ORCA TERMINATED NORMALLY****
TOTAL RUN TIME: 0 days 0 hours 0 minutes 6 seconds 617 msec
