                         Program Version 5.0.0 -  RELEASE  -
|  1> !PBE D3BJ RIJCOSX def2-TZVP def2/J TightSCF xyzfile
|  2>
|  3> *xyzfile 0 1 B.xyz
|  4>
|  5> %MaxCore 64000
|  6>
|  7> %pal nprocs 18
|  8> end
|  9>
| 10> %scf
| 11>   MaxIter 150
| 12> end
| 13>
| 14>
| 15>                          ****END OF INPUT****

CARTESIAN COORDINATES (ANGSTROEM)
---------------------------------
  C     -0.701686    4.072499   -4.003920
  N      0.680528    4.614820   -4.048005
  C      1.444422    5.266576   -0.975463
  O      1.565248    4.233493   -1.864885
  H      0.699926    5.584890   -4.388272
  H      1.278044    4.055977   -4.668235
  H      1.085729    4.533581   -3.106524
  C     -1.703475    5.093197   -3.477396
  H     -0.995895    3.740394   -5.000654
  H     -0.643580    3.201910   -3.351533
  C     -1.313997    5.785995   -2.169271
  H     -1.877057    5.850103   -4.251154
  H     -2.653264    4.564475   -3.354796
  H     -2.097137    6.509395   -1.929558
  H     -0.416875    6.387594   -2.339097
  C     -1.073895    4.844728   -0.979904
  H     -1.968893    4.809608   -0.352568
  C      0.148120    5.210874   -0.138092
  H     -0.909754    3.827531   -1.338975
  H      1.474250    6.264638   -1.476917
  H      2.289622    5.303267   -0.264450
  H      0.261827    4.450942    0.640711
  H     -0.002516    6.171031    0.371483

 Total Charge           Charge          ....    0
 Multiplicity           Mult            ....    1
 Number of Electrons    NEL             ....   66
 Basis Dimension        Dim             ....  338

ORBITAL ENERGIES
----------------

  NO   OCC          E(Eh)            E(eV)
   0   2.0000     -18.620507      -506.6898
   1   2.0000     -14.062882      -382.6705
   2   2.0000      -9.944838      -270.6128
   3   2.0000      -9.901820      -269.4422
   4   2.0000      -9.876910      -268.7644
   5   2.0000      -9.862796      -268.3803
   6   2.0000      -9.855733      -268.1881
   7   2.0000      -9.837003      -267.6785
   8   2.0000      -0.908823       -24.7303
   9   2.0000      -0.807547       -21.9745
  10   2.0000      -0.737156       -20.0590
  11   2.0000      -0.676752       -18.4154
  12   2.0000      -0.627907       -17.0862
  13   2.0000      -0.573419       -15.6035
  14   2.0000      -0.529188       -14.3999
  15   2.0000      -0.519534       -14.1372
  16   2.0000      -0.512125       -13.9356
  17   2.0000      -0.463169       -12.6035
  18   2.0000      -0.443160       -12.0590
  19   2.0000      -0.414282       -11.2732
  20   2.0000      -0.407748       -11.0954
  21   2.0000      -0.372536       -10.1372
  22   2.0000      -0.361858        -9.8466
  23   2.0000      -0.349738        -9.5169
  24   2.0000      -0.331687        -9.0257
  25   2.0000      -0.311253        -8.4696
  26   2.0000      -0.305321        -8.3082
  27   2.0000      -0.287778        -7.8308
  28   2.0000      -0.266733        -7.2582
  29   2.0000      -0.259754        -7.0683
  30   2.0000      -0.251640        -6.8475
  31   2.0000      -0.137535        -3.7425
  32   2.0000      -0.130553        -3.5525
  33   0.0000      -0.029808        -0.8111
  34   0.0000       0.011199         0.3047
  35   0.0000       0.019822         0.5394
  36   0.0000       0.040143         1.0923
  37   0.0000       0.045578         1.2402

MULLIKEN ATOMIC CHARGES
-----------------------
   0 C :   -0.196765
   1 N :   -0.235902
   2 C :   -0.068244
   3 O :   -0.627994
   4 H :    0.242325
   5 H :    0.255553
   6 H :    0.250384
   7 C :   -0.206066
   8 H :    0.127621
   9 H :    0.157217
  10 C :   -0.208032
  11 H :    0.108143
  12 H :    0.110300
  13 H :    0.098184
  14 H :    0.081508
  15 C :   -0.143050
  16 H :    0.083201
  17 C :   -0.084694
  18 H :    0.073035
  19 H :    0.015232
  20 H :    0.051938
  21 H :    0.067196
  22 H :    0.048911
Sum of atomic charges:   -0.0000000

LOEWDIN ATOMIC CHARGES
----------------------
   0 C :   -0.291945
   1 N :    0.146086
   2 C :   -0.493432
   3 O :   -0.238304
   4 H :    0.185721
   5 H :    0.189036
   6 H :    0.079132
   7 C :   -0.281198
   8 H :    0.129653
   9 H :    0.144463
  10 C :   -0.269545
  11 H :    0.137220
  12 H :    0.149380
  13 H :    0.138186
  14 H :    0.134787
  15 C :   -0.279602
  16 H :    0.130567
  17 C :   -0.290140
  18 H :    0.137694
  19 H :    0.080617
  20 H :    0.105303
  21 H :    0.131087
  22 H :    0.125235

  Mayer bond orders larger than 0.100000
B(  0-C ,  1-N ) :   0.9134 B(  0-C ,  7-C ) :   1.0285 B(  0-C ,  8-H ) :   0.9474
B(  0-C ,  9-H ) :   0.9574 B(  1-N ,  4-H ) :   0.9018 B(  1-N ,  5-H ) :   0.9064
B(  1-N ,  6-H ) :   0.6297 B(  2-C ,  3-O ) :   1.2968 B(  2-C , 17-C ) :   0.9423
B(  2-C , 19-H ) :   0.9508 B(  2-C , 20-H ) :   0.9431 B(  3-O ,  6-H ) :   0.4419
B(  3-O , 17-C ) :  -0.1476 B(  7-C , 10-C ) :   0.9927 B(  7-C , 11-H ) :   0.9549
B(  7-C , 12-H ) :   0.9459 B( 10-C , 13-H ) :   0.9521 B( 10-C , 14-H ) :   0.9566
B( 10-C , 15-C ) :   0.9929 B( 15-C , 16-H ) :   0.9460 B( 15-C , 17-C ) :   1.0183
B( 15-C , 18-H ) :   0.9426 B( 17-C , 21-H ) :   0.9293 B( 17-C , 22-H ) :   0.9285

Dispersion correction           -0.022038814
FINAL SINGLE POINT ENERGY      -367.268519597923

DIPOLE MOMENT
-------------
                                X             Y             Z
Electronic contribution:      2.09345      -1.63575      -1.28158
Nuclear contribution   :     -3.16446       1.92310      -1.11926
                        -----------------------------------------
Total Dipole Moment    :     -1.07102       0.28735      -2.40084
                        -----------------------------------------
Magnitude (a.u.)       :      2.64455
Magnitude (Debye)      :      6.72192

Rotational constants in cm-1:     0.085554     0.055600     0.038553
Rotational constants in MHz :  2564.854379  1666.836664  1155.798427

                             ****ORCA TERMINATED NORMALLY****
TOTAL RUN TIME: 0 days 0 hours 0 minutes 10 seconds 750 msec
