                         Program Version 5.0.0 -  RELEASE  -
|  1> !PBE D3BJ RIJCOSX def2-TZVP def2/J TightSCF
|  2> *xyz 0 1
|  3> C          1.44442        5.26658       -0.97546
|  4> F          1.56525        4.23349       -1.86489
|  5> C          0.14812        5.21087       -0.13809
|  6> H          1.47425        6.26464       -1.47692
|  7> H          2.28962        5.30327       -0.26445
|  8> H         -0.69779        5.17417       -0.79230
|  9> H          0.08430        6.08276        0.47887
| 10> H          0.15965        4.33708        0.47938
| 11> *
| 12> %MaxCore 64000
| 13>
| 14> %pal nprocs 4
| 15> end
| 16>
| 17> %scf
| 18>   MaxIter 150
| 19> end
| 20>
| 21>
| 22>                          ****END OF INPUT****

CARTESIAN COORDINATES (ANGSTROEM)
---------------------------------
  C      1.444420    5.266580   -0.975460
  F      1.565250    4.233490   -1.864890
  C      0.148120    5.210870   -0.138090
  H      1.474250    6.264640   -1.476920
  H      2.289620    5.303270   -0.264450
  H     -0.697790    5.174170   -0.792300
  H      0.084300    6.082760    0.478870
  H      0.159650    4.337080    0.479380

 Total Charge           Charge          ....    0
 Multiplicity           Mult            ....    1
 Number of Electrons    NEL             ....   26
 Basis Dimension        Dim             ....  123

ORBITAL ENERGIES
----------------

  NO   OCC          E(Eh)            E(eV)
   0   2.0000     -24.243174      -659.6903
   1   2.0000      -9.955752      -270.9098
   2   2.0000      -9.874801      -268.7070
   3   2.0000      -1.097686       -29.8695
   4   2.0000      -0.691771       -18.8240
   5   2.0000      -0.568592       -15.4722
   6   2.0000      -0.454652       -12.3717
   7   2.0000      -0.437173       -11.8961
   8   2.0000      -0.401739       -10.9319
   9   2.0000      -0.355286        -9.6678
  10   2.0000      -0.353472        -9.6185
  11   2.0000      -0.286144        -7.7864
  12   2.0000      -0.279957        -7.6180
  13   0.0000       0.022756         0.6192
  14   0.0000       0.059473         1.6183
  15   0.0000       0.066696         1.8149
  16   0.0000       0.076941         2.0937
  17   0.0000       0.092062         2.5051

MULLIKEN ATOMIC CHARGES
-----------------------
   0 C :    0.004529
   1 F :   -0.203133
   2 C :   -0.326718
   3 H :    0.088930
   4 H :    0.089642
   5 H :    0.118871
   6 H :    0.109596
   7 H :    0.118283
Sum of atomic charges:   -0.0000000

LOEWDIN ATOMIC CHARGES
----------------------
   0 C :   -0.387887
   1 F :    0.114492
   2 C :   -0.315869
   3 H :    0.116720
   4 H :    0.115109
   5 H :    0.117734
   6 H :    0.122859
   7 H :    0.116842

  Mayer bond orders larger than 0.100000
B(  0-C ,  1-F ) :   1.0427 B(  0-C ,  2-C ) :   1.0044 B(  0-C ,  3-H ) :   0.9598
B(  0-C ,  4-H ) :   0.9595 B(  2-C ,  5-H ) :   0.9647 B(  2-C ,  6-H ) :   0.9506
B(  2-C ,  7-H ) :   0.9662

Dispersion correction           -0.003475603
FINAL SINGLE POINT ENERGY      -178.922908190681

DIPOLE MOMENT
-------------
                                X             Y             Z
Electronic contribution:      2.30954      -2.79525      -3.74640
Nuclear contribution   :     -2.43357       3.25919       4.19687
                        -----------------------------------------
Total Dipole Moment    :     -0.12403       0.46395       0.45047
                        -----------------------------------------
Magnitude (a.u.)       :      0.65845
Magnitude (Debye)      :      1.67364

Rotational constants in cm-1:     1.264662     0.300144     0.266170
Rotational constants in MHz : 37913.611527  8998.095216  7979.576054

                             ****ORCA TERMINATED NORMALLY****
TOTAL RUN TIME: 0 days 0 hours 0 minutes 4 seconds 881 msec
