                         Program Version 5.0.0 -  RELEASE  -
|  1> !PBE D3BJ RIJCOSX def2-TZVP def2/J TightSCF
|  2> *xyz 0 1
|  3> C         -0.70169        4.07250       -4.00392
|  4> C          0.68053        4.61482       -4.04800
|  5> H          0.69993        5.58489       -4.38827
|  6> H          1.27804        4.05598       -4.66824
|  7> H          1.08573        4.53358       -3.10652
|  8> C         -1.70347        5.09320       -3.47740
|  9> H         -0.99590        3.74039       -5.00065
| 10> H         -0.64358        3.20191       -3.35153
| 11> H         -1.73704        5.93384       -4.13853
| 12> H         -1.40338        5.41759       -2.50291
| 13> H         -2.67335        4.64479       -3.42108
| 14> *
| 15> %MaxCore 64000
| 16>
| 17> %pal nprocs 4
| 18> end
| 19>
| 20> %scf
| 21>   MaxIter 150
| 22> end
| 23>
| 24>
| 25>                          ****END OF INPUT****

CARTESIAN COORDINATES (ANGSTROEM)
---------------------------------
  C     -0.701690    4.072500   -4.003920
  C      0.680530    4.614820   -4.048000
  H      0.699930    5.584890   -4.388270
  H      1.278040    4.055980   -4.668240
  H      1.085730    4.533580   -3.106520
  C     -1.703470    5.093200   -3.477400
  H     -0.995900    3.740390   -5.000650
  H     -0.643580    3.201910   -3.351530
  H     -1.737040    5.933840   -4.138530
  H     -1.403380    5.417590   -2.502910
  H     -2.673350    4.644790   -3.421080

 Total Charge           Charge          ....    0
 Multiplicity           Mult            ....    1
 Number of Electrons    NEL             ....   26
 Basis Dimension        Dim             ....  141

ORBITAL ENERGIES
----------------

  NO   OCC          E(Eh)            E(eV)
   0   2.0000      -9.866981      -268.4942
   1   2.0000      -9.857374      -268.2328
   2   2.0000      -9.839320      -267.7415
   3   2.0000      -0.718635       -19.5551
   4   2.0000      -0.623285       -16.9605
   5   2.0000      -0.524342       -14.2681
   6   2.0000      -0.419996       -11.4287
   7   2.0000      -0.396804       -10.7976
   8   2.0000      -0.356802        -9.7091
   9   2.0000      -0.345754        -9.4084
  10   2.0000      -0.295377        -8.0376
  11   2.0000      -0.292219        -7.9517
  12   2.0000      -0.283582        -7.7167
  13   0.0000       0.022025         0.5993
  14   0.0000       0.064175         1.7463
  15   0.0000       0.070801         1.9266
  16   0.0000       0.074230         2.0199
  17   0.0000       0.093555         2.5457

MULLIKEN ATOMIC CHARGES
-----------------------
   0 C :   -0.156150
   1 C :   -0.331592
   2 H :    0.102657
   3 H :    0.113395
   4 H :    0.108679
   5 C :   -0.334372
   6 H :    0.087506
   7 H :    0.086226
   8 H :    0.106932
   9 H :    0.104421
  10 H :    0.112299
Sum of atomic charges:    0.0000000

LOEWDIN ATOMIC CHARGES
----------------------
   0 C :   -0.327064
   1 C :   -0.309342
   2 H :    0.109455
   3 H :    0.110884
   4 H :    0.112717
   5 C :   -0.310829
   6 H :    0.130952
   7 H :    0.134259
   8 H :    0.116185
   9 H :    0.116720
  10 H :    0.116062

  Mayer bond orders larger than 0.100000
B(  0-C ,  1-C ) :   0.9990 B(  0-C ,  5-C ) :   1.0071 B(  0-C ,  6-H ) :   0.9599
B(  0-C ,  7-H ) :   0.9627 B(  1-C ,  2-H ) :   0.9735 B(  1-C ,  3-H ) :   0.9732
B(  1-C ,  4-H ) :   0.9755 B(  5-C ,  8-H ) :   0.9712 B(  5-C ,  9-H ) :   0.9714
B(  5-C , 10-H ) :   0.9708

Dispersion correction           -0.006152764
FINAL SINGLE POINT ENERGY      -118.990288939191

DIPOLE MOMENT
-------------
                                X             Y             Z
Electronic contribution:     -0.13448      -0.31220      -0.13841
Nuclear contribution   :      0.16058       0.27975       0.12812
                        -----------------------------------------
Total Dipole Moment    :      0.02610      -0.03245      -0.01029
                        -----------------------------------------
Magnitude (a.u.)       :      0.04290
Magnitude (Debye)      :      0.10904

Rotational constants in cm-1:     1.027122     0.293327     0.260229
Rotational constants in MHz : 30792.337141  8793.723318  7801.458329

                             ****ORCA TERMINATED NORMALLY****
TOTAL RUN TIME: 0 days 0 hours 0 minutes 6 seconds 376 msec
