                         Program Version 5.0.0 -  RELEASE  -
|  1> !PBE D3BJ RIJCOSX def2-TZVP def2/J TightSCF xyzfile
|  2>
|  3> *xyzfile 0 1 D.xyz
|  4>
|  5> %MaxCore 64000
|  6>
|  7> %pal nprocs 18
|  8> end
|  9>
| 10> %scf
| 11>   MaxIter 150
| 12> end
| 13>
| 14>
| 15>                          ****END OF INPUT****

CARTESIAN COORDINATES (ANGSTROEM)
---------------------------------
  C     -0.701686    4.072499   -4.003920
  C      0.680528    4.614820   -4.048005
  C      1.444422    5.266576   -0.975463
  F      1.565248    4.233493   -1.864885
  H      0.699926    5.584890   -4.388272
  H      1.278044    4.055977   -4.668235
  H      1.085729    4.533581   -3.106524
  C     -1.703475    5.093197   -3.477396
  H     -0.995895    3.740394   -5.000654
  H     -0.643580    3.201910   -3.351533
  C     -1.313997    5.785995   -2.169271
  H     -1.877057    5.850103   -4.251154
  H     -2.653264    4.564475   -3.354796
  H     -2.097137    6.509395   -1.929558
  H     -0.416875    6.387594   -2.339097
  C     -1.073895    4.844728   -0.979904
  H     -1.968893    4.809608   -0.352568
  C      0.148120    5.210874   -0.138092
  H     -0.909754    3.827531   -1.338975
  H      1.474250    6.264638   -1.476917
  H      2.289622    5.303267   -0.264450
  H      0.261827    4.450942    0.640711
  H     -0.002516    6.171031    0.371483

 Total Charge           Charge          ....    0
 Multiplicity           Mult            ....    1
 Number of Electrons    NEL             ....   66
 Basis Dimension        Dim             ....  338

ORBITAL ENERGIES
----------------

  NO   OCC          E(Eh)            E(eV)
   0   2.0000     -24.266197      -660.3168
   1   2.0000      -9.963679      -271.1255
   2   2.0000      -9.890649      -269.1382
   3   2.0000      -9.877270      -268.7742
   4   2.0000      -9.870748      -268.5967
   5   2.0000      -9.864040      -268.4142
   6   2.0000      -9.851912      -268.0842
   7   2.0000      -9.798143      -266.6210
   8   2.0000      -1.132080       -30.8055
   9   2.0000      -0.740153       -20.1406
  10   2.0000      -0.711543       -19.3621
  11   2.0000      -0.654816       -17.8184
  12   2.0000      -0.624463       -16.9925
  13   2.0000      -0.567494       -15.4423
  14   2.0000      -0.537183       -14.6175
  15   2.0000      -0.485328       -13.2065
  16   2.0000      -0.479812       -13.0563
  17   2.0000      -0.463598       -12.6151
  18   2.0000      -0.438861       -11.9420
  19   2.0000      -0.408927       -11.1275
  20   2.0000      -0.401485       -10.9250
  21   2.0000      -0.380984       -10.3671
  22   2.0000      -0.365357        -9.9419
  23   2.0000      -0.343476        -9.3465
  24   2.0000      -0.336956        -9.1690
  25   2.0000      -0.323319        -8.7980
  26   2.0000      -0.313558        -8.5323
  27   2.0000      -0.297767        -8.1027
  28   2.0000      -0.287585        -7.8256
  29   2.0000      -0.274744        -7.4762
  30   2.0000      -0.263579        -7.1724
  31   2.0000      -0.260621        -7.0919
  32   2.0000      -0.233904        -6.3649
  33   0.0000       0.012856         0.3498
  34   0.0000       0.027122         0.7380
  35   0.0000       0.034373         0.9353
  36   0.0000       0.046558         1.2669
  37   0.0000       0.056805         1.5457

MULLIKEN ATOMIC CHARGES
-----------------------
   0 C :   -0.164063
   1 C :   -0.420807
   2 C :   -0.061115
   3 F :   -0.140002
   4 H :    0.086825
   5 H :    0.094611
   6 H :    0.179175
   7 C :   -0.177823
   8 H :    0.085861
   9 H :    0.080901
  10 C :   -0.183228
  11 H :    0.090216
  12 H :    0.083229
  13 H :    0.091372
  14 H :    0.089081
  15 C :   -0.169038
  16 H :    0.100838
  17 C :   -0.190149
  18 H :    0.098322
  19 H :    0.110264
  20 H :    0.114368
  21 H :    0.101878
  22 H :    0.099283
Sum of atomic charges:   -0.0000000

LOEWDIN ATOMIC CHARGES
----------------------
   0 C :   -0.311507
   1 C :   -0.326152
   2 C :   -0.365165
   3 F :    0.197719
   4 H :    0.104294
   5 H :    0.105660
   6 H :    0.066745
   7 C :   -0.275054
   8 H :    0.132126
   9 H :    0.131710
  10 C :   -0.268094
  11 H :    0.137544
  12 H :    0.135749
  13 H :    0.135272
  14 H :    0.137118
  15 C :   -0.269569
  16 H :    0.137310
  17 C :   -0.279941
  18 H :    0.142160
  19 H :    0.125389
  20 H :    0.125399
  21 H :    0.137617
  22 H :    0.143670

  Mayer bond orders larger than 0.100000
B(  0-C ,  1-C ) :   0.9661 B(  0-C ,  7-C ) :   1.0266 B(  0-C ,  8-H ) :   0.9510
B(  0-C ,  9-H ) :   0.9670 B(  1-C ,  4-H ) :   0.9660 B(  1-C ,  5-H ) :   0.9597
B(  1-C ,  6-H ) :   0.9455 B(  2-C ,  3-F ) :   0.9890 B(  2-C , 17-C ) :   1.0148
B(  2-C , 19-H ) :   0.9689 B(  2-C , 20-H ) :   0.9528 B(  3-F ,  6-H ) :   0.1006
B(  7-C , 10-C ) :   0.9947 B(  7-C , 11-H ) :   0.9482 B(  7-C , 12-H ) :   0.9519
B( 10-C , 13-H ) :   0.9494 B( 10-C , 14-H ) :   0.9605 B( 10-C , 15-C ) :   0.9940
B( 15-C , 16-H ) :   0.9513 B( 15-C , 17-C ) :   1.0048 B( 15-C , 18-H ) :   0.9579
B( 17-C , 21-H ) :   0.9465 B( 17-C , 22-H ) :   0.9345

Dispersion correction           -0.021418497
FINAL SINGLE POINT ENERGY      -375.223336755211

DIPOLE MOMENT
-------------
                                X             Y             Z
Electronic contribution:      5.13745      -2.31190       2.74956
Nuclear contribution   :     -5.08831       2.68947      -1.99048
                        -----------------------------------------
Total Dipole Moment    :      0.04915       0.37757       0.75909
                        -----------------------------------------
Magnitude (a.u.)       :      0.84923
Magnitude (Debye)      :      2.15856

Rotational constants in cm-1:     0.084646     0.055672     0.038419
Rotational constants in MHz :  2537.625105  1668.992890  1151.781380

                             ****ORCA TERMINATED NORMALLY****
TOTAL RUN TIME: 0 days 0 hours 0 minutes 8 seconds 229 msec
