                         Program Version 5.0.0 -  RELEASE  -
|  1> !PBE D3BJ RIJCOSX def2-SVPD def2/J TightSCF
|  2> *xyz -1 1
|  3> C         -0.91495        0.61511        2.50554
|  4> C         -0.05915        1.50352        3.41058
|  5> H          0.36536        2.34431        2.86116
|  6> H         -0.69226        1.92021        4.19898
|  7> C          1.08303        0.74964        4.08571
|  8> O          2.22817        1.26348        4.01983
|  9> O          0.81003       -0.34541        4.63627
| 10> H         -0.30401        0.20228        1.73015
| 11> H         -1.69811        1.19946        2.06954
| 12> H         -1.34124       -0.17772        3.08397
| 13> *
| 14>
| 15> %MaxCore 64000
| 16>
| 17> %pal nprocs 4
| 18> end
| 19>
| 20> %scf
| 21>   MaxIter 150
| 22> end
| 23>
| 24>
| 25>                          ****END OF INPUT****

CARTESIAN COORDINATES (ANGSTROEM)
---------------------------------
  C     -0.914950    0.615110    2.505540
  C     -0.059150    1.503520    3.410580
  H      0.365360    2.344310    2.861160
  H     -0.692260    1.920210    4.198980
  C      1.083030    0.749640    4.085710
  O      2.228170    1.263480    4.019830
  O      0.810030   -0.345410    4.636270
  H     -0.304010    0.202280    1.730150
  H     -1.698110    1.199460    2.069540
  H     -1.341240   -0.177720    3.083970

 Total Charge           Charge          ....   -1
 Multiplicity           Mult            ....    1
 Number of Electrons    NEL             ....   40
 Basis Dimension        Dim             ....  146

ORBITAL ENERGIES
----------------

  NO   OCC          E(Eh)            E(eV)
   0   2.0000     -18.505988      -503.5735
   1   2.0000     -18.504955      -503.5454
   2   2.0000      -9.771775      -265.9035
   3   2.0000      -9.732396      -264.8320
   4   2.0000      -9.721345      -264.5312
   5   2.0000      -0.725388       -19.7388
   6   2.0000      -0.636459       -17.3189
   7   2.0000      -0.527881       -14.3644
   8   2.0000      -0.405386       -11.0311
   9   2.0000      -0.265110        -7.2140
  10   2.0000      -0.243908        -6.6371
  11   2.0000      -0.207308        -5.6411
  12   2.0000      -0.184036        -5.0079
  13   2.0000      -0.168226        -4.5777
  14   2.0000      -0.158914        -4.3243
  15   2.0000      -0.132451        -3.6042
  16   2.0000      -0.119880        -3.2621
  17   2.0000      -0.014448        -0.3932
  18   2.0000       0.000167         0.0045
  19   2.0000       0.017190         0.4678
  20   0.0000       0.138880         3.7791
  21   0.0000       0.173078         4.7097
  22   0.0000       0.187556         5.1037
  23   0.0000       0.195710         5.3256
  24   0.0000       0.215892         5.8747

MULLIKEN ATOMIC CHARGES
-----------------------
   0 C :    0.577394
   1 C :   -0.342769
   2 H :   -0.057432
   3 H :   -0.005933
   4 C :    0.378979
   5 O :   -0.656532
   6 O :   -0.684266
   7 H :   -0.082572
   8 H :   -0.093483
   9 H :   -0.033386
Sum of atomic charges:   -1.0000000

LOEWDIN ATOMIC CHARGES
----------------------
   0 C :    0.094419
   1 C :   -0.046762
   2 H :   -0.003991
   3 H :    0.008449
   4 C :   -0.328802
   5 O :   -0.316259
   6 O :   -0.304532
   7 H :   -0.024418
   8 H :   -0.046798
   9 H :   -0.031308

  Mayer bond orders larger than 0.100000
B(  0-C ,  1-C ) :   1.3147 B(  0-C ,  7-H ) :   0.8440 B(  0-C ,  8-H ) :   0.8331
B(  0-C ,  9-H ) :   0.8170 B(  1-C ,  2-H ) :   0.9679 B(  1-C ,  3-H ) :   0.8799
B(  1-C ,  4-C ) :   1.0782 B(  1-C ,  7-H ) :   0.1803 B(  1-C ,  8-H ) :   0.1889
B(  1-C ,  9-H ) :   0.2131 B(  2-H ,  4-C ) :   0.1956 B(  4-C ,  5-O ) :   1.4448
B(  4-C ,  6-O ) :   1.4796

Dispersion correction           -0.006536227
FINAL SINGLE POINT ENERGY      -267.357455620569

DIPOLE MOMENT
-------------
                                X             Y             Z
Electronic contribution:      4.78820      -1.03590       3.39926
Nuclear contribution   :     -6.38408       1.63097      -4.40540
                        -----------------------------------------
Total Dipole Moment    :     -1.59587       0.59506      -1.00614
                        -----------------------------------------
Magnitude (a.u.)       :      1.97819
Magnitude (Debye)      :      5.02816

Rotational constants in cm-1:     0.319732     0.134414     0.104753
Rotational constants in MHz :  9585.336550  4029.633034  3140.404334

                             ****ORCA TERMINATED NORMALLY****
TOTAL RUN TIME: 0 days 0 hours 0 minutes 10 seconds 201 msec
