                         Program Version 5.0.0 -  RELEASE  -
|  1> !PBE D3BJ RIJCOSX def2-SVPD def2/J TightSCF
|  2> *xyz 1 1
|  3> C          4.60295       -2.44010        2.63478
|  4> C          3.86085       -1.59157        3.62289
|  5> N          2.75650       -2.04616        4.16633
|  6> N          4.25433       -0.36291        3.86046
|  7> H          3.56526        0.31099        4.16898
|  8> H          5.05429       -0.01606        3.33784
|  9> H          2.43970       -2.97389        3.89740
| 10> H          2.06687       -1.41253        4.54981
| 11> C          3.74469       -2.58056        1.36188
| 12> H          5.56156       -1.97135        2.40708
| 13> H          4.81050       -3.42255        3.06310
| 14> H          4.26314       -3.18477        0.64702
| 15> H          3.56325       -1.61180        0.94535
| 16> H          2.81197       -3.04259        1.60980
| 17> *
| 18>
| 19> %MaxCore 64000
| 20>
| 21> %pal nprocs 4
| 22> end
| 23>
| 24> %scf
| 25>   MaxIter 150
| 26> end
| 27>
| 28>
| 29>                          ****END OF INPUT****

CARTESIAN COORDINATES (ANGSTROEM)
---------------------------------
  C      4.602950   -2.440100    2.634780
  C      3.860850   -1.591570    3.622890
  N      2.756500   -2.046160    4.166330
  N      4.254330   -0.362910    3.860460
  H      3.565260    0.310990    4.168980
  H      5.054290   -0.016060    3.337840
  H      2.439700   -2.973890    3.897400
  H      2.066870   -1.412530    4.549810
  C      3.744690   -2.580560    1.361880
  H      5.561560   -1.971350    2.407080
  H      4.810500   -3.422550    3.063100
  H      4.263140   -3.184770    0.647020
  H      3.563250   -1.611800    0.945350
  H      2.811970   -3.042590    1.609800

 Total Charge           Charge          ....    1
 Multiplicity           Mult            ....    1
 Number of Electrons    NEL             ....   40
 Basis Dimension        Dim             ....  172

ORBITAL ENERGIES
----------------

  NO   OCC          E(Eh)            E(eV)
   0   2.0000     -14.246835      -387.6761
   1   2.0000     -14.245965      -387.6524
   2   2.0000     -10.210175      -277.8330
   3   2.0000     -10.099111      -274.8108
   4   2.0000     -10.059183      -273.7243
   5   2.0000      -1.119626       -30.4666
   6   2.0000      -1.027840       -27.9689
   7   2.0000      -0.896536       -24.3960
   8   2.0000      -0.797077       -21.6896
   9   2.0000      -0.758175       -20.6310
  10   2.0000      -0.723272       -19.6812
  11   2.0000      -0.698731       -19.0135
  12   2.0000      -0.652036       -17.7428
  13   2.0000      -0.617483       -16.8026
  14   2.0000      -0.579737       -15.7754
  15   2.0000      -0.558663       -15.2020
  16   2.0000      -0.510945       -13.9035
  17   2.0000      -0.501550       -13.6479
  18   2.0000      -0.489224       -13.3125
  19   2.0000      -0.459498       -12.5036
  20   0.0000      -0.252959        -6.8834
  21   0.0000      -0.183701        -4.9988
  22   0.0000      -0.140846        -3.8326
  23   0.0000      -0.139841        -3.8053
  24   0.0000      -0.110267        -3.0005

MULLIKEN ATOMIC CHARGES
-----------------------
   0 C :   -0.197300
   1 C :    0.520282
   2 N :    0.150275
   3 N :    0.060745
   4 H :   -0.090868
   5 H :    0.055858
   6 H :    0.056361
   7 H :   -0.154478
   8 C :    0.681466
   9 H :   -0.010241
  10 H :    0.041207
  11 H :   -0.017256
  12 H :   -0.041636
  13 H :   -0.054414
Sum of atomic charges:    1.0000000

LOEWDIN ATOMIC CHARGES
----------------------
   0 C :    0.017539
   1 C :   -0.074361
   2 N :    0.297092
   3 N :    0.296256
   4 H :    0.048043
   5 H :    0.052152
   6 H :    0.051125
   7 H :    0.049929
   8 C :    0.174391
   9 H :    0.038552
  10 H :    0.050898
  11 H :    0.010297
  12 H :    0.001454
  13 H :   -0.013367

  Mayer bond orders larger than 0.100000
B(  0-C ,  1-C ) :   1.2381 B(  0-C ,  8-C ) :   1.3011 B(  0-C ,  9-H ) :   0.8834
B(  0-C , 10-H ) :   0.8235 B(  0-C , 11-H ) :   0.1537 B(  0-C , 12-H ) :   0.1554
B(  0-C , 13-H ) :   0.1898 B(  1-C ,  2-N ) :   1.1387 B(  1-C ,  3-N ) :   1.0891
B(  1-C ,  4-H ) :  -0.1367 B(  1-C ,  7-H ) :  -0.1409 B(  1-C ,  9-H ) :   0.1635
B(  1-C , 10-H ) :   0.1557 B(  2-N ,  3-N ) :   0.2033 B(  2-N ,  6-H ) :   1.0102
B(  2-N ,  7-H ) :   1.2682 B(  3-N ,  4-H ) :   1.2257 B(  3-N ,  5-H ) :   1.0091
B(  4-H ,  5-H ) :  -0.1420 B(  6-H ,  7-H ) :  -0.1608 B(  8-C , 11-H ) :   0.8523
B(  8-C , 12-H ) :   0.8298 B(  8-C , 13-H ) :   0.7978

Dispersion correction           -0.010285024
FINAL SINGLE POINT ENERGY      -228.588510257725

DIPOLE MOMENT
-------------
                                X             Y             Z
Electronic contribution:     -0.24340       1.79502       3.74454
Nuclear contribution   :     -0.22400      -1.16268      -3.30447
                        -----------------------------------------
Total Dipole Moment    :     -0.46740       0.63234       0.44007
                        -----------------------------------------
Magnitude (a.u.)       :      0.90110
Magnitude (Debye)      :      2.29042

Rotational constants in cm-1:     0.258103     0.130571     0.102508
Rotational constants in MHz :  7737.732062  3914.431392  3073.119154

                             ****ORCA TERMINATED NORMALLY****
TOTAL RUN TIME: 0 days 0 hours 0 minutes 10 seconds 973 msec
