                         Program Version 5.0.0 -  RELEASE  -
|  1> !PBE D3BJ RIJCOSX def2-SVPD def2/J TightSCF
|  2> *xyz 0 1
|  3> C         -0.91495        0.61511        2.50554
|  4> C         -0.05915        1.50352        3.41058
|  5> H          0.36536        2.34431        2.86116
|  6> H         -0.69226        1.92021        4.19898
|  7> C          1.08303        0.74964        4.08571
|  8> F          2.22817        1.26348        4.01983
|  9> O          0.81003       -0.34541        4.63627
| 10> H         -0.30401        0.20228        1.73015
| 11> H         -1.69811        1.19946        2.06954
| 12> H         -1.34124       -0.17772        3.08397
| 13> *
| 14>
| 15> %MaxCore 64000
| 16>
| 17> %pal nprocs 4
| 18> end
| 19>
| 20> %scf
| 21>   MaxIter 150
| 22> end
| 23>
| 24>
| 25>                          ****END OF INPUT****

CARTESIAN COORDINATES (ANGSTROEM)
---------------------------------
  C     -0.914950    0.615110    2.505540
  C     -0.059150    1.503520    3.410580
  H      0.365360    2.344310    2.861160
  H     -0.692260    1.920210    4.198980
  C      1.083030    0.749640    4.085710
  F      2.228170    1.263480    4.019830
  O      0.810030   -0.345410    4.636270
  H     -0.304010    0.202280    1.730150
  H     -1.698110    1.199460    2.069540
  H     -1.341240   -0.177720    3.083970

 Total Charge           Charge          ....    0
 Multiplicity           Mult            ....    1
 Number of Electrons    NEL             ....   40
 Basis Dimension        Dim             ....  146

ORBITAL ENERGIES
----------------

  NO   OCC          E(Eh)            E(eV)
   0   2.0000     -24.345080      -662.4633
   1   2.0000     -18.773113      -510.8424
   2   2.0000     -10.067022      -273.9376
   3   2.0000      -9.929106      -270.1847
   4   2.0000      -9.901110      -269.4229
   5   2.0000      -1.204121       -32.7658
   6   2.0000      -0.939689       -25.5702
   7   2.0000      -0.723930       -19.6991
   8   2.0000      -0.621729       -16.9181
   9   2.0000      -0.574899       -15.6438
  10   2.0000      -0.492757       -13.4086
  11   2.0000      -0.476810       -12.9747
  12   2.0000      -0.450680       -12.2636
  13   2.0000      -0.417730       -11.3670
  14   2.0000      -0.385430       -10.4881
  15   2.0000      -0.356438        -9.6992
  16   2.0000      -0.334320        -9.0973
  17   2.0000      -0.331337        -9.0161
  18   2.0000      -0.310899        -8.4600
  19   2.0000      -0.248238        -6.7549
  20   0.0000      -0.072104        -1.9621
  21   0.0000      -0.003642        -0.0991
  22   0.0000       0.027716         0.7542
  23   0.0000       0.040331         1.0975
  24   0.0000       0.053235         1.4486

MULLIKEN ATOMIC CHARGES
-----------------------
   0 C :    0.616014
   1 C :   -0.380723
   2 H :   -0.031878
   3 H :    0.059889
   4 C :    0.682458
   5 F :   -0.324613
   6 O :   -0.475009
   7 H :   -0.059792
   8 H :   -0.063039
   9 H :   -0.023308
Sum of atomic charges:    0.0000000

LOEWDIN ATOMIC CHARGES
----------------------
   0 C :    0.140215
   1 C :   -0.003259
   2 H :    0.021432
   3 H :    0.042234
   4 C :   -0.038240
   5 F :   -0.017017
   6 O :   -0.114786
   7 H :   -0.007998
   8 H :   -0.012864
   9 H :   -0.009717

  Mayer bond orders larger than 0.100000
B(  0-C ,  1-C ) :   1.3652 B(  0-C ,  7-H ) :   0.8389 B(  0-C ,  8-H ) :   0.8237
B(  0-C ,  9-H ) :   0.8131 B(  1-C ,  2-H ) :   0.9530 B(  1-C ,  3-H ) :   0.8542
B(  1-C ,  4-C ) :   1.1045 B(  1-C ,  7-H ) :   0.1710 B(  1-C ,  8-H ) :   0.1779
B(  1-C ,  9-H ) :   0.1936 B(  2-H ,  4-C ) :   0.1112 B(  4-C ,  5-F ) :   0.7784
B(  4-C ,  6-O ) :   1.7986 B(  5-F ,  6-O ) :   0.1051

Dispersion correction           -0.006216165
FINAL SINGLE POINT ENERGY      -291.875050236222

DIPOLE MOMENT
-------------
                                X             Y             Z
Electronic contribution:      7.74252      -0.19327       4.11043
Nuclear contribution   :     -8.12386       1.06915      -4.71960
                        -----------------------------------------
Total Dipole Moment    :     -0.38134       0.87587      -0.60917
                        -----------------------------------------
Magnitude (a.u.)       :      1.13299
Magnitude (Debye)      :      2.87982

Rotational constants in cm-1:     0.309513     0.127560     0.099675
Rotational constants in MHz :  9278.979128  3824.146597  2988.174827

                             ****ORCA TERMINATED NORMALLY****
TOTAL RUN TIME: 0 days 0 hours 0 minutes 9 seconds 32 msec
