                         Program Version 5.0.0 -  RELEASE  -
|  1> !PBE D3BJ RIJCOSX def2-SVPD def2/J TightSCF
|  2> *xyz 0 1
|  3> C          4.60295       -2.44010        2.63478
|  4> C          3.86085       -1.59157        3.62289
|  5> C          2.75650       -2.04616        4.16633
|  6> N          4.25433       -0.36291        3.86046
|  7> H          3.56526        0.31099        4.16898
|  8> H          5.05429       -0.01606        3.33784
|  9> H          2.43970       -2.97389        3.89740
| 10> H          2.06687       -1.41253        4.54981
| 11> C          3.74469       -2.58056        1.36188
| 12> H          5.56156       -1.97135        2.40708
| 13> H          4.81050       -3.42255        3.06310
| 14> H          4.26314       -3.18477        0.64702
| 15> H          3.56325       -1.61180        0.94535
| 16> H          2.81197       -3.04259        1.60980
| 17> *
| 18>
| 19> %MaxCore 64000
| 20>
| 21> %pal nprocs 4
| 22> end
| 23>
| 24> %scf
| 25>   MaxIter 150
| 26> end
| 27>
| 28>
| 29>                          ****END OF INPUT****

CARTESIAN COORDINATES (ANGSTROEM)
---------------------------------
  C      4.602950   -2.440100    2.634780
  C      3.860850   -1.591570    3.622890
  C      2.756500   -2.046160    4.166330
  N      4.254330   -0.362910    3.860460
  H      3.565260    0.310990    4.168980
  H      5.054290   -0.016060    3.337840
  H      2.439700   -2.973890    3.897400
  H      2.066870   -1.412530    4.549810
  C      3.744690   -2.580560    1.361880
  H      5.561560   -1.971350    2.407080
  H      4.810500   -3.422550    3.063100
  H      4.263140   -3.184770    0.647020
  H      3.563250   -1.611800    0.945350
  H      2.811970   -3.042590    1.609800

 Total Charge           Charge          ....    0
 Multiplicity           Mult            ....    1
 Number of Electrons    NEL             ....   40
 Basis Dimension        Dim             ....  172

ORBITAL ENERGIES
----------------

  NO   OCC          E(Eh)            E(eV)
   0   2.0000     -14.003872      -381.0647
   1   2.0000      -9.910754      -269.6853
   2   2.0000      -9.899107      -269.3684
   3   2.0000      -9.882563      -268.9182
   4   2.0000      -9.826666      -267.3972
   5   2.0000      -0.847543       -23.0628
   6   2.0000      -0.704857       -19.1801
   7   2.0000      -0.638202       -17.3664
   8   2.0000      -0.573359       -15.6019
   9   2.0000      -0.507042       -13.7973
  10   2.0000      -0.474378       -12.9085
  11   2.0000      -0.431807       -11.7501
  12   2.0000      -0.400756       -10.9051
  13   2.0000      -0.366376        -9.9696
  14   2.0000      -0.344992        -9.3877
  15   2.0000      -0.333888        -9.0856
  16   2.0000      -0.311218        -8.4687
  17   2.0000      -0.301014        -8.1910
  18   2.0000      -0.287370        -7.8197
  19   2.0000      -0.160366        -4.3638
  20   0.0000      -0.002712        -0.0738
  21   0.0000       0.005349         0.1455
  22   0.0000       0.032306         0.8791
  23   0.0000       0.039806         1.0832
  24   0.0000       0.049528         1.3477

MULLIKEN ATOMIC CHARGES
-----------------------
   0 C :   -0.048294
   1 C :   -0.148020
   2 C :    0.380363
   3 N :    0.159566
   4 H :   -0.116646
   5 H :   -0.077908
   6 H :   -0.093518
   7 H :   -0.444224
   8 C :    0.654138
   9 H :   -0.086500
  10 H :    0.025407
  11 H :   -0.027192
  12 H :   -0.085335
  13 H :   -0.091837
Sum of atomic charges:    0.0000000

LOEWDIN ATOMIC CHARGES
----------------------
   0 C :   -0.025482
   1 C :   -0.278027
   2 C :    0.168693
   3 N :    0.182161
   4 H :    0.006427
   5 H :   -0.004032
   6 H :   -0.078636
   7 H :   -0.083340
   8 C :    0.135573
   9 H :    0.010064
  10 H :    0.027441
  11 H :   -0.022006
  12 H :   -0.014269
  13 H :   -0.024566

  Mayer bond orders larger than 0.100000
B(  0-C ,  1-C ) :   1.2321 B(  0-C ,  2-C ) :   0.1169 B(  0-C ,  8-C ) :   1.3220
B(  0-C ,  9-H ) :   0.7911 B(  0-C , 10-H ) :   0.8110 B(  0-C , 11-H ) :   0.1705
B(  0-C , 12-H ) :   0.1863 B(  0-C , 13-H ) :   0.1929 B(  1-C ,  2-C ) :   1.7588
B(  1-C ,  3-N ) :   1.0886 B(  1-C ,  6-H ) :   0.1343 B(  1-C ,  7-H ) :   0.1465
B(  1-C ,  9-H ) :   0.1929 B(  1-C , 10-H ) :   0.2012 B(  2-C ,  3-N ) :   0.3068
B(  2-C ,  6-H ) :   0.7053 B(  2-C ,  7-H ) :   0.8640 B(  3-N ,  4-H ) :   1.1329
B(  3-N ,  5-H ) :   1.0189 B(  4-H ,  5-H ) :  -0.1262 B(  8-C ,  9-H ) :   0.1079
B(  8-C , 11-H ) :   0.8055 B(  8-C , 12-H ) :   0.8305 B(  8-C , 13-H ) :   0.8506

Dispersion correction           -0.010672689
FINAL SINGLE POINT ENERGY      -212.132764435421

DIPOLE MOMENT
-------------
                                X             Y             Z
Electronic contribution:      0.80443       1.79068       2.57765
Nuclear contribution   :     -0.47010      -1.22282      -3.06417
                        -----------------------------------------
Total Dipole Moment    :      0.33432       0.56787      -0.48652
                        -----------------------------------------
Magnitude (a.u.)       :      0.81911
Magnitude (Debye)      :      2.08202

Rotational constants in cm-1:     0.271862     0.131962     0.105499
Rotational constants in MHz :  8150.219120  3956.123671  3162.785522

                             ****ORCA TERMINATED NORMALLY****
TOTAL RUN TIME: 0 days 0 hours 0 minutes 10 seconds 498 msec
