                         Program Version 5.0.0 -  RELEASE  -
|  1> !PBE D3BJ RIJCOSX def2-SVPD def2/J TightSCF
|  2> *xyz 0 1
|  3> C         -0.91495        0.61511        2.50554
|  4> C         -0.05915        1.50352        3.41058
|  5> H          0.36536        2.34431        2.86116
|  6> H         -0.69226        1.92021        4.19898
|  7> C          1.08303        0.74964        4.08571
|  8> O          2.22817        1.26348        4.01983
|  9> F          0.81003       -0.34541        4.63627
| 10> H         -0.30401        0.20228        1.73015
| 11> H         -1.69811        1.19946        2.06954
| 12> H         -1.34124       -0.17772        3.08397
| 13> *
| 14>
| 15> %MaxCore 64000
| 16>
| 17> %pal nprocs 4
| 18> end
| 19>
| 20> %scf
| 21>   MaxIter 150
| 22> end
| 23>
| 24>
| 25>                          ****END OF INPUT****

CARTESIAN COORDINATES (ANGSTROEM)
---------------------------------
  C     -0.914950    0.615110    2.505540
  C     -0.059150    1.503520    3.410580
  H      0.365360    2.344310    2.861160
  H     -0.692260    1.920210    4.198980
  C      1.083030    0.749640    4.085710
  O      2.228170    1.263480    4.019830
  F      0.810030   -0.345410    4.636270
  H     -0.304010    0.202280    1.730150
  H     -1.698110    1.199460    2.069540
  H     -1.341240   -0.177720    3.083970

 Total Charge           Charge          ....    0
 Multiplicity           Mult            ....    1
 Number of Electrons    NEL             ....   40
 Basis Dimension        Dim             ....  146

ORBITAL ENERGIES
----------------

  NO   OCC          E(Eh)            E(eV)
   0   2.0000     -24.346286      -662.4961
   1   2.0000     -18.771790      -510.8064
   2   2.0000     -10.066497      -273.9233
   3   2.0000      -9.928560      -270.1699
   4   2.0000      -9.906441      -269.5680
   5   2.0000      -1.205631       -32.8069
   6   2.0000      -0.937716       -25.5166
   7   2.0000      -0.728026       -19.8106
   8   2.0000      -0.617823       -16.8118
   9   2.0000      -0.581315       -15.8184
  10   2.0000      -0.494842       -13.4653
  11   2.0000      -0.483119       -13.1463
  12   2.0000      -0.443656       -12.0725
  13   2.0000      -0.418048       -11.3757
  14   2.0000      -0.387189       -10.5360
  15   2.0000      -0.359987        -9.7957
  16   2.0000      -0.339857        -9.2480
  17   2.0000      -0.335110        -9.1188
  18   2.0000      -0.313290        -8.5251
  19   2.0000      -0.243031        -6.6132
  20   0.0000      -0.069899        -1.9020
  21   0.0000      -0.006810        -0.1853
  22   0.0000       0.029821         0.8115
  23   0.0000       0.038457         1.0465
  24   0.0000       0.053958         1.4683

MULLIKEN ATOMIC CHARGES
-----------------------
   0 C :    0.614178
   1 C :   -0.358139
   2 H :   -0.046913
   3 H :    0.048722
   4 C :    0.699653
   5 O :   -0.451860
   6 F :   -0.349377
   7 H :   -0.059973
   8 H :   -0.062165
   9 H :   -0.034127
Sum of atomic charges:   -0.0000000

LOEWDIN ATOMIC CHARGES
----------------------
   0 C :    0.133022
   1 C :    0.002862
   2 H :    0.033798
   3 H :    0.039158
   4 C :   -0.041755
   5 O :   -0.119358
   6 F :   -0.012230
   7 H :   -0.008087
   8 H :   -0.012673
   9 H :   -0.014737

  Mayer bond orders larger than 0.100000
B(  0-C ,  1-C ) :   1.3369 B(  0-C ,  7-H ) :   0.8476 B(  0-C ,  8-H ) :   0.8303
B(  0-C ,  9-H ) :   0.8091 B(  1-C ,  2-H ) :   0.9791 B(  1-C ,  3-H ) :   0.8533
B(  1-C ,  4-C ) :   1.0732 B(  1-C ,  7-H ) :   0.1633 B(  1-C ,  8-H ) :   0.1793
B(  1-C ,  9-H ) :   0.1844 B(  2-H ,  4-C ) :   0.1385 B(  4-C ,  5-O ) :   1.7889
B(  4-C ,  6-F ) :   0.7565 B(  5-O ,  6-F ) :   0.1138

Dispersion correction           -0.006172295
FINAL SINGLE POINT ENERGY      -291.873976870123

DIPOLE MOMENT
-------------
                                X             Y             Z
Electronic contribution:      5.37338      -2.84182       5.11226
Nuclear contribution   :     -6.57765       2.82334      -5.39171
                        -----------------------------------------
Total Dipole Moment    :     -1.20427      -0.01848      -0.27944
                        -----------------------------------------
Magnitude (a.u.)       :      1.23640
Magnitude (Debye)      :      3.14269

Rotational constants in cm-1:     0.294245     0.132994     0.101060
Rotational constants in MHz :  8821.228602  3987.049251  3029.696815

                             ****ORCA TERMINATED NORMALLY****
TOTAL RUN TIME: 0 days 0 hours 0 minutes 8 seconds 569 msec
