                         Program Version 5.0.0 -  RELEASE  -
|  1> !PBE D3BJ RIJCOSX def2-SVPD def2/J TightSCF
|  2> *xyz 0 1
|  3> C          4.60295       -2.44010        2.63478
|  4> C          3.86085       -1.59157        3.62289
|  5> N          2.75650       -2.04616        4.16633
|  6> C          4.25433       -0.36291        3.86046
|  7> H          3.56526        0.31099        4.16898
|  8> H          5.05429       -0.01606        3.33784
|  9> H          2.43970       -2.97389        3.89740
| 10> H          2.06687       -1.41253        4.54981
| 11> C          3.74469       -2.58056        1.36188
| 12> H          5.56156       -1.97135        2.40708
| 13> H          4.81050       -3.42255        3.06310
| 14> H          4.26314       -3.18477        0.64702
| 15> H          3.56325       -1.61180        0.94535
| 16> H          2.81197       -3.04259        1.60980
| 17> *
| 18>
| 19> %MaxCore 64000
| 20>
| 21> %pal nprocs 4
| 22> end
| 23>
| 24> %scf
| 25>   MaxIter 150
| 26> end
| 27>
| 28>
| 29>                          ****END OF INPUT****

CARTESIAN COORDINATES (ANGSTROEM)
---------------------------------
  C      4.602950   -2.440100    2.634780
  C      3.860850   -1.591570    3.622890
  N      2.756500   -2.046160    4.166330
  C      4.254330   -0.362910    3.860460
  H      3.565260    0.310990    4.168980
  H      5.054290   -0.016060    3.337840
  H      2.439700   -2.973890    3.897400
  H      2.066870   -1.412530    4.549810
  C      3.744690   -2.580560    1.361880
  H      5.561560   -1.971350    2.407080
  H      4.810500   -3.422550    3.063100
  H      4.263140   -3.184770    0.647020
  H      3.563250   -1.611800    0.945350
  H      2.811970   -3.042590    1.609800

 Total Charge           Charge          ....    0
 Multiplicity           Mult            ....    1
 Number of Electrons    NEL             ....   40
 Basis Dimension        Dim             ....  172

ORBITAL ENERGIES
----------------

  NO   OCC          E(Eh)            E(eV)
   0   2.0000     -14.003785      -381.0624
   1   2.0000      -9.911553      -269.7071
   2   2.0000      -9.898429      -269.3499
   3   2.0000      -9.886423      -269.0232
   4   2.0000      -9.827821      -267.4286
   5   2.0000      -0.847154       -23.0522
   6   2.0000      -0.703148       -19.1336
   7   2.0000      -0.645897       -17.5757
   8   2.0000      -0.568761       -15.4768
   9   2.0000      -0.513919       -13.9844
  10   2.0000      -0.475466       -12.9381
  11   2.0000      -0.427150       -11.6233
  12   2.0000      -0.392718       -10.6864
  13   2.0000      -0.382664       -10.4128
  14   2.0000      -0.343443        -9.3456
  15   2.0000      -0.336734        -9.1630
  16   2.0000      -0.314248        -8.5511
  17   2.0000      -0.299541        -8.1509
  18   2.0000      -0.283443        -7.7129
  19   2.0000      -0.163007        -4.4356
  20   0.0000      -0.004917        -0.1338
  21   0.0000       0.007270         0.1978
  22   0.0000       0.036315         0.9882
  23   0.0000       0.038663         1.0521
  24   0.0000       0.046368         1.2617

MULLIKEN ATOMIC CHARGES
-----------------------
   0 C :   -0.187738
   1 C :   -0.236166
   2 N :    0.283667
   3 C :    0.381987
   4 H :   -0.375880
   5 H :   -0.062179
   6 H :   -0.091961
   7 H :   -0.209489
   8 C :    0.715948
   9 H :    0.050650
  10 H :   -0.047626
  11 H :   -0.096874
  12 H :   -0.059370
  13 H :   -0.064969
Sum of atomic charges:    0.0000000

LOEWDIN ATOMIC CHARGES
----------------------
   0 C :   -0.026457
   1 C :   -0.283009
   2 N :    0.185409
   3 C :    0.170633
   4 H :   -0.084150
   5 H :   -0.082221
   6 H :   -0.001886
   7 H :    0.008155
   8 C :    0.134897
   9 H :    0.022564
  10 H :    0.018868
  11 H :   -0.020324
  12 H :   -0.011328
  13 H :   -0.031151

  Mayer bond orders larger than 0.100000
B(  0-C ,  1-C ) :   1.3217 B(  0-C ,  3-C ) :   0.1095 B(  0-C ,  8-C ) :   1.2909
B(  0-C ,  9-H ) :   0.8750 B(  0-C , 10-H ) :   0.8202 B(  0-C , 11-H ) :   0.2093
B(  0-C , 12-H ) :   0.1646 B(  0-C , 13-H ) :   0.2229 B(  1-C ,  2-N ) :   1.1377
B(  1-C ,  3-C ) :   1.8892 B(  1-C ,  4-H ) :   0.2635 B(  1-C ,  5-H ) :   0.1426
B(  1-C ,  9-H ) :   0.1918 B(  1-C , 10-H ) :   0.2008 B(  2-N ,  3-C ) :   0.2885
B(  2-N ,  6-H ) :   1.0415 B(  2-N ,  7-H ) :   1.1723 B(  3-C ,  4-H ) :   0.7499
B(  3-C ,  5-H ) :   0.8580 B(  4-H ,  5-H ) :   0.1064 B(  6-H ,  7-H ) :  -0.1294
B(  8-C ,  9-H ) :   0.1106 B(  8-C , 11-H ) :   0.8339 B(  8-C , 12-H ) :   0.8350
B(  8-C , 13-H ) :   0.7873

Dispersion correction           -0.010656315
FINAL SINGLE POINT ENERGY      -212.133397133639

DIPOLE MOMENT
-------------
                                X             Y             Z
Electronic contribution:     -0.49707       0.32060       2.85115
Nuclear contribution   :     -0.12319      -0.83296      -3.13501
                        -----------------------------------------
Total Dipole Moment    :     -0.62026      -0.51236      -0.28386
                        -----------------------------------------
Magnitude (a.u.)       :      0.85312
Magnitude (Debye)      :      2.16846

Rotational constants in cm-1:     0.266453     0.134423     0.106086
Rotational constants in MHz :  7988.053142  4029.892766  3180.375228

                             ****ORCA TERMINATED NORMALLY****
TOTAL RUN TIME: 0 days 0 hours 0 minutes 10 seconds 52 msec
