                         Program Version 5.0.0 -  RELEASE  -
|  1> !PBE D3BJ RIJCOSX def2-SVPD def2/J TightSCF xyzfile
|  2>
|  3> *xyzfile 0 1 D3.xyz
|  4>
|  5> %MaxCore 64000
|  6>
|  7> %pal nprocs 4
|  8> end
|  9>
| 10> %scf
| 11>   MaxIter 150
| 12> end
| 13>
| 14>
| 15>                          ****END OF INPUT****

CARTESIAN COORDINATES (ANGSTROEM)
---------------------------------
  C      4.602954   -2.440100    2.634780
  C     -0.914947    0.615112    2.505538
  C     -0.059146    1.503524    3.410578
  H      0.365364    2.344315    2.861161
  H     -0.692261    1.920207    4.198985
  C      1.083027    0.749640    4.085705
  C      3.860851   -1.591565    3.622893
  C      2.756502   -2.046159    4.166333
  N      4.254325   -0.362905    3.860455
  H      3.565256    0.310994    4.168983
  H      5.054292   -0.016059    3.337838
  H      2.439696   -2.973894    3.897395
  H      2.066869   -1.412532    4.549813
  O      2.228167    1.263475    4.019826
  F      0.810034   -0.345411    4.636269
  C      3.744685   -2.580557    1.361882
  C      0.772139    0.636882    0.562129
  C     -0.130740   -0.193985    1.470763
  H     -0.840563   -0.760165    0.856377
  H      0.466691   -0.938942    2.006959
  H     -1.647961    1.245963    1.991076
  H     -1.478180   -0.081046    3.130424
  C      3.203721   -1.256004    0.826211
  H      2.898939   -3.239289    1.583074
  H      4.334962   -3.095523    0.600188
  C      2.107815   -1.442385   -0.216865
  H      2.786775   -0.672760    1.650711
  H      4.021008   -0.652993    0.414046
  C      1.390662   -0.145912   -0.602422
  H      1.372179   -2.152184    0.176151
  H      2.523302   -1.906787   -1.117115
  H      1.561361    1.100094    1.161831
  H      0.195516    1.468325    0.142758
  H      0.602893   -0.398214   -1.319716
  H      2.087247    0.508272   -1.137335
  H      5.561557   -1.971347    2.407084
  H      4.810498   -3.422552    3.063099

 Total Charge           Charge          ....    0
 Multiplicity           Mult            ....    1
 Number of Electrons    NEL             ....  118
 Basis Dimension        Dim             ....  482

ORBITAL ENERGIES
----------------

  NO   OCC          E(Eh)            E(eV)
   0   2.0000     -24.359875      -662.8659
   1   2.0000     -18.794637      -511.4281
   2   2.0000     -13.968826      -380.1111
   3   2.0000     -10.085508      -274.4406
   4   2.0000      -9.933733      -270.3106
   5   2.0000      -9.917370      -269.8654
   6   2.0000      -9.901845      -269.4429
   7   2.0000      -9.895891      -269.2809
   8   2.0000      -9.893890      -269.2264
   9   2.0000      -9.891616      -269.1645
  10   2.0000      -9.885867      -269.0081
  11   2.0000      -9.884698      -268.9763
  12   2.0000      -9.883711      -268.9494
  13   2.0000      -9.880587      -268.8644
  14   2.0000      -9.805513      -266.8216
  15   2.0000      -1.222899       -33.2768
  16   2.0000      -0.964378       -26.2421
  17   2.0000      -0.822755       -22.3883
  18   2.0000      -0.755264       -20.5518
  19   2.0000      -0.727831       -19.8053
  20   2.0000      -0.703183       -19.1346
  21   2.0000      -0.670606       -18.2481
  22   2.0000      -0.640139       -17.4191
  23   2.0000      -0.625405       -17.0181
  24   2.0000      -0.603336       -16.4176
  25   2.0000      -0.581660       -15.8278
  26   2.0000      -0.551024       -14.9941
  27   2.0000      -0.527571       -14.3559
  28   2.0000      -0.511528       -13.9194
  29   2.0000      -0.505244       -13.7484
  30   2.0000      -0.495222       -13.4757
  31   2.0000      -0.485204       -13.2031
  32   2.0000      -0.467529       -12.7221
  33   2.0000      -0.442814       -12.0496
  34   2.0000      -0.434566       -11.8251
  35   2.0000      -0.429869       -11.6973
  36   2.0000      -0.418141       -11.3782
  37   2.0000      -0.401131       -10.9153
  38   2.0000      -0.396998       -10.8029
  39   2.0000      -0.384392       -10.4598
  40   2.0000      -0.379009       -10.3134
  41   2.0000      -0.365134        -9.9358
  42   2.0000      -0.361961        -9.8495
  43   2.0000      -0.348838        -9.4924
  44   2.0000      -0.343579        -9.3493
  45   2.0000      -0.334754        -9.1091
  46   2.0000      -0.329663        -8.9706
  47   2.0000      -0.323996        -8.8164
  48   2.0000      -0.311429        -8.4744
  49   2.0000      -0.302750        -8.2382
  50   2.0000      -0.298858        -8.1323
  51   2.0000      -0.292993        -7.9727
  52   2.0000      -0.283328        -7.7098
  53   2.0000      -0.279494        -7.6054
  54   2.0000      -0.273019        -7.4292
  55   2.0000      -0.269618        -7.3367
  56   2.0000      -0.262229        -7.1356
  57   2.0000      -0.253101        -6.8872
  58   2.0000      -0.142747        -3.8843
  59   0.0000      -0.088279        -2.4022
  60   0.0000      -0.010051        -0.2735
  61   0.0000       0.009427         0.2565
  62   0.0000       0.010657         0.2900
  63   0.0000       0.013126         0.3572

MULLIKEN ATOMIC CHARGES
-----------------------
   0 C :    0.860731
   1 C :    0.536169
   2 C :    0.134424
   3 H :    0.188300
   4 H :   -0.180438
   5 C :    0.667704
   6 C :   -0.484005
   7 C :    0.953878
   8 N :    0.414049
   9 H :   -0.424688
  10 H :    0.059545
  11 H :   -0.165375
  12 H :   -0.875547
  13 O :   -0.522779
  14 F :   -0.449907
  15 C :    0.048882
  16 C :   -0.233179
  17 C :   -0.176253
  18 H :   -0.180724
  19 H :   -0.012577
  20 H :   -0.083385
  21 H :    0.026993
  22 C :    0.109512
  23 H :    0.090224
  24 H :   -0.283790
  25 C :   -0.027059
  26 H :   -0.301710
  27 H :    0.008472
  28 C :    0.823813
  29 H :    0.202071
  30 H :   -0.372278
  31 H :    0.216803
  32 H :   -0.544912
  33 H :    0.069318
  34 H :   -0.015634
  35 H :   -0.065441
  36 H :   -0.011206
Sum of atomic charges:   -0.0000000

LOEWDIN ATOMIC CHARGES
----------------------
   0 C :    0.016983
   1 C :   -0.024138
   2 C :    0.057454
   3 H :    0.034315
   4 H :    0.042619
   5 C :    0.023557
   6 C :   -0.261810
   7 C :    0.193621
   8 N :    0.218083
   9 H :   -0.108727
  10 H :    0.002347
  11 H :   -0.073818
  12 H :   -0.143603
  13 O :   -0.094463
  14 F :   -0.013341
  15 C :   -0.022551
  16 C :   -0.035744
  17 C :   -0.031950
  18 H :    0.032960
  19 H :    0.013187
  20 H :    0.029194
  21 H :    0.026146
  22 C :   -0.033569
  23 H :    0.018045
  24 H :    0.020521
  25 C :   -0.040578
  26 H :   -0.012290
  27 H :    0.034519
  28 C :   -0.030635
  29 H :    0.017081
  30 H :    0.024753
  31 H :    0.012361
  32 H :    0.024494
  33 H :    0.021496
  34 H :    0.023793
  35 H :    0.013087
  36 H :    0.026603

  Mayer bond orders larger than 0.100000
B(  0-C ,  6-C ) :   1.2025 B(  0-C ,  8-N ) :   0.1283 B(  0-C , 15-C ) :   1.1134
B(  0-C , 35-H ) :   0.4567 B(  0-C , 36-H ) :   0.6139 B(  1-C ,  2-C ) :   1.1972
B(  1-C ,  4-H ) :   0.1843 B(  1-C , 17-C ) :   1.2516 B(  1-C , 19-H ) :   0.1185
B(  1-C , 20-H ) :   0.7413 B(  1-C , 21-H ) :   0.5987 B(  2-C ,  3-H ) :   0.8142
B(  2-C ,  4-H ) :   0.6789 B(  2-C ,  5-C ) :   1.1923 B(  2-C , 17-C ) :   0.1327
B(  2-C , 20-H ) :   0.1588 B(  2-C , 21-H ) :   0.1158 B(  3-H ,  5-C ) :   0.1457
B(  4-H ,  5-C ) :   0.2518 B(  5-C , 13-O ) :   1.6148 B(  5-C , 14-F ) :   0.6364
B(  6-C ,  7-C ) :   1.8830 B(  6-C ,  8-N ) :   0.8954 B(  6-C , 10-H ) :   0.1505
B(  6-C , 12-H ) :   0.3460 B(  6-C , 15-C ) :   0.1570 B(  6-C , 35-H ) :   0.3813
B(  6-C , 36-H ) :   0.2577 B(  7-C ,  8-N ) :   0.4664 B(  7-C , 11-H ) :   0.6260
B(  7-C , 12-H ) :  -0.1066 B(  8-N ,  9-H ) :   1.0090 B(  8-N , 10-H ) :   0.9019
B(  8-N , 11-H ) :   0.2509 B(  8-N , 12-H ) :  -0.2068 B(  9-H , 10-H ) :  -0.2470
B(  9-H , 13-O ) :   0.1445 B( 12-H , 14-F ) :   0.2611 B( 13-O , 14-F ) :   0.1203
B( 15-C , 22-C ) :   1.1612 B( 15-C , 23-H ) :   0.8324 B( 15-C , 24-H ) :   0.9170
B( 15-C , 25-C ) :   0.1141 B( 15-C , 26-H ) :   0.1819 B( 15-C , 27-H ) :   0.1144
B( 15-C , 35-H ) :   0.2252 B( 15-C , 36-H ) :   0.1708 B( 16-C , 17-C ) :   1.3168
B( 16-C , 18-H ) :   0.1893 B( 16-C , 19-H ) :   0.1299 B( 16-C , 25-C ) :   0.1934
B( 16-C , 28-C ) :   1.0707 B( 16-C , 31-H ) :   0.7750 B( 16-C , 32-H ) :   1.1363
B( 16-C , 33-H ) :   0.1638 B( 16-C , 34-H ) :   0.2942 B( 17-C , 18-H ) :   0.8566
B( 17-C , 19-H ) :   0.8710 B( 17-C , 20-H ) :   0.2140 B( 17-C , 21-H ) :   0.2680
B( 17-C , 32-H ) :   0.1283 B( 20-H , 21-H ) :  -0.1338 B( 22-C , 23-H ) :   0.1504
B( 22-C , 24-H ) :   0.2615 B( 22-C , 25-C ) :   1.2192 B( 22-C , 26-H ) :   0.9838
B( 22-C , 27-H ) :   0.6907 B( 22-C , 29-H ) :   0.1280 B( 22-C , 30-H ) :   0.2551
B( 23-H , 30-H ) :  -0.1104 B( 25-C , 27-H ) :   0.1150 B( 25-C , 28-C ) :   1.1583
B( 25-C , 29-H ) :   0.7818 B( 25-C , 30-H ) :   0.9445 B( 25-C , 33-H ) :   0.2333
B( 25-C , 34-H ) :   0.1740 B( 26-H , 27-H ) :   0.1591 B( 26-H , 31-H ) :   0.1928
B( 26-H , 32-H ) :  -0.1403 B( 28-C , 29-H ) :   0.1117 B( 28-C , 33-H ) :   0.6079
B( 28-C , 34-H ) :   0.5824 B( 33-H , 34-H ) :  -0.1211

Dispersion correction           -0.043106111
FINAL SINGLE POINT ENERGY      -698.984076380263

DIPOLE MOMENT
-------------
                                X             Y             Z
Electronic contribution:     -1.15994       4.73875      16.01067
Nuclear contribution   :      0.05905      -3.94566     -16.70013
                        -----------------------------------------
Total Dipole Moment    :     -1.10089       0.79309      -0.68946
                        -----------------------------------------
Magnitude (a.u.)       :      1.52195
Magnitude (Debye)      :      3.86848

Rotational constants in cm-1:     0.021602     0.017295     0.011353
Rotational constants in MHz :   647.614981   518.478934   340.359556

                             ****ORCA TERMINATED NORMALLY****
TOTAL RUN TIME: 0 days 0 hours 1 minutes 1 seconds 77 msec
