                         Program Version 5.0.0 -  RELEASE  -
|  1> !PBE D3BJ RIJCOSX def2-SVPD def2/J TightSCF xyzfile
|  2>
|  3> *xyzfile 0 1 D4.xyz
|  4>
|  5> %MaxCore 64000
|  6>
|  7> %pal nprocs 4
|  8> end
|  9>
| 10> %scf
| 11>   MaxIter 150
| 12> end
| 13>
| 14>
| 15>                          ****END OF INPUT****

CARTESIAN COORDINATES (ANGSTROEM)
---------------------------------
  C      4.602954   -2.440100    2.634780
  C     -0.914947    0.615112    2.505538
  C     -0.059146    1.503524    3.410578
  H      0.365364    2.344315    2.861161
  H     -0.692261    1.920207    4.198985
  C      1.083027    0.749640    4.085705
  C      3.860851   -1.591565    3.622893
  N      2.756502   -2.046159    4.166333
  C      4.254325   -0.362905    3.860455
  H      3.565256    0.310994    4.168983
  H      5.054292   -0.016059    3.337838
  H      2.439696   -2.973894    3.897395
  H      2.066869   -1.412532    4.549813
  O      2.228167    1.263475    4.019826
  F      0.810034   -0.345411    4.636269
  C      3.744685   -2.580557    1.361882
  C      0.772139    0.636882    0.562129
  C     -0.130740   -0.193985    1.470763
  H     -0.840563   -0.760165    0.856377
  H      0.466691   -0.938942    2.006959
  H     -1.647961    1.245963    1.991076
  H     -1.478180   -0.081046    3.130424
  C      3.203721   -1.256004    0.826211
  H      2.898939   -3.239289    1.583074
  H      4.334962   -3.095523    0.600188
  C      2.107815   -1.442385   -0.216865
  H      2.786775   -0.672760    1.650711
  H      4.021008   -0.652993    0.414046
  C      1.390662   -0.145912   -0.602422
  H      1.372179   -2.152184    0.176151
  H      2.523302   -1.906787   -1.117115
  H      1.561361    1.100094    1.161831
  H      0.195516    1.468325    0.142758
  H      0.602893   -0.398214   -1.319716
  H      2.087247    0.508272   -1.137335
  H      5.561557   -1.971347    2.407084
  H      4.810498   -3.422552    3.063099

 Total Charge           Charge          ....    0
 Multiplicity           Mult            ....    1
 Number of Electrons    NEL             ....  118
 Basis Dimension        Dim             ....  482

ORBITAL ENERGIES
----------------

  NO   OCC          E(Eh)            E(eV)
   0   2.0000     -24.371844      -663.1916
   1   2.0000     -18.785888      -511.1900
   2   2.0000     -13.983338      -380.5060
   3   2.0000     -10.081125      -274.3214
   4   2.0000      -9.933190      -270.2958
   5   2.0000      -9.918429      -269.8942
   6   2.0000      -9.904706      -269.5208
   7   2.0000      -9.896038      -269.2849
   8   2.0000      -9.891676      -269.1662
   9   2.0000      -9.890551      -269.1356
  10   2.0000      -9.887403      -269.0499
  11   2.0000      -9.886236      -269.0182
  12   2.0000      -9.882001      -268.9029
  13   2.0000      -9.879069      -268.8231
  14   2.0000      -9.795548      -266.5504
  15   2.0000      -1.233358       -33.5614
  16   2.0000      -0.957053       -26.0427
  17   2.0000      -0.830683       -22.6040
  18   2.0000      -0.756127       -20.5753
  19   2.0000      -0.727869       -19.8063
  20   2.0000      -0.704061       -19.1585
  21   2.0000      -0.669478       -18.2174
  22   2.0000      -0.646640       -17.5960
  23   2.0000      -0.623714       -16.9721
  24   2.0000      -0.612818       -16.6756
  25   2.0000      -0.580135       -15.7863
  26   2.0000      -0.551409       -15.0046
  27   2.0000      -0.527720       -14.3600
  28   2.0000      -0.519619       -14.1396
  29   2.0000      -0.511640       -13.9224
  30   2.0000      -0.494354       -13.4520
  31   2.0000      -0.487653       -13.2697
  32   2.0000      -0.464333       -12.6351
  33   2.0000      -0.451180       -12.2772
  34   2.0000      -0.436506       -11.8779
  35   2.0000      -0.433737       -11.8026
  36   2.0000      -0.413090       -11.2408
  37   2.0000      -0.399733       -10.8773
  38   2.0000      -0.393520       -10.7082
  39   2.0000      -0.389809       -10.6073
  40   2.0000      -0.375854       -10.2275
  41   2.0000      -0.368878       -10.0377
  42   2.0000      -0.362428        -9.8622
  43   2.0000      -0.348430        -9.4813
  44   2.0000      -0.340233        -9.2582
  45   2.0000      -0.334372        -9.0987
  46   2.0000      -0.331351        -9.0165
  47   2.0000      -0.317721        -8.6456
  48   2.0000      -0.315017        -8.5721
  49   2.0000      -0.308246        -8.3878
  50   2.0000      -0.304102        -8.2750
  51   2.0000      -0.288233        -7.8432
  52   2.0000      -0.285272        -7.7627
  53   2.0000      -0.282218        -7.6795
  54   2.0000      -0.273147        -7.4327
  55   2.0000      -0.269245        -7.3265
  56   2.0000      -0.264177        -7.1886
  57   2.0000      -0.228884        -6.2282
  58   2.0000      -0.142905        -3.8886
  59   0.0000      -0.085970        -2.3394
  60   0.0000      -0.014223        -0.3870
  61   0.0000       0.002161         0.0588
  62   0.0000       0.009799         0.2666
  63   0.0000       0.014841         0.4038

MULLIKEN ATOMIC CHARGES
-----------------------
   0 C :    0.639602
   1 C :    0.531777
   2 C :    0.146365
   3 H :    0.183714
   4 H :   -0.173315
   5 C :    0.650579
   6 C :   -0.467849
   7 N :    0.467697
   8 C :    0.885609
   9 H :   -0.704723
  10 H :   -0.099487
  11 H :   -0.004308
  12 H :   -0.506719
  13 O :   -0.493221
  14 F :   -0.436368
  15 C :    0.157978
  16 C :   -0.226933
  17 C :   -0.172653
  18 H :   -0.188874
  19 H :   -0.031591
  20 H :   -0.090009
  21 H :    0.018668
  22 C :    0.207638
  23 H :    0.083833
  24 H :   -0.343136
  25 C :   -0.005198
  26 H :   -0.400274
  27 H :   -0.018716
  28 C :    0.819857
  29 H :    0.172067
  30 H :   -0.385462
  31 H :    0.195472
  32 H :   -0.514955
  33 H :    0.076433
  34 H :   -0.013658
  35 H :    0.137306
  36 H :   -0.097142
Sum of atomic charges:   -0.0000000

LOEWDIN ATOMIC CHARGES
----------------------
   0 C :    0.014385
   1 C :   -0.026815
   2 C :    0.057549
   3 H :    0.035452
   4 H :    0.041674
   5 C :    0.019536
   6 C :   -0.269118
   7 N :    0.217968
   8 C :    0.195095
   9 H :   -0.170790
  10 H :   -0.070500
  11 H :    0.001971
  12 H :   -0.073811
  13 O :   -0.091242
  14 F :   -0.008909
  15 C :   -0.024755
  16 C :   -0.034149
  17 C :   -0.034703
  18 H :    0.032422
  19 H :    0.009627
  20 H :    0.029135
  21 H :    0.024375
  22 C :   -0.028524
  23 H :    0.010202
  24 H :    0.021884
  25 C :   -0.043308
  26 H :   -0.011496
  27 H :    0.040360
  28 C :   -0.030092
  29 H :    0.014427
  30 H :    0.024046
  31 H :    0.014676
  32 H :    0.025198
  33 H :    0.021236
  34 H :    0.024795
  35 H :    0.024324
  36 H :    0.017874

  Mayer bond orders larger than 0.100000
B(  0-C ,  6-C ) :   1.3134 B(  0-C ,  8-C ) :   0.1315 B(  0-C , 15-C ) :   1.1154
B(  0-C , 23-H ) :   0.1204 B(  0-C , 24-H ) :   0.1533 B(  0-C , 35-H ) :   0.7087
B(  0-C , 36-H ) :   0.4992 B(  1-C ,  2-C ) :   1.1950 B(  1-C ,  4-H ) :   0.1787
B(  1-C , 17-C ) :   1.2467 B(  1-C , 19-H ) :   0.1173 B(  1-C , 20-H ) :   0.7403
B(  1-C , 21-H ) :   0.6031 B(  2-C ,  3-H ) :   0.8334 B(  2-C ,  4-H ) :   0.6748
B(  2-C ,  5-C ) :   1.1602 B(  2-C , 17-C ) :   0.1260 B(  2-C , 20-H ) :   0.1619
B(  2-C , 21-H ) :   0.1211 B(  3-H ,  5-C ) :   0.1360 B(  4-H ,  5-C ) :   0.2476
B(  5-C , 13-O ) :   1.7407 B(  5-C , 14-F ) :   0.5538 B(  6-C ,  7-N ) :   0.9502
B(  6-C ,  8-C ) :   1.9148 B(  6-C ,  9-H ) :   0.3785 B(  6-C , 10-H ) :   0.2987
B(  6-C , 15-C ) :   0.1016 B(  6-C , 24-H ) :  -0.1189 B(  6-C , 35-H ) :   0.1759
B(  6-C , 36-H ) :   0.3186 B(  7-N ,  8-C ) :   0.4240 B(  7-N , 11-H ) :   1.0118
B(  7-N , 12-H ) :   1.0359 B(  8-C ,  9-H ) :   0.1118 B(  8-C , 10-H ) :   0.6832
B(  9-H , 13-O ) :   0.1798 B(  9-H , 24-H ) :  -0.1157 B( 10-H , 23-H ) :  -0.1101
B( 11-H , 12-H ) :  -0.2349 B( 12-H , 14-F ) :   0.1264 B( 13-O , 14-F ) :   0.1160
B( 15-C , 22-C ) :   1.1464 B( 15-C , 23-H ) :   0.8011 B( 15-C , 24-H ) :   0.8962
B( 15-C , 25-C ) :   0.1286 B( 15-C , 26-H ) :   0.1545 B( 15-C , 27-H ) :   0.1098
B( 15-C , 35-H ) :   0.1497 B( 15-C , 36-H ) :   0.1992 B( 16-C , 17-C ) :   1.3139
B( 16-C , 18-H ) :   0.1862 B( 16-C , 19-H ) :   0.1300 B( 16-C , 25-C ) :   0.1959
B( 16-C , 28-C ) :   1.0786 B( 16-C , 31-H ) :   0.7823 B( 16-C , 32-H ) :   1.1173
B( 16-C , 33-H ) :   0.1622 B( 16-C , 34-H ) :   0.2982 B( 17-C , 18-H ) :   0.8625
B( 17-C , 19-H ) :   0.8750 B( 17-C , 20-H ) :   0.2152 B( 17-C , 21-H ) :   0.2637
B( 17-C , 32-H ) :   0.1310 B( 20-H , 21-H ) :  -0.1351 B( 22-C , 23-H ) :   0.1343
B( 22-C , 24-H ) :   0.2149 B( 22-C , 25-C ) :   1.1893 B( 22-C , 26-H ) :   0.9413
B( 22-C , 27-H ) :   0.6885 B( 22-C , 29-H ) :   0.1318 B( 22-C , 30-H ) :   0.2598
B( 25-C , 27-H ) :   0.1249 B( 25-C , 28-C ) :   1.1624 B( 25-C , 29-H ) :   0.7903
B( 25-C , 30-H ) :   0.9370 B( 25-C , 33-H ) :   0.2294 B( 25-C , 34-H ) :   0.1675
B( 26-H , 27-H ) :   0.1956 B( 26-H , 31-H ) :   0.1927 B( 26-H , 32-H ) :  -0.1274
B( 28-C , 29-H ) :   0.1108 B( 28-C , 33-H ) :   0.6132 B( 28-C , 34-H ) :   0.5797
B( 33-H , 34-H ) :  -0.1180

Dispersion correction           -0.043065502
FINAL SINGLE POINT ENERGY      -698.971493190111

DIPOLE MOMENT
-------------
                                X             Y             Z
Electronic contribution:     -2.20691       3.56197      16.24239
Nuclear contribution   :      0.32481      -3.64700     -16.75441
                        -----------------------------------------
Total Dipole Moment    :     -1.88210      -0.08503      -0.51202
                        -----------------------------------------
Magnitude (a.u.)       :      1.95236
Magnitude (Debye)      :      4.96250

Rotational constants in cm-1:     0.021629     0.017327     0.011372
Rotational constants in MHz :   648.414821   519.443407   340.925013

                             ****ORCA TERMINATED NORMALLY****
TOTAL RUN TIME: 0 days 0 hours 1 minutes 0 seconds 473 msec
