                         Program Version 5.0.0 -  RELEASE  -
|  1> !BLYP D3BJ RIJCOSX def2-TZVPD def2/J TightSCF
|  2> *xyz -1 1
|  3> C          4.93020       -7.37532       -2.64962
|  4> C          3.84189       -6.95161       -3.63283
|  5> H          3.45814       -5.95442       -3.40712
|  6> H          2.98848       -7.64361       -3.56708
|  7> S          4.31812       -6.91593       -5.36869
|  8> O          5.40615       -5.89948       -5.51297
|  9> O          3.11191       -6.44508       -6.04379
| 10> O          4.76340       -8.23942       -5.69863
| 11> H          5.27901       -8.35440       -2.90385
| 12> H          4.53000       -7.38577       -1.65734
| 13> H          5.74437       -6.68276       -2.69856
| 14> *
| 15>
| 16> %MaxCore 64000
| 17>
| 18> %pal nprocs 4
| 19> end
| 20>
| 21> %scf
| 22>   MaxIter 150
| 23> end
| 24>
| 25>
| 26>                          ****END OF INPUT****

CARTESIAN COORDINATES (ANGSTROEM)
---------------------------------
  C      4.930200   -7.375320   -2.649620
  C      3.841890   -6.951610   -3.632830
  H      3.458140   -5.954420   -3.407120
  H      2.988480   -7.643610   -3.567080
  S      4.318120   -6.915930   -5.368690
  O      5.406150   -5.899480   -5.512970
  O      3.111910   -6.445080   -6.043790
  O      4.763400   -8.239420   -5.698630
  H      5.279010   -8.354400   -2.903850
  H      4.530000   -7.385770   -1.657340
  H      5.744370   -6.682760   -2.698560

 Total Charge           Charge          ....   -1
 Multiplicity           Mult            ....    1
 Number of Electrons    NEL             ....   58
 Basis Dimension        Dim             ....  285

ORBITAL ENERGIES
----------------

  NO   OCC          E(Eh)            E(eV)
   0   2.0000     -88.080187     -2396.7838
   1   2.0000     -18.556885      -504.9585
   2   2.0000     -18.548278      -504.7243
   3   2.0000     -18.541428      -504.5379
   4   2.0000      -9.767044      -265.7748
   5   2.0000      -9.760266      -265.5903
   6   2.0000      -7.611017      -207.1063
   7   2.0000      -5.639545      -153.4598
   8   2.0000      -5.638833      -153.4404
   9   2.0000      -5.638481      -153.4309
  10   2.0000      -0.824377       -22.4324
  11   2.0000      -0.701908       -19.0999
  12   2.0000      -0.673955       -18.3392
  13   2.0000      -0.554253       -15.0820
  14   2.0000      -0.437391       -11.9020
  15   2.0000      -0.320289        -8.7155
  16   2.0000      -0.265081        -7.2132
  17   2.0000      -0.255605        -6.9554
  18   2.0000      -0.220785        -6.0079
  19   2.0000      -0.204443        -5.5632
  20   2.0000      -0.200143        -5.4462
  21   2.0000      -0.181538        -4.9399
  22   2.0000      -0.166908        -4.5418
  23   2.0000      -0.099066        -2.6957
  24   2.0000      -0.097140        -2.6433
  25   2.0000      -0.069257        -1.8846
  26   2.0000      -0.062594        -1.7033
  27   2.0000      -0.050832        -1.3832
  28   2.0000      -0.014394        -0.3917
  29   0.0000       0.108250         2.9456
  30   0.0000       0.133983         3.6459
  31   0.0000       0.142573         3.8796
  32   0.0000       0.151979         4.1356
  33   0.0000       0.168313         4.5800

MULLIKEN ATOMIC CHARGES
-----------------------
   0 C :   -1.234406
   1 C :   -0.334634
   2 H :    0.264230
   3 H :    0.256869
   4 S :    1.246107
   5 O :   -0.752063
   6 O :   -0.709874
   7 O :   -0.696352
   8 H :    0.308711
   9 H :    0.333135
  10 H :    0.318277
Sum of atomic charges:   -1.0000000

LOEWDIN ATOMIC CHARGES
----------------------
   0 C :   -0.142187
   1 C :   -0.334458
   2 H :    0.077829
   3 H :    0.081225
   4 S :    0.327288
   5 O :   -0.407902
   6 O :   -0.391090
   7 O :   -0.364708
   8 H :    0.054505
   9 H :    0.044086
  10 H :    0.055413

  Mayer bond orders larger than 0.100000
B(  0-C ,  1-C ) :   0.6095 B(  0-C ,  8-H ) :   0.9720 B(  0-C ,  9-H ) :   0.9136
B(  0-C , 10-H ) :   0.9672 B(  1-C ,  2-H ) :   0.9544 B(  1-C ,  3-H ) :   0.9506
B(  1-C ,  4-S ) :   0.8704 B(  1-C ,  5-O ) :   0.1260 B(  1-C ,  6-O ) :   0.1618
B(  1-C ,  7-O ) :   0.1239 B(  4-S ,  5-O ) :   1.4170 B(  4-S ,  6-O ) :   1.4408
B(  4-S ,  7-O ) :   1.4752

Dispersion correction           -0.020378313
FINAL SINGLE POINT ENERGY      -703.249476296877

DIPOLE MOMENT
-------------
                                X             Y             Z
Electronic contribution:     -0.34963       0.81695      -7.88948
Nuclear contribution   :      0.07504      -1.14369       9.75001
                        -----------------------------------------
Total Dipole Moment    :     -0.27459      -0.32675       1.86052
                        -----------------------------------------
Magnitude (a.u.)       :      1.90885
Magnitude (Debye)      :      4.85191

Rotational constants in cm-1:     0.160553     0.082191     0.080550
Rotational constants in MHz :  4813.250478  2464.013016  2414.833054

                             ****ORCA TERMINATED NORMALLY****
TOTAL RUN TIME: 0 days 0 hours 0 minutes 16 seconds 619 msec
