                         Program Version 5.0.0 -  RELEASE  -
|  1> !BLYP D3BJ RIJCOSX def2-TZVPD def2/J TightSCF
|  2> *xyz 1 1
|  3> C          5.55821       -1.99291       -6.21505
|  4> C          4.18188       -2.58967       -6.29891
|  5> N          3.14587       -1.76843       -6.48675
|  6> N          4.01910       -3.86431       -6.22743
|  7> H          4.76849       -4.59115       -5.99077
|  8> H          3.12241       -4.33339       -6.31462
|  9> H          3.28164       -0.77779       -6.56655
| 10> H          2.21255       -2.13419       -6.56225
| 11> C          6.41926       -2.54294       -5.07763
| 12> H          6.03683       -2.19819       -7.17685
| 13> H          5.46761       -0.90737       -6.12797
| 14> H          6.50056       -3.60553       -5.17358
| 15> H          5.96544       -2.30329       -4.13874
| 16> H          7.39438       -2.10494       -5.12457
| 17> *
| 18>
| 19> %MaxCore 64000
| 20>
| 21> %pal nprocs 4
| 22> end
| 23>
| 24> %scf
| 25>   MaxIter 150
| 26> end
| 27>
| 28>
| 29>                          ****END OF INPUT****

CARTESIAN COORDINATES (ANGSTROEM)
---------------------------------
  C      5.558210   -1.992910   -6.215050
  C      4.181880   -2.589670   -6.298910
  N      3.145870   -1.768430   -6.486750
  N      4.019100   -3.864310   -6.227430
  H      4.768490   -4.591150   -5.990770
  H      3.122410   -4.333390   -6.314620
  H      3.281640   -0.777790   -6.566550
  H      2.212550   -2.134190   -6.562250
  C      6.419260   -2.542940   -5.077630
  H      6.036830   -2.198190   -7.176850
  H      5.467610   -0.907370   -6.127970
  H      6.500560   -3.605530   -5.173580
  H      5.965440   -2.303290   -4.138740
  H      7.394380   -2.104940   -5.124570

 Total Charge           Charge          ....    1
 Multiplicity           Mult            ....    1
 Number of Electrons    NEL             ....   40
 Basis Dimension        Dim             ....  266

ORBITAL ENERGIES
----------------

  NO   OCC          E(Eh)            E(eV)
   0   2.0000     -14.255392      -387.9089
   1   2.0000     -14.245258      -387.6332
   2   2.0000     -10.219625      -278.0901
   3   2.0000     -10.101757      -274.8828
   4   2.0000     -10.058571      -273.7076
   5   2.0000      -1.112046       -30.2603
   6   2.0000      -1.022224       -27.8161
   7   2.0000      -0.889753       -24.2114
   8   2.0000      -0.799013       -21.7423
   9   2.0000      -0.751070       -20.4377
  10   2.0000      -0.716435       -19.4952
  11   2.0000      -0.688298       -18.7295
  12   2.0000      -0.645736       -17.5714
  13   2.0000      -0.599657       -16.3175
  14   2.0000      -0.573084       -15.5944
  15   2.0000      -0.552130       -15.0242
  16   2.0000      -0.503282       -13.6950
  17   2.0000      -0.494042       -13.4436
  18   2.0000      -0.479641       -13.0517
  19   2.0000      -0.449572       -12.2335
  20   0.0000      -0.238503        -6.4900
  21   0.0000      -0.191187        -5.2025
  22   0.0000      -0.157154        -4.2764
  23   0.0000      -0.145121        -3.9489
  24   0.0000      -0.125300        -3.4096

MULLIKEN ATOMIC CHARGES
-----------------------
   0 C :   -0.226324
   1 C :    0.601017
   2 N :   -0.247490
   3 N :   -0.213786
   4 H :    0.210577
   5 H :    0.191393
   6 H :    0.200815
   7 H :    0.166706
   8 C :   -1.275009
   9 H :    0.285114
  10 H :    0.244513
  11 H :    0.371294
  12 H :    0.356729
  13 H :    0.334450
Sum of atomic charges:    1.0000000

LOEWDIN ATOMIC CHARGES
----------------------
   0 C :   -0.140008
   1 C :   -0.369232
   2 N :    0.238990
   3 N :    0.229181
   4 H :    0.183403
   5 H :    0.145905
   6 H :    0.133817
   7 H :    0.134904
   8 C :   -0.051463
   9 H :    0.139037
  10 H :    0.123109
  11 H :    0.062244
  12 H :    0.084222
  13 H :    0.085890

  Mayer bond orders larger than 0.100000
B(  0-C ,  1-C ) :   0.7786 B(  0-C ,  8-C ) :   0.5735 B(  0-C ,  9-H ) :   0.8980
B(  0-C , 10-H ) :   0.9770 B(  1-C ,  2-N ) :   1.1715 B(  1-C ,  3-N ) :   1.2603
B(  2-N ,  3-N ) :   0.1253 B(  2-N ,  6-H ) :   0.9657 B(  2-N ,  7-H ) :   1.0320
B(  3-N ,  4-H ) :   0.9389 B(  3-N ,  5-H ) :   0.9942 B(  8-C , 11-H ) :   0.9113
B(  8-C , 12-H ) :   0.9306 B(  8-C , 13-H ) :   0.9655

Dispersion correction           -0.020444917
FINAL SINGLE POINT ENERGY      -229.030246922271

DIPOLE MOMENT
-------------
                                X             Y             Z
Electronic contribution:     -3.76898      -0.46490      -1.56265
Nuclear contribution   :      2.76041       0.12669       1.26265
                        -----------------------------------------
Total Dipole Moment    :     -1.00857      -0.33821      -0.30000
                        -----------------------------------------
Magnitude (a.u.)       :      1.10525
Magnitude (Debye)      :      2.80933

Rotational constants in cm-1:     0.280918     0.124524     0.094121
Rotational constants in MHz :  8421.697738  3733.133254  2821.684112

                             ****ORCA TERMINATED NORMALLY****
TOTAL RUN TIME: 0 days 0 hours 0 minutes 20 seconds 608 msec
