                         Program Version 5.0.0 -  RELEASE  -
|  1> !BLYP D3BJ RIJCOSX def2-TZVPD def2/J TightSCF xyzfile
|  2>
|  3> *xyzfile 0 1 B.xyz
|  4>
|  5> %MaxCore 64000
|  6>
|  7> %pal nprocs 4
|  8> end
|  9>
| 10> %scf
| 11>   MaxIter 150
| 12> end
| 13>
| 14>
| 15>                          ****END OF INPUT****

CARTESIAN COORDINATES (ANGSTROEM)
---------------------------------
  C      5.558206   -1.992914   -6.215054
  C      4.930199   -7.375319   -2.649623
  C      3.841892   -6.951611   -3.632829
  H      3.458144   -5.954425   -3.407121
  H      2.988484   -7.643606   -3.567078
  S      4.318115   -6.915930   -5.368692
  C      4.181880   -2.589671   -6.298911
  N      3.145873   -1.768431   -6.486753
  N      4.019102   -3.864307   -6.227427
  H      4.768490   -4.591153   -5.990773
  H      3.122405   -4.333392   -6.314620
  H      3.281635   -0.777786   -6.566549
  H      2.212549   -2.134193   -6.562246
  O      5.406154   -5.899480   -5.512972
  O      3.111910   -6.445079   -6.043792
  C      6.419260   -2.542944   -5.077630
  C      5.872267   -5.002756   -2.427819
  C      6.173994   -6.485522   -2.606315
  H      6.734852   -6.613767   -3.534015
  H      6.821463   -6.831018   -1.793617
  H      4.469612   -7.406168   -1.655876
  H      5.230134   -8.398678   -2.885906
  C      5.896512   -2.169314   -3.694552
  H      7.428880   -2.143665   -5.208078
  H      6.505894   -3.627541   -5.175502
  C      6.807804   -2.623428   -2.551019
  H      4.894708   -2.589732   -3.557501
  H      5.778823   -1.081255   -3.635790
  C      7.111544   -4.122463   -2.520363
  H      7.751615   -2.071393   -2.614406
  H      6.345837   -2.326401   -1.604086
  H      5.362882   -4.828697   -1.471335
  H      5.174429   -4.702577   -3.211298
  H      7.778329   -4.329347   -1.677651
  H      7.673189   -4.402845   -3.417586
  O      4.763396   -8.239424   -5.698629
  H      6.036826   -2.198189   -7.176852
  H      5.467610   -0.907371   -6.127968

 Total Charge           Charge          ....    0
 Multiplicity           Mult            ....    1
 Number of Electrons    NEL             ....  136
 Basis Dimension        Dim             ....  808

ORBITAL ENERGIES
----------------

  NO   OCC          E(Eh)            E(eV)
   0   2.0000     -88.234335     -2400.9783
   1   2.0000     -18.716237      -509.2947
   2   2.0000     -18.704983      -508.9885
   3   2.0000     -18.699895      -508.8500
   4   2.0000     -14.094102      -383.5200
   5   2.0000     -14.054625      -382.4458
   6   2.0000     -10.053517      -273.5701
   7   2.0000      -9.960463      -271.0380
   8   2.0000      -9.928183      -270.1596
   9   2.0000      -9.916884      -269.8521
  10   2.0000      -9.905577      -269.5444
  11   2.0000      -9.896567      -269.2993
  12   2.0000      -9.893533      -269.2167
  13   2.0000      -9.885839      -269.0073
  14   2.0000      -9.885215      -268.9904
  15   2.0000      -9.878044      -268.7952
  16   2.0000      -7.765891      -211.3206
  17   2.0000      -5.794777      -157.6839
  18   2.0000      -5.793574      -157.6512
  19   2.0000      -5.792921      -157.6334
  20   2.0000      -0.983339       -26.7580
  21   2.0000      -0.946592       -25.7581
  22   2.0000      -0.860472       -23.4146
  23   2.0000      -0.850669       -23.1479
  24   2.0000      -0.846300       -23.0290
  25   2.0000      -0.759475       -20.6664
  26   2.0000      -0.724936       -19.7265
  27   2.0000      -0.702598       -19.1187
  28   2.0000      -0.666686       -18.1415
  29   2.0000      -0.636328       -17.3154
  30   2.0000      -0.607560       -16.5325
  31   2.0000      -0.587406       -15.9841
  32   2.0000      -0.562560       -15.3080
  33   2.0000      -0.549031       -14.9399
  34   2.0000      -0.537270       -14.6199
  35   2.0000      -0.512712       -13.9516
  36   2.0000      -0.498782       -13.5726
  37   2.0000      -0.482464       -13.1285
  38   2.0000      -0.454218       -12.3599
  39   2.0000      -0.448516       -12.2047
  40   2.0000      -0.433448       -11.7947
  41   2.0000      -0.419258       -11.4086
  42   2.0000      -0.411804       -11.2057
  43   2.0000      -0.397931       -10.8283
  44   2.0000      -0.393553       -10.7091
  45   2.0000      -0.385984       -10.5032
  46   2.0000      -0.376991       -10.2584
  47   2.0000      -0.370462       -10.0808
  48   2.0000      -0.356601        -9.7036
  49   2.0000      -0.351474        -9.5641
  50   2.0000      -0.346595        -9.4313
  51   2.0000      -0.342900        -9.3308
  52   2.0000      -0.327567        -8.9136
  53   2.0000      -0.321500        -8.7484
  54   2.0000      -0.316130        -8.6023
  55   2.0000      -0.300982        -8.1901
  56   2.0000      -0.291499        -7.9321
  57   2.0000      -0.286034        -7.7834
  58   2.0000      -0.283100        -7.7036
  59   2.0000      -0.272754        -7.4220
  60   2.0000      -0.269405        -7.3309
  61   2.0000      -0.260696        -7.0939
  62   2.0000      -0.257141        -6.9972
  63   2.0000      -0.251377        -6.8403
  64   2.0000      -0.218817        -5.9543
  65   2.0000      -0.214651        -5.8410
  66   2.0000      -0.209579        -5.7029
  67   2.0000      -0.182982        -4.9792
  68   0.0000      -0.078939        -2.1480
  69   0.0000      -0.056173        -1.5286
  70   0.0000      -0.021716        -0.5909
  71   0.0000      -0.010260        -0.2792
  72   0.0000      -0.005240        -0.1426

MULLIKEN ATOMIC CHARGES
-----------------------
   0 C :   -0.572152
   1 C :   -0.679951
   2 C :   -0.635799
   3 H :    0.293945
   4 H :    0.375246
   5 S :    1.314630
   6 C :    0.786266
   7 N :   -0.321759
   8 N :   -0.148277
   9 H :    0.218584
  10 H :    0.173568
  11 H :    0.168345
  12 H :    0.153131
  13 O :   -0.878066
  14 O :   -0.817521
  15 C :   -0.434107
  16 C :    0.008682
  17 C :   -0.610937
  18 H :    0.237195
  19 H :    0.331351
  20 H :    0.252866
  21 H :    0.239701
  22 C :   -0.400614
  23 H :    0.263334
  24 H :    0.262861
  25 C :   -0.779583
  26 H :    0.261288
  27 H :    0.250511
  28 C :   -0.602355
  29 H :    0.285199
  30 H :    0.273941
  31 H :    0.294082
  32 H :    0.011646
  33 H :    0.290093
  34 H :    0.236503
  35 O :   -0.651847
  36 H :    0.293480
  37 H :    0.256518
Sum of atomic charges:   -0.0000000

LOEWDIN ATOMIC CHARGES
----------------------
   0 C :   -0.104954
   1 C :   -0.219751
   2 C :   -0.254049
   3 H :    0.084100
   4 H :    0.102421
   5 S :    0.430165
   6 C :   -0.378074
   7 N :    0.200818
   8 N :    0.233361
   9 H :    0.050289
  10 H :    0.110116
  11 H :    0.112209
  12 H :    0.121421
  13 O :   -0.360735
  14 O :   -0.351854
  15 C :   -0.184992
  16 C :   -0.218624
  17 C :   -0.210638
  18 H :    0.102326
  19 H :    0.111706
  20 H :    0.106758
  21 H :    0.107752
  22 C :   -0.207429
  23 H :    0.123103
  24 H :    0.097561
  25 C :   -0.201588
  26 H :    0.105043
  27 H :    0.110108
  28 C :   -0.205831
  29 H :    0.106492
  30 H :    0.107631
  31 H :    0.123119
  32 H :    0.076255
  33 H :    0.111704
  34 H :    0.108940
  35 O :   -0.291206
  36 H :    0.132968
  37 H :    0.113357

  Mayer bond orders larger than 0.100000
B(  0-C ,  6-C ) :   0.6189 B(  0-C , 15-C ) :   0.6498 B(  0-C , 22-C ) :   0.1023
B(  0-C , 36-H ) :   0.9114 B(  0-C , 37-H ) :   1.0336 B(  1-C ,  2-C ) :   0.9168
B(  1-C ,  5-S ) :   0.1497 B(  1-C , 17-C ) :   0.8675 B(  1-C , 20-H ) :   0.9558
B(  1-C , 21-H ) :   0.9534 B(  2-C ,  3-H ) :   0.9123 B(  2-C ,  4-H ) :   0.8214
B(  2-C ,  5-S ) :   0.8418 B(  2-C , 14-O ) :   0.1584 B(  2-C , 32-H ) :   0.1259
B(  2-C , 35-O ) :   0.1597 B(  5-S , 13-O ) :   1.4815 B(  5-S , 14-O ) :   1.2312
B(  5-S , 35-O ) :   1.3058 B(  6-C ,  7-N ) :   0.9797 B(  6-C ,  8-N ) :   1.0952
B(  6-C ,  9-H ) :  -0.1508 B(  6-C , 10-H ) :  -0.1042 B(  6-C , 22-C ) :   0.1284
B(  6-C , 37-H ) :  -0.1667 B(  7-N ,  8-N ) :   0.1457 B(  7-N , 11-H ) :   1.0038
B(  7-N , 12-H ) :   1.0360 B(  8-N ,  9-H ) :   0.9241 B(  8-N , 10-H ) :   1.0382
B( 13-O , 14-O ) :   0.1076 B( 15-C , 22-C ) :   0.2523 B( 15-C , 23-H ) :   0.8926
B( 15-C , 24-H ) :   1.1236 B( 15-C , 25-C ) :   0.1334 B( 15-C , 26-H ) :  -0.1282
B( 15-C , 27-H ) :  -0.1037 B( 15-C , 28-C ) :   0.1519 B( 16-C , 17-C ) :   0.3434
B( 16-C , 19-H ) :  -0.1050 B( 16-C , 22-C ) :   0.1830 B( 16-C , 25-C ) :   0.1094
B( 16-C , 28-C ) :   0.2155 B( 16-C , 31-H ) :   0.7965 B( 16-C , 32-H ) :   1.4709
B( 17-C , 18-H ) :   0.9149 B( 17-C , 19-H ) :   0.8819 B( 17-C , 28-C ) :   0.4838
B( 17-C , 31-H ) :  -0.1039 B( 22-C , 24-H ) :  -0.1048 B( 22-C , 25-C ) :   0.9136
B( 22-C , 26-H ) :   0.9902 B( 22-C , 27-H ) :   0.9080 B( 22-C , 28-C ) :  -0.1044
B( 25-C , 28-C ) :   0.8039 B( 25-C , 29-H ) :   0.9501 B( 25-C , 30-H ) :   0.9387
B( 28-C , 31-H ) :  -0.1105 B( 28-C , 32-H ) :  -0.1479 B( 28-C , 33-H ) :   0.9428
B( 28-C , 34-H ) :   0.9681 B( 31-H , 32-H ) :   0.1347

Dispersion correction           -0.092603405
FINAL SINGLE POINT ENERGY     -1127.790414080328

DIPOLE MOMENT
-------------
                                X             Y             Z
Electronic contribution:     -9.17522     -11.55215     -14.22355
Nuclear contribution   :      8.53517      16.50844      14.36520
                        -----------------------------------------
Total Dipole Moment    :     -0.64006       4.95629       0.14165
                        -----------------------------------------
Magnitude (a.u.)       :      4.99945
Magnitude (Debye)      :     12.70760

Rotational constants in cm-1:     0.017951     0.012436     0.008288
Rotational constants in MHz :   538.163255   372.824050   248.467077

                             ****ORCA TERMINATED NORMALLY****
TOTAL RUN TIME: 0 days 0 hours 2 minutes 4 seconds 859 msec
