                         Program Version 5.0.0 -  RELEASE  -
|  1> !BLYP D3BJ RIJCOSX def2-TZVPD def2/J TightSCF
|  2> *xyz 0 1
|  3> C          4.93020       -7.37532       -2.64962
|  4> C          3.84189       -6.95161       -3.63283
|  5> H          3.45814       -5.95442       -3.40712
|  6> H          2.98848       -7.64361       -3.56708
|  7> S          4.31812       -6.91593       -5.36869
|  8> F          5.40615       -5.89948       -5.51297
|  9> O          3.11191       -6.44508       -6.04379
| 10> O          4.76340       -8.23942       -5.69863
| 11> H          5.27901       -8.35440       -2.90385
| 12> H          4.53000       -7.38577       -1.65734
| 13> H          5.74437       -6.68276       -2.69856
| 14> *
| 15>
| 16> %MaxCore 64000
| 17>
| 18> %pal nprocs 4
| 19> end
| 20>
| 21> %scf
| 22>   MaxIter 150
| 23> end
| 24>
| 25>
| 26>                          ****END OF INPUT****

CARTESIAN COORDINATES (ANGSTROEM)
---------------------------------
  C      4.930200   -7.375320   -2.649620
  C      3.841890   -6.951610   -3.632830
  H      3.458140   -5.954420   -3.407120
  H      2.988480   -7.643610   -3.567080
  S      4.318120   -6.915930   -5.368690
  F      5.406150   -5.899480   -5.512970
  O      3.111910   -6.445080   -6.043790
  O      4.763400   -8.239420   -5.698630
  H      5.279010   -8.354400   -2.903850
  H      4.530000   -7.385770   -1.657340
  H      5.744370   -6.682760   -2.698560

 Total Charge           Charge          ....    0
 Multiplicity           Mult            ....    1
 Number of Electrons    NEL             ....   58
 Basis Dimension        Dim             ....  285

ORBITAL ENERGIES
----------------

  NO   OCC          E(Eh)            E(eV)
   0   2.0000     -88.334737     -2403.7104
   1   2.0000     -24.377954      -663.3579
   2   2.0000     -18.788563      -511.2628
   3   2.0000     -18.779260      -511.0096
   4   2.0000      -9.965960      -271.1876
   5   2.0000      -9.924923      -270.0709
   6   2.0000      -7.866256      -214.0517
   7   2.0000      -5.898536      -160.5073
   8   2.0000      -5.891896      -160.3267
   9   2.0000      -5.891564      -160.3176
  10   2.0000      -1.230469       -33.4828
  11   2.0000      -1.016032       -27.6476
  12   2.0000      -0.927859       -25.2483
  13   2.0000      -0.743592       -20.2342
  14   2.0000      -0.647352       -17.6154
  15   2.0000      -0.602446       -16.3934
  16   2.0000      -0.511445       -13.9171
  17   2.0000      -0.488676       -13.2976
  18   2.0000      -0.481927       -13.1139
  19   2.0000      -0.439976       -11.9724
  20   2.0000      -0.421924       -11.4811
  21   2.0000      -0.400381       -10.8949
  22   2.0000      -0.383600       -10.4383
  23   2.0000      -0.361265        -9.8305
  24   2.0000      -0.355581        -9.6759
  25   2.0000      -0.331168        -9.0115
  26   2.0000      -0.292981        -7.9724
  27   2.0000      -0.283187        -7.7059
  28   2.0000      -0.269515        -7.3339
  29   0.0000      -0.037708        -1.0261
  30   0.0000      -0.003613        -0.0983
  31   0.0000       0.006944         0.1889
  32   0.0000       0.008136         0.2214
  33   0.0000       0.018442         0.5018

MULLIKEN ATOMIC CHARGES
-----------------------
   0 C :   -1.236814
   1 C :   -0.323548
   2 H :    0.326489
   3 H :    0.304180
   4 S :    1.187504
   5 F :   -0.184504
   6 O :   -0.560556
   7 O :   -0.551329
   8 H :    0.346064
   9 H :    0.334411
  10 H :    0.358102
Sum of atomic charges:   -0.0000000

LOEWDIN ATOMIC CHARGES
----------------------
   0 C :   -0.105811
   1 C :   -0.281951
   2 H :    0.097166
   3 H :    0.111706
   4 S :    0.574767
   5 F :   -0.079651
   6 O :   -0.273516
   7 O :   -0.248836
   8 H :    0.069012
   9 H :    0.070033
  10 H :    0.067081

  Mayer bond orders larger than 0.100000
B(  0-C ,  1-C ) :   0.6202 B(  0-C ,  8-H ) :   0.9611 B(  0-C ,  9-H ) :   0.9321
B(  0-C , 10-H ) :   0.9104 B(  1-C ,  2-H ) :   0.9067 B(  1-C ,  3-H ) :   0.9148
B(  1-C ,  4-S ) :   0.8595 B(  1-C ,  6-O ) :   0.1269 B(  4-S ,  5-F ) :   0.9606
B(  4-S ,  6-O ) :   1.6426 B(  4-S ,  7-O ) :   1.6777 B(  6-O ,  7-O ) :   0.1104

Dispersion correction           -0.019399097
FINAL SINGLE POINT ENERGY      -727.791776277797

DIPOLE MOMENT
-------------
                                X             Y             Z
Electronic contribution:      1.29156       2.61085      -8.81544
Nuclear contribution   :     -0.98922      -2.24849      10.35711
                        -----------------------------------------
Total Dipole Moment    :      0.30234       0.36235       1.54167
                        -----------------------------------------
Magnitude (a.u.)       :      1.61228
Magnitude (Debye)      :      4.09810

Rotational constants in cm-1:     0.151436     0.080885     0.078670
Rotational constants in MHz :  4539.936009  2424.868817  2358.476812

                             ****ORCA TERMINATED NORMALLY****
TOTAL RUN TIME: 0 days 0 hours 0 minutes 31 seconds 252 msec
