                         Program Version 5.0.0 -  RELEASE  -
|  1> !BLYP D3BJ RIJCOSX def2-TZVPD def2/J TightSCF
|  2> *xyz 0 1
|  3> C          5.55821       -1.99291       -6.21505
|  4> C          4.18188       -2.58967       -6.29891
|  5> C          3.14587       -1.76843       -6.48675
|  6> N          4.01910       -3.86431       -6.22743
|  7> H          4.76849       -4.59115       -5.99077
|  8> H          3.12241       -4.33339       -6.31462
|  9> H          3.28164       -0.77779       -6.56655
| 10> H          2.21255       -2.13419       -6.56225
| 11> C          6.41926       -2.54294       -5.07763
| 12> H          6.03683       -2.19819       -7.17685
| 13> H          5.46761       -0.90737       -6.12797
| 14> H          6.50056       -3.60553       -5.17358
| 15> H          5.96544       -2.30329       -4.13874
| 16> H          7.39438       -2.10494       -5.12457
| 17> *
| 18>
| 19> %MaxCore 64000
| 20>
| 21> %pal nprocs 4
| 22> end
| 23>
| 24> %scf
| 25>   MaxIter 150
| 26> end
| 27>
| 28>
| 29>                          ****END OF INPUT****

CARTESIAN COORDINATES (ANGSTROEM)
---------------------------------
  C      5.558210   -1.992910   -6.215050
  C      4.181880   -2.589670   -6.298910
  C      3.145870   -1.768430   -6.486750
  N      4.019100   -3.864310   -6.227430
  H      4.768490   -4.591150   -5.990770
  H      3.122410   -4.333390   -6.314620
  H      3.281640   -0.777790   -6.566550
  H      2.212550   -2.134190   -6.562250
  C      6.419260   -2.542940   -5.077630
  H      6.036830   -2.198190   -7.176850
  H      5.467610   -0.907370   -6.127970
  H      6.500560   -3.605530   -5.173580
  H      5.965440   -2.303290   -4.138740
  H      7.394380   -2.104940   -5.124570

 Total Charge           Charge          ....    0
 Multiplicity           Mult            ....    1
 Number of Electrons    NEL             ....   40
 Basis Dimension        Dim             ....  266

ORBITAL ENERGIES
----------------

  NO   OCC          E(Eh)            E(eV)
   0   2.0000     -14.015387      -381.3781
   1   2.0000      -9.922499      -270.0049
   2   2.0000      -9.902584      -269.4630
   3   2.0000      -9.891876      -269.1716
   4   2.0000      -9.833614      -267.5862
   5   2.0000      -0.847166       -23.0525
   6   2.0000      -0.698868       -19.0172
   7   2.0000      -0.642150       -17.4738
   8   2.0000      -0.562885       -15.3169
   9   2.0000      -0.522816       -14.2265
  10   2.0000      -0.462428       -12.5833
  11   2.0000      -0.418296       -11.3824
  12   2.0000      -0.391914       -10.6645
  13   2.0000      -0.372480       -10.1357
  14   2.0000      -0.343981        -9.3602
  15   2.0000      -0.333726        -9.0812
  16   2.0000      -0.313288        -8.5250
  17   2.0000      -0.289330        -7.8731
  18   2.0000      -0.283978        -7.7274
  19   2.0000      -0.151170        -4.1136
  20   0.0000      -0.020278        -0.5518
  21   0.0000       0.007130         0.1940
  22   0.0000       0.015458         0.4206
  23   0.0000       0.021555         0.5865
  24   0.0000       0.037118         1.0100

MULLIKEN ATOMIC CHARGES
-----------------------
   0 C :   -0.184888
   1 C :    0.756853
   2 C :   -1.325007
   3 N :   -0.275367
   4 H :    0.135602
   5 H :    0.138438
   6 H :    0.317919
   7 H :    0.304341
   8 C :   -1.227676
   9 H :    0.223277
  10 H :    0.172958
  11 H :    0.312052
  12 H :    0.328231
  13 H :    0.323267
Sum of atomic charges:    0.0000000

LOEWDIN ATOMIC CHARGES
----------------------
   0 C :   -0.193785
   1 C :   -0.506594
   2 C :    0.030575
   3 N :    0.103950
   4 H :    0.134797
   5 H :    0.110058
   6 H :    0.005817
   7 H :    0.009064
   8 C :   -0.091594
   9 H :    0.112129
  10 H :    0.107326
  11 H :    0.046733
  12 H :    0.069688
  13 H :    0.061836

  Mayer bond orders larger than 0.100000
B(  0-C ,  1-C ) :   0.7724 B(  0-C ,  8-C ) :   0.5299 B(  0-C ,  9-H ) :   0.9108
B(  0-C , 10-H ) :   0.9993 B(  1-C ,  2-C ) :   1.0287 B(  1-C ,  3-N ) :   1.0533
B(  1-C ,  7-H ) :  -0.1170 B(  2-C ,  3-N ) :   0.1082 B(  2-C ,  6-H ) :   0.9054
B(  2-C ,  7-H ) :   1.0606 B(  3-N ,  4-H ) :   1.0101 B(  3-N ,  5-H ) :   1.0139
B(  8-C , 11-H ) :   0.9567 B(  8-C , 12-H ) :   0.9676 B(  8-C , 13-H ) :   0.9635

Dispersion correction           -0.021294382
FINAL SINGLE POINT ENERGY      -212.545210235818

DIPOLE MOMENT
-------------
                                X             Y             Z
Electronic contribution:     -2.04879      -1.05202      -1.03049
Nuclear contribution   :      2.41345       0.31141       1.16343
                        -----------------------------------------
Total Dipole Moment    :      0.36466      -0.74061       0.13294
                        -----------------------------------------
Magnitude (a.u.)       :      0.83616
Magnitude (Debye)      :      2.12534

Rotational constants in cm-1:     0.287957     0.129204     0.097498
Rotational constants in MHz :  8632.737925  3873.424745  2922.919500

                             ****ORCA TERMINATED NORMALLY****
TOTAL RUN TIME: 0 days 0 hours 0 minutes 26 seconds 444 msec
