                         Program Version 5.0.0 -  RELEASE  -
|  1> !BLYP D3BJ RIJCOSX def2-TZVPD def2/J TightSCF
|  2> *xyz 0 1
|  3> C          4.93020       -7.37532       -2.64962
|  4> C          3.84189       -6.95161       -3.63283
|  5> H          3.45814       -5.95442       -3.40712
|  6> H          2.98848       -7.64361       -3.56708
|  7> S          4.31812       -6.91593       -5.36869
|  8> O          5.40615       -5.89948       -5.51297
|  9> F          3.11191       -6.44508       -6.04379
| 10> O          4.76340       -8.23942       -5.69863
| 11> H          5.27901       -8.35440       -2.90385
| 12> H          4.53000       -7.38577       -1.65734
| 13> H          5.74437       -6.68276       -2.69856
| 14> *
| 15>
| 16> %MaxCore 64000
| 17>
| 18> %pal nprocs 4
| 19> end
| 20>
| 21> %scf
| 22>   MaxIter 150
| 23> end
| 24>
| 25>
| 26>                          ****END OF INPUT****

CARTESIAN COORDINATES (ANGSTROEM)
---------------------------------
  C      4.930200   -7.375320   -2.649620
  C      3.841890   -6.951610   -3.632830
  H      3.458140   -5.954420   -3.407120
  H      2.988480   -7.643610   -3.567080
  S      4.318120   -6.915930   -5.368690
  O      5.406150   -5.899480   -5.512970
  F      3.111910   -6.445080   -6.043790
  O      4.763400   -8.239420   -5.698630
  H      5.279010   -8.354400   -2.903850
  H      4.530000   -7.385770   -1.657340
  H      5.744370   -6.682760   -2.698560

 Total Charge           Charge          ....    0
 Multiplicity           Mult            ....    1
 Number of Electrons    NEL             ....   58
 Basis Dimension        Dim             ....  285

ORBITAL ENERGIES
----------------

  NO   OCC          E(Eh)            E(eV)
   0   2.0000     -88.336773     -2403.7658
   1   2.0000     -24.392197      -663.7454
   2   2.0000     -18.787865      -511.2438
   3   2.0000     -18.772085      -510.8144
   4   2.0000      -9.966970      -271.2150
   5   2.0000      -9.923956      -270.0446
   6   2.0000      -7.868167      -214.1037
   7   2.0000      -5.900354      -160.5568
   8   2.0000      -5.893760      -160.3774
   9   2.0000      -5.893557      -160.3718
  10   2.0000      -1.256400       -34.1884
  11   2.0000      -1.009826       -27.4788
  12   2.0000      -0.910241       -24.7689
  13   2.0000      -0.743557       -20.2332
  14   2.0000      -0.660195       -17.9648
  15   2.0000      -0.602870       -16.4049
  16   2.0000      -0.514371       -13.9967
  17   2.0000      -0.507014       -13.7966
  18   2.0000      -0.491306       -13.3691
  19   2.0000      -0.441072       -12.0022
  20   2.0000      -0.425340       -11.5741
  21   2.0000      -0.388816       -10.5802
  22   2.0000      -0.381907       -10.3922
  23   2.0000      -0.363863        -9.9012
  24   2.0000      -0.344756        -9.3813
  25   2.0000      -0.333959        -9.0875
  26   2.0000      -0.290623        -7.9082
  27   2.0000      -0.275034        -7.4841
  28   2.0000      -0.256339        -6.9753
  29   0.0000      -0.029135        -0.7928
  30   0.0000      -0.014014        -0.3813
  31   0.0000       0.007257         0.1975
  32   0.0000       0.013067         0.3556
  33   0.0000       0.025063         0.6820

MULLIKEN ATOMIC CHARGES
-----------------------
   0 C :   -1.245072
   1 C :   -0.343789
   2 H :    0.326531
   3 H :    0.319938
   4 S :    1.183810
   5 O :   -0.594002
   6 F :   -0.136733
   7 O :   -0.547532
   8 H :    0.350241
   9 H :    0.332988
  10 H :    0.353621
Sum of atomic charges:    0.0000000

LOEWDIN ATOMIC CHARGES
----------------------
   0 C :   -0.094274
   1 C :   -0.290294
   2 H :    0.096024
   3 H :    0.100362
   4 S :    0.573437
   5 O :   -0.290094
   6 F :   -0.060281
   7 O :   -0.251295
   8 H :    0.071603
   9 H :    0.072096
  10 H :    0.072716

  Mayer bond orders larger than 0.100000
B(  0-C ,  1-C ) :   0.6842 B(  0-C ,  8-H ) :   0.9305 B(  0-C ,  9-H ) :   0.9203
B(  0-C , 10-H ) :   0.9310 B(  1-C ,  2-H ) :   0.8867 B(  1-C ,  3-H ) :   0.8856
B(  1-C ,  4-S ) :   0.8565 B(  1-C ,  5-O ) :   0.1017 B(  1-C ,  7-O ) :   0.1020
B(  4-S ,  5-O ) :   1.6130 B(  4-S ,  6-F ) :   0.9919 B(  4-S ,  7-O ) :   1.6772
B(  5-O ,  7-O ) :   0.1224

Dispersion correction           -0.019472208
FINAL SINGLE POINT ENERGY      -727.781078717541

DIPOLE MOMENT
-------------
                                X             Y             Z
Electronic contribution:     -2.53004       1.69560      -9.70784
Nuclear contribution   :      1.40145      -1.67996      10.91024
                        -----------------------------------------
Total Dipole Moment    :     -1.12859       0.01564       1.20240
                        -----------------------------------------
Magnitude (a.u.)       :      1.64916
Magnitude (Debye)      :      4.19182

Rotational constants in cm-1:     0.155875     0.079864     0.077188
Rotational constants in MHz :  4673.017506  2394.277415  2314.027118

                             ****ORCA TERMINATED NORMALLY****
TOTAL RUN TIME: 0 days 0 hours 0 minutes 25 seconds 330 msec
