                         Program Version 5.0.0 -  RELEASE  -
|  1> !BLYP D3BJ RIJCOSX def2-TZVPD def2/J TightSCF
|  2> *xyz 0 1
|  3> C          5.55821       -1.99291       -6.21505
|  4> C          4.18188       -2.58967       -6.29891
|  5> N          3.14587       -1.76843       -6.48675
|  6> C          4.01910       -3.86431       -6.22743
|  7> H          4.76849       -4.59115       -5.99077
|  8> H          3.12241       -4.33339       -6.31462
|  9> H          3.28164       -0.77779       -6.56655
| 10> H          2.21255       -2.13419       -6.56225
| 11> C          6.41926       -2.54294       -5.07763
| 12> H          6.03683       -2.19819       -7.17685
| 13> H          5.46761       -0.90737       -6.12797
| 14> H          6.50056       -3.60553       -5.17358
| 15> H          5.96544       -2.30329       -4.13874
| 16> H          7.39438       -2.10494       -5.12457
| 17> *
| 18>
| 19> %MaxCore 64000
| 20>
| 21> %pal nprocs 4
| 22> end
| 23>
| 24> %scf
| 25>   MaxIter 150
| 26> end
| 27>
| 28>
| 29>                          ****END OF INPUT****

CARTESIAN COORDINATES (ANGSTROEM)
---------------------------------
  C      5.558210   -1.992910   -6.215050
  C      4.181880   -2.589670   -6.298910
  N      3.145870   -1.768430   -6.486750
  C      4.019100   -3.864310   -6.227430
  H      4.768490   -4.591150   -5.990770
  H      3.122410   -4.333390   -6.314620
  H      3.281640   -0.777790   -6.566550
  H      2.212550   -2.134190   -6.562250
  C      6.419260   -2.542940   -5.077630
  H      6.036830   -2.198190   -7.176850
  H      5.467610   -0.907370   -6.127970
  H      6.500560   -3.605530   -5.173580
  H      5.965440   -2.303290   -4.138740
  H      7.394380   -2.104940   -5.124570

 Total Charge           Charge          ....    0
 Multiplicity           Mult            ....    1
 Number of Electrons    NEL             ....   40
 Basis Dimension        Dim             ....  266

ORBITAL ENERGIES
----------------

  NO   OCC          E(Eh)            E(eV)
   0   2.0000     -14.005337      -381.1046
   1   2.0000      -9.920229      -269.9431
   2   2.0000      -9.903752      -269.4948
   3   2.0000      -9.885987      -269.0114
   4   2.0000      -9.839661      -267.7508
   5   2.0000      -0.837485       -22.7891
   6   2.0000      -0.701974       -19.1017
   7   2.0000      -0.638448       -17.3731
   8   2.0000      -0.572485       -15.5781
   9   2.0000      -0.498819       -13.5736
  10   2.0000      -0.468353       -12.7445
  11   2.0000      -0.431117       -11.7313
  12   2.0000      -0.395431       -10.7602
  13   2.0000      -0.368582       -10.0296
  14   2.0000      -0.336399        -9.1539
  15   2.0000      -0.325076        -8.8458
  16   2.0000      -0.305985        -8.3263
  17   2.0000      -0.292043        -7.9469
  18   2.0000      -0.280022        -7.6198
  19   2.0000      -0.157564        -4.2875
  20   0.0000      -0.012657        -0.3444
  21   0.0000       0.006015         0.1637
  22   0.0000       0.018535         0.5044
  23   0.0000       0.021762         0.5922
  24   0.0000       0.040551         1.1034

MULLIKEN ATOMIC CHARGES
-----------------------
   0 C :   -0.210592
   1 C :    0.805930
   2 N :   -0.301558
   3 C :   -1.263510
   4 H :    0.209052
   5 H :    0.305286
   6 H :    0.143189
   7 H :    0.121699
   8 C :   -1.148304
   9 H :    0.220748
  10 H :    0.200513
  11 H :    0.281030
  12 H :    0.319894
  13 H :    0.316623
Sum of atomic charges:   -0.0000000

LOEWDIN ATOMIC CHARGES
----------------------
   0 C :   -0.194276
   1 C :   -0.490013
   2 N :    0.116214
   3 C :    0.005677
   4 H :    0.048816
   5 H :    0.018711
   6 H :    0.087144
   7 H :    0.099644
   8 C :   -0.089056
   9 H :    0.114181
  10 H :    0.099189
  11 H :    0.053167
  12 H :    0.070150
  13 H :    0.060454

  Mayer bond orders larger than 0.100000
B(  0-C ,  1-C ) :   0.6065 B(  0-C ,  8-C ) :   0.5610 B(  0-C ,  9-H ) :   0.9208
B(  0-C , 10-H ) :   1.0590 B(  1-C ,  2-N ) :   0.9761 B(  1-C ,  3-C ) :   1.1361
B(  1-C ,  5-H ) :  -0.1197 B(  1-C , 10-H ) :  -0.1427 B(  2-N ,  3-C ) :   0.1205
B(  2-N ,  6-H ) :   1.0408 B(  2-N ,  7-H ) :   1.0498 B(  3-C ,  4-H ) :   0.9994
B(  3-C ,  5-H ) :   1.0554 B(  8-C , 11-H ) :   0.9908 B(  8-C , 12-H ) :   0.9562
B(  8-C , 13-H ) :   0.9565

Dispersion correction           -0.021387757
FINAL SINGLE POINT ENERGY      -212.554049621558

DIPOLE MOMENT
-------------
                                X             Y             Z
Electronic contribution:     -2.81031       0.80098      -1.28623
Nuclear contribution   :      2.61570      -0.17401       1.22349
                        -----------------------------------------
Total Dipole Moment    :     -0.19461       0.62697      -0.06273
                        -----------------------------------------
Magnitude (a.u.)       :      0.65947
Magnitude (Debye)      :      1.67624

Rotational constants in cm-1:     0.298189     0.125314     0.096441
Rotational constants in MHz :  8939.495008  3756.825352  2891.223400

                             ****ORCA TERMINATED NORMALLY****
TOTAL RUN TIME: 0 days 0 hours 0 minutes 25 seconds 545 msec
