                         Program Version 5.0.0 -  RELEASE  -
|  1> !BLYP D3BJ RIJCOSX def2-TZVPD def2/J TightSCF
|  2> *xyz 0 1
|  3> C          4.93020       -7.37532       -2.64962
|  4> C          3.84189       -6.95161       -3.63283
|  5> H          3.45814       -5.95442       -3.40712
|  6> H          2.98848       -7.64361       -3.56708
|  7> S          4.31812       -6.91593       -5.36869
|  8> O          5.40615       -5.89948       -5.51297
|  9> O          3.11191       -6.44508       -6.04379
| 10> F          4.76340       -8.23942       -5.69863
| 11> H          5.27901       -8.35440       -2.90385
| 12> H          4.53000       -7.38577       -1.65734
| 13> H          5.74437       -6.68276       -2.69856
| 14> *
| 15>
| 16> %MaxCore 64000
| 17>
| 18> %pal nprocs 4
| 19> end
| 20>
| 21> %scf
| 22>   MaxIter 150
| 23> end
| 24>
| 25>
| 26>                          ****END OF INPUT****

CARTESIAN COORDINATES (ANGSTROEM)
---------------------------------
  C      4.930200   -7.375320   -2.649620
  C      3.841890   -6.951610   -3.632830
  H      3.458140   -5.954420   -3.407120
  H      2.988480   -7.643610   -3.567080
  S      4.318120   -6.915930   -5.368690
  O      5.406150   -5.899480   -5.512970
  O      3.111910   -6.445080   -6.043790
  F      4.763400   -8.239420   -5.698630
  H      5.279010   -8.354400   -2.903850
  H      4.530000   -7.385770   -1.657340
  H      5.744370   -6.682760   -2.698560

 Total Charge           Charge          ....    0
 Multiplicity           Mult            ....    1
 Number of Electrons    NEL             ....   58
 Basis Dimension        Dim             ....  285

ORBITAL ENERGIES
----------------

  NO   OCC          E(Eh)            E(eV)
   0   2.0000     -88.338472     -2403.8120
   1   2.0000     -24.405684      -664.1124
   2   2.0000     -18.779628      -511.0197
   3   2.0000     -18.773154      -510.8435
   4   2.0000      -9.967121      -271.2192
   5   2.0000      -9.925935      -270.0984
   6   2.0000      -7.869772      -214.1474
   7   2.0000      -5.902114      -160.6047
   8   2.0000      -5.895265      -160.4183
   9   2.0000      -5.895054      -160.4126
  10   2.0000      -1.278123       -34.7795
  11   2.0000      -0.998948       -27.1828
  12   2.0000      -0.903346       -24.5813
  13   2.0000      -0.745948       -20.2983
  14   2.0000      -0.664291       -18.0763
  15   2.0000      -0.612013       -16.6537
  16   2.0000      -0.532961       -14.5026
  17   2.0000      -0.521231       -14.1834
  18   2.0000      -0.488192       -13.2844
  19   2.0000      -0.440818       -11.9953
  20   2.0000      -0.422314       -11.4917
  21   2.0000      -0.397222       -10.8090
  22   2.0000      -0.380222       -10.3464
  23   2.0000      -0.361806        -9.8452
  24   2.0000      -0.351393        -9.5619
  25   2.0000      -0.324137        -8.8202
  26   2.0000      -0.282553        -7.6887
  27   2.0000      -0.273800        -7.4505
  28   2.0000      -0.251029        -6.8308
  29   0.0000      -0.036623        -0.9966
  30   0.0000      -0.006006        -0.1634
  31   0.0000       0.007183         0.1955
  32   0.0000       0.008051         0.2191
  33   0.0000       0.021908         0.5962

MULLIKEN ATOMIC CHARGES
-----------------------
   0 C :   -1.239820
   1 C :   -0.320963
   2 H :    0.307178
   3 H :    0.320409
   4 S :    1.162627
   5 O :   -0.589370
   6 O :   -0.551685
   7 F :   -0.130400
   8 H :    0.355824
   9 H :    0.334916
  10 H :    0.351282
Sum of atomic charges:    0.0000000

LOEWDIN ATOMIC CHARGES
----------------------
   0 C :   -0.106153
   1 C :   -0.283031
   2 H :    0.107350
   3 H :    0.101326
   4 S :    0.570901
   5 O :   -0.287378
   6 O :   -0.273213
   7 F :   -0.035939
   8 H :    0.065712
   9 H :    0.070199
  10 H :    0.070227

  Mayer bond orders larger than 0.100000
B(  0-C ,  1-C ) :   0.6131 B(  0-C ,  8-H ) :   0.9080 B(  0-C ,  9-H ) :   0.9329
B(  0-C , 10-H ) :   0.9624 B(  1-C ,  2-H ) :   0.9194 B(  1-C ,  3-H ) :   0.9055
B(  1-C ,  4-S ) :   0.8659 B(  1-C ,  6-O ) :   0.1271 B(  4-S ,  5-O ) :   1.6271
B(  4-S ,  6-O ) :   1.6545 B(  4-S ,  7-F ) :   1.0250 B(  5-O ,  6-O ) :   0.1123

Dispersion correction           -0.019379489
FINAL SINGLE POINT ENERGY      -727.769848874835

DIPOLE MOMENT
-------------
                                X             Y             Z
Electronic contribution:      0.21197      -1.26918      -9.12865
Nuclear contribution   :     -0.31946       0.18980      10.55057
                        -----------------------------------------
Total Dipole Moment    :     -0.10748      -1.07938       1.42192
                        -----------------------------------------
Magnitude (a.u.)       :      1.78843
Magnitude (Debye)      :      4.54582

Rotational constants in cm-1:     0.151421     0.081183     0.078684
Rotational constants in MHz :  4539.489207  2433.790160  2358.892966

                             ****ORCA TERMINATED NORMALLY****
TOTAL RUN TIME: 0 days 0 hours 0 minutes 32 seconds 303 msec
