                         Program Version 5.0.0 -  RELEASE  -
|  1> !BLYP D3BJ RIJCOSX def2-TZVPD def2/J TightSCF xyzfile
|  2>
|  3> *xyzfile 0 1 D1.xyz
|  4>
|  5> %MaxCore 64000
|  6>
|  7> %pal nprocs 4
|  8> end
|  9>
| 10> %scf
| 11>   MaxIter 150
| 12> end
| 13>
| 14>
| 15>                          ****END OF INPUT****

CARTESIAN COORDINATES (ANGSTROEM)
---------------------------------
  C      5.558206   -1.992914   -6.215054
  C      4.930199   -7.375319   -2.649623
  C      3.841892   -6.951611   -3.632829
  H      3.458144   -5.954425   -3.407121
  H      2.988484   -7.643606   -3.567078
  S      4.318115   -6.915930   -5.368692
  C      4.181880   -2.589671   -6.298911
  C      3.145873   -1.768431   -6.486753
  N      4.019102   -3.864307   -6.227427
  H      4.768490   -4.591153   -5.990773
  H      3.122405   -4.333392   -6.314620
  H      3.281635   -0.777786   -6.566549
  H      2.212549   -2.134193   -6.562246
  F      5.406154   -5.899480   -5.512972
  O      3.111910   -6.445079   -6.043792
  C      6.419260   -2.542944   -5.077630
  C      5.872267   -5.002756   -2.427819
  C      6.173994   -6.485522   -2.606315
  H      6.734852   -6.613767   -3.534015
  H      6.821463   -6.831018   -1.793617
  H      4.469612   -7.406168   -1.655876
  H      5.230134   -8.398678   -2.885906
  C      5.896512   -2.169314   -3.694552
  H      7.428880   -2.143665   -5.208078
  H      6.505894   -3.627541   -5.175502
  C      6.807804   -2.623428   -2.551019
  H      4.894708   -2.589732   -3.557501
  H      5.778823   -1.081255   -3.635790
  C      7.111544   -4.122463   -2.520363
  H      7.751615   -2.071393   -2.614406
  H      6.345837   -2.326401   -1.604086
  H      5.362882   -4.828697   -1.471335
  H      5.174429   -4.702577   -3.211298
  H      7.778329   -4.329347   -1.677651
  H      7.673189   -4.402845   -3.417586
  O      4.763396   -8.239424   -5.698629
  H      6.036826   -2.198189   -7.176852
  H      5.467610   -0.907371   -6.127968

 Total Charge           Charge          ....    0
 Multiplicity           Mult            ....    1
 Number of Electrons    NEL             ....  136
 Basis Dimension        Dim             ....  808

ORBITAL ENERGIES
----------------

  NO   OCC          E(Eh)            E(eV)
   0   2.0000     -88.351811     -2404.1750
   1   2.0000     -24.406455      -664.1334
   2   2.0000     -18.804830      -511.7054
   3   2.0000     -18.797299      -511.5005
   4   2.0000     -13.989557      -380.6752
   5   2.0000      -9.973459      -271.3916
   6   2.0000      -9.938731      -270.4466
   7   2.0000      -9.923122      -270.0219
   8   2.0000      -9.914413      -269.7849
   9   2.0000      -9.910404      -269.6758
  10   2.0000      -9.907655      -269.6010
  11   2.0000      -9.902489      -269.4604
  12   2.0000      -9.901159      -269.4242
  13   2.0000      -9.897465      -269.3237
  14   2.0000      -9.895897      -269.2811
  15   2.0000      -9.823318      -267.3061
  16   2.0000      -7.884042      -214.5357
  17   2.0000      -5.916690      -161.0013
  18   2.0000      -5.909261      -160.7992
  19   2.0000      -5.909150      -160.7961
  20   2.0000      -1.265248       -34.4291
  21   2.0000      -1.034923       -28.1617
  22   2.0000      -0.946902       -25.7665
  23   2.0000      -0.832202       -22.6454
  24   2.0000      -0.769678       -20.9440
  25   2.0000      -0.738378       -20.0923
  26   2.0000      -0.712915       -19.3994
  27   2.0000      -0.683823       -18.6078
  28   2.0000      -0.667559       -18.1652
  29   2.0000      -0.639209       -17.3938
  30   2.0000      -0.625218       -17.0131
  31   2.0000      -0.589842       -16.0504
  32   2.0000      -0.557866       -15.1803
  33   2.0000      -0.547416       -14.8959
  34   2.0000      -0.543200       -14.7812
  35   2.0000      -0.519995       -14.1498
  36   2.0000      -0.509945       -13.8763
  37   2.0000      -0.498913       -13.5761
  38   2.0000      -0.496296       -13.5049
  39   2.0000      -0.454045       -12.3552
  40   2.0000      -0.446752       -12.1567
  41   2.0000      -0.435866       -11.8605
  42   2.0000      -0.430689       -11.7196
  43   2.0000      -0.421136       -11.4597
  44   2.0000      -0.411748       -11.2042
  45   2.0000      -0.408753       -11.1227
  46   2.0000      -0.399221       -10.8634
  47   2.0000      -0.384734       -10.4691
  48   2.0000      -0.381486       -10.3808
  49   2.0000      -0.372022       -10.1232
  50   2.0000      -0.361540        -9.8380
  51   2.0000      -0.358828        -9.7642
  52   2.0000      -0.346066        -9.4169
  53   2.0000      -0.332483        -9.0473
  54   2.0000      -0.326897        -8.8953
  55   2.0000      -0.323924        -8.8144
  56   2.0000      -0.321916        -8.7598
  57   2.0000      -0.311870        -8.4864
  58   2.0000      -0.306657        -8.3446
  59   2.0000      -0.300862        -8.1869
  60   2.0000      -0.295638        -8.0447
  61   2.0000      -0.291991        -7.9455
  62   2.0000      -0.289909        -7.8888
  63   2.0000      -0.284683        -7.7466
  64   2.0000      -0.277860        -7.5609
  65   2.0000      -0.270438        -7.3590
  66   2.0000      -0.265543        -7.2258
  67   2.0000      -0.140220        -3.8156
  68   0.0000      -0.046126        -1.2552
  69   0.0000      -0.018026        -0.4905
  70   0.0000      -0.012759        -0.3472
  71   0.0000      -0.007853        -0.2137
  72   0.0000      -0.002395        -0.0652

MULLIKEN ATOMIC CHARGES
-----------------------
   0 C :   -0.565349
   1 C :   -0.615793
   2 C :   -0.667632
   3 H :    0.361971
   4 H :    0.423423
   5 S :    1.249491
   6 C :    0.924621
   7 C :   -1.479231
   8 N :   -0.303001
   9 H :    0.312889
  10 H :    0.088147
  11 H :    0.338152
  12 H :    0.346034
  13 F :   -0.306060
  14 O :   -0.664384
  15 C :   -0.323047
  16 C :   -0.055219
  17 C :   -0.583998
  18 H :    0.172444
  19 H :    0.326339
  20 H :    0.279457
  21 H :    0.239303
  22 C :   -0.264541
  23 H :    0.258160
  24 H :    0.053234
  25 C :   -0.769300
  26 H :    0.192311
  27 H :    0.270161
  28 C :   -0.580421
  29 H :    0.290906
  30 H :    0.272346
  31 H :    0.298161
  32 H :    0.034988
  33 H :    0.288863
  34 H :    0.249287
  35 O :   -0.552185
  36 H :    0.252319
  37 H :    0.207152
Sum of atomic charges:    0.0000000

LOEWDIN ATOMIC CHARGES
----------------------
   0 C :   -0.140782
   1 C :   -0.213949
   2 C :   -0.219425
   3 H :    0.100814
   4 H :    0.120026
   5 S :    0.607389
   6 C :   -0.489047
   7 C :    0.033622
   8 N :    0.120428
   9 H :    0.063445
  10 H :    0.091986
  11 H :    0.004094
  12 H :    0.010621
  13 F :   -0.105364
  14 O :   -0.258647
  15 C :   -0.201895
  16 C :   -0.215560
  17 C :   -0.207216
  18 H :    0.102485
  19 H :    0.118803
  20 H :    0.118074
  21 H :    0.110816
  22 C :   -0.203696
  23 H :    0.115662
  24 H :    0.083602
  25 C :   -0.203362
  26 H :    0.105646
  27 H :    0.115829
  28 C :   -0.208178
  29 H :    0.107178
  30 H :    0.106723
  31 H :    0.128337
  32 H :    0.078262
  33 H :    0.111948
  34 H :    0.105519
  35 O :   -0.222915
  36 H :    0.116547
  37 H :    0.112180

  Mayer bond orders larger than 0.100000
B(  0-C ,  6-C ) :   0.5921 B(  0-C , 15-C ) :   0.7460 B(  0-C , 36-H ) :   0.9228
B(  0-C , 37-H ) :   0.9883 B(  1-C ,  2-C ) :   0.8976 B(  1-C ,  5-S ) :   0.1369
B(  1-C , 17-C ) :   0.8606 B(  1-C , 20-H ) :   0.9297 B(  1-C , 21-H ) :   0.9838
B(  2-C ,  3-H ) :   0.9016 B(  2-C ,  4-H ) :   0.7713 B(  2-C ,  5-S ) :   0.8412
B(  2-C , 14-O ) :   0.1381 B(  2-C , 32-H ) :   0.1000 B(  2-C , 35-O ) :   0.1074
B(  5-S , 13-F ) :   1.1326 B(  5-S , 14-O ) :   1.4974 B(  5-S , 35-O ) :   1.4147
B(  6-C ,  7-C ) :   0.9889 B(  6-C ,  8-N ) :   0.8070 B(  6-C ,  9-H ) :  -0.1149
B(  6-C , 10-H ) :  -0.1105 B(  6-C , 12-H ) :  -0.1040 B(  6-C , 22-C ) :   0.1414
B(  7-C ,  8-N ) :   0.1355 B(  7-C , 11-H ) :   0.9941 B(  7-C , 12-H ) :   0.9852
B(  8-N ,  9-H ) :   0.9605 B(  8-N , 10-H ) :   1.0445 B(  8-N , 15-C ) :   0.1120
B( 15-C , 22-C ) :   0.3642 B( 15-C , 23-H ) :   0.8972 B( 15-C , 24-H ) :   1.2109
B( 15-C , 25-C ) :   0.1424 B( 15-C , 26-H ) :  -0.1040 B( 15-C , 28-C ) :   0.1448
B( 16-C , 17-C ) :   0.2168 B( 16-C , 18-H ) :  -0.1199 B( 16-C , 22-C ) :   0.1157
B( 16-C , 25-C ) :   0.1571 B( 16-C , 28-C ) :   0.2450 B( 16-C , 31-H ) :   0.8074
B( 16-C , 32-H ) :   1.4326 B( 17-C , 18-H ) :   1.0118 B( 17-C , 19-H ) :   0.8806
B( 17-C , 28-C ) :   0.4431 B( 17-C , 31-H ) :  -0.1049 B( 22-C , 24-H ) :  -0.1364
B( 22-C , 25-C ) :   0.8581 B( 22-C , 26-H ) :   1.0185 B( 22-C , 27-H ) :   0.8797
B( 25-C , 28-C ) :   0.8490 B( 25-C , 29-H ) :   0.9483 B( 25-C , 30-H ) :   0.9450
B( 28-C , 31-H ) :  -0.1086 B( 28-C , 32-H ) :  -0.1159 B( 28-C , 33-H ) :   0.9358
B( 28-C , 34-H ) :   0.9508 B( 31-H , 32-H ) :   0.1470

Dispersion correction           -0.091615588
FINAL SINGLE POINT ENERGY     -1135.664173241697

DIPOLE MOMENT
-------------
                                X             Y             Z
Electronic contribution:     -7.03328     -18.80696     -13.27586
Nuclear contribution   :      7.78491      18.17172      15.09294
                        -----------------------------------------
Total Dipole Moment    :      0.75163      -0.63524       1.81708
                        -----------------------------------------
Magnitude (a.u.)       :      2.06646
Magnitude (Debye)      :      5.25251

Rotational constants in cm-1:     0.018190     0.012573     0.008405
Rotational constants in MHz :   545.327178   376.916509   251.974803

                             ****ORCA TERMINATED NORMALLY****
TOTAL RUN TIME: 0 days 0 hours 2 minutes 16 seconds 671 msec
