                         Program Version 5.0.0 -  RELEASE  -
|  1> !BLYP D3BJ RIJCOSX def2-TZVPD def2/J TightSCF xyzfile
|  2>
|  3> *xyzfile 0 1 D2.xyz
|  4>
|  5> %MaxCore 64000
|  6>
|  7> %pal nprocs 4
|  8> end
|  9>
| 10> %scf
| 11>   MaxIter 150
| 12> end
| 13>
| 14>
| 15>                          ****END OF INPUT****

CARTESIAN COORDINATES (ANGSTROEM)
---------------------------------
  C      5.558206   -1.992914   -6.215054
  C      4.930199   -7.375319   -2.649623
  C      3.841892   -6.951611   -3.632829
  H      3.458144   -5.954425   -3.407121
  H      2.988484   -7.643606   -3.567078
  S      4.318115   -6.915930   -5.368692
  C      4.181880   -2.589671   -6.298911
  N      3.145873   -1.768431   -6.486753
  C      4.019102   -3.864307   -6.227427
  H      4.768490   -4.591153   -5.990773
  H      3.122405   -4.333392   -6.314620
  H      3.281635   -0.777786   -6.566549
  H      2.212549   -2.134193   -6.562246
  F      5.406154   -5.899480   -5.512972
  O      3.111910   -6.445079   -6.043792
  C      6.419260   -2.542944   -5.077630
  C      5.872267   -5.002756   -2.427819
  C      6.173994   -6.485522   -2.606315
  H      6.734852   -6.613767   -3.534015
  H      6.821463   -6.831018   -1.793617
  H      4.469612   -7.406168   -1.655876
  H      5.230134   -8.398678   -2.885906
  C      5.896512   -2.169314   -3.694552
  H      7.428880   -2.143665   -5.208078
  H      6.505894   -3.627541   -5.175502
  C      6.807804   -2.623428   -2.551019
  H      4.894708   -2.589732   -3.557501
  H      5.778823   -1.081255   -3.635790
  C      7.111544   -4.122463   -2.520363
  H      7.751615   -2.071393   -2.614406
  H      6.345837   -2.326401   -1.604086
  H      5.362882   -4.828697   -1.471335
  H      5.174429   -4.702577   -3.211298
  H      7.778329   -4.329347   -1.677651
  H      7.673189   -4.402845   -3.417586
  O      4.763396   -8.239424   -5.698629
  H      6.036826   -2.198189   -7.176852
  H      5.467610   -0.907371   -6.127968

 Total Charge           Charge          ....    0
 Multiplicity           Mult            ....    1
 Number of Electrons    NEL             ....  136
 Basis Dimension        Dim             ....  808

ORBITAL ENERGIES
----------------

  NO   OCC          E(Eh)            E(eV)
   0   2.0000     -88.330445     -2403.5936
   1   2.0000     -24.376031      -663.3055
   2   2.0000     -18.784845      -511.1616
   3   2.0000     -18.772870      -510.8357
   4   2.0000     -13.998467      -380.9176
   5   2.0000      -9.957786      -270.9651
   6   2.0000      -9.927063      -270.1291
   7   2.0000      -9.913057      -269.7480
   8   2.0000      -9.910655      -269.6826
   9   2.0000      -9.905512      -269.5427
  10   2.0000      -9.901643      -269.4374
  11   2.0000      -9.899549      -269.3804
  12   2.0000      -9.898990      -269.3652
  13   2.0000      -9.898123      -269.3416
  14   2.0000      -9.894843      -269.2524
  15   2.0000      -9.817860      -267.1576
  16   2.0000      -7.862395      -213.9467
  17   2.0000      -5.894830      -160.4065
  18   2.0000      -5.887911      -160.2182
  19   2.0000      -5.887531      -160.2079
  20   2.0000      -1.236440       -33.6452
  21   2.0000      -1.013125       -27.5685
  22   2.0000      -0.924444       -25.1554
  23   2.0000      -0.830448       -22.5976
  24   2.0000      -0.757102       -20.6018
  25   2.0000      -0.733274       -19.9534
  26   2.0000      -0.706768       -19.2321
  27   2.0000      -0.680792       -18.5253
  28   2.0000      -0.647223       -17.6118
  29   2.0000      -0.637410       -17.3448
  30   2.0000      -0.612182       -16.6583
  31   2.0000      -0.588708       -16.0196
  32   2.0000      -0.555191       -15.1075
  33   2.0000      -0.539049       -14.6683
  34   2.0000      -0.521399       -14.1880
  35   2.0000      -0.500094       -13.6083
  36   2.0000      -0.498875       -13.5751
  37   2.0000      -0.482387       -13.1264
  38   2.0000      -0.479305       -13.0426
  39   2.0000      -0.458558       -12.4780
  40   2.0000      -0.439073       -11.9478
  41   2.0000      -0.433810       -11.8046
  42   2.0000      -0.429224       -11.6798
  43   2.0000      -0.414210       -11.2712
  44   2.0000      -0.403340       -10.9754
  45   2.0000      -0.400380       -10.8949
  46   2.0000      -0.393902       -10.7186
  47   2.0000      -0.383200       -10.4274
  48   2.0000      -0.367766       -10.0074
  49   2.0000      -0.363371        -9.8878
  50   2.0000      -0.356145        -9.6912
  51   2.0000      -0.352609        -9.5950
  52   2.0000      -0.328655        -8.9432
  53   2.0000      -0.325778        -8.8649
  54   2.0000      -0.320624        -8.7246
  55   2.0000      -0.315578        -8.5873
  56   2.0000      -0.306154        -8.3309
  57   2.0000      -0.302939        -8.2434
  58   2.0000      -0.294574        -8.0158
  59   2.0000      -0.291230        -7.9248
  60   2.0000      -0.286257        -7.7894
  61   2.0000      -0.281804        -7.6683
  62   2.0000      -0.275905        -7.5078
  63   2.0000      -0.274566        -7.4713
  64   2.0000      -0.271494        -7.3877
  65   2.0000      -0.264788        -7.2052
  66   2.0000      -0.256037        -6.9671
  67   2.0000      -0.149294        -4.0625
  68   0.0000      -0.028591        -0.7780
  69   0.0000      -0.010105        -0.2750
  70   0.0000      -0.009051        -0.2463
  71   0.0000      -0.006768        -0.1842
  72   0.0000       0.002968         0.0808

MULLIKEN ATOMIC CHARGES
-----------------------
   0 C :   -0.651953
   1 C :   -0.619921
   2 C :   -0.679730
   3 H :    0.360335
   4 H :    0.421258
   5 S :    1.215396
   6 C :    1.050924
   7 N :   -0.336714
   8 C :   -1.682719
   9 H :    0.530179
  10 H :    0.397906
  11 H :    0.122516
  12 H :    0.125087
  13 F :   -0.230262
  14 O :   -0.632008
  15 C :   -0.240373
  16 C :    0.066975
  17 C :   -0.611106
  18 H :    0.182441
  19 H :    0.320813
  20 H :    0.279270
  21 H :    0.233181
  22 C :   -0.347700
  23 H :    0.261521
  24 H :    0.085536
  25 C :   -0.773977
  26 H :    0.196373
  27 H :    0.288785
  28 C :   -0.580398
  29 H :    0.288433
  30 H :    0.263879
  31 H :    0.285290
  32 H :   -0.034522
  33 H :    0.285928
  34 H :    0.258265
  35 O :   -0.571929
  36 H :    0.237386
  37 H :    0.235639
Sum of atomic charges:    0.0000000

LOEWDIN ATOMIC CHARGES
----------------------
   0 C :   -0.139259
   1 C :   -0.215956
   2 C :   -0.220626
   3 H :    0.099806
   4 H :    0.117755
   5 S :    0.600358
   6 C :   -0.460179
   7 N :    0.122996
   8 C :    0.005811
   9 H :    0.005119
  10 H :    0.020244
  11 H :    0.085870
  12 H :    0.101059
  13 F :   -0.117465
  14 O :   -0.264627
  15 C :   -0.197348
  16 C :   -0.214628
  17 C :   -0.207685
  18 H :    0.102834
  19 H :    0.117277
  20 H :    0.115931
  21 H :    0.109721
  22 C :   -0.205261
  23 H :    0.115571
  24 H :    0.089662
  25 C :   -0.203955
  26 H :    0.105167
  27 H :    0.112129
  28 C :   -0.207958
  29 H :    0.106206
  30 H :    0.105991
  31 H :    0.127117
  32 H :    0.080329
  33 H :    0.111257
  34 H :    0.106130
  35 O :   -0.232937
  36 H :    0.118689
  37 H :    0.104852

  Mayer bond orders larger than 0.100000
B(  0-C ,  6-C ) :   0.4036 B(  0-C ,  8-C ) :  -0.1402 B(  0-C , 15-C ) :   0.7255
B(  0-C , 36-H ) :   0.9038 B(  0-C , 37-H ) :   1.0602 B(  1-C ,  2-C ) :   0.8914
B(  1-C ,  5-S ) :   0.1387 B(  1-C , 17-C ) :   0.8575 B(  1-C , 20-H ) :   0.9277
B(  1-C , 21-H ) :   0.9869 B(  2-C ,  3-H ) :   0.9100 B(  2-C ,  4-H ) :   0.7763
B(  2-C ,  5-S ) :   0.8436 B(  2-C , 14-O ) :   0.1422 B(  2-C , 32-H ) :   0.1159
B(  2-C , 35-O ) :   0.1238 B(  5-S , 13-F ) :   1.1668 B(  5-S , 14-O ) :   1.4989
B(  5-S , 35-O ) :   1.3723 B(  6-C ,  7-N ) :   0.8668 B(  6-C ,  8-C ) :   0.6455
B(  6-C ,  9-H ) :   0.2005 B(  6-C , 10-H ) :  -0.2608 B(  6-C , 37-H ) :  -0.1968
B(  7-N , 11-H ) :   1.0708 B(  7-N , 12-H ) :   1.0453 B(  8-C ,  9-H ) :   0.7900
B(  8-C , 10-H ) :   1.0581 B(  8-C , 13-F ) :   0.1663 B(  8-C , 22-C ) :   0.1250
B(  9-H , 13-F ) :  -0.3059 B( 15-C , 22-C ) :   0.3134 B( 15-C , 23-H ) :   0.8759
B( 15-C , 24-H ) :   1.2423 B( 15-C , 25-C ) :   0.1187 B( 15-C , 26-H ) :  -0.1239
B( 15-C , 28-C ) :   0.1579 B( 16-C , 17-C ) :   0.2406 B( 16-C , 22-C ) :   0.1244
B( 16-C , 25-C ) :   0.1401 B( 16-C , 28-C ) :   0.2467 B( 16-C , 31-H ) :   0.8297
B( 16-C , 32-H ) :   1.4577 B( 17-C , 18-H ) :   0.9854 B( 17-C , 19-H ) :   0.8927
B( 17-C , 28-C ) :   0.4517 B( 17-C , 31-H ) :  -0.1105 B( 22-C , 24-H ) :  -0.1237
B( 22-C , 25-C ) :   0.8328 B( 22-C , 26-H ) :   1.0702 B( 22-C , 27-H ) :   0.8485
B( 22-C , 28-C ) :  -0.1018 B( 25-C , 28-C ) :   0.8523 B( 25-C , 29-H ) :   0.9495
B( 25-C , 30-H ) :   0.9532 B( 28-C , 31-H ) :  -0.1051 B( 28-C , 32-H ) :  -0.1287
B( 28-C , 33-H ) :   0.9406 B( 28-C , 34-H ) :   0.9488 B( 31-H , 32-H ) :   0.1360

Dispersion correction           -0.092276197
FINAL SINGLE POINT ENERGY     -1135.657435069001

DIPOLE MOMENT
-------------
                                X             Y             Z
Electronic contribution:     -7.76083     -16.96571     -13.69512
Nuclear contribution   :      7.91684      17.85507      15.13212
                        -----------------------------------------
Total Dipole Moment    :      0.15601       0.88936       1.43700
                        -----------------------------------------
Magnitude (a.u.)       :      1.69714
Magnitude (Debye)      :      4.31378

Rotational constants in cm-1:     0.018015     0.012410     0.008313
Rotational constants in MHz :   540.084467   372.038374   249.228144

                             ****ORCA TERMINATED NORMALLY****
TOTAL RUN TIME: 0 days 0 hours 2 minutes 7 seconds 818 msec
