                         Program Version 5.0.0 -  RELEASE  -
|  1> !BLYP D3BJ RIJCOSX def2-TZVPD def2/J TightSCF xyzfile
|  2>
|  3> *xyzfile 0 1 D3.xyz
|  4>
|  5> %MaxCore 64000
|  6>
|  7> %pal nprocs 4
|  8> end
|  9>
| 10> %scf
| 11>   MaxIter 150
| 12> end
| 13>
| 14>
| 15>                          ****END OF INPUT****

CARTESIAN COORDINATES (ANGSTROEM)
---------------------------------
  C      5.558206   -1.992914   -6.215054
  C      4.930199   -7.375319   -2.649623
  C      3.841892   -6.951611   -3.632829
  H      3.458144   -5.954425   -3.407121
  H      2.988484   -7.643606   -3.567078
  S      4.318115   -6.915930   -5.368692
  C      4.181880   -2.589671   -6.298911
  C      3.145873   -1.768431   -6.486753
  N      4.019102   -3.864307   -6.227427
  H      4.768490   -4.591153   -5.990773
  H      3.122405   -4.333392   -6.314620
  H      3.281635   -0.777786   -6.566549
  H      2.212549   -2.134193   -6.562246
  O      5.406154   -5.899480   -5.512972
  F      3.111910   -6.445079   -6.043792
  C      6.419260   -2.542944   -5.077630
  C      5.872267   -5.002756   -2.427819
  C      6.173994   -6.485522   -2.606315
  H      6.734852   -6.613767   -3.534015
  H      6.821463   -6.831018   -1.793617
  H      4.469612   -7.406168   -1.655876
  H      5.230134   -8.398678   -2.885906
  C      5.896512   -2.169314   -3.694552
  H      7.428880   -2.143665   -5.208078
  H      6.505894   -3.627541   -5.175502
  C      6.807804   -2.623428   -2.551019
  H      4.894708   -2.589732   -3.557501
  H      5.778823   -1.081255   -3.635790
  C      7.111544   -4.122463   -2.520363
  H      7.751615   -2.071393   -2.614406
  H      6.345837   -2.326401   -1.604086
  H      5.362882   -4.828697   -1.471335
  H      5.174429   -4.702577   -3.211298
  H      7.778329   -4.329347   -1.677651
  H      7.673189   -4.402845   -3.417586
  O      4.763396   -8.239424   -5.698629
  H      6.036826   -2.198189   -7.176852
  H      5.467610   -0.907371   -6.127968

 Total Charge           Charge          ....    0
 Multiplicity           Mult            ....    1
 Number of Electrons    NEL             ....  136
 Basis Dimension        Dim             ....  808

ORBITAL ENERGIES
----------------

  NO   OCC          E(Eh)            E(eV)
   0   2.0000     -88.361539     -2404.4397
   1   2.0000     -24.415491      -664.3793
   2   2.0000     -18.810060      -511.8477
   3   2.0000     -18.802508      -511.6423
   4   2.0000     -13.978322      -380.3695
   5   2.0000      -9.978327      -271.5241
   6   2.0000      -9.941114      -270.5115
   7   2.0000      -9.912196      -269.7246
   8   2.0000      -9.904480      -269.5146
   9   2.0000      -9.902956      -269.4731
  10   2.0000      -9.897232      -269.3174
  11   2.0000      -9.893702      -269.2213
  12   2.0000      -9.888338      -269.0754
  13   2.0000      -9.888181      -269.0711
  14   2.0000      -9.887831      -269.0616
  15   2.0000      -9.817862      -267.1576
  16   2.0000      -7.893407      -214.7905
  17   2.0000      -5.925590      -161.2435
  18   2.0000      -5.919218      -161.0701
  19   2.0000      -5.918472      -161.0498
  20   2.0000      -1.281379       -34.8681
  21   2.0000      -1.036385       -28.2015
  22   2.0000      -0.946160       -25.7463
  23   2.0000      -0.824240       -22.4287
  24   2.0000      -0.768387       -20.9089
  25   2.0000      -0.731108       -19.8945
  26   2.0000      -0.708485       -19.2789
  27   2.0000      -0.682614       -18.5749
  28   2.0000      -0.662331       -18.0230
  29   2.0000      -0.635459       -17.2917
  30   2.0000      -0.616475       -16.7751
  31   2.0000      -0.584366       -15.9014
  32   2.0000      -0.554106       -15.0780
  33   2.0000      -0.540401       -14.7051
  34   2.0000      -0.535142       -14.5619
  35   2.0000      -0.525164       -14.2904
  36   2.0000      -0.514036       -13.9876
  37   2.0000      -0.498662       -13.5693
  38   2.0000      -0.489959       -13.3325
  39   2.0000      -0.462268       -12.5790
  40   2.0000      -0.450229       -12.2513
  41   2.0000      -0.440930       -11.9983
  42   2.0000      -0.425685       -11.5835
  43   2.0000      -0.412272       -11.2185
  44   2.0000      -0.406814       -11.0700
  45   2.0000      -0.402854       -10.9622
  46   2.0000      -0.393623       -10.7110
  47   2.0000      -0.381466       -10.3802
  48   2.0000      -0.372442       -10.1347
  49   2.0000      -0.366447        -9.9715
  50   2.0000      -0.361362        -9.8331
  51   2.0000      -0.354988        -9.6597
  52   2.0000      -0.343694        -9.3524
  53   2.0000      -0.333178        -9.0662
  54   2.0000      -0.325609        -8.8603
  55   2.0000      -0.317706        -8.6452
  56   2.0000      -0.313995        -8.5442
  57   2.0000      -0.309065        -8.4101
  58   2.0000      -0.304641        -8.2897
  59   2.0000      -0.294233        -8.0065
  60   2.0000      -0.289265        -7.8713
  61   2.0000      -0.284232        -7.7343
  62   2.0000      -0.281385        -7.6569
  63   2.0000      -0.272299        -7.4096
  64   2.0000      -0.267797        -7.2871
  65   2.0000      -0.260352        -7.0845
  66   2.0000      -0.256637        -6.9835
  67   2.0000      -0.134330        -3.6553
  68   0.0000      -0.043074        -1.1721
  69   0.0000      -0.027723        -0.7544
  70   0.0000      -0.009017        -0.2454
  71   0.0000      -0.002979        -0.0811
  72   0.0000       0.003000         0.0816

MULLIKEN ATOMIC CHARGES
-----------------------
   0 C :   -0.539083
   1 C :   -0.688684
   2 C :   -0.660119
   3 H :    0.413194
   4 H :    0.394267
   5 S :    1.201844
   6 C :    0.853081
   7 C :   -1.485395
   8 N :   -0.258082
   9 H :    0.369995
  10 H :    0.045422
  11 H :    0.339123
  12 H :    0.340444
  13 O :   -0.735120
  14 F :   -0.206434
  15 C :   -0.357211
  16 C :   -0.086390
  17 C :   -0.556139
  18 H :    0.217758
  19 H :    0.338461
  20 H :    0.264769
  21 H :    0.244168
  22 C :   -0.285610
  23 H :    0.252378
  24 H :    0.116749
  25 C :   -0.758496
  26 H :    0.188384
  27 H :    0.269937
  28 C :   -0.622381
  29 H :    0.289613
  30 H :    0.269786
  31 H :    0.299492
  32 H :    0.073817
  33 H :    0.291491
  34 H :    0.261340
  35 O :   -0.549648
  36 H :    0.252318
  37 H :    0.200963
Sum of atomic charges:    0.0000000

LOEWDIN ATOMIC CHARGES
----------------------
   0 C :   -0.138916
   1 C :   -0.203297
   2 C :   -0.224327
   3 H :    0.100100
   4 H :    0.109938
   5 S :    0.631336
   6 C :   -0.491746
   7 C :    0.025823
   8 N :    0.110544
   9 H :    0.033942
  10 H :    0.090948
  11 H :    0.001674
  12 H :    0.005845
  13 O :   -0.282605
  14 F :   -0.051455
  15 C :   -0.198570
  16 C :   -0.215551
  17 C :   -0.205627
  18 H :    0.103966
  19 H :    0.117672
  20 H :    0.120180
  21 H :    0.112256
  22 C :   -0.204423
  23 H :    0.114731
  24 H :    0.087021
  25 C :   -0.204369
  26 H :    0.104889
  27 H :    0.114032
  28 C :   -0.206220
  29 H :    0.106263
  30 H :    0.105217
  31 H :    0.125481
  32 H :    0.079025
  33 H :    0.110560
  34 H :    0.108097
  35 O :   -0.220121
  36 H :    0.116761
  37 H :    0.110928

  Mayer bond orders larger than 0.100000
B(  0-C ,  6-C ) :   0.5900 B(  0-C , 15-C ) :   0.7293 B(  0-C , 36-H ) :   0.9109
B(  0-C , 37-H ) :   0.9998 B(  1-C ,  2-C ) :   0.9623 B(  1-C ,  5-S ) :   0.1635
B(  1-C , 17-C ) :   0.8652 B(  1-C , 20-H ) :   0.9292 B(  1-C , 21-H ) :   0.9524
B(  2-C ,  3-H ) :   0.8245 B(  2-C ,  4-H ) :   0.7890 B(  2-C ,  5-S ) :   0.8118
B(  2-C , 14-F ) :   0.1103 B(  2-C , 35-O ) :   0.1246 B(  5-S , 13-O ) :   1.7133
B(  5-S , 14-F ) :   0.9403 B(  5-S , 35-O ) :   1.4800 B(  6-C ,  7-C ) :   0.9911
B(  6-C ,  8-N ) :   0.9345 B(  6-C ,  9-H ) :  -0.1134 B(  6-C , 12-H ) :  -0.1100
B(  6-C , 22-C ) :   0.1383 B(  7-C ,  8-N ) :   0.1336 B(  7-C , 11-H ) :   0.9892
B(  7-C , 12-H ) :   0.9977 B(  8-N ,  9-H ) :   0.8396 B(  8-N , 10-H ) :   1.0225
B(  8-N , 15-C ) :   0.1396 B( 15-C , 22-C ) :   0.3535 B( 15-C , 23-H ) :   0.9100
B( 15-C , 24-H ) :   1.1509 B( 15-C , 25-C ) :   0.1355 B( 15-C , 26-H ) :  -0.1047
B( 15-C , 28-C ) :   0.1548 B( 16-C , 17-C ) :   0.2854 B( 16-C , 22-C ) :   0.1408
B( 16-C , 25-C ) :   0.1421 B( 16-C , 28-C ) :   0.2323 B( 16-C , 31-H ) :   0.8070
B( 16-C , 32-H ) :   1.4296 B( 17-C , 18-H ) :   0.9607 B( 17-C , 19-H ) :   0.8847
B( 17-C , 28-C ) :   0.4739 B( 17-C , 31-H ) :  -0.1115 B( 22-C , 24-H ) :  -0.1174
B( 22-C , 25-C ) :   0.8491 B( 22-C , 26-H ) :   1.0222 B( 22-C , 27-H ) :   0.8830
B( 25-C , 28-C ) :   0.8352 B( 25-C , 29-H ) :   0.9477 B( 25-C , 30-H ) :   0.9446
B( 28-C , 31-H ) :  -0.1024 B( 28-C , 32-H ) :  -0.1180 B( 28-C , 33-H ) :   0.9374
B( 28-C , 34-H ) :   0.9458 B( 31-H , 32-H ) :   0.1317

Dispersion correction           -0.092274874
FINAL SINGLE POINT ENERGY     -1135.662956353645

DIPOLE MOMENT
-------------
                                X             Y             Z
Electronic contribution:    -10.92508     -20.04572     -14.26585
Nuclear contribution   :     10.48431      18.81367      15.71750
                        -----------------------------------------
Total Dipole Moment    :     -0.44076      -1.23205       1.45165
                        -----------------------------------------
Magnitude (a.u.)       :      1.95435
Magnitude (Debye)      :      4.96757

Rotational constants in cm-1:     0.017977     0.012528     0.008321
Rotational constants in MHz :   538.924099   375.570730   249.458530

                             ****ORCA TERMINATED NORMALLY****
TOTAL RUN TIME: 0 days 0 hours 2 minutes 14 seconds 227 msec
