                         Program Version 5.0.0 -  RELEASE  -
|  1> !BLYP D3BJ RIJCOSX def2-TZVPD def2/J TightSCF xyzfile
|  2>
|  3> *xyzfile 0 1 D4.xyz
|  4>
|  5> %MaxCore 64000
|  6>
|  7> %pal nprocs 4
|  8> end
|  9>
| 10> %scf
| 11>   MaxIter 150
| 12> end
| 13>
| 14>
| 15>                          ****END OF INPUT****

CARTESIAN COORDINATES (ANGSTROEM)
---------------------------------
  C      5.558206   -1.992914   -6.215054
  C      4.930199   -7.375319   -2.649623
  C      3.841892   -6.951611   -3.632829
  H      3.458144   -5.954425   -3.407121
  H      2.988484   -7.643606   -3.567078
  S      4.318115   -6.915930   -5.368692
  C      4.181880   -2.589671   -6.298911
  N      3.145873   -1.768431   -6.486753
  C      4.019102   -3.864307   -6.227427
  H      4.768490   -4.591153   -5.990773
  H      3.122405   -4.333392   -6.314620
  H      3.281635   -0.777786   -6.566549
  H      2.212549   -2.134193   -6.562246
  O      5.406154   -5.899480   -5.512972
  F      3.111910   -6.445079   -6.043792
  C      6.419260   -2.542944   -5.077630
  C      5.872267   -5.002756   -2.427819
  C      6.173994   -6.485522   -2.606315
  H      6.734852   -6.613767   -3.534015
  H      6.821463   -6.831018   -1.793617
  H      4.469612   -7.406168   -1.655876
  H      5.230134   -8.398678   -2.885906
  C      5.896512   -2.169314   -3.694552
  H      7.428880   -2.143665   -5.208078
  H      6.505894   -3.627541   -5.175502
  C      6.807804   -2.623428   -2.551019
  H      4.894708   -2.589732   -3.557501
  H      5.778823   -1.081255   -3.635790
  C      7.111544   -4.122463   -2.520363
  H      7.751615   -2.071393   -2.614406
  H      6.345837   -2.326401   -1.604086
  H      5.362882   -4.828697   -1.471335
  H      5.174429   -4.702577   -3.211298
  H      7.778329   -4.329347   -1.677651
  H      7.673189   -4.402845   -3.417586
  O      4.763396   -8.239424   -5.698629
  H      6.036826   -2.198189   -7.176852
  H      5.467610   -0.907371   -6.127968

 Total Charge           Charge          ....    0
 Multiplicity           Mult            ....    1
 Number of Electrons    NEL             ....  136
 Basis Dimension        Dim             ....  808

ORBITAL ENERGIES
----------------

  NO   OCC          E(Eh)            E(eV)
   0   2.0000     -88.338279     -2403.8068
   1   2.0000     -24.390248      -663.6924
   2   2.0000     -18.788741      -511.2676
   3   2.0000     -18.772805      -510.8340
   4   2.0000     -13.994304      -380.8044
   5   2.0000      -9.961989      -271.0795
   6   2.0000      -9.928829      -270.1772
   7   2.0000      -9.905119      -269.5320
   8   2.0000      -9.901695      -269.4388
   9   2.0000      -9.893996      -269.2293
  10   2.0000      -9.892000      -269.1750
  11   2.0000      -9.891286      -269.1556
  12   2.0000      -9.890447      -269.1327
  13   2.0000      -9.886191      -269.0169
  14   2.0000      -9.886037      -269.0128
  15   2.0000      -9.808437      -266.9011
  16   2.0000      -7.869989      -214.1533
  17   2.0000      -5.901972      -160.6008
  18   2.0000      -5.895751      -160.4315
  19   2.0000      -5.895352      -160.4207
  20   2.0000      -1.256293       -34.1855
  21   2.0000      -1.013080       -27.5673
  22   2.0000      -0.919963       -25.0335
  23   2.0000      -0.826048       -22.4779
  24   2.0000      -0.753962       -20.5164
  25   2.0000      -0.725753       -19.7487
  26   2.0000      -0.700888       -19.0721
  27   2.0000      -0.678420       -18.4607
  28   2.0000      -0.648302       -17.6412
  29   2.0000      -0.630835       -17.1659
  30   2.0000      -0.607757       -16.5379
  31   2.0000      -0.581300       -15.8180
  32   2.0000      -0.550227       -14.9724
  33   2.0000      -0.532742       -14.4967
  34   2.0000      -0.513434       -13.9712
  35   2.0000      -0.503390       -13.6980
  36   2.0000      -0.498308       -13.5597
  37   2.0000      -0.489762       -13.3271
  38   2.0000      -0.478122       -13.0103
  39   2.0000      -0.457918       -12.4606
  40   2.0000      -0.439198       -11.9512
  41   2.0000      -0.435706       -11.8562
  42   2.0000      -0.423003       -11.5105
  43   2.0000      -0.410742       -11.1769
  44   2.0000      -0.402678       -10.9574
  45   2.0000      -0.394376       -10.7315
  46   2.0000      -0.390489       -10.6257
  47   2.0000      -0.375056       -10.2058
  48   2.0000      -0.364725        -9.9247
  49   2.0000      -0.358985        -9.7685
  50   2.0000      -0.354174        -9.6376
  51   2.0000      -0.345353        -9.3975
  52   2.0000      -0.337153        -9.1744
  53   2.0000      -0.319494        -8.6939
  54   2.0000      -0.316455        -8.6112
  55   2.0000      -0.311599        -8.4790
  56   2.0000      -0.305215        -8.3053
  57   2.0000      -0.296440        -8.0665
  58   2.0000      -0.291501        -7.9321
  59   2.0000      -0.288872        -7.8606
  60   2.0000      -0.279965        -7.6182
  61   2.0000      -0.277618        -7.5544
  62   2.0000      -0.274568        -7.4714
  63   2.0000      -0.265749        -7.2314
  64   2.0000      -0.261298        -7.1103
  65   2.0000      -0.256942        -6.9917
  66   2.0000      -0.224160        -6.0997
  67   2.0000      -0.143903        -3.9158
  68   0.0000      -0.025097        -0.6829
  69   0.0000      -0.015353        -0.4178
  70   0.0000      -0.007253        -0.1974
  71   0.0000      -0.001599        -0.0435
  72   0.0000       0.003316         0.0902

MULLIKEN ATOMIC CHARGES
-----------------------
   0 C :   -0.635637
   1 C :   -0.699297
   2 C :   -0.666903
   3 H :    0.406003
   4 H :    0.397641
   5 S :    1.164307
   6 C :    0.793892
   7 N :   -0.337858
   8 C :   -1.422507
   9 H :    0.617650
  10 H :    0.318766
  11 H :    0.122366
  12 H :    0.117243
  13 O :   -0.672673
  14 F :   -0.167852
  15 C :   -0.267201
  16 C :    0.020847
  17 C :   -0.577804
  18 H :    0.227681
  19 H :    0.336442
  20 H :    0.262961
  21 H :    0.238329
  22 C :   -0.361822
  23 H :    0.258045
  24 H :    0.125310
  25 C :   -0.762033
  26 H :    0.185734
  27 H :    0.289462
  28 C :   -0.618927
  29 H :    0.287433
  30 H :    0.261810
  31 H :    0.288826
  32 H :    0.005148
  33 H :    0.288223
  34 H :    0.269749
  35 O :   -0.568553
  36 H :    0.238564
  37 H :    0.236635
Sum of atomic charges:   -0.0000000

LOEWDIN ATOMIC CHARGES
----------------------
   0 C :   -0.137798
   1 C :   -0.205369
   2 C :   -0.226001
   3 H :    0.098769
   4 H :    0.107493
   5 S :    0.620376
   6 C :   -0.463067
   7 N :    0.117767
   8 C :   -0.003200
   9 H :   -0.021311
  10 H :    0.018211
  11 H :    0.084018
  12 H :    0.097151
  13 O :   -0.294541
  14 F :   -0.058276
  15 C :   -0.193388
  16 C :   -0.214757
  17 C :   -0.206416
  18 H :    0.104115
  19 H :    0.116041
  20 H :    0.117881
  21 H :    0.111163
  22 C :   -0.205847
  23 H :    0.114925
  24 H :    0.093391
  25 C :   -0.204908
  26 H :    0.104461
  27 H :    0.110391
  28 C :   -0.206025
  29 H :    0.105310
  30 H :    0.104536
  31 H :    0.124224
  32 H :    0.081054
  33 H :    0.109913
  34 H :    0.108683
  35 O :   -0.231445
  36 H :    0.118950
  37 H :    0.103530

  Mayer bond orders larger than 0.100000
B(  0-C ,  6-C ) :   0.4069 B(  0-C ,  8-C ) :  -0.1575 B(  0-C , 15-C ) :   0.7124
B(  0-C , 36-H ) :   0.8918 B(  0-C , 37-H ) :   1.0680 B(  1-C ,  2-C ) :   0.9602
B(  1-C ,  5-S ) :   0.1704 B(  1-C , 17-C ) :   0.8612 B(  1-C , 20-H ) :   0.9289
B(  1-C , 21-H ) :   0.9526 B(  2-C ,  3-H ) :   0.8329 B(  2-C ,  4-H ) :   0.7925
B(  2-C ,  5-S ) :   0.8066 B(  2-C , 14-F ) :   0.1114 B(  2-C , 32-H ) :   0.1014
B(  2-C , 35-O ) :   0.1417 B(  5-S , 13-O ) :   1.7626 B(  5-S , 14-F ) :   0.9373
B(  5-S , 35-O ) :   1.4572 B(  6-C ,  7-N ) :   0.8541 B(  6-C ,  8-C ) :   1.1270
B(  6-C ,  9-H ) :   0.2423 B(  6-C , 10-H ) :  -0.1900 B(  6-C , 37-H ) :  -0.2034
B(  7-N , 11-H ) :   1.0730 B(  7-N , 12-H ) :   1.0527 B(  8-C ,  9-H ) :   0.6752
B(  8-C , 10-H ) :   1.0756 B(  8-C , 13-O ) :   0.1659 B(  8-C , 22-C ) :   0.1299
B(  8-C , 32-H ) :   0.1049 B(  9-H , 13-O ) :  -0.4221 B( 15-C , 22-C ) :   0.2997
B( 15-C , 23-H ) :   0.8887 B( 15-C , 24-H ) :   1.1920 B( 15-C , 25-C ) :   0.1160
B( 15-C , 26-H ) :  -0.1221 B( 15-C , 28-C ) :   0.1658 B( 16-C , 17-C ) :   0.3122
B( 16-C , 22-C ) :   0.1448 B( 16-C , 25-C ) :   0.1229 B( 16-C , 28-C ) :   0.2328
B( 16-C , 31-H ) :   0.8280 B( 16-C , 32-H ) :   1.4514 B( 17-C , 18-H ) :   0.9436
B( 17-C , 19-H ) :   0.8915 B( 17-C , 28-C ) :   0.4851 B( 17-C , 31-H ) :  -0.1143
B( 22-C , 24-H ) :  -0.1167 B( 22-C , 25-C ) :   0.8224 B( 22-C , 26-H ) :   1.0737
B( 22-C , 27-H ) :   0.8540 B( 22-C , 28-C ) :  -0.1044 B( 25-C , 28-C ) :   0.8404
B( 25-C , 29-H ) :   0.9487 B( 25-C , 30-H ) :   0.9526 B( 28-C , 31-H ) :  -0.1003
B( 28-C , 32-H ) :  -0.1340 B( 28-C , 33-H ) :   0.9412 B( 28-C , 34-H ) :   0.9414
B( 31-H , 32-H ) :   0.1206

Dispersion correction           -0.092936503
FINAL SINGLE POINT ENERGY     -1135.650173975447

DIPOLE MOMENT
-------------
                                X             Y             Z
Electronic contribution:    -11.65280     -18.15198     -14.69661
Nuclear contribution   :     10.61624      18.49702      15.75668
                        -----------------------------------------
Total Dipole Moment    :     -1.03656       0.34504       1.06007
                        -----------------------------------------
Magnitude (a.u.)       :      1.52225
Magnitude (Debye)      :      3.86925

Rotational constants in cm-1:     0.017796     0.012372     0.008231
Rotational constants in MHz :   533.524905   370.895973   246.762347

                             ****ORCA TERMINATED NORMALLY****
TOTAL RUN TIME: 0 days 0 hours 2 minutes 9 seconds 858 msec
