                         Program Version 5.0.0 -  RELEASE  -
|  1> !BLYP D3BJ RIJCOSX def2-TZVPD def2/J TightSCF xyzfile
|  2>
|  3> *xyzfile 0 1 D5.xyz
|  4>
|  5> %MaxCore 64000
|  6>
|  7> %pal nprocs 4
|  8> end
|  9>
| 10> %scf
| 11>   MaxIter 150
| 12> end
| 13>
| 14>
| 15>                          ****END OF INPUT****

CARTESIAN COORDINATES (ANGSTROEM)
---------------------------------
  C      5.558206   -1.992914   -6.215054
  C      4.930199   -7.375319   -2.649623
  C      3.841892   -6.951611   -3.632829
  H      3.458144   -5.954425   -3.407121
  H      2.988484   -7.643606   -3.567078
  S      4.318115   -6.915930   -5.368692
  C      4.181880   -2.589671   -6.298911
  C      3.145873   -1.768431   -6.486753
  N      4.019102   -3.864307   -6.227427
  H      4.768490   -4.591153   -5.990773
  H      3.122405   -4.333392   -6.314620
  H      3.281635   -0.777786   -6.566549
  H      2.212549   -2.134193   -6.562246
  O      5.406154   -5.899480   -5.512972
  O      3.111910   -6.445079   -6.043792
  C      6.419260   -2.542944   -5.077630
  C      5.872267   -5.002756   -2.427819
  C      6.173994   -6.485522   -2.606315
  H      6.734852   -6.613767   -3.534015
  H      6.821463   -6.831018   -1.793617
  H      4.469612   -7.406168   -1.655876
  H      5.230134   -8.398678   -2.885906
  C      5.896512   -2.169314   -3.694552
  H      7.428880   -2.143665   -5.208078
  H      6.505894   -3.627541   -5.175502
  C      6.807804   -2.623428   -2.551019
  H      4.894708   -2.589732   -3.557501
  H      5.778823   -1.081255   -3.635790
  C      7.111544   -4.122463   -2.520363
  H      7.751615   -2.071393   -2.614406
  H      6.345837   -2.326401   -1.604086
  H      5.362882   -4.828697   -1.471335
  H      5.174429   -4.702577   -3.211298
  H      7.778329   -4.329347   -1.677651
  H      7.673189   -4.402845   -3.417586
  F      4.763396   -8.239424   -5.698629
  H      6.036826   -2.198189   -7.176852
  H      5.467610   -0.907371   -6.127968

 Total Charge           Charge          ....    0
 Multiplicity           Mult            ....    1
 Number of Electrons    NEL             ....  136
 Basis Dimension        Dim             ....  808

ORBITAL ENERGIES
----------------

  NO   OCC          E(Eh)            E(eV)
   0   2.0000     -88.365396     -2404.5447
   1   2.0000     -24.427804      -664.7143
   2   2.0000     -18.804630      -511.7000
   3   2.0000     -18.804528      -511.6972
   4   2.0000     -13.962505      -379.9391
   5   2.0000      -9.979684      -271.5610
   6   2.0000      -9.943133      -270.5664
   7   2.0000      -9.915608      -269.8174
   8   2.0000      -9.903919      -269.4993
   9   2.0000      -9.897275      -269.3185
  10   2.0000      -9.893230      -269.2085
  11   2.0000      -9.892131      -269.1786
  12   2.0000      -9.884759      -268.9780
  13   2.0000      -9.884119      -268.9606
  14   2.0000      -9.880630      -268.8656
  15   2.0000      -9.806817      -266.8571
  16   2.0000      -7.897057      -214.8898
  17   2.0000      -5.929228      -161.3425
  18   2.0000      -5.923017      -161.1735
  19   2.0000      -5.921981      -161.1453
  20   2.0000      -1.300266       -35.3820
  21   2.0000      -1.031343       -28.0643
  22   2.0000      -0.938799       -25.5460
  23   2.0000      -0.809900       -22.0385
  24   2.0000      -0.771877       -21.0038
  25   2.0000      -0.730414       -19.8756
  26   2.0000      -0.706968       -19.2376
  27   2.0000      -0.681505       -18.5447
  28   2.0000      -0.663732       -18.0611
  29   2.0000      -0.634421       -17.2635
  30   2.0000      -0.612557       -16.6685
  31   2.0000      -0.582143       -15.8409
  32   2.0000      -0.559100       -15.2139
  33   2.0000      -0.547451       -14.8969
  34   2.0000      -0.539167       -14.6715
  35   2.0000      -0.527431       -14.3521
  36   2.0000      -0.510464       -13.8904
  37   2.0000      -0.494260       -13.4495
  38   2.0000      -0.484858       -13.1937
  39   2.0000      -0.454545       -12.3688
  40   2.0000      -0.452030       -12.3004
  41   2.0000      -0.446864       -12.1598
  42   2.0000      -0.425972       -11.5913
  43   2.0000      -0.410138       -11.1604
  44   2.0000      -0.408137       -11.1060
  45   2.0000      -0.398797       -10.8518
  46   2.0000      -0.387505       -10.5446
  47   2.0000      -0.381282       -10.3752
  48   2.0000      -0.370972       -10.0947
  49   2.0000      -0.368217       -10.0197
  50   2.0000      -0.353947        -9.6314
  51   2.0000      -0.349670        -9.5150
  52   2.0000      -0.344075        -9.3628
  53   2.0000      -0.328879        -8.9492
  54   2.0000      -0.319133        -8.6840
  55   2.0000      -0.313685        -8.5358
  56   2.0000      -0.310876        -8.4594
  57   2.0000      -0.303409        -8.2562
  58   2.0000      -0.300295        -8.1714
  59   2.0000      -0.294697        -8.0191
  60   2.0000      -0.286082        -7.7847
  61   2.0000      -0.280782        -7.6405
  62   2.0000      -0.277564        -7.5529
  63   2.0000      -0.270345        -7.3565
  64   2.0000      -0.265187        -7.2161
  65   2.0000      -0.254220        -6.9177
  66   2.0000      -0.249107        -6.7786
  67   2.0000      -0.122101        -3.3225
  68   0.0000      -0.050033        -1.3615
  69   0.0000      -0.022930        -0.6240
  70   0.0000      -0.010989        -0.2990
  71   0.0000      -0.005139        -0.1398
  72   0.0000      -0.003655        -0.0995

MULLIKEN ATOMIC CHARGES
-----------------------
   0 C :   -0.535676
   1 C :   -0.648077
   2 C :   -0.658265
   3 H :    0.352968
   4 H :    0.397604
   5 S :    1.182070
   6 C :    0.876817
   7 C :   -1.479635
   8 N :   -0.247267
   9 H :    0.303399
  10 H :    0.092065
  11 H :    0.339173
  12 H :    0.343122
  13 O :   -0.726315
  14 O :   -0.673889
  15 C :   -0.362906
  16 C :   -0.082812
  17 C :   -0.493946
  18 H :    0.169393
  19 H :    0.339150
  20 H :    0.267834
  21 H :    0.260047
  22 C :   -0.280195
  23 H :    0.252019
  24 H :    0.119835
  25 C :   -0.756924
  26 H :    0.188385
  27 H :    0.270152
  28 C :   -0.637146
  29 H :    0.289358
  30 H :    0.269072
  31 H :    0.298063
  32 H :    0.058949
  33 H :    0.290228
  34 H :    0.269015
  35 F :   -0.091579
  36 H :    0.249104
  37 H :    0.196811
Sum of atomic charges:   -0.0000000

LOEWDIN ATOMIC CHARGES
----------------------
   0 C :   -0.140950
   1 C :   -0.214703
   2 C :   -0.215944
   3 H :    0.111253
   4 H :    0.110833
   5 S :    0.638940
   6 C :   -0.492795
   7 C :    0.022645
   8 N :    0.120574
   9 H :    0.037544
  10 H :    0.089710
  11 H :   -0.001213
  12 H :    0.005757
  13 O :   -0.286234
  14 O :   -0.254631
  15 C :   -0.199904
  16 C :   -0.213928
  17 C :   -0.211314
  18 H :    0.099504
  19 H :    0.116850
  20 H :    0.118198
  21 H :    0.106861
  22 C :   -0.204063
  23 H :    0.113715
  24 H :    0.085981
  25 C :   -0.204632
  26 H :    0.105499
  27 H :    0.114147
  28 C :   -0.206715
  29 H :    0.106070
  30 H :    0.105069
  31 H :    0.126148
  32 H :    0.080724
  33 H :    0.110089
  34 H :    0.107616
  35 F :   -0.012139
  36 H :    0.115527
  37 H :    0.109908

  Mayer bond orders larger than 0.100000
B(  0-C ,  6-C ) :   0.5921 B(  0-C , 15-C ) :   0.7320 B(  0-C , 36-H ) :   0.9105
B(  0-C , 37-H ) :   1.0017 B(  1-C ,  2-C ) :   0.8371 B(  1-C ,  5-S ) :   0.1129
B(  1-C , 17-C ) :   0.8368 B(  1-C , 20-H ) :   0.9435 B(  1-C , 21-H ) :   0.9510
B(  2-C ,  3-H ) :   0.9064 B(  2-C ,  4-H ) :   0.8016 B(  2-C ,  5-S ) :   0.8496
B(  2-C , 14-O ) :   0.1434 B(  2-C , 32-H ) :   0.1113 B(  5-S , 13-O ) :   1.7393
B(  5-S , 14-O ) :   1.5706 B(  5-S , 35-F ) :   0.9064 B(  6-C ,  7-C ) :   1.0164
B(  6-C ,  8-N ) :   0.8692 B(  6-C ,  9-H ) :  -0.1460 B(  6-C , 22-C ) :   0.1352
B(  7-C ,  8-N ) :   0.1352 B(  7-C , 11-H ) :   0.9967 B(  7-C , 12-H ) :   0.9865
B(  8-N ,  9-H ) :   0.8980 B(  8-N , 10-H ) :   1.0404 B(  8-N , 15-C ) :   0.1437
B( 13-O , 14-O ) :   0.1325 B( 15-C , 22-C ) :   0.3511 B( 15-C , 23-H ) :   0.9080
B( 15-C , 24-H ) :   1.1501 B( 15-C , 25-C ) :   0.1393 B( 15-C , 26-H ) :  -0.1044
B( 15-C , 28-C ) :   0.1561 B( 16-C , 17-C ) :   0.3079 B( 16-C , 22-C ) :   0.1349
B( 16-C , 25-C ) :   0.1435 B( 16-C , 28-C ) :   0.2294 B( 16-C , 31-H ) :   0.8035
B( 16-C , 32-H ) :   1.4188 B( 17-C , 18-H ) :   0.9692 B( 17-C , 19-H ) :   0.8907
B( 17-C , 28-C ) :   0.4831 B( 17-C , 31-H ) :  -0.1161 B( 22-C , 24-H ) :  -0.1208
B( 22-C , 25-C ) :   0.8407 B( 22-C , 26-H ) :   1.0216 B( 22-C , 27-H ) :   0.8820
B( 25-C , 28-C ) :   0.8401 B( 25-C , 29-H ) :   0.9490 B( 25-C , 30-H ) :   0.9445
B( 28-C , 31-H ) :  -0.1029 B( 28-C , 32-H ) :  -0.1195 B( 28-C , 33-H ) :   0.9373
B( 28-C , 34-H ) :   0.9391 B( 31-H , 32-H ) :   0.1393

Dispersion correction           -0.092453379
FINAL SINGLE POINT ENERGY     -1135.654264948232

DIPOLE MOMENT
-------------
                                X             Y             Z
Electronic contribution:     -8.09422     -23.32465     -13.67383
Nuclear contribution   :      8.54118      20.92489      15.31138
                        -----------------------------------------
Total Dipole Moment    :      0.44695      -2.39976       1.63755
                        -----------------------------------------
Magnitude (a.u.)       :      2.93941
Magnitude (Debye)      :      7.47140

Rotational constants in cm-1:     0.018156     0.012306     0.008278
Rotational constants in MHz :   544.309022   368.914527   248.178402

                             ****ORCA TERMINATED NORMALLY****
TOTAL RUN TIME: 0 days 0 hours 2 minutes 12 seconds 665 msec
