                         Program Version 5.0.0 -  RELEASE  -
|  1> !BLYP D3BJ RIJCOSX def2-TZVPD def2/J TightSCF xyzfile
|  2>
|  3> *xyzfile 0 1 D6.xyz
|  4>
|  5> %MaxCore 64000
|  6>
|  7> %pal nprocs 4
|  8> end
|  9>
| 10> %scf
| 11>   MaxIter 150
| 12> end
| 13>
| 14>
| 15>                          ****END OF INPUT****

CARTESIAN COORDINATES (ANGSTROEM)
---------------------------------
  C      5.558206   -1.992914   -6.215054
  C      4.930199   -7.375319   -2.649623
  C      3.841892   -6.951611   -3.632829
  H      3.458144   -5.954425   -3.407121
  H      2.988484   -7.643606   -3.567078
  S      4.318115   -6.915930   -5.368692
  C      4.181880   -2.589671   -6.298911
  N      3.145873   -1.768431   -6.486753
  C      4.019102   -3.864307   -6.227427
  H      4.768490   -4.591153   -5.990773
  H      3.122405   -4.333392   -6.314620
  H      3.281635   -0.777786   -6.566549
  H      2.212549   -2.134193   -6.562246
  O      5.406154   -5.899480   -5.512972
  O      3.111910   -6.445079   -6.043792
  C      6.419260   -2.542944   -5.077630
  C      5.872267   -5.002756   -2.427819
  C      6.173994   -6.485522   -2.606315
  H      6.734852   -6.613767   -3.534015
  H      6.821463   -6.831018   -1.793617
  H      4.469612   -7.406168   -1.655876
  H      5.230134   -8.398678   -2.885906
  C      5.896512   -2.169314   -3.694552
  H      7.428880   -2.143665   -5.208078
  H      6.505894   -3.627541   -5.175502
  C      6.807804   -2.623428   -2.551019
  H      4.894708   -2.589732   -3.557501
  H      5.778823   -1.081255   -3.635790
  C      7.111544   -4.122463   -2.520363
  H      7.751615   -2.071393   -2.614406
  H      6.345837   -2.326401   -1.604086
  H      5.362882   -4.828697   -1.471335
  H      5.174429   -4.702577   -3.211298
  H      7.778329   -4.329347   -1.677651
  H      7.673189   -4.402845   -3.417586
  F      4.763396   -8.239424   -5.698629
  H      6.036826   -2.198189   -7.176852
  H      5.467610   -0.907371   -6.127968

 Total Charge           Charge          ....    0
 Multiplicity           Mult            ....    1
 Number of Electrons    NEL             ....  136
 Basis Dimension        Dim             ....  808

ORBITAL ENERGIES
----------------

  NO   OCC          E(Eh)            E(eV)
   0   2.0000     -88.340313     -2403.8621
   1   2.0000     -24.405777      -664.1150
   2   2.0000     -18.780407      -511.0409
   3   2.0000     -18.776660      -510.9389
   4   2.0000     -13.983344      -380.5061
   5   2.0000      -9.962402      -271.0907
   6   2.0000      -9.930486      -270.2223
   7   2.0000      -9.904801      -269.5233
   8   2.0000      -9.894741      -269.2496
   9   2.0000      -9.892072      -269.1770
  10   2.0000      -9.891130      -269.1513
  11   2.0000      -9.888675      -269.0845
  12   2.0000      -9.884534      -268.9719
  13   2.0000      -9.882362      -268.9127
  14   2.0000      -9.881557      -268.8908
  15   2.0000      -9.794543      -266.5231
  16   2.0000      -7.871992      -214.2078
  17   2.0000      -5.904268      -160.6633
  18   2.0000      -5.897635      -160.4828
  19   2.0000      -5.897132      -160.4691
  20   2.0000      -1.278554       -34.7912
  21   2.0000      -1.005652       -27.3652
  22   2.0000      -0.912632       -24.8340
  23   2.0000      -0.814953       -22.1760
  24   2.0000      -0.756937       -20.5973
  25   2.0000      -0.724027       -19.7018
  26   2.0000      -0.698260       -19.0006
  27   2.0000      -0.676808       -18.4169
  28   2.0000      -0.650849       -17.7105
  29   2.0000      -0.629317       -17.1246
  30   2.0000      -0.605835       -16.4856
  31   2.0000      -0.577986       -15.7278
  32   2.0000      -0.548994       -14.9389
  33   2.0000      -0.536298       -14.5934
  34   2.0000      -0.525432       -14.2977
  35   2.0000      -0.516482       -14.0542
  36   2.0000      -0.495390       -13.4802
  37   2.0000      -0.485849       -13.2206
  38   2.0000      -0.470344       -12.7987
  39   2.0000      -0.449079       -12.2201
  40   2.0000      -0.439586       -11.9617
  41   2.0000      -0.433285       -11.7903
  42   2.0000      -0.417946       -11.3729
  43   2.0000      -0.409509       -11.1433
  44   2.0000      -0.404796       -11.0150
  45   2.0000      -0.394883       -10.7453
  46   2.0000      -0.390067       -10.6143
  47   2.0000      -0.370313       -10.0767
  48   2.0000      -0.365958        -9.9582
  49   2.0000      -0.360446        -9.8082
  50   2.0000      -0.358555        -9.7568
  51   2.0000      -0.343631        -9.3507
  52   2.0000      -0.325938        -8.8692
  53   2.0000      -0.319411        -8.6916
  54   2.0000      -0.310002        -8.4356
  55   2.0000      -0.301552        -8.2057
  56   2.0000      -0.298331        -8.1180
  57   2.0000      -0.294888        -8.0243
  58   2.0000      -0.285325        -7.7641
  59   2.0000      -0.279436        -7.6038
  60   2.0000      -0.274320        -7.4646
  61   2.0000      -0.273150        -7.4328
  62   2.0000      -0.271212        -7.3800
  63   2.0000      -0.263605        -7.1731
  64   2.0000      -0.258605        -7.0370
  65   2.0000      -0.250958        -6.8289
  66   2.0000      -0.223698        -6.0871
  67   2.0000      -0.131288        -3.5725
  68   0.0000      -0.033091        -0.9005
  69   0.0000      -0.009606        -0.2614
  70   0.0000      -0.003697        -0.1006
  71   0.0000      -0.000542        -0.0148
  72   0.0000       0.004984         0.1356

MULLIKEN ATOMIC CHARGES
-----------------------
   0 C :   -0.634720
   1 C :   -0.652760
   2 C :   -0.663343
   3 H :    0.350467
   4 H :    0.394244
   5 S :    1.123315
   6 C :    0.977177
   7 N :   -0.338483
   8 C :   -1.520085
   9 H :    0.541825
  10 H :    0.345048
  11 H :    0.117277
  12 H :    0.119932
  13 O :   -0.663427
  14 O :   -0.637027
  15 C :   -0.266096
  16 C :    0.041510
  17 C :   -0.524332
  18 H :    0.181982
  19 H :    0.336538
  20 H :    0.267076
  21 H :    0.252464
  22 C :   -0.361630
  23 H :    0.257319
  24 H :    0.128231
  25 C :   -0.761963
  26 H :    0.188212
  27 H :    0.291516
  28 C :   -0.632267
  29 H :    0.287265
  30 H :    0.260710
  31 H :    0.286436
  32 H :   -0.028354
  33 H :    0.287433
  34 H :    0.276856
  35 F :   -0.096675
  36 H :    0.233785
  37 H :    0.234545
Sum of atomic charges:    0.0000000

LOEWDIN ATOMIC CHARGES
----------------------
   0 C :   -0.140457
   1 C :   -0.216761
   2 C :   -0.218831
   3 H :    0.109461
   4 H :    0.108056
   5 S :    0.625506
   6 C :   -0.463930
   7 N :    0.114584
   8 C :    0.005768
   9 H :   -0.016329
  10 H :    0.019625
  11 H :    0.081408
  12 H :    0.097077
  13 O :   -0.295732
  14 O :   -0.261227
  15 C :   -0.195151
  16 C :   -0.213221
  17 C :   -0.212296
  18 H :    0.099440
  19 H :    0.115165
  20 H :    0.115866
  21 H :    0.105708
  22 C :   -0.205596
  23 H :    0.113769
  24 H :    0.092095
  25 C :   -0.205252
  26 H :    0.104957
  27 H :    0.110480
  28 C :   -0.206566
  29 H :    0.105075
  30 H :    0.104338
  31 H :    0.124871
  32 H :    0.082553
  33 H :    0.109414
  34 H :    0.108168
  35 F :   -0.021679
  36 H :    0.117268
  37 H :    0.102375

  Mayer bond orders larger than 0.100000
B(  0-C ,  6-C ) :   0.3905 B(  0-C ,  8-C ) :  -0.1381 B(  0-C , 15-C ) :   0.7115
B(  0-C , 36-H ) :   0.8913 B(  0-C , 37-H ) :   1.0701 B(  1-C ,  2-C ) :   0.8351
B(  1-C ,  5-S ) :   0.1176 B(  1-C , 17-C ) :   0.8329 B(  1-C , 20-H ) :   0.9419
B(  1-C , 21-H ) :   0.9537 B(  2-C ,  3-H ) :   0.9123 B(  2-C ,  4-H ) :   0.8071
B(  2-C ,  5-S ) :   0.8440 B(  2-C , 14-O ) :   0.1439 B(  2-C , 32-H ) :   0.1241
B(  2-C , 35-F ) :   0.1007 B(  5-S , 13-O ) :   1.7945 B(  5-S , 14-O ) :   1.5649
B(  5-S , 35-F ) :   0.8936 B(  6-C ,  7-N ) :   0.8657 B(  6-C ,  8-C ) :   0.7715
B(  6-C ,  9-H ) :   0.2220 B(  6-C , 10-H ) :  -0.2763 B(  6-C , 37-H ) :  -0.2050
B(  7-N , 11-H ) :   1.0784 B(  7-N , 12-H ) :   1.0498 B(  8-C ,  9-H ) :   0.8527
B(  8-C , 10-H ) :   1.1249 B(  8-C , 13-O ) :   0.1426 B(  8-C , 22-C ) :   0.1365
B(  8-C , 32-H ) :   0.1000 B(  9-H , 13-O ) :  -0.4105 B( 13-O , 14-O ) :   0.1373
B( 15-C , 22-C ) :   0.2999 B( 15-C , 23-H ) :   0.8886 B( 15-C , 24-H ) :   1.1929
B( 15-C , 25-C ) :   0.1168 B( 15-C , 26-H ) :  -0.1205 B( 15-C , 28-C ) :   0.1681
B( 16-C , 17-C ) :   0.3333 B( 16-C , 22-C ) :   0.1390 B( 16-C , 25-C ) :   0.1235
B( 16-C , 28-C ) :   0.2293 B( 16-C , 31-H ) :   0.8270 B( 16-C , 32-H ) :   1.4452
B( 17-C , 18-H ) :   0.9522 B( 17-C , 19-H ) :   0.8973 B( 17-C , 28-C ) :   0.4952
B( 17-C , 31-H ) :  -0.1206 B( 22-C , 24-H ) :  -0.1202 B( 22-C , 25-C ) :   0.8158
B( 22-C , 26-H ) :   1.0735 B( 22-C , 27-H ) :   0.8508 B( 22-C , 28-C ) :  -0.1047
B( 25-C , 28-C ) :   0.8455 B( 25-C , 29-H ) :   0.9501 B( 25-C , 30-H ) :   0.9531
B( 28-C , 31-H ) :  -0.1007 B( 28-C , 32-H ) :  -0.1379 B( 28-C , 33-H ) :   0.9417
B( 28-C , 34-H ) :   0.9353 B( 31-H , 32-H ) :   0.1279

Dispersion correction           -0.093134728
FINAL SINGLE POINT ENERGY     -1135.637823621131

DIPOLE MOMENT
-------------
                                X             Y             Z
Electronic contribution:     -8.83715     -21.42754     -14.12526
Nuclear contribution   :      8.67311      20.60825      15.35056
                        -----------------------------------------
Total Dipole Moment    :     -0.16405      -0.81929       1.22530
                        -----------------------------------------
Magnitude (a.u.)       :      1.48307
Magnitude (Debye)      :      3.76967

Rotational constants in cm-1:     0.017976     0.012151     0.008188
Rotational constants in MHz :   538.898457   364.286417   245.482451

                             ****ORCA TERMINATED NORMALLY****
TOTAL RUN TIME: 0 days 0 hours 2 minutes 1 seconds 972 msec
