                         Program Version 5.0.0 -  RELEASE  -
|  1> !CAM-B3LYP RIJCOSX def2-SVPD def2/J TightSCF
|  2> *xyz -1 1
|  3> C          0.61188        1.65763       -4.50029
|  4> C          1.69499        1.54179       -5.57045
|  5> H          2.69733        1.73466       -5.18400
|  6> H          1.50666        2.27224       -6.35808
|  7> S          1.78029       -0.03313       -6.42874
|  8> O          2.56929        0.21366       -7.60736
|  9> O          0.41688       -0.46297       -6.61859
| 10> O          2.50513       -0.93326       -5.48257
| 11> H         -0.34424        1.45871       -4.93752
| 12> H          0.61845        2.64655       -4.09174
| 13> H          0.80247        0.94882       -3.72173
| 14> *
| 15> %MaxCore 64000
| 16>
| 17> %pal nprocs 4
| 18> end
| 19>
| 20> %scf
| 21>   MaxIter 150
| 22> end
| 23>
| 24>
| 25>                          ****END OF INPUT****

CARTESIAN COORDINATES (ANGSTROEM)
---------------------------------
  C      0.611880    1.657630   -4.500290
  C      1.694990    1.541790   -5.570450
  H      2.697330    1.734660   -5.184000
  H      1.506660    2.272240   -6.358080
  S      1.780290   -0.033130   -6.428740
  O      2.569290    0.213660   -7.607360
  O      0.416880   -0.462970   -6.618590
  O      2.505130   -0.933260   -5.482570
  H     -0.344240    1.458710   -4.937520
  H      0.618450    2.646550   -4.091740
  H      0.802470    0.948820   -3.721730

 Total Charge           Charge          ....   -1
 Multiplicity           Mult            ....    1
 Number of Electrons    NEL             ....   58
 Basis Dimension        Dim             ....  176

ORBITAL ENERGIES
----------------

  NO   OCC          E(Eh)            E(eV)
   0   2.0000     -88.962320     -2420.7878
   1   2.0000     -18.998295      -516.9699
   2   2.0000     -18.997562      -516.9499
   3   2.0000     -18.978645      -516.4352
   4   2.0000     -10.124232      -275.4944
   5   2.0000     -10.119145      -275.3559
   6   2.0000      -8.015672      -218.1175
   7   2.0000      -5.985662      -162.8781
   8   2.0000      -5.985446      -162.8723
   9   2.0000      -5.984989      -162.8598
  10   2.0000      -1.018423       -27.7127
  11   2.0000      -0.879226       -23.9250
  12   2.0000      -0.844297       -22.9745
  13   2.0000      -0.714452       -19.4412
  14   2.0000      -0.587270       -15.9804
  15   2.0000      -0.457564       -12.4509
  16   2.0000      -0.393949       -10.7199
  17   2.0000      -0.391983       -10.6664
  18   2.0000      -0.351850        -9.5743
  19   2.0000      -0.336841        -9.1659
  20   2.0000      -0.329948        -8.9783
  21   2.0000      -0.301444        -8.2027
  22   2.0000      -0.284867        -7.7516
  23   2.0000      -0.223261        -6.0752
  24   2.0000      -0.221794        -6.0353
  25   2.0000      -0.187663        -5.1066
  26   2.0000      -0.177040        -4.8175
  27   2.0000      -0.163095        -4.4380
  28   2.0000      -0.131033        -3.5656
  29   0.0000       0.168351         4.5811
  30   0.0000       0.194119         5.2822
  31   0.0000       0.200540         5.4570
  32   0.0000       0.207520         5.6469
  33   0.0000       0.227610         6.1936

MULLIKEN ATOMIC CHARGES
-----------------------
   0 C :    0.963426
   1 C :   -0.216406
   2 H :   -0.135911
   3 H :   -0.091365
   4 S :    1.318343
   5 O :   -0.779912
   6 O :   -0.795513
   7 O :   -0.845616
   8 H :   -0.113800
   9 H :   -0.180454
  10 H :   -0.122792
Sum of atomic charges:   -1.0000000

LOEWDIN ATOMIC CHARGES
----------------------
   0 C :    0.105241
   1 C :   -0.134493
   2 H :    0.006646
   3 H :   -0.000969
   4 S :    0.856382
   5 O :   -0.577304
   6 O :   -0.573090
   7 O :   -0.609529
   8 H :   -0.024135
   9 H :   -0.033688
  10 H :   -0.015060

  Mayer bond orders larger than 0.100000
B(  0-C ,  1-C ) :   1.2603 B(  0-C ,  3-H ) :   0.1038 B(  0-C ,  8-H ) :   0.7799
B(  0-C ,  9-H ) :   0.6913 B(  0-C , 10-H ) :   0.7736 B(  1-C ,  2-H ) :   0.9632
B(  1-C ,  3-H ) :   0.9664 B(  1-C ,  4-S ) :   0.9211 B(  1-C ,  8-H ) :   0.2223
B(  1-C ,  9-H ) :   0.2462 B(  1-C , 10-H ) :   0.2064 B(  4-S ,  5-O ) :   1.3467
B(  4-S ,  6-O ) :   1.3037 B(  4-S ,  7-O ) :   1.2589

FINAL SINGLE POINT ENERGY      -702.669598422452

DIPOLE MOMENT
-------------
                                X             Y             Z
Electronic contribution:      2.20901      -5.51740      -4.94018
Nuclear contribution   :     -2.69163       7.29476       5.86550
                        -----------------------------------------
Total Dipole Moment    :     -0.48262       1.77736       0.92532
                        -----------------------------------------
Magnitude (a.u.)       :      2.06110
Magnitude (Debye)      :      5.23891

Rotational constants in cm-1:     0.163060     0.082831     0.081111
Rotational constants in MHz :  4888.419330  2483.225008  2431.646841

                             ****ORCA TERMINATED NORMALLY****
TOTAL RUN TIME: 0 days 0 hours 0 minutes 23 seconds 310 msec
