                         Program Version 5.0.0 -  RELEASE  -
|  1> !CAM-B3LYP RIJCOSX def2-SVPD def2/J TightSCF
|  2> *xyz 1 1
|  3> C          1.96337       -1.74915       -1.89689
|  4> N          2.73849       -2.01517       -3.09711
|  5> C          4.04974       -2.15472       -3.15204
|  6> N          4.65821       -1.98629       -4.31866
|  7> N          4.76423       -2.45444       -2.05049
|  8> H          4.28736       -2.77626       -1.21750
|  9> H          5.75082       -2.65835       -2.12599
| 10> H          2.34518       -1.69027       -3.97145
| 11> H          4.10900       -1.59268       -5.07176
| 12> H          5.64910       -2.15646       -4.42724
| 13> C          2.08852       -0.30091       -1.41520
| 14> H          2.23127       -2.45162       -1.10264
| 15> H          0.93025       -1.97780       -2.15544
| 16> H          1.82118        0.36368       -2.21003
| 17> H          3.09792       -0.11068       -1.11551
| 18> H          1.43391       -0.14382       -0.58352
| 19> *
| 20> %MaxCore 64000
| 21>
| 22> %pal nprocs 4
| 23> end
| 24>
| 25> %scf
| 26>   MaxIter 150
| 27> end
| 28>
| 29>
| 30>                          ****END OF INPUT****

CARTESIAN COORDINATES (ANGSTROEM)
---------------------------------
  C      1.963370   -1.749150   -1.896890
  N      2.738490   -2.015170   -3.097110
  C      4.049740   -2.154720   -3.152040
  N      4.658210   -1.986290   -4.318660
  N      4.764230   -2.454440   -2.050490
  H      4.287360   -2.776260   -1.217500
  H      5.750820   -2.658350   -2.125990
  H      2.345180   -1.690270   -3.971450
  H      4.109000   -1.592680   -5.071760
  H      5.649100   -2.156460   -4.427240
  C      2.088520   -0.300910   -1.415200
  H      2.231270   -2.451620   -1.102640
  H      0.930250   -1.977800   -2.155440
  H      1.821180    0.363680   -2.210030
  H      3.097920   -0.110680   -1.115510
  H      1.433910   -0.143820   -0.583520

 Total Charge           Charge          ....    1
 Multiplicity           Mult            ....    1
 Number of Electrons    NEL             ....   48
 Basis Dimension        Dim             ....  200

ORBITAL ENERGIES
----------------

  NO   OCC          E(Eh)            E(eV)
   0   2.0000     -14.631828      -398.1523
   1   2.0000     -14.629593      -398.0915
   2   2.0000     -14.629542      -398.0901
   3   2.0000     -10.599979      -288.4401
   4   2.0000     -10.466863      -284.8178
   5   2.0000     -10.395373      -282.8725
   6   2.0000      -1.296260       -35.2730
   7   2.0000      -1.181949       -32.1625
   8   2.0000      -1.168510       -31.7968
   9   2.0000      -1.007427       -27.4135
  10   2.0000      -0.916148       -24.9297
  11   2.0000      -0.880103       -23.9488
  12   2.0000      -0.859902       -23.3991
  13   2.0000      -0.818758       -22.2795
  14   2.0000      -0.767368       -20.8811
  15   2.0000      -0.758346       -20.6356
  16   2.0000      -0.731193       -19.8968
  17   2.0000      -0.699933       -19.0461
  18   2.0000      -0.671303       -18.2671
  19   2.0000      -0.633538       -17.2394
  20   2.0000      -0.599604       -16.3161
  21   2.0000      -0.579095       -15.7580
  22   2.0000      -0.545160       -14.8346
  23   2.0000      -0.515688       -14.0326
  24   0.0000      -0.125887        -3.4256
  25   0.0000      -0.121585        -3.3085
  26   0.0000      -0.088437        -2.4065
  27   0.0000      -0.080102        -2.1797
  28   0.0000      -0.051863        -1.4113

MULLIKEN ATOMIC CHARGES
-----------------------
   0 C :    0.426554
   1 N :   -0.297330
   2 C :    1.202009
   3 N :    0.050380
   4 N :    0.120725
   5 H :   -0.066033
   6 H :   -0.181235
   7 H :   -0.190575
   8 H :   -0.040831
   9 H :   -0.102319
  10 C :    0.875069
  11 H :   -0.162955
  12 H :   -0.355187
  13 H :   -0.106003
  14 H :   -0.119337
  15 H :   -0.052931
Sum of atomic charges:    1.0000000

LOEWDIN ATOMIC CHARGES
----------------------
   0 C :    0.039212
   1 N :    0.043910
   2 C :   -0.038778
   3 N :    0.267483
   4 N :    0.283453
   5 H :    0.021558
   6 H :    0.036352
   7 H :    0.056404
   8 H :    0.038104
   9 H :    0.043466
  10 C :    0.163208
  11 H :    0.026546
  12 H :    0.040568
  13 H :   -0.007168
  14 H :   -0.016818
  15 H :    0.002502

  Mayer bond orders larger than 0.100000
B(  0-C ,  1-N ) :   0.9656 B(  0-C ,  7-H ) :  -0.1276 B(  0-C , 10-C ) :   1.2238
B(  0-C , 11-H ) :   0.8838 B(  0-C , 12-H ) :   0.8170 B(  0-C , 13-H ) :   0.2484
B(  0-C , 14-H ) :   0.1953 B(  0-C , 15-H ) :   0.1778 B(  1-N ,  2-C ) :   1.0786
B(  1-N ,  3-N ) :   0.2769 B(  1-N ,  4-N ) :   0.1931 B(  1-N ,  7-H ) :   1.2283
B(  1-N , 11-H ) :   0.1318 B(  1-N , 12-H ) :   0.2216 B(  2-C ,  3-N ) :   0.8962
B(  2-C ,  4-N ) :   0.9830 B(  2-C ,  5-H ) :  -0.1301 B(  2-C ,  6-H ) :  -0.1692
B(  2-C ,  7-H ) :  -0.2256 B(  2-C ,  8-H ) :  -0.1478 B(  2-C ,  9-H ) :  -0.1461
B(  3-N ,  4-N ) :   0.1415 B(  3-N ,  8-H ) :   1.1674 B(  3-N ,  9-H ) :   1.2579
B(  4-N ,  5-H ) :   1.1058 B(  4-N ,  6-H ) :   1.2774 B(  5-H ,  6-H ) :  -0.2152
B(  8-H ,  9-H ) :  -0.1833 B( 10-C , 13-H ) :   0.7648 B( 10-C , 14-H ) :   0.8059
B( 10-C , 15-H ) :   0.7697

FINAL SINGLE POINT ENERGY      -284.065904019850

DIPOLE MOMENT
-------------
                                X             Y             Z
Electronic contribution:      3.01770      -2.71511      -3.09430
Nuclear contribution   :     -2.17768       2.37118       2.44574
                        -----------------------------------------
Total Dipole Moment    :      0.84001      -0.34394      -0.64856
                        -----------------------------------------
Magnitude (a.u.)       :      1.11559
Magnitude (Debye)      :      2.83561

Rotational constants in cm-1:     0.215650     0.075183     0.066454
Rotational constants in MHz :  6465.033740  2253.919004  1992.232519

                             ****ORCA TERMINATED NORMALLY****
TOTAL RUN TIME: 0 days 0 hours 0 minutes 34 seconds 286 msec
