                         Program Version 5.0.0 -  RELEASE  -
|  1> !CAM-B3LYP RIJCOSX def2-SVPD def2/J TightSCF
|  2> *xyz 0 1
|  3> C          0.61188        1.65763       -4.50029
|  4> C          1.69499        1.54179       -5.57045
|  5> H          2.69733        1.73466       -5.18400
|  6> H          1.50666        2.27224       -6.35808
|  7> S          1.78029       -0.03313       -6.42874
|  8> F          2.56929        0.21366       -7.60736
|  9> O          0.41688       -0.46297       -6.61859
| 10> O          2.50513       -0.93326       -5.48257
| 11> H         -0.34424        1.45871       -4.93752
| 12> H          0.61845        2.64655       -4.09174
| 13> H          0.80247        0.94882       -3.72173
| 14> *
| 15> %MaxCore 64000
| 16>
| 17> %pal nprocs 4
| 18> end
| 19>
| 20> %scf
| 21>   MaxIter 150
| 22> end
| 23>
| 24>
| 25>                          ****END OF INPUT****

CARTESIAN COORDINATES (ANGSTROEM)
---------------------------------
  C      0.611880    1.657630   -4.500290
  C      1.694990    1.541790   -5.570450
  H      2.697330    1.734660   -5.184000
  H      1.506660    2.272240   -6.358080
  S      1.780290   -0.033130   -6.428740
  F      2.569290    0.213660   -7.607360
  O      0.416880   -0.462970   -6.618590
  O      2.505130   -0.933260   -5.482570
  H     -0.344240    1.458710   -4.937520
  H      0.618450    2.646550   -4.091740
  H      0.802470    0.948820   -3.721730

 Total Charge           Charge          ....    0
 Multiplicity           Mult            ....    1
 Number of Electrons    NEL             ....   58
 Basis Dimension        Dim             ....  176

ORBITAL ENERGIES
----------------

  NO   OCC          E(Eh)            E(eV)
   0   2.0000     -89.222609     -2427.8706
   1   2.0000     -24.898454      -677.5214
   2   2.0000     -19.232796      -523.3510
   3   2.0000     -19.212809      -522.8071
   4   2.0000     -10.327157      -281.0162
   5   2.0000     -10.282151      -279.7916
   6   2.0000      -8.276855      -225.2247
   7   2.0000      -6.250951      -170.0970
   8   2.0000      -6.244405      -169.9189
   9   2.0000      -6.243044      -169.8819
  10   2.0000      -1.467426       -39.9307
  11   2.0000      -1.193807       -32.4851
  12   2.0000      -1.081737       -29.4356
  13   2.0000      -0.907198       -24.6861
  14   2.0000      -0.821305       -22.3488
  15   2.0000      -0.758779       -20.6474
  16   2.0000      -0.671653       -18.2766
  17   2.0000      -0.669743       -18.2246
  18   2.0000      -0.634479       -17.2650
  19   2.0000      -0.571548       -15.5526
  20   2.0000      -0.560309       -15.2468
  21   2.0000      -0.516449       -14.0533
  22   2.0000      -0.505777       -13.7629
  23   2.0000      -0.481428       -13.1003
  24   2.0000      -0.460320       -12.5260
  25   2.0000      -0.456862       -12.4319
  26   2.0000      -0.406241       -11.0544
  27   2.0000      -0.387284       -10.5385
  28   2.0000      -0.372928       -10.1479
  29   0.0000       0.023960         0.6520
  30   0.0000       0.049254         1.3403
  31   0.0000       0.061647         1.6775
  32   0.0000       0.063668         1.7325
  33   0.0000       0.084670         2.3040

MULLIKEN ATOMIC CHARGES
-----------------------
   0 C :    0.956266
   1 C :   -0.254814
   2 H :   -0.081557
   3 H :   -0.038265
   4 S :    1.488318
   5 F :   -0.396709
   6 O :   -0.647109
   7 O :   -0.696586
   8 H :   -0.088757
   9 H :   -0.140329
  10 H :   -0.100459
Sum of atomic charges:   -0.0000000

LOEWDIN ATOMIC CHARGES
----------------------
   0 C :    0.149018
   1 C :   -0.098296
   2 H :    0.025999
   3 H :    0.016551
   4 S :    1.122809
   5 F :   -0.253595
   6 O :   -0.462385
   7 O :   -0.493186
   8 H :   -0.006481
   9 H :   -0.002951
  10 H :    0.002517

  Mayer bond orders larger than 0.100000
B(  0-C ,  1-C ) :   1.3232 B(  0-C ,  3-H ) :   0.1073 B(  0-C ,  8-H ) :   0.7772
B(  0-C ,  9-H ) :   0.7046 B(  0-C , 10-H ) :   0.7767 B(  1-C ,  2-H ) :   0.9601
B(  1-C ,  3-H ) :   0.9405 B(  1-C ,  4-S ) :   0.9591 B(  1-C ,  8-H ) :   0.2157
B(  1-C ,  9-H ) :   0.2364 B(  1-C , 10-H ) :   0.2002 B(  4-S ,  5-F ) :   0.7017
B(  4-S ,  6-O ) :   1.5234 B(  4-S ,  7-O ) :   1.4699

FINAL SINGLE POINT ENERGY      -727.152892705945

DIPOLE MOMENT
-------------
                                X             Y             Z
Electronic contribution:      3.85861      -5.55419      -7.51479
Nuclear contribution   :     -3.66946       7.33549       7.42434
                        -----------------------------------------
Total Dipole Moment    :      0.18915       1.78130      -0.09045
                        -----------------------------------------
Magnitude (a.u.)       :      1.79359
Magnitude (Debye)      :      4.55895

Rotational constants in cm-1:     0.158379     0.080294     0.077843
Rotational constants in MHz :  4748.076444  2407.152850  2333.668303

                             ****ORCA TERMINATED NORMALLY****
TOTAL RUN TIME: 0 days 0 hours 0 minutes 25 seconds 922 msec
