                         Program Version 5.0.0 -  RELEASE  -
|  1> !CAM-B3LYP RIJCOSX def2-SVPD def2/J TightSCF
|  2> *xyz 0 1
|  3> C          1.96337       -1.74915       -1.89689
|  4> C          2.73849       -2.01517       -3.09711
|  5> C          4.04974       -2.15472       -3.15204
|  6> N          4.65821       -1.98629       -4.31866
|  7> N          4.76423       -2.45444       -2.05049
|  8> H          4.28736       -2.77626       -1.21750
|  9> H          5.75082       -2.65835       -2.12599
| 10> H          2.34518       -1.69027       -3.97145
| 11> H          4.10900       -1.59268       -5.07176
| 12> H          5.64910       -2.15646       -4.42724
| 13> C          2.08852       -0.30091       -1.41520
| 14> H          2.23127       -2.45162       -1.10264
| 15> H          0.93025       -1.97780       -2.15544
| 16> H          1.82118        0.36368       -2.21003
| 17> H          3.09792       -0.11068       -1.11551
| 18> H          1.43391       -0.14382       -0.58352
| 19> *
| 20> %MaxCore 64000
| 21>
| 22> %pal nprocs 4
| 23> end
| 24>
| 25> %scf
| 26>   MaxIter 150
| 27> end
| 28>
| 29>
| 30>                          ****END OF INPUT****

CARTESIAN COORDINATES (ANGSTROEM)
---------------------------------
  C      1.963370   -1.749150   -1.896890
  C      2.738490   -2.015170   -3.097110
  C      4.049740   -2.154720   -3.152040
  N      4.658210   -1.986290   -4.318660
  N      4.764230   -2.454440   -2.050490
  H      4.287360   -2.776260   -1.217500
  H      5.750820   -2.658350   -2.125990
  H      2.345180   -1.690270   -3.971450
  H      4.109000   -1.592680   -5.071760
  H      5.649100   -2.156460   -4.427240
  C      2.088520   -0.300910   -1.415200
  H      2.231270   -2.451620   -1.102640
  H      0.930250   -1.977800   -2.155440
  H      1.821180    0.363680   -2.210030
  H      3.097920   -0.110680   -1.115510
  H      1.433910   -0.143820   -0.583520

 Total Charge           Charge          ....    0
 Multiplicity           Mult            ....    1
 Number of Electrons    NEL             ....   48
 Basis Dimension        Dim             ....  200

ORBITAL ENERGIES
----------------

  NO   OCC          E(Eh)            E(eV)
   0   2.0000     -14.407348      -392.0439
   1   2.0000     -14.404485      -391.9660
   2   2.0000     -10.303996      -280.3860
   3   2.0000     -10.232457      -278.4393
   4   2.0000     -10.222672      -278.1730
   5   2.0000     -10.177644      -276.9478
   6   2.0000      -1.036184       -28.1960
   7   2.0000      -0.944271       -25.6949
   8   2.0000      -0.849839       -23.1253
   9   2.0000      -0.768227       -20.9045
  10   2.0000      -0.689619       -18.7655
  11   2.0000      -0.652897       -17.7662
  12   2.0000      -0.615443       -16.7471
  13   2.0000      -0.580968       -15.8089
  14   2.0000      -0.543397       -14.7866
  15   2.0000      -0.509093       -13.8531
  16   2.0000      -0.490959       -13.3597
  17   2.0000      -0.455823       -12.4036
  18   2.0000      -0.449138       -12.2217
  19   2.0000      -0.422609       -11.4998
  20   2.0000      -0.393859       -10.7175
  21   2.0000      -0.382695       -10.4137
  22   2.0000      -0.332424        -9.0457
  23   2.0000      -0.217985        -5.9317
  24   0.0000       0.045420         1.2359
  25   0.0000       0.071806         1.9539
  26   0.0000       0.079070         2.1516
  27   0.0000       0.090475         2.4619
  28   0.0000       0.111252         3.0273

MULLIKEN ATOMIC CHARGES
-----------------------
   0 C :    0.002975
   1 C :   -0.273150
   2 C :    0.723058
   3 N :    0.100465
   4 N :    0.050394
   5 H :   -0.045932
   6 H :   -0.307995
   7 H :   -0.229116
   8 H :   -0.037439
   9 H :   -0.211044
  10 C :    0.887541
  11 H :   -0.154000
  12 H :   -0.170399
  13 H :   -0.117308
  14 H :   -0.127209
  15 H :   -0.090840
Sum of atomic charges:   -0.0000000

LOEWDIN ATOMIC CHARGES
----------------------
   0 C :   -0.101016
   1 C :   -0.046906
   2 C :   -0.224056
   3 N :    0.181052
   4 N :    0.203360
   5 H :   -0.008532
   6 H :   -0.013076
   7 H :   -0.051299
   8 H :    0.005325
   9 H :   -0.007338
  10 C :    0.122969
  11 H :    0.001956
  12 H :    0.011525
  13 H :   -0.019713
  14 H :   -0.026540
  15 H :   -0.027712

  Mayer bond orders larger than 0.100000
B(  0-C ,  1-C ) :   1.2407 B(  0-C ,  7-H ) :   0.3237 B(  0-C , 10-C ) :   1.2009
B(  0-C , 11-H ) :   0.8382 B(  0-C , 12-H ) :   0.7510 B(  0-C , 13-H ) :   0.2512
B(  0-C , 14-H ) :   0.2136 B(  0-C , 15-H ) :   0.1945 B(  1-C ,  2-C ) :   1.7592
B(  1-C ,  3-N ) :   0.3064 B(  1-C ,  4-N ) :   0.2290 B(  1-C ,  7-H ) :   0.7221
B(  1-C , 11-H ) :   0.2367 B(  1-C , 12-H ) :   0.3066 B(  2-C ,  3-N ) :   0.9246
B(  2-C ,  4-N ) :   0.9306 B(  2-C ,  6-H ) :  -0.2107 B(  2-C ,  7-H ) :   0.3124
B(  3-N ,  8-H ) :   1.1508 B(  3-N ,  9-H ) :   1.2585 B(  4-N ,  5-H ) :   1.0673
B(  4-N ,  6-H ) :   1.3658 B(  5-H ,  6-H ) :  -0.2189 B(  8-H ,  9-H ) :  -0.1784
B( 10-C , 13-H ) :   0.7830 B( 10-C , 14-H ) :   0.8002 B( 10-C , 15-H ) :   0.7576

FINAL SINGLE POINT ENERGY      -267.592449185790

DIPOLE MOMENT
-------------
                                X             Y             Z
Electronic contribution:      3.28706      -2.43336      -2.52243
Nuclear contribution   :     -2.31778       2.31977       2.35294
                        -----------------------------------------
Total Dipole Moment    :      0.96928      -0.11359      -0.16950
                        -----------------------------------------
Magnitude (a.u.)       :      0.99052
Magnitude (Debye)      :      2.51770

Rotational constants in cm-1:     0.219415     0.075373     0.066689
Rotational constants in MHz :  6577.897266  2259.621393  1999.290981

                             ****ORCA TERMINATED NORMALLY****
TOTAL RUN TIME: 0 days 0 hours 0 minutes 36 seconds 744 msec
