                         Program Version 5.0.0 -  RELEASE  -
|  1> !CAM-B3LYP RIJCOSX def2-SVPD def2/J TightSCF
|  2> *xyz 0 1
|  3> C          0.61188        1.65763       -4.50029
|  4> C          1.69499        1.54179       -5.57045
|  5> H          2.69733        1.73466       -5.18400
|  6> H          1.50666        2.27224       -6.35808
|  7> S          1.78029       -0.03313       -6.42874
|  8> O          2.56929        0.21366       -7.60736
|  9> F          0.41688       -0.46297       -6.61859
| 10> O          2.50513       -0.93326       -5.48257
| 11> H         -0.34424        1.45871       -4.93752
| 12> H          0.61845        2.64655       -4.09174
| 13> H          0.80247        0.94882       -3.72173
| 14> *
| 15> %MaxCore 64000
| 16>
| 17> %pal nprocs 4
| 18> end
| 19>
| 20> %scf
| 21>   MaxIter 150
| 22> end
| 23>
| 24>
| 25>                          ****END OF INPUT****

CARTESIAN COORDINATES (ANGSTROEM)
---------------------------------
  C      0.611880    1.657630   -4.500290
  C      1.694990    1.541790   -5.570450
  H      2.697330    1.734660   -5.184000
  H      1.506660    2.272240   -6.358080
  S      1.780290   -0.033130   -6.428740
  O      2.569290    0.213660   -7.607360
  F      0.416880   -0.462970   -6.618590
  O      2.505130   -0.933260   -5.482570
  H     -0.344240    1.458710   -4.937520
  H      0.618450    2.646550   -4.091740
  H      0.802470    0.948820   -3.721730

 Total Charge           Charge          ....    0
 Multiplicity           Mult            ....    1
 Number of Electrons    NEL             ....   58
 Basis Dimension        Dim             ....  176

ORBITAL ENERGIES
----------------

  NO   OCC          E(Eh)            E(eV)
   0   2.0000     -89.222308     -2427.8624
   1   2.0000     -24.897992      -677.5088
   2   2.0000     -19.232355      -523.3390
   3   2.0000     -19.212931      -522.8104
   4   2.0000     -10.326929      -281.0100
   5   2.0000     -10.288050      -279.9521
   6   2.0000      -8.276567      -225.2168
   7   2.0000      -6.250803      -170.0930
   8   2.0000      -6.244058      -169.9094
   9   2.0000      -6.242692      -169.8723
  10   2.0000      -1.465840       -39.8875
  11   2.0000      -1.194853       -32.5136
  12   2.0000      -1.081516       -29.4296
  13   2.0000      -0.911058       -24.7912
  14   2.0000      -0.817273       -22.2391
  15   2.0000      -0.763633       -20.7795
  16   2.0000      -0.682128       -18.5616
  17   2.0000      -0.669911       -18.2292
  18   2.0000      -0.624129       -16.9834
  19   2.0000      -0.572582       -15.5807
  20   2.0000      -0.554521       -15.0893
  21   2.0000      -0.527006       -14.3406
  22   2.0000      -0.512029       -13.9330
  23   2.0000      -0.485596       -13.2137
  24   2.0000      -0.468357       -12.7446
  25   2.0000      -0.454143       -12.3579
  26   2.0000      -0.405005       -11.0208
  27   2.0000      -0.387414       -10.5421
  28   2.0000      -0.373096       -10.1525
  29   0.0000       0.020138         0.5480
  30   0.0000       0.054462         1.4820
  31   0.0000       0.059526         1.6198
  32   0.0000       0.064088         1.7439
  33   0.0000       0.083155         2.2628

MULLIKEN ATOMIC CHARGES
-----------------------
   0 C :    0.969834
   1 C :   -0.224539
   2 H :   -0.085309
   3 H :   -0.044111
   4 S :    1.456871
   5 O :   -0.627386
   6 F :   -0.402793
   7 O :   -0.694871
   8 H :   -0.106293
   9 H :   -0.141691
  10 H :   -0.099714
Sum of atomic charges:    0.0000000

LOEWDIN ATOMIC CHARGES
----------------------
   0 C :    0.134380
   1 C :   -0.086351
   2 H :    0.038339
   3 H :    0.020491
   4 S :    1.119594
   5 O :   -0.462364
   6 F :   -0.253520
   7 O :   -0.492382
   8 H :   -0.012431
   9 H :   -0.004230
  10 H :   -0.001525

  Mayer bond orders larger than 0.100000
B(  0-C ,  1-C ) :   1.2762 B(  0-C ,  8-H ) :   0.7752 B(  0-C ,  9-H ) :   0.7002
B(  0-C , 10-H ) :   0.7852 B(  1-C ,  2-H ) :   0.9641 B(  1-C ,  3-H ) :   0.9698
B(  1-C ,  4-S ) :   0.9834 B(  1-C ,  8-H ) :   0.2046 B(  1-C ,  9-H ) :   0.2398
B(  1-C , 10-H ) :   0.1981 B(  4-S ,  5-O ) :   1.5652 B(  4-S ,  6-F ) :   0.6844
B(  4-S ,  7-O ) :   1.4821

FINAL SINGLE POINT ENERGY      -727.152835887251

DIPOLE MOMENT
-------------
                                X             Y             Z
Electronic contribution:      0.21278      -6.68643      -5.81337
Nuclear contribution   :     -1.42658       8.04056       6.39401
                        -----------------------------------------
Total Dipole Moment    :     -1.21381       1.35413       0.58064
                        -----------------------------------------
Magnitude (a.u.)       :      1.90896
Magnitude (Debye)      :      4.85219

Rotational constants in cm-1:     0.153659     0.082363     0.078978
Rotational constants in MHz :  4606.587369  2469.179541  2367.702074

                             ****ORCA TERMINATED NORMALLY****
TOTAL RUN TIME: 0 days 0 hours 0 minutes 25 seconds 874 msec
