                         Program Version 5.0.0 -  RELEASE  -
|  1> !CAM-B3LYP RIJCOSX def2-SVPD def2/J TightSCF
|  2> *xyz 0 1
|  3> C          1.96337       -1.74915       -1.89689
|  4> N          2.73849       -2.01517       -3.09711
|  5> C          4.04974       -2.15472       -3.15204
|  6> C          4.65821       -1.98629       -4.31866
|  7> N          4.76423       -2.45444       -2.05049
|  8> H          4.28736       -2.77626       -1.21750
|  9> H          5.75082       -2.65835       -2.12599
| 10> H          2.34518       -1.69027       -3.97145
| 11> H          4.10900       -1.59268       -5.07176
| 12> H          5.64910       -2.15646       -4.42724
| 13> C          2.08852       -0.30091       -1.41520
| 14> H          2.23127       -2.45162       -1.10264
| 15> H          0.93025       -1.97780       -2.15544
| 16> H          1.82118        0.36368       -2.21003
| 17> H          3.09792       -0.11068       -1.11551
| 18> H          1.43391       -0.14382       -0.58352
| 19> *
| 20> %MaxCore 64000
| 21>
| 22> %pal nprocs 4
| 23> end
| 24>
| 25> %scf
| 26>   MaxIter 150
| 27> end
| 28>
| 29>
| 30>                          ****END OF INPUT****

CARTESIAN COORDINATES (ANGSTROEM)
---------------------------------
  C      1.963370   -1.749150   -1.896890
  N      2.738490   -2.015170   -3.097110
  C      4.049740   -2.154720   -3.152040
  C      4.658210   -1.986290   -4.318660
  N      4.764230   -2.454440   -2.050490
  H      4.287360   -2.776260   -1.217500
  H      5.750820   -2.658350   -2.125990
  H      2.345180   -1.690270   -3.971450
  H      4.109000   -1.592680   -5.071760
  H      5.649100   -2.156460   -4.427240
  C      2.088520   -0.300910   -1.415200
  H      2.231270   -2.451620   -1.102640
  H      0.930250   -1.977800   -2.155440
  H      1.821180    0.363680   -2.210030
  H      3.097920   -0.110680   -1.115510
  H      1.433910   -0.143820   -0.583520

 Total Charge           Charge          ....    0
 Multiplicity           Mult            ....    1
 Number of Electrons    NEL             ....   48
 Basis Dimension        Dim             ....  200

ORBITAL ENERGIES
----------------

  NO   OCC          E(Eh)            E(eV)
   0   2.0000     -14.405530      -391.9944
   1   2.0000     -14.402867      -391.9219
   2   2.0000     -10.305325      -280.4221
   3   2.0000     -10.298995      -280.2499
   4   2.0000     -10.247917      -278.8600
   5   2.0000     -10.170152      -276.7439
   6   2.0000      -1.044944       -28.4344
   7   2.0000      -0.957165       -26.0458
   8   2.0000      -0.847182       -23.0530
   9   2.0000      -0.776174       -21.1208
  10   2.0000      -0.703312       -19.1381
  11   2.0000      -0.672058       -18.2876
  12   2.0000      -0.608694       -16.5634
  13   2.0000      -0.567342       -15.4381
  14   2.0000      -0.549879       -14.9630
  15   2.0000      -0.507305       -13.8045
  16   2.0000      -0.503822       -13.7097
  17   2.0000      -0.471112       -12.8196
  18   2.0000      -0.451123       -12.2757
  19   2.0000      -0.442553       -12.0425
  20   2.0000      -0.427699       -11.6383
  21   2.0000      -0.423250       -11.5172
  22   2.0000      -0.319715        -8.6999
  23   2.0000      -0.221712        -6.0331
  24   0.0000       0.043114         1.1732
  25   0.0000       0.072041         1.9603
  26   0.0000       0.076358         2.0778
  27   0.0000       0.080295         2.1849
  28   0.0000       0.112313         3.0562

MULLIKEN ATOMIC CHARGES
-----------------------
   0 C :    0.440472
   1 N :   -0.245715
   2 C :    0.590257
   3 C :    0.487654
   4 N :    0.235152
   5 H :   -0.163099
   6 H :   -0.210967
   7 H :   -0.226893
   8 H :   -0.313903
   9 H :   -0.499627
  10 C :    0.857244
  11 H :   -0.197322
  12 H :   -0.399669
  13 H :   -0.131708
  14 H :   -0.119140
  15 H :   -0.102739
Sum of atomic charges:   -0.0000000

LOEWDIN ATOMIC CHARGES
----------------------
   0 C :    0.008582
   1 N :   -0.017509
   2 C :   -0.243664
   3 C :    0.144269
   4 N :    0.201853
   5 H :   -0.023980
   6 H :    0.003999
   7 H :    0.030804
   8 H :   -0.102146
   9 H :   -0.101044
  10 C :    0.135955
  11 H :    0.008666
  12 H :    0.017467
  13 H :   -0.018235
  14 H :   -0.023366
  15 H :   -0.021652

  Mayer bond orders larger than 0.100000
B(  0-C ,  1-N ) :   0.9299 B(  0-C ,  7-H ) :  -0.1327 B(  0-C , 10-C ) :   1.1993
B(  0-C , 11-H ) :   0.8785 B(  0-C , 12-H ) :   0.8130 B(  0-C , 13-H ) :   0.2601
B(  0-C , 14-H ) :   0.1980 B(  0-C , 15-H ) :   0.1853 B(  1-N ,  2-C ) :   1.1049
B(  1-N ,  3-C ) :   0.2605 B(  1-N ,  4-N ) :   0.1245 B(  1-N ,  7-H ) :   1.1711
B(  1-N , 11-H ) :   0.1489 B(  1-N , 12-H ) :   0.2165 B(  2-C ,  3-C ) :   1.3816
B(  2-C ,  4-N ) :   0.9982 B(  2-C ,  6-H ) :  -0.1150 B(  2-C ,  7-H ) :  -0.1604
B(  2-C ,  8-H ) :   0.1014 B(  2-C ,  9-H ) :   0.1394 B(  3-C ,  4-N ) :   0.1944
B(  3-C ,  8-H ) :   0.8274 B(  3-C ,  9-H ) :   0.7521 B(  4-N ,  5-H ) :   1.0695
B(  4-N ,  6-H ) :   1.2371 B(  5-H ,  6-H ) :  -0.2111 B( 10-C , 13-H ) :   0.7617
B( 10-C , 14-H ) :   0.8049 B( 10-C , 15-H ) :   0.7846

FINAL SINGLE POINT ENERGY      -267.587584477215

DIPOLE MOMENT
-------------
                                X             Y             Z
Electronic contribution:      1.40156      -2.33580      -1.20792
Nuclear contribution   :     -1.91052       2.32590       2.09379
                        -----------------------------------------
Total Dipole Moment    :     -0.50896      -0.00991       0.88587
                        -----------------------------------------
Magnitude (a.u.)       :      1.02172
Magnitude (Debye)      :      2.59700

Rotational constants in cm-1:     0.219448     0.077923     0.068804
Rotational constants in MHz :  6578.886179  2336.083179  2062.700476

                             ****ORCA TERMINATED NORMALLY****
TOTAL RUN TIME: 0 days 0 hours 0 minutes 33 seconds 193 msec
