                         Program Version 5.0.0 -  RELEASE  -
|  1> !CAM-B3LYP RIJCOSX def2-SVPD def2/J TightSCF
|  2> *xyz 0 1
|  3> C          0.61188        1.65763       -4.50029
|  4> C          1.69499        1.54179       -5.57045
|  5> H          2.69733        1.73466       -5.18400
|  6> H          1.50666        2.27224       -6.35808
|  7> S          1.78029       -0.03313       -6.42874
|  8> O          2.56929        0.21366       -7.60736
|  9> O          0.41688       -0.46297       -6.61859
| 10> F          2.50513       -0.93326       -5.48257
| 11> H         -0.34424        1.45871       -4.93752
| 12> H          0.61845        2.64655       -4.09174
| 13> H          0.80247        0.94882       -3.72173
| 14> *
| 15> %MaxCore 64000
| 16>
| 17> %pal nprocs 4
| 18> end
| 19>
| 20> %scf
| 21>   MaxIter 150
| 22> end
| 23>
| 24>
| 25>                          ****END OF INPUT****

CARTESIAN COORDINATES (ANGSTROEM)
---------------------------------
  C      0.611880    1.657630   -4.500290
  C      1.694990    1.541790   -5.570450
  H      2.697330    1.734660   -5.184000
  H      1.506660    2.272240   -6.358080
  S      1.780290   -0.033130   -6.428740
  O      2.569290    0.213660   -7.607360
  O      0.416880   -0.462970   -6.618590
  F      2.505130   -0.933260   -5.482570
  H     -0.344240    1.458710   -4.937520
  H      0.618450    2.646550   -4.091740
  H      0.802470    0.948820   -3.721730

 Total Charge           Charge          ....    0
 Multiplicity           Mult            ....    1
 Number of Electrons    NEL             ....   58
 Basis Dimension        Dim             ....  176

ORBITAL ENERGIES
----------------

  NO   OCC          E(Eh)            E(eV)
   0   2.0000     -89.220272     -2427.8070
   1   2.0000     -24.870625      -676.7641
   2   2.0000     -19.232479      -523.3424
   3   2.0000     -19.231703      -523.3213
   4   2.0000     -10.325691      -280.9763
   5   2.0000     -10.282858      -279.8108
   6   2.0000      -8.274296      -225.1551
   7   2.0000      -6.248209      -170.0224
   8   2.0000      -6.242127      -169.8569
   9   2.0000      -6.240723      -169.8187
  10   2.0000      -1.421534       -38.6819
  11   2.0000      -1.206056       -32.8185
  12   2.0000      -1.110301       -30.2128
  13   2.0000      -0.907316       -24.6893
  14   2.0000      -0.801941       -21.8219
  15   2.0000      -0.750896       -20.4329
  16   2.0000      -0.656236       -17.8571
  17   2.0000      -0.638863       -17.3843
  18   2.0000      -0.625762       -17.0279
  19   2.0000      -0.571143       -15.5416
  20   2.0000      -0.555708       -15.1216
  21   2.0000      -0.533784       -14.5250
  22   2.0000      -0.508227       -13.8296
  23   2.0000      -0.478402       -13.0180
  24   2.0000      -0.475695       -12.9443
  25   2.0000      -0.454254       -12.3609
  26   2.0000      -0.413745       -11.2586
  27   2.0000      -0.403535       -10.9808
  28   2.0000      -0.393837       -10.7168
  29   0.0000       0.024139         0.6569
  30   0.0000       0.055899         1.5211
  31   0.0000       0.061437         1.6718
  32   0.0000       0.063409         1.7254
  33   0.0000       0.082729         2.2512

MULLIKEN ATOMIC CHARGES
-----------------------
   0 C :    0.988390
   1 C :   -0.249832
   2 H :   -0.090271
   3 H :   -0.037069
   4 S :    1.471572
   5 O :   -0.645223
   6 O :   -0.663746
   7 F :   -0.424562
   8 H :   -0.086695
   9 H :   -0.140984
  10 H :   -0.121581
Sum of atomic charges:   -0.0000000

LOEWDIN ATOMIC CHARGES
----------------------
   0 C :    0.136268
   1 C :   -0.089060
   2 H :    0.024470
   3 H :    0.031135
   4 S :    1.117817
   5 O :   -0.463849
   6 O :   -0.460901
   7 F :   -0.278024
   8 H :   -0.007579
   9 H :   -0.005095
  10 H :   -0.005182

  Mayer bond orders larger than 0.100000
B(  0-C ,  1-C ) :   1.2921 B(  0-C ,  8-H ) :   0.7833 B(  0-C ,  9-H ) :   0.6976
B(  0-C , 10-H ) :   0.7654 B(  1-C ,  2-H ) :   0.9565 B(  1-C ,  3-H ) :   0.9637
B(  1-C ,  4-S ) :   0.9836 B(  1-C ,  8-H ) :   0.2181 B(  1-C ,  9-H ) :   0.2358
B(  1-C , 10-H ) :   0.2018 B(  4-S ,  5-O ) :   1.5596 B(  4-S ,  6-O ) :   1.5268
B(  4-S ,  7-F ) :   0.6213

FINAL SINGLE POINT ENERGY      -727.177101865789

DIPOLE MOMENT
-------------
                                X             Y             Z
Electronic contribution:      3.77098      -7.52719      -3.87029
Nuclear contribution   :     -3.60260       8.53062       5.21025
                        -----------------------------------------
Total Dipole Moment    :      0.16837       1.00343       1.33996
                        -----------------------------------------
Magnitude (a.u.)       :      1.68247
Magnitude (Debye)      :      4.27650

Rotational constants in cm-1:     0.154011     0.080858     0.079602
Rotational constants in MHz :  4617.134198  2424.070332  2386.404775

                             ****ORCA TERMINATED NORMALLY****
TOTAL RUN TIME: 0 days 0 hours 0 minutes 25 seconds 673 msec
