                         Program Version 5.0.0 -  RELEASE  -
|  1> !CAM-B3LYP RIJCOSX def2-SVPD def2/J TightSCF
|  2> *xyz 0 1
|  3> C          1.96337       -1.74915       -1.89689
|  4> N          2.73849       -2.01517       -3.09711
|  5> C          4.04974       -2.15472       -3.15204
|  6> N          4.65821       -1.98629       -4.31866
|  7> C          4.76423       -2.45444       -2.05049
|  8> H          4.28736       -2.77626       -1.21750
|  9> H          5.75082       -2.65835       -2.12599
| 10> H          2.34518       -1.69027       -3.97145
| 11> H          4.10900       -1.59268       -5.07176
| 12> H          5.64910       -2.15646       -4.42724
| 13> C          2.08852       -0.30091       -1.41520
| 14> H          2.23127       -2.45162       -1.10264
| 15> H          0.93025       -1.97780       -2.15544
| 16> H          1.82118        0.36368       -2.21003
| 17> H          3.09792       -0.11068       -1.11551
| 18> H          1.43391       -0.14382       -0.58352
| 19> *
| 20> %MaxCore 64000
| 21>
| 22> %pal nprocs 4
| 23> end
| 24>
| 25> %scf
| 26>   MaxIter 150
| 27> end
| 28>
| 29>
| 30>                          ****END OF INPUT****

CARTESIAN COORDINATES (ANGSTROEM)
---------------------------------
  C      1.963370   -1.749150   -1.896890
  N      2.738490   -2.015170   -3.097110
  C      4.049740   -2.154720   -3.152040
  N      4.658210   -1.986290   -4.318660
  C      4.764230   -2.454440   -2.050490
  H      4.287360   -2.776260   -1.217500
  H      5.750820   -2.658350   -2.125990
  H      2.345180   -1.690270   -3.971450
  H      4.109000   -1.592680   -5.071760
  H      5.649100   -2.156460   -4.427240
  C      2.088520   -0.300910   -1.415200
  H      2.231270   -2.451620   -1.102640
  H      0.930250   -1.977800   -2.155440
  H      1.821180    0.363680   -2.210030
  H      3.097920   -0.110680   -1.115510
  H      1.433910   -0.143820   -0.583520

 Total Charge           Charge          ....    0
 Multiplicity           Mult            ....    1
 Number of Electrons    NEL             ....   48
 Basis Dimension        Dim             ....  200

ORBITAL ENERGIES
----------------

  NO   OCC          E(Eh)            E(eV)
   0   2.0000     -14.407569      -392.0499
   1   2.0000     -14.407457      -392.0468
   2   2.0000     -10.307444      -280.4798
   3   2.0000     -10.292349      -280.0690
   4   2.0000     -10.241139      -278.6756
   5   2.0000     -10.170599      -276.7561
   6   2.0000      -1.050910       -28.5967
   7   2.0000      -0.961618       -26.1670
   8   2.0000      -0.829594       -22.5744
   9   2.0000      -0.782265       -21.2865
  10   2.0000      -0.717025       -19.5112
  11   2.0000      -0.634051       -17.2534
  12   2.0000      -0.620835       -16.8938
  13   2.0000      -0.595868       -16.2144
  14   2.0000      -0.539166       -14.6715
  15   2.0000      -0.510169       -13.8824
  16   2.0000      -0.488262       -13.2863
  17   2.0000      -0.467711       -12.7271
  18   2.0000      -0.448686       -12.2094
  19   2.0000      -0.435756       -11.8575
  20   2.0000      -0.431236       -11.7345
  21   2.0000      -0.412811       -11.2332
  22   2.0000      -0.316940        -8.6244
  23   2.0000      -0.223400        -6.0790
  24   0.0000       0.043907         1.1948
  25   0.0000       0.067654         1.8410
  26   0.0000       0.079673         2.1680
  27   0.0000       0.083069         2.2604
  28   0.0000       0.113108         3.0778

MULLIKEN ATOMIC CHARGES
-----------------------
   0 C :    0.404786
   1 N :   -0.240148
   2 C :    0.617777
   3 N :    0.165246
   4 C :    0.486729
   5 H :   -0.164967
   6 H :   -0.658746
   7 H :   -0.314424
   8 H :   -0.175433
   9 H :   -0.128724
  10 C :    0.884692
  11 H :   -0.068595
  12 H :   -0.416403
  13 H :   -0.143308
  14 H :   -0.142917
  15 H :   -0.105563
Sum of atomic charges:    0.0000000

LOEWDIN ATOMIC CHARGES
----------------------
   0 C :    0.016760
   1 N :   -0.019963
   2 C :   -0.243709
   3 N :    0.187545
   4 C :    0.158112
   5 H :   -0.113771
   6 H :   -0.107554
   7 H :    0.017166
   8 H :   -0.010475
   9 H :    0.011210
  10 C :    0.138549
  11 H :    0.016848
  12 H :    0.017057
  13 H :   -0.022658
  14 H :   -0.024434
  15 H :   -0.020683

  Mayer bond orders larger than 0.100000
B(  0-C ,  1-N ) :   0.9317 B(  0-C ,  4-C ) :   0.1013 B(  0-C ,  7-H ) :  -0.1179
B(  0-C , 10-C ) :   1.1829 B(  0-C , 11-H ) :   0.8720 B(  0-C , 12-H ) :   0.8589
B(  0-C , 13-H ) :   0.2490 B(  0-C , 14-H ) :   0.2061 B(  0-C , 15-H ) :   0.1905
B(  1-N ,  2-C ) :   0.9836 B(  1-N ,  3-N ) :   0.1726 B(  1-N ,  4-C ) :   0.3407
B(  1-N ,  7-H ) :   1.2327 B(  1-N , 11-H ) :   0.1010 B(  1-N , 12-H ) :   0.1856
B(  2-C ,  3-N ) :   0.9302 B(  2-C ,  4-C ) :   1.6337 B(  2-C ,  5-H ) :   0.2852
B(  2-C ,  6-H ) :   0.1189 B(  2-C ,  7-H ) :  -0.2160 B(  3-N ,  4-C ) :   0.2112
B(  3-N ,  8-H ) :   1.1739 B(  3-N ,  9-H ) :   1.2410 B(  4-C ,  5-H ) :   0.5932
B(  4-C ,  6-H ) :   0.8626 B(  8-H ,  9-H ) :  -0.1766 B( 10-C , 13-H ) :   0.7679
B( 10-C , 14-H ) :   0.8170 B( 10-C , 15-H ) :   0.7794 B( 11-H , 12-H ) :  -0.1015

FINAL SINGLE POINT ENERGY      -267.587048581755

DIPOLE MOMENT
-------------
                                X             Y             Z
Electronic contribution:      1.33943      -1.82716      -3.41909
Nuclear contribution   :     -1.88803       2.22658       2.57497
                        -----------------------------------------
Total Dipole Moment    :     -0.54860       0.39942      -0.84412
                        -----------------------------------------
Magnitude (a.u.)       :      1.08307
Magnitude (Debye)      :      2.75294

Rotational constants in cm-1:     0.226509     0.075782     0.067928
Rotational constants in MHz :  6790.555051  2271.890226  2036.439218

                             ****ORCA TERMINATED NORMALLY****
TOTAL RUN TIME: 0 days 0 hours 0 minutes 34 seconds 305 msec
