                         Program Version 5.0.0 -  RELEASE  -
|  1> !CAM-B3LYP RIJCOSX def2-SVPD def2/J TightSCF xyzfile
|  2>
|  3> *xyzfile 0 1 D3.xyz
|  4>
|  5> %MaxCore 64000
|  6>
|  7> %pal nprocs 4
|  8> end
|  9>
| 10> %scf
| 11>   MaxIter 150
| 12> end
| 13>
| 14>
| 15>                          ****END OF INPUT****

CARTESIAN COORDINATES (ANGSTROEM)
---------------------------------
  C      1.963365   -1.749150   -1.896887
  N      2.738490   -2.015170   -3.097113
  C      0.611877    1.657634   -4.500288
  C      1.694991    1.541794   -5.570447
  H      2.697326    1.734659   -5.183996
  H      1.506656    2.272239   -6.358076
  S      1.780287   -0.033128   -6.428739
  C      4.049736   -2.154717   -3.152044
  N      4.658206   -1.986293   -4.318655
  C      4.764231   -2.454435   -2.050491
  H      4.287363   -2.776259   -1.217496
  H      5.750825   -2.658351   -2.125988
  H      2.345176   -1.690274   -3.971447
  H      4.109004   -1.592677   -5.071760
  H      5.649095   -2.156462   -4.427237
  F      2.569287    0.213657   -7.607360
  O      0.416880   -0.462969   -6.618595
  C      2.088520   -0.300912   -1.415204
  H      2.231272   -2.451616   -1.102643
  H      0.930249   -1.977801   -2.155438
  C      0.680356    0.655418   -3.348038
  H     -0.356865    1.549231   -4.991128
  H      0.650228    2.675438   -4.096000
  C      1.968993    0.733582   -2.535654
  H      3.051356   -0.168602   -0.911868
  H      1.316501   -0.136231   -0.657252
  O      2.505129   -0.933263   -5.482570
  H      2.824195    0.624726   -3.208464
  H      2.058919    1.730331   -2.093112
  H      0.542252   -0.344731   -3.766662
  H     -0.174219    0.829692   -2.685182

 Total Charge           Charge          ....    0
 Multiplicity           Mult            ....    1
 Number of Electrons    NEL             ....  120
 Basis Dimension        Dim             ....  432

ORBITAL ENERGIES
----------------

  NO   OCC          E(Eh)            E(eV)
   0   2.0000     -89.252316     -2428.6790
   1   2.0000     -24.922414      -678.1734
   2   2.0000     -19.257571      -524.0251
   3   2.0000     -19.248299      -523.7728
   4   2.0000     -14.372600      -391.0983
   5   2.0000     -14.371058      -391.0564
   6   2.0000     -10.341149      -281.3970
   7   2.0000     -10.299147      -280.2540
   8   2.0000     -10.282915      -279.8123
   9   2.0000     -10.274257      -279.5768
  10   2.0000     -10.269500      -279.4473
  11   2.0000     -10.257042      -279.1083
  12   2.0000     -10.245120      -278.7839
  13   2.0000     -10.147688      -276.1326
  14   2.0000      -8.305164      -225.9950
  15   2.0000      -6.279222      -170.8663
  16   2.0000      -6.273156      -170.7013
  17   2.0000      -6.271238      -170.6491
  18   2.0000      -1.490834       -40.5677
  19   2.0000      -1.222684       -33.2709
  20   2.0000      -1.118391       -30.4330
  21   2.0000      -1.022782       -27.8313
  22   2.0000      -0.938564       -25.5396
  23   2.0000      -0.931388       -25.3444
  24   2.0000      -0.877368       -23.8744
  25   2.0000      -0.841211       -22.8905
  26   2.0000      -0.804223       -21.8840
  27   2.0000      -0.765347       -20.8261
  28   2.0000      -0.756204       -20.5774
  29   2.0000      -0.717777       -19.5317
  30   2.0000      -0.697683       -18.9849
  31   2.0000      -0.682677       -18.5766
  32   2.0000      -0.667241       -18.1566
  33   2.0000      -0.645585       -17.5673
  34   2.0000      -0.614075       -16.7098
  35   2.0000      -0.598313       -16.2809
  36   2.0000      -0.591037       -16.0829
  37   2.0000      -0.582944       -15.8627
  38   2.0000      -0.570074       -15.5125
  39   2.0000      -0.554564       -15.0904
  40   2.0000      -0.534469       -14.5437
  41   2.0000      -0.528681       -14.3861
  42   2.0000      -0.512726       -13.9520
  43   2.0000      -0.496631       -13.5140
  44   2.0000      -0.491796       -13.3824
  45   2.0000      -0.487225       -13.2581
  46   2.0000      -0.460105       -12.5201
  47   2.0000      -0.455156       -12.3854
  48   2.0000      -0.440962       -11.9992
  49   2.0000      -0.435987       -11.8638
  50   2.0000      -0.432122       -11.7586
  51   2.0000      -0.419402       -11.4125
  52   2.0000      -0.417302       -11.3554
  53   2.0000      -0.409802       -11.1513
  54   2.0000      -0.403513       -10.9801
  55   2.0000      -0.396054       -10.7772
  56   2.0000      -0.392408       -10.6780
  57   2.0000      -0.380457       -10.3528
  58   2.0000      -0.288850        -7.8600
  59   2.0000      -0.199961        -5.4412
  60   0.0000       0.011228         0.3055
  61   0.0000       0.034579         0.9409
  62   0.0000       0.043674         1.1884
  63   0.0000       0.055525         1.5109
  64   0.0000       0.063655         1.7321

MULLIKEN ATOMIC CHARGES
-----------------------
   0 C :    1.063772
   1 N :    0.273271
   2 C :    0.569065
   3 C :    0.229637
   4 H :    0.060363
   5 H :   -0.153198
   6 S :    1.632301
   7 C :    0.623088
   8 N :    0.552100
   9 C :    0.541478
  10 H :   -0.078275
  11 H :   -0.772671
  12 H :   -0.906129
  13 H :   -0.371446
  14 H :   -0.280983
  15 F :   -0.459984
  16 O :   -0.679062
  17 C :    0.621061
  18 H :   -0.407288
  19 H :   -0.250125
  20 C :    0.157499
  21 H :   -0.070778
  22 H :   -0.103960
  23 C :    0.170729
  24 H :   -0.183186
  25 H :   -0.110997
  26 O :   -0.821866
  27 H :   -0.035045
  28 H :   -0.395382
  29 H :   -0.150635
  30 H :   -0.263354
Sum of atomic charges:    0.0000000

LOEWDIN ATOMIC CHARGES
----------------------
   0 C :    0.065827
   1 N :    0.012476
   2 C :   -0.016833
   3 C :   -0.040902
   4 H :    0.025025
   5 H :    0.022113
   6 S :    1.196144
   7 C :   -0.224077
   8 N :    0.208829
   9 C :    0.148854
  10 H :   -0.120854
  11 H :   -0.114445
  12 H :   -0.084877
  13 H :   -0.095149
  14 H :    0.007278
  15 F :   -0.235920
  16 O :   -0.436166
  17 C :   -0.008879
  18 H :    0.014293
  19 H :    0.016185
  20 C :   -0.020828
  21 H :    0.030512
  22 H :    0.040580
  23 C :   -0.027846
  24 H :    0.018057
  25 H :    0.019859
  26 O :   -0.475480
  27 H :    0.007830
  28 H :    0.024509
  29 H :    0.007614
  30 H :    0.036272

  Mayer bond orders larger than 0.100000
B(  0-C ,  1-N ) :   0.9801 B(  0-C ,  7-C ) :  -0.1021 B(  0-C , 12-H ) :  -0.3826
B(  0-C , 17-C ) :   1.0115 B(  0-C , 18-H ) :   0.8430 B(  0-C , 19-H ) :   0.6634
B(  0-C , 23-C ) :   0.1220 B(  0-C , 25-H ) :   0.1117 B(  1-N ,  7-C ) :   0.9452
B(  1-N ,  9-C ) :   0.4678 B(  1-N , 12-H ) :   0.8815 B(  1-N , 13-H ) :   0.1068
B(  1-N , 19-H ) :   0.1568 B(  2-C ,  3-C ) :   1.2629 B(  2-C ,  4-H ) :   0.1140
B(  2-C ,  5-H ) :   0.2115 B(  2-C , 20-C ) :   1.2270 B(  2-C , 21-H ) :   0.6142
B(  2-C , 22-H ) :   0.7469 B(  3-C ,  4-H ) :   0.8702 B(  3-C ,  5-H ) :   0.7562
B(  3-C ,  6-S ) :   1.0134 B(  3-C , 21-H ) :   0.1223 B(  3-C , 22-H ) :   0.1555
B(  6-S , 15-F ) :   0.6251 B(  6-S , 16-O ) :   1.4820 B(  6-S , 26-O ) :   1.3162
B(  7-C ,  8-N ) :   0.8689 B(  7-C ,  9-C ) :   1.4536 B(  7-C , 10-H ) :   0.3344
B(  7-C , 11-H ) :   0.2594 B(  7-C , 12-H ) :  -0.3596 B(  7-C , 14-H ) :  -0.1852
B(  8-N ,  9-C ) :   0.2216 B(  8-N , 13-H ) :   1.0326 B(  8-N , 14-H ) :   1.3013
B(  9-C , 10-H ) :   0.5517 B(  9-C , 11-H ) :   0.6563 B(  9-C , 12-H ) :  -0.1244
B( 10-H , 18-H ) :   0.1542 B( 10-H , 19-H ) :  -0.1113 B( 12-H , 19-H ) :   0.1225
B( 12-H , 26-O ) :   0.1592 B( 12-H , 27-H ) :   0.1233 B( 12-H , 28-H ) :  -0.1135
B( 13-H , 14-H ) :  -0.2044 B( 13-H , 26-O ) :   0.2227 B( 16-O , 26-O ) :   0.1403
B( 17-C , 18-H ) :   0.1058 B( 17-C , 19-H ) :   0.1042 B( 17-C , 23-C ) :   1.2252
B( 17-C , 24-H ) :   0.7390 B( 17-C , 25-H ) :   0.7894 B( 17-C , 27-H ) :   0.1044
B( 18-H , 19-H ) :  -0.2236 B( 20-C , 21-H ) :   0.3098 B( 20-C , 23-C ) :   1.1581
B( 20-C , 27-H ) :   0.1268 B( 20-C , 28-H ) :   0.1606 B( 20-C , 29-H ) :   0.9392
B( 20-C , 30-H ) :   0.7925 B( 21-H , 22-H ) :  -0.1016 B( 23-C , 24-H ) :   0.2552
B( 23-C , 25-H ) :   0.1351 B( 23-C , 27-H ) :   0.8395 B( 23-C , 28-H ) :   0.8347
B( 23-C , 30-H ) :   0.1440 B( 24-H , 25-H ) :  -0.1133

FINAL SINGLE POINT ENERGY     -1072.074534847637

DIPOLE MOMENT
-------------
                                X             Y             Z
Electronic contribution:     -1.13251      -0.15315     -24.50777
Nuclear contribution   :      0.44707       2.53104      23.12246
                        -----------------------------------------
Total Dipole Moment    :     -0.68545       2.37789      -1.38531
                        -----------------------------------------
Magnitude (a.u.)       :      2.83607
Magnitude (Debye)      :      7.20872

Rotational constants in cm-1:     0.028906     0.014696     0.011110
Rotational constants in MHz :   866.591909   440.585554   333.081943

                             ****ORCA TERMINATED NORMALLY****
TOTAL RUN TIME: 0 days 0 hours 4 minutes 26 seconds 819 msec
