                         Program Version 5.0.0 -  RELEASE  -
|  1> !CAM-B3LYP RIJCOSX def2-SVPD def2/J TightSCF xyzfile
|  2>
|  3> *xyzfile 0 1 D8.xyz
|  4>
|  5> %MaxCore 64000
|  6>
|  7> %pal nprocs 4
|  8> end
|  9>
| 10> %scf
| 11>   MaxIter 150
| 12> end
| 13>
| 14>
| 15>                          ****END OF INPUT****

CARTESIAN COORDINATES (ANGSTROEM)
---------------------------------
  C      1.963365   -1.749150   -1.896887
  N      2.738490   -2.015170   -3.097113
  C      0.611877    1.657634   -4.500288
  C      1.694991    1.541794   -5.570447
  H      2.697326    1.734659   -5.183996
  H      1.506656    2.272239   -6.358076
  S      1.780287   -0.033128   -6.428739
  C      4.049736   -2.154717   -3.152044
  C      4.658206   -1.986293   -4.318655
  N      4.764231   -2.454435   -2.050491
  H      4.287363   -2.776259   -1.217496
  H      5.750825   -2.658351   -2.125988
  H      2.345176   -1.690274   -3.971447
  H      4.109004   -1.592677   -5.071760
  H      5.649095   -2.156462   -4.427237
  O      2.569287    0.213657   -7.607360
  O      0.416880   -0.462969   -6.618595
  C      2.088520   -0.300912   -1.415204
  H      2.231272   -2.451616   -1.102643
  H      0.930249   -1.977801   -2.155438
  C      0.680356    0.655418   -3.348038
  H     -0.356865    1.549231   -4.991128
  H      0.650228    2.675438   -4.096000
  C      1.968993    0.733582   -2.535654
  H      3.051356   -0.168602   -0.911868
  H      1.316501   -0.136231   -0.657252
  F      2.505129   -0.933263   -5.482570
  H      2.824195    0.624726   -3.208464
  H      2.058919    1.730331   -2.093112
  H      0.542252   -0.344731   -3.766662
  H     -0.174219    0.829692   -2.685182

 Total Charge           Charge          ....    0
 Multiplicity           Mult            ....    1
 Number of Electrons    NEL             ....  120
 Basis Dimension        Dim             ....  432

ORBITAL ENERGIES
----------------

  NO   OCC          E(Eh)            E(eV)
   0   2.0000     -89.225430     -2427.9474
   1   2.0000     -24.881947      -677.0722
   2   2.0000     -19.236438      -523.4501
   3   2.0000     -19.234544      -523.3986
   4   2.0000     -14.406525      -392.0215
   5   2.0000     -14.399759      -391.8374
   6   2.0000     -10.324203      -280.9359
   7   2.0000     -10.306291      -280.4484
   8   2.0000     -10.299839      -280.2729
   9   2.0000     -10.290929      -280.0304
  10   2.0000     -10.277127      -279.6548
  11   2.0000     -10.269774      -279.4548
  12   2.0000     -10.265173      -279.3296
  13   2.0000     -10.167871      -276.6818
  14   2.0000      -8.278204      -225.2614
  15   2.0000      -6.252395      -170.1363
  16   2.0000      -6.245977      -169.9617
  17   2.0000      -6.244561      -169.9231
  18   2.0000      -1.436086       -39.0779
  19   2.0000      -1.210694       -32.9447
  20   2.0000      -1.113191       -30.2915
  21   2.0000      -1.047078       -28.4924
  22   2.0000      -0.960707       -26.1422
  23   2.0000      -0.926679       -25.2162
  24   2.0000      -0.880780       -23.9672
  25   2.0000      -0.846336       -23.0300
  26   2.0000      -0.800124       -21.7725
  27   2.0000      -0.791046       -21.5255
  28   2.0000      -0.749880       -20.4053
  29   2.0000      -0.713588       -19.4177
  30   2.0000      -0.674044       -18.3417
  31   2.0000      -0.672522       -18.3003
  32   2.0000      -0.653661       -17.7870
  33   2.0000      -0.647948       -17.6316
  34   2.0000      -0.627922       -17.0866
  35   2.0000      -0.606873       -16.5138
  36   2.0000      -0.578836       -15.7509
  37   2.0000      -0.574418       -15.6307
  38   2.0000      -0.561636       -15.2829
  39   2.0000      -0.556146       -15.1335
  40   2.0000      -0.545920       -14.8552
  41   2.0000      -0.537503       -14.6262
  42   2.0000      -0.519878       -14.1466
  43   2.0000      -0.510139       -13.8816
  44   2.0000      -0.496534       -13.5114
  45   2.0000      -0.479010       -13.0345
  46   2.0000      -0.472913       -12.8686
  47   2.0000      -0.465454       -12.6656
  48   2.0000      -0.454028       -12.3547
  49   2.0000      -0.446214       -12.1421
  50   2.0000      -0.438959       -11.9447
  51   2.0000      -0.433065       -11.7843
  52   2.0000      -0.418223       -11.3804
  53   2.0000      -0.413130       -11.2418
  54   2.0000      -0.407959       -11.1011
  55   2.0000      -0.399189       -10.8625
  56   2.0000      -0.398430       -10.8418
  57   2.0000      -0.395465       -10.7612
  58   2.0000      -0.320339        -8.7169
  59   2.0000      -0.223077        -6.0702
  60   0.0000       0.031691         0.8624
  61   0.0000       0.043225         1.1762
  62   0.0000       0.049950         1.3592
  63   0.0000       0.053237         1.4487
  64   0.0000       0.067476         1.8361

MULLIKEN ATOMIC CHARGES
-----------------------
   0 C :    1.112730
   1 N :    0.120727
   2 C :    0.633911
   3 C :    0.236791
   4 H :    0.063817
   5 H :   -0.221231
   6 S :    1.548008
   7 C :    0.688269
   8 C :    0.830681
   9 N :    0.285961
  10 H :   -0.088645
  11 H :   -0.236417
  12 H :   -0.673412
  13 H :   -0.464777
  14 H :   -0.722904
  15 O :   -0.663915
  16 O :   -0.710991
  17 C :    0.567057
  18 H :   -0.509863
  19 H :   -0.220922
  20 C :    0.171897
  21 H :   -0.079420
  22 H :   -0.102581
  23 C :    0.158015
  24 H :   -0.100632
  25 H :   -0.179279
  26 F :   -0.610993
  27 H :    0.003018
  28 H :   -0.401419
  29 H :   -0.207051
  30 H :   -0.226431
Sum of atomic charges:   -0.0000000

LOEWDIN ATOMIC CHARGES
----------------------
   0 C :    0.059517
   1 N :    0.008327
   2 C :   -0.027924
   3 C :   -0.036011
   4 H :    0.023301
   5 H :    0.033944
   6 S :    1.140468
   7 C :   -0.219682
   8 C :    0.169142
   9 N :    0.204391
  10 H :   -0.023526
  11 H :    0.004495
  12 H :   -0.047660
  13 H :   -0.143277
  14 H :   -0.094046
  15 O :   -0.444376
  16 O :   -0.449533
  17 C :   -0.013344
  18 H :    0.009922
  19 H :    0.018766
  20 C :   -0.024870
  21 H :    0.030142
  22 H :    0.036761
  23 C :   -0.027917
  24 H :    0.018919
  25 H :    0.020727
  26 F :   -0.301744
  27 H :    0.006983
  28 H :    0.027928
  29 H :    0.003712
  30 H :    0.036464

  Mayer bond orders larger than 0.100000
B(  0-C ,  1-N ) :   0.9370 B(  0-C , 12-H ) :  -0.3397 B(  0-C , 17-C ) :   1.0425
B(  0-C , 18-H ) :   0.8102 B(  0-C , 19-H ) :   0.5928 B(  0-C , 23-C ) :   0.1260
B(  0-C , 25-H ) :   0.1148 B(  1-N ,  7-C ) :   1.0728 B(  1-N ,  8-C ) :   0.2192
B(  1-N ,  9-N ) :   0.2022 B(  1-N , 12-H ) :   1.0775 B(  1-N , 18-H ) :   0.1016
B(  1-N , 19-H ) :   0.1558 B(  2-C ,  3-C ) :   1.2210 B(  2-C ,  4-H ) :   0.1224
B(  2-C ,  5-H ) :   0.1819 B(  2-C , 20-C ) :   1.2330 B(  2-C , 21-H ) :   0.6152
B(  2-C , 22-H ) :   0.7201 B(  3-C ,  4-H ) :   0.8789 B(  3-C ,  5-H ) :   0.7678
B(  3-C ,  6-S ) :   1.0258 B(  3-C , 21-H ) :   0.1373 B(  3-C , 22-H ) :   0.1507
B(  5-H ,  6-S ) :   0.1124 B(  6-S , 15-O ) :   1.5346 B(  6-S , 16-O ) :   1.4378
B(  6-S , 26-F ) :   0.6230 B(  7-C ,  8-C ) :   1.3576 B(  7-C ,  9-N ) :   0.9578
B(  7-C , 11-H ) :  -0.1537 B(  7-C , 12-H ) :  -0.3448 B(  7-C , 13-H ) :   0.1240
B(  7-C , 14-H ) :   0.2836 B(  8-C ,  9-N ) :   0.2921 B(  8-C , 13-H ) :   0.4348
B(  8-C , 14-H ) :   0.5759 B(  9-N , 10-H ) :   0.9610 B(  9-N , 11-H ) :   1.2651
B(  9-N , 18-H ) :   0.1024 B( 10-H , 11-H ) :  -0.2216 B( 12-H , 13-H ) :  -0.1041
B( 12-H , 19-H ) :   0.1963 B( 12-H , 24-H ) :   0.1166 B( 13-H , 14-H ) :  -0.2634
B( 13-H , 26-F ) :   0.3363 B( 17-C , 18-H ) :   0.1397 B( 17-C , 19-H ) :   0.1072
B( 17-C , 23-C ) :   1.2218 B( 17-C , 24-H ) :   0.7160 B( 17-C , 25-H ) :   0.8485
B( 18-H , 19-H ) :  -0.1774 B( 20-C , 21-H ) :   0.3140 B( 20-C , 23-C ) :   1.1599
B( 20-C , 27-H ) :   0.1045 B( 20-C , 28-H ) :   0.1436 B( 20-C , 29-H ) :   0.9307
B( 20-C , 30-H ) :   0.7907 B( 21-H , 22-H ) :  -0.1045 B( 23-C , 24-H ) :   0.2445
B( 23-C , 25-H ) :   0.1308 B( 23-C , 27-H ) :   0.8541 B( 23-C , 28-H ) :   0.8784
B( 23-C , 30-H ) :   0.1543 B( 24-H , 25-H ) :  -0.1044

FINAL SINGLE POINT ENERGY     -1072.081262355281

DIPOLE MOMENT
-------------
                                X             Y             Z
Electronic contribution:     -0.86908      -2.88553     -18.27803
Nuclear contribution   :      0.50676       3.90127      20.40426
                        -----------------------------------------
Total Dipole Moment    :     -0.36232       1.01574       2.12623
                        -----------------------------------------
Magnitude (a.u.)       :      2.38409
Magnitude (Debye)      :      6.05986

Rotational constants in cm-1:     0.029548     0.014706     0.011197
Rotational constants in MHz :   885.834387   440.871746   335.667619

                             ****ORCA TERMINATED NORMALLY****
TOTAL RUN TIME: 0 days 0 hours 4 minutes 39 seconds 813 msec
