                         Program Version 5.0.0 -  RELEASE  -
|  1> !wB97X-D3 RIJCOSX def2-SVPD def2/J TightSCF
|  2> *xyz -1 1
|  3> C         -1.36353       -1.98134       -2.29361
|  4> O         -0.35039       -2.74969       -1.79601
|  5> H         -2.22523       -2.59288       -2.46214
|  6> H         -1.05452       -1.53818       -3.21720
|  7> H         -1.60477       -1.21086       -1.59143
|  8> *
|  9>
| 10> %MaxCore 64000
| 11> %pal nprocs 18
| 12> end
| 13>
| 14> %scf
| 15>   MaxIter 150
| 16> end
| 17>
| 18>
| 19>                          ****END OF INPUT****

CARTESIAN COORDINATES (ANGSTROEM)
---------------------------------
  C     -1.363530   -1.981340   -2.293610
  O     -0.350390   -2.749690   -1.796010
  H     -2.225230   -2.592880   -2.462140
  H     -1.054520   -1.538180   -3.217200
  H     -1.604770   -1.210860   -1.591430

 Total Charge           Charge          ....   -1
 Multiplicity           Mult            ....    1
 Number of Electrons    NEL             ....   18
 Basis Dimension        Dim             ....   67

ORBITAL ENERGIES
----------------

  NO   OCC          E(Eh)            E(eV)
   0   2.0000     -18.887196      -513.9467
   1   2.0000     -10.073845      -274.1233
   2   2.0000      -0.763257       -20.7693
   3   2.0000      -0.499555       -13.5936
   4   2.0000      -0.295468        -8.0401
   5   2.0000      -0.295445        -8.0395
   6   2.0000      -0.194214        -5.2848
   7   2.0000      -0.040508        -1.1023
   8   2.0000      -0.040496        -1.1020
   9   0.0000       0.264413         7.1950
  10   0.0000       0.340038         9.2529
  11   0.0000       0.340045         9.2531
  12   0.0000       0.347850         9.4655
  13   0.0000       0.385656        10.4942

MULLIKEN ATOMIC CHARGES
-----------------------
   0 C :    0.778900
   1 O :   -1.041756
   2 H :   -0.245971
   3 H :   -0.245752
   4 H :   -0.245420
Sum of atomic charges:   -1.0000000

LOEWDIN ATOMIC CHARGES
----------------------
   0 C :   -0.117497
   1 O :   -0.658494
   2 H :   -0.074686
   3 H :   -0.074668
   4 H :   -0.074654

  Mayer bond orders larger than 0.100000
B(  0-C ,  1-O ) :   1.2054 B(  0-C ,  2-H ) :   0.9167 B(  0-C ,  3-H ) :   0.9169
B(  0-C ,  4-H ) :   0.9163

Dispersion correction           -0.000089283
FINAL SINGLE POINT ENERGY      -114.980356515090

DIPOLE MOMENT
-------------
                                X             Y             Z
Electronic contribution:      1.33739      -1.01451       0.65703
Nuclear contribution   :     -2.13467       1.61890      -1.04844
                        -----------------------------------------
Total Dipole Moment    :     -0.79728       0.60439      -0.39141
                        -----------------------------------------
Magnitude (a.u.)       :      1.07431
Magnitude (Debye)      :      2.73069

Rotational constants in cm-1:     5.477725     0.944113     0.944112
Rotational constants in MHz : 164218.064700 28303.798445 28303.757130

                             ****ORCA TERMINATED NORMALLY****
TOTAL RUN TIME: 0 days 0 hours 0 minutes 3 seconds 184 msec
