                         Program Version 5.0.0 -  RELEASE  -
|  1> !wB97X-D3 RIJCOSX def2-SVPD def2/J TightSCF
|  2> *xyz 1 1
|  3> C          2.20996       -2.81239       -3.66571
|  4> C          2.48901       -1.66851       -2.73754
|  5> N          3.59631       -0.94761       -2.95225
|  6> N          1.66394       -1.41369       -1.77781
|  7> H          0.81164       -1.96318       -1.70275
|  8> H          1.84550       -0.63508       -1.15875
|  9> H          4.20535       -1.17600       -3.73383
| 10> H          3.81723       -0.12585       -2.40604
| 11> H          2.99011       -2.87840       -4.39503
| 12> H          1.27381       -2.65174       -4.15838
| 13> H          2.16680       -3.72339       -3.10614
| 14> *
| 15>
| 16> %MaxCore 64000
| 17> %pal nprocs 18
| 18> end
| 19>
| 20> %scf
| 21>   MaxIter 150
| 22> end
| 23>
| 24>
| 25>                          ****END OF INPUT****

CARTESIAN COORDINATES (ANGSTROEM)
---------------------------------
  C      2.209960   -2.812390   -3.665710
  C      2.489010   -1.668510   -2.737540
  N      3.596310   -0.947610   -2.952250
  N      1.663940   -1.413690   -1.777810
  H      0.811640   -1.963180   -1.702750
  H      1.845500   -0.635080   -1.158750
  H      4.205350   -1.176000   -3.733830
  H      3.817230   -0.125850   -2.406040
  H      2.990110   -2.878400   -4.395030
  H      1.273810   -2.651740   -4.158380
  H      2.166800   -3.723390   -3.106140

 Total Charge           Charge          ....    1
 Multiplicity           Mult            ....    1
 Number of Electrons    NEL             ....   32
 Basis Dimension        Dim             ....  136

ORBITAL ENERGIES
----------------

  NO   OCC          E(Eh)            E(eV)
   0   2.0000     -14.694049      -399.8454
   1   2.0000     -14.688002      -399.6809
   2   2.0000     -10.626561      -289.1634
   3   2.0000     -10.488712      -285.4124
   4   2.0000      -1.323083       -36.0029
   5   2.0000      -1.224192       -33.3120
   6   2.0000      -1.065615       -28.9969
   7   2.0000      -0.950356       -25.8605
   8   2.0000      -0.889521       -24.2051
   9   2.0000      -0.875452       -23.8223
  10   2.0000      -0.811379       -22.0788
  11   2.0000      -0.767714       -20.8906
  12   2.0000      -0.715192       -19.4614
  13   2.0000      -0.700533       -19.0625
  14   2.0000      -0.676238       -18.4014
  15   2.0000      -0.595161       -16.1951
  16   0.0000      -0.133034        -3.6201
  17   0.0000      -0.086177        -2.3450
  18   0.0000      -0.039448        -1.0734
  19   0.0000      -0.037014        -1.0072
  20   0.0000      -0.015861        -0.4316

MULLIKEN ATOMIC CHARGES
-----------------------
   0 C :    0.455175
   1 C :    0.391101
   2 N :   -0.113018
   3 N :    0.122828
   4 H :    0.064884
   5 H :   -0.099877
   6 H :    0.090660
   7 H :   -0.091943
   8 H :    0.053531
   9 H :    0.059401
  10 H :    0.067257
Sum of atomic charges:    1.0000000

LOEWDIN ATOMIC CHARGES
----------------------
   0 C :    0.228697
   1 C :   -0.054332
   2 N :    0.270210
   3 N :    0.272495
   4 H :    0.070369
   5 H :    0.057142
   6 H :    0.052146
   7 H :    0.046505
   8 H :    0.006943
   9 H :    0.024795
  10 H :    0.025031

  Mayer bond orders larger than 0.100000
B(  0-C ,  1-C ) :   1.2526 B(  0-C ,  8-H ) :   0.8105 B(  0-C ,  9-H ) :   0.8058
B(  0-C , 10-H ) :   0.7875 B(  1-C ,  2-N ) :   0.9473 B(  1-C ,  3-N ) :   1.2327
B(  1-C ,  5-H ) :  -0.1250 B(  1-C ,  7-H ) :  -0.2221 B(  1-C ,  8-H ) :   0.2131
B(  1-C ,  9-H ) :   0.1353 B(  1-C , 10-H ) :   0.1501 B(  2-N ,  3-N ) :   0.1454
B(  2-N ,  6-H ) :   1.0485 B(  2-N ,  7-H ) :   1.3323 B(  3-N ,  4-H ) :   1.0942
B(  3-N ,  5-H ) :   1.2255 B(  4-H ,  5-H ) :  -0.1415 B(  6-H ,  7-H ) :  -0.1685
B(  9-H , 10-H ) :   0.1010

Dispersion correction           -0.001668903
FINAL SINGLE POINT ENERGY      -189.540485321374

DIPOLE MOMENT
-------------
                                X             Y             Z
Electronic contribution:      0.31441       1.61622       1.44372
Nuclear contribution   :     -0.32363      -1.20411      -1.15396
                        -----------------------------------------
Total Dipole Moment    :     -0.00922       0.41211       0.28976
                        -----------------------------------------
Magnitude (a.u.)       :      0.50386
Magnitude (Debye)      :      1.28072

Rotational constants in cm-1:     0.327805     0.304052     0.162439
Rotational constants in MHz :  9827.347355  9115.244333  4869.808750

                             ****ORCA TERMINATED NORMALLY****
TOTAL RUN TIME: 0 days 0 hours 0 minutes 6 seconds 222 msec
