                         Program Version 5.0.0 -  RELEASE  -
|  1> !wB97X-D3 RIJCOSX def2-SVPD def2/J TightSCF xyzfile
|  2>
|  3> *xyzfile 0 1 B.xyz
|  4>
|  5> %MaxCore 64000
|  6>
|  7> %pal nprocs 18
|  8> end
|  9>
| 10> %scf
| 11>   MaxIter 150
| 12> end
| 13>
| 14>
| 15>                          ****END OF INPUT****

CARTESIAN COORDINATES (ANGSTROEM)
---------------------------------
  C      1.647032   -2.345276   -5.020411
  C      0.217628   -1.814022   -4.924389
  C      2.209964   -2.812388   -3.665708
  C     -0.811356   -2.908780   -4.607625
  C     -1.916579   -2.485081   -3.643665
  H     -2.554525   -1.712428   -4.091993
  C     -1.363531   -1.981337   -2.293608
  H     -2.553448   -3.355667   -3.458815
  O     -0.350395   -2.749689   -1.796006
  H      2.308385   -1.588704   -5.457128
  H      1.674286   -3.203478   -5.697392
  C      2.489007   -1.668510   -2.737538
  N      3.596314   -0.947608   -2.952247
  N      1.663936   -1.413685   -1.777806
  H      0.811642   -1.963178   -1.702755
  H      1.845503   -0.635078   -1.158749
  H      4.205351   -1.176003   -3.733825
  H      3.817230   -0.125845   -2.406041
  H     -1.244829   -3.280884   -5.541040
  H     -0.306331   -3.757746   -4.142734
  H     -0.036244   -1.318555   -5.865303
  H      0.175004   -1.035382   -4.158095
  H      3.143106   -3.362803   -3.811524
  H      1.487683   -3.458935   -3.165211
  H     -2.226220   -1.908386   -1.602039
  H     -1.051353   -0.915671   -2.443331

 Total Charge           Charge          ....    0
 Multiplicity           Mult            ....    1
 Number of Electrons    NEL             ....   80
 Basis Dimension        Dim             ....  331

ORBITAL ENERGIES
----------------

  NO   OCC          E(Eh)            E(eV)
   0   2.0000     -19.098046      -519.6843
   1   2.0000     -14.516858      -395.0238
   2   2.0000     -14.469675      -393.7399
   3   2.0000     -10.433488      -283.9097
   4   2.0000     -10.315727      -280.7052
   5   2.0000     -10.304239      -280.3926
   6   2.0000     -10.273960      -279.5687
   7   2.0000     -10.264295      -279.3057
   8   2.0000     -10.253838      -279.0211
   9   2.0000     -10.236298      -278.5438
  10   2.0000      -1.134358       -30.8675
  11   2.0000      -1.038182       -28.2504
  12   2.0000      -0.981921       -26.7194
  13   2.0000      -0.928668       -25.2703
  14   2.0000      -0.865069       -23.5397
  15   2.0000      -0.813442       -22.1349
  16   2.0000      -0.757956       -20.6250
  17   2.0000      -0.738749       -20.1024
  18   2.0000      -0.703435       -19.1414
  19   2.0000      -0.695145       -18.9159
  20   2.0000      -0.666989       -18.1497
  21   2.0000      -0.626541       -17.0490
  22   2.0000      -0.603111       -16.4115
  23   2.0000      -0.590074       -16.0567
  24   2.0000      -0.566632       -15.4188
  25   2.0000      -0.541959       -14.7475
  26   2.0000      -0.531383       -14.4597
  27   2.0000      -0.502482       -13.6732
  28   2.0000      -0.488652       -13.2969
  29   2.0000      -0.485032       -13.1984
  30   2.0000      -0.452016       -12.3000
  31   2.0000      -0.445151       -12.1132
  32   2.0000      -0.433432       -11.7943
  33   2.0000      -0.413638       -11.2557
  34   2.0000      -0.405206       -11.0262
  35   2.0000      -0.392456       -10.6793
  36   2.0000      -0.383598       -10.4382
  37   2.0000      -0.376478       -10.2445
  38   2.0000      -0.259797        -7.0694
  39   2.0000      -0.253201        -6.8900
  40   0.0000       0.045027         1.2252
  41   0.0000       0.056942         1.5495
  42   0.0000       0.092260         2.5105
  43   0.0000       0.111046         3.0217
  44   0.0000       0.115404         3.1403

MULLIKEN ATOMIC CHARGES
-----------------------
   0 C :    0.271862
   1 C :    0.135217
   2 C :    0.078223
   3 C :    0.056715
   4 C :    0.199286
   5 H :   -0.143461
   6 C :    0.488676
   7 H :    0.048409
   8 O :   -0.752063
   9 H :   -0.072477
  10 H :   -0.066943
  11 C :    0.695787
  12 N :   -0.030247
  13 N :    0.401935
  14 H :   -0.382845
  15 H :   -0.099476
  16 H :   -0.022960
  17 H :   -0.131726
  18 H :   -0.207827
  19 H :    0.035601
  20 H :   -0.150970
  21 H :   -0.087049
  22 H :   -0.081702
  23 H :    0.060345
  24 H :   -0.360300
  25 H :    0.117989
Sum of atomic charges:   -0.0000000

LOEWDIN ATOMIC CHARGES
----------------------
   0 C :   -0.016613
   1 C :   -0.016469
   2 C :    0.052152
   3 C :   -0.030904
   4 C :   -0.034850
   5 H :    0.016023
   6 C :   -0.086318
   7 H :    0.019353
   8 O :   -0.414240
   9 H :    0.011830
  10 H :    0.029215
  11 C :   -0.039459
  12 N :    0.231001
  13 N :    0.307875
  14 H :   -0.195577
  15 H :    0.041134
  16 H :    0.027594
  17 H :    0.021428
  18 H :    0.016079
  19 H :    0.002854
  20 H :    0.020410
  21 H :   -0.002894
  22 H :    0.031325
  23 H :    0.010907
  24 H :    0.005034
  25 H :   -0.006889

  Mayer bond orders larger than 0.100000
B(  0-C ,  1-C ) :   1.2102 B(  0-C ,  2-C ) :   1.1402 B(  0-C ,  9-H ) :   0.7465
B(  0-C , 10-H ) :   0.8770 B(  0-C , 21-H ) :   0.1467 B(  0-C , 22-H ) :   0.1107
B(  1-C ,  3-C ) :   1.1581 B(  1-C ,  9-H ) :   0.1745 B(  1-C , 10-H ) :   0.1123
B(  1-C , 18-H ) :   0.2083 B(  1-C , 20-H ) :   0.8756 B(  1-C , 21-H ) :   0.8182
B(  2-C ,  9-H ) :   0.1449 B(  2-C , 10-H ) :   0.1153 B(  2-C , 11-C ) :   1.0970
B(  2-C , 22-H ) :   0.8265 B(  2-C , 23-H ) :   0.8389 B(  3-C ,  4-C ) :   1.2323
B(  3-C ,  5-H ) :   0.1345 B(  3-C ,  7-H ) :   0.1996 B(  3-C , 18-H ) :   0.8963
B(  3-C , 19-H ) :   0.8166 B(  3-C , 20-H ) :   0.1166 B(  3-C , 21-H ) :   0.1464
B(  4-C ,  5-H ) :   0.9266 B(  4-C ,  6-C ) :   1.1212 B(  4-C ,  7-H ) :   0.7088
B(  4-C , 24-H ) :   0.1278 B(  5-H ,  6-C ) :   0.1085 B(  6-C ,  7-H ) :   0.1139
B(  6-C ,  8-O ) :   0.9702 B(  6-C , 24-H ) :   1.0593 B(  6-C , 25-H ) :   0.7917
B(  8-O , 14-H ) :   0.5109 B( 11-C , 12-N ) :   0.9562 B( 11-C , 13-N ) :   1.2029
B( 11-C , 15-H ) :  -0.2026 B( 11-C , 16-H ) :  -0.1258 B( 11-C , 17-H ) :  -0.1140
B( 11-C , 22-H ) :   0.1228 B( 11-C , 23-H ) :   0.1726 B( 12-N , 13-N ) :   0.1521
B( 12-N , 16-H ) :   1.1863 B( 12-N , 17-H ) :   1.2690 B( 13-N , 14-H ) :   0.9334
B( 13-N , 15-H ) :   1.2603 B( 14-H , 15-H ) :  -0.2014 B( 16-H , 17-H ) :  -0.1651
B( 19-H , 23-H ) :   0.1102

Dispersion correction           -0.011117851
FINAL SINGLE POINT ENERGY      -460.655497408453

DIPOLE MOMENT
-------------
                                X             Y             Z
Electronic contribution:      5.61992       0.93215       4.27845
Nuclear contribution   :     -2.25948       0.71378      -5.15247
                        -----------------------------------------
Total Dipole Moment    :      3.36044       1.64593      -0.87401
                        -----------------------------------------
Magnitude (a.u.)       :      3.84260
Magnitude (Debye)      :      9.76711

Rotational constants in cm-1:     0.063973     0.031829     0.024059
Rotational constants in MHz :  1917.874550   954.201145   721.285252

                             ****ORCA TERMINATED NORMALLY****
TOTAL RUN TIME: 0 days 0 hours 0 minutes 46 seconds 237 msec
