                         Program Version 5.0.0 -  RELEASE  -
|  1> !wB97X-D3 RIJCOSX def2-SVPD def2/J TightSCF
|  2> *xyz 0 1
|  3> C         -1.36353       -1.98134       -2.29361
|  4> F         -0.35039       -2.74969       -1.79601
|  5> H         -2.22523       -2.59288       -2.46214
|  6> H         -1.05452       -1.53818       -3.21720
|  7> H         -1.60477       -1.21086       -1.59143
|  8> *
|  9>
| 10> %MaxCore 64000
| 11> %pal nprocs 18
| 12> end
| 13>
| 14> %scf
| 15>   MaxIter 150
| 16> end
| 17>
| 18>
| 19>                          ****END OF INPUT****

CARTESIAN COORDINATES (ANGSTROEM)
---------------------------------
  C     -1.363530   -1.981340   -2.293610
  F     -0.350390   -2.749690   -1.796010
  H     -2.225230   -2.592880   -2.462140
  H     -1.054520   -1.538180   -3.217200
  H     -1.604770   -1.210860   -1.591430

 Total Charge           Charge          ....    0
 Multiplicity           Mult            ....    1
 Number of Electrons    NEL             ....   18
 Basis Dimension        Dim             ....   67

ORBITAL ENERGIES
----------------

  NO   OCC          E(Eh)            E(eV)
   0   2.0000     -24.786410      -674.4725
   1   2.0000     -10.360117      -281.9131
   2   2.0000      -1.299718       -35.3671
   3   2.0000      -0.814938       -22.1756
   4   2.0000      -0.601136       -16.3578
   5   2.0000      -0.596134       -16.2216
   6   2.0000      -0.596129       -16.2215
   7   2.0000      -0.450348       -12.2546
   8   2.0000      -0.450342       -12.2544
   9   0.0000       0.095939         2.6106
  10   0.0000       0.146888         3.9970
  11   0.0000       0.178604         4.8601
  12   0.0000       0.178610         4.8602
  13   0.0000       0.217182         5.9098

MULLIKEN ATOMIC CHARGES
-----------------------
   0 C :    0.772199
   1 F :   -0.495386
   2 H :   -0.092443
   3 H :   -0.092567
   4 H :   -0.091803
Sum of atomic charges:    0.0000000

LOEWDIN ATOMIC CHARGES
----------------------
   0 C :    0.266951
   1 F :   -0.256488
   2 H :   -0.003501
   3 H :   -0.003488
   4 H :   -0.003474

  Mayer bond orders larger than 0.100000
B(  0-C ,  1-F ) :   0.8314 B(  0-C ,  2-H ) :   0.9557 B(  0-C ,  3-H ) :   0.9558
B(  0-C ,  4-H ) :   0.9550

Dispersion correction           -0.000128134
FINAL SINGLE POINT ENERGY      -139.606789963977

DIPOLE MOMENT
-------------
                                X             Y             Z
Electronic contribution:      2.16434      -1.64164       1.06307
Nuclear contribution   :     -2.70693       2.05289      -1.32950
                        -----------------------------------------
Total Dipole Moment    :     -0.54259       0.41125      -0.26643
                        -----------------------------------------
Magnitude (a.u.)       :      0.73111
Magnitude (Debye)      :      1.85832

Rotational constants in cm-1:     5.477725     0.878859     0.878857
Rotational constants in MHz : 164218.064700 26347.517988 26347.482187

                             ****ORCA TERMINATED NORMALLY****
TOTAL RUN TIME: 0 days 0 hours 0 minutes 2 seconds 974 msec
