                         Program Version 5.0.0 -  RELEASE  -
|  1> !wB97X-D3 RIJCOSX def2-SVPD def2/J TightSCF
|  2> *xyz 0 1
|  3> C          2.20996       -2.81239       -3.66571
|  4> C          2.48901       -1.66851       -2.73754
|  5> C          3.59631       -0.94761       -2.95225
|  6> N          1.66394       -1.41369       -1.77781
|  7> H          0.81164       -1.96318       -1.70275
|  8> H          1.84550       -0.63508       -1.15875
|  9> H          4.20535       -1.17600       -3.73383
| 10> H          3.81723       -0.12585       -2.40604
| 11> H          2.99011       -2.87840       -4.39503
| 12> H          1.27381       -2.65174       -4.15838
| 13> H          2.16680       -3.72339       -3.10614
| 14> *
| 15>
| 16> %MaxCore 64000
| 17> %pal nprocs 18
| 18> end
| 19>
| 20> %scf
| 21>   MaxIter 150
| 22> end
| 23>
| 24>
| 25>                          ****END OF INPUT****

CARTESIAN COORDINATES (ANGSTROEM)
---------------------------------
  C      2.209960   -2.812390   -3.665710
  C      2.489010   -1.668510   -2.737540
  C      3.596310   -0.947610   -2.952250
  N      1.663940   -1.413690   -1.777810
  H      0.811640   -1.963180   -1.702750
  H      1.845500   -0.635080   -1.158750
  H      4.205350   -1.176000   -3.733830
  H      3.817230   -0.125850   -2.406040
  H      2.990110   -2.878400   -4.395030
  H      1.273810   -2.651740   -4.158380
  H      2.166800   -3.723390   -3.106140

 Total Charge           Charge          ....    0
 Multiplicity           Mult            ....    1
 Number of Electrons    NEL             ....   32
 Basis Dimension        Dim             ....  136

ORBITAL ENERGIES
----------------

  NO   OCC          E(Eh)            E(eV)
   0   2.0000     -14.442463      -392.9994
   1   2.0000     -10.314161      -280.6626
   2   2.0000     -10.279431      -279.7175
   3   2.0000     -10.220270      -278.1077
   4   2.0000      -1.049069       -28.5466
   5   2.0000      -0.865061       -23.5395
   6   2.0000      -0.793362       -21.5885
   7   2.0000      -0.680870       -18.5274
   8   2.0000      -0.637568       -17.3491
   9   2.0000      -0.574697       -15.6383
  10   2.0000      -0.535395       -14.5688
  11   2.0000      -0.494753       -13.4629
  12   2.0000      -0.488892       -13.3034
  13   2.0000      -0.444759       -12.1025
  14   2.0000      -0.439073       -11.9478
  15   2.0000      -0.275568        -7.4986
  16   0.0000       0.090341         2.4583
  17   0.0000       0.126635         3.4459
  18   0.0000       0.127569         3.4713
  19   0.0000       0.131921         3.5898
  20   0.0000       0.164765         4.4835

MULLIKEN ATOMIC CHARGES
-----------------------
   0 C :    0.743569
   1 C :   -0.557925
   2 C :    0.449412
   3 N :    0.293931
   4 H :   -0.135265
   5 H :   -0.157170
   6 H :   -0.141079
   7 H :   -0.473100
   8 H :    0.036826
   9 H :   -0.034224
  10 H :   -0.024976
Sum of atomic charges:    0.0000000

LOEWDIN ATOMIC CHARGES
----------------------
   0 C :    0.159155
   1 C :   -0.297166
   2 C :    0.165016
   3 N :    0.154883
   4 H :    0.014712
   5 H :    0.016579
   6 H :   -0.087311
   7 H :   -0.091547
   8 H :   -0.013808
   9 H :   -0.010178
  10 H :   -0.010335

  Mayer bond orders larger than 0.100000
B(  0-C ,  1-C ) :   1.2614 B(  0-C ,  8-H ) :   0.8013 B(  0-C ,  9-H ) :   0.6997
B(  0-C , 10-H ) :   0.7033 B(  1-C ,  2-C ) :   1.7637 B(  1-C ,  3-N ) :   1.2441
B(  1-C ,  7-H ) :   0.1185 B(  1-C ,  8-H ) :   0.2192 B(  1-C ,  9-H ) :   0.2514
B(  1-C , 10-H ) :   0.2488 B(  2-C ,  3-N ) :   0.2101 B(  2-C ,  6-H ) :   0.9650
B(  2-C ,  7-H ) :   0.8333 B(  3-N ,  4-H ) :   1.1473 B(  3-N ,  5-H ) :   1.1726
B(  4-H ,  5-H ) :  -0.1157

Dispersion correction           -0.001680036
FINAL SINGLE POINT ENERGY      -173.085339516549

DIPOLE MOMENT
-------------
                                X             Y             Z
Electronic contribution:     -0.66141       0.85940       1.52963
Nuclear contribution   :     -0.07639      -1.03653      -1.19368
                        -----------------------------------------
Total Dipole Moment    :     -0.73779      -0.17713       0.33596
                        -----------------------------------------
Magnitude (a.u.)       :      0.82981
Magnitude (Debye)      :      2.10920

Rotational constants in cm-1:     0.347569     0.308531     0.168494
Rotational constants in MHz : 10419.863808  9249.512495  5051.317883

                             ****ORCA TERMINATED NORMALLY****
TOTAL RUN TIME: 0 days 0 hours 0 minutes 6 seconds 529 msec
