                         Program Version 5.0.0 -  RELEASE  -
|  1> !wB97X-D3 RIJCOSX def2-SVPD def2/J TightSCF
|  2> *xyz 0 1
|  3> C          2.20996       -2.81239       -3.66571
|  4> C          2.48901       -1.66851       -2.73754
|  5> N          3.59631       -0.94761       -2.95225
|  6> C          1.66394       -1.41369       -1.77781
|  7> H          0.81164       -1.96318       -1.70275
|  8> H          1.84550       -0.63508       -1.15875
|  9> H          4.20535       -1.17600       -3.73383
| 10> H          3.81723       -0.12585       -2.40604
| 11> H          2.99011       -2.87840       -4.39503
| 12> H          1.27381       -2.65174       -4.15838
| 13> H          2.16680       -3.72339       -3.10614
| 14> *
| 15>
| 16> %MaxCore 64000
| 17> %pal nprocs 18
| 18> end
| 19>
| 20> %scf
| 21>   MaxIter 150
| 22> end
| 23>
| 24>
| 25>                          ****END OF INPUT****

CARTESIAN COORDINATES (ANGSTROEM)
---------------------------------
  C      2.209960   -2.812390   -3.665710
  C      2.489010   -1.668510   -2.737540
  N      3.596310   -0.947610   -2.952250
  C      1.663940   -1.413690   -1.777810
  H      0.811640   -1.963180   -1.702750
  H      1.845500   -0.635080   -1.158750
  H      4.205350   -1.176000   -3.733830
  H      3.817230   -0.125850   -2.406040
  H      2.990110   -2.878400   -4.395030
  H      1.273810   -2.651740   -4.158380
  H      2.166800   -3.723390   -3.106140

 Total Charge           Charge          ....    0
 Multiplicity           Mult            ....    1
 Number of Electrons    NEL             ....   32
 Basis Dimension        Dim             ....  136

ORBITAL ENERGIES
----------------

  NO   OCC          E(Eh)            E(eV)
   0   2.0000     -14.437444      -392.8628
   1   2.0000     -10.310262      -280.5565
   2   2.0000     -10.279138      -279.7096
   3   2.0000     -10.217741      -278.0389
   4   2.0000      -1.030682       -28.0463
   5   2.0000      -0.869853       -23.6699
   6   2.0000      -0.799452       -21.7542
   7   2.0000      -0.672778       -18.3072
   8   2.0000      -0.624513       -16.9939
   9   2.0000      -0.576703       -15.6929
  10   2.0000      -0.531379       -14.4595
  11   2.0000      -0.497355       -13.5337
  12   2.0000      -0.490780       -13.3548
  13   2.0000      -0.448477       -12.2037
  14   2.0000      -0.431735       -11.7481
  15   2.0000      -0.281912        -7.6712
  16   0.0000       0.091668         2.4944
  17   0.0000       0.126290         3.4365
  18   0.0000       0.127943         3.4815
  19   0.0000       0.131449         3.5769
  20   0.0000       0.163706         4.4547

MULLIKEN ATOMIC CHARGES
-----------------------
   0 C :    0.699736
   1 C :   -0.258099
   2 N :    0.050815
   3 C :    0.310302
   4 H :   -0.178113
   5 H :   -0.327558
   6 H :   -0.076084
   7 H :   -0.158220
   8 H :   -0.111916
   9 H :    0.024305
  10 H :    0.024832
Sum of atomic charges:   -0.0000000

LOEWDIN ATOMIC CHARGES
----------------------
   0 C :    0.160971
   1 C :   -0.284655
   2 N :    0.157165
   3 C :    0.148071
   4 H :   -0.066606
   5 H :   -0.078645
   6 H :   -0.004641
   7 H :    0.003931
   8 H :   -0.027075
   9 H :   -0.004334
  10 H :   -0.004180

  Mayer bond orders larger than 0.100000
B(  0-C ,  1-C ) :   1.0899 B(  0-C ,  8-H ) :   0.7588 B(  0-C ,  9-H ) :   0.7663
B(  0-C , 10-H ) :   0.7623 B(  1-C ,  2-N ) :   0.9852 B(  1-C ,  3-C ) :   1.8829
B(  1-C ,  4-H ) :   0.1194 B(  1-C ,  5-H ) :   0.2371 B(  1-C ,  7-H ) :  -0.1342
B(  1-C ,  8-H ) :   0.2428 B(  1-C ,  9-H ) :   0.1627 B(  1-C , 10-H ) :   0.1699
B(  2-N ,  3-C ) :   0.2264 B(  2-N ,  6-H ) :   1.1093 B(  2-N ,  7-H ) :   1.2908
B(  3-C ,  4-H ) :   0.8560 B(  3-C ,  5-H ) :   0.7620 B(  6-H ,  7-H ) :  -0.1545

Dispersion correction           -0.001666506
FINAL SINGLE POINT ENERGY      -173.085315364533

DIPOLE MOMENT
-------------
                                X             Y             Z
Electronic contribution:      1.03400       1.24897       0.47849
Nuclear contribution   :     -0.50975      -1.14105      -0.93029
                        -----------------------------------------
Total Dipole Moment    :      0.52424       0.10792      -0.45180
                        -----------------------------------------
Magnitude (a.u.)       :      0.70043
Magnitude (Debye)      :      1.78034

Rotational constants in cm-1:     0.350603     0.305690     0.168346
Rotational constants in MHz : 10510.799277  9164.357607  5046.873498

                             ****ORCA TERMINATED NORMALLY****
TOTAL RUN TIME: 0 days 0 hours 0 minutes 6 seconds 390 msec
