                         Program Version 5.0.0 -  RELEASE  -
|  1> !wB97X-D3 RIJCOSX def2-SVPD def2/J TightSCF xyzfile
|  2>
|  3> *xyzfile 0 1 D2.xyz
|  4>
|  5> %MaxCore 64000
|  6>
|  7> %pal nprocs 18
|  8> end
|  9>
| 10> %scf
| 11>   MaxIter 150
| 12> end
| 13>
| 14>
| 15>                          ****END OF INPUT****

CARTESIAN COORDINATES (ANGSTROEM)
---------------------------------
  C      1.647032   -2.345276   -5.020411
  C      0.217628   -1.814022   -4.924389
  C      2.209964   -2.812388   -3.665708
  C     -0.811356   -2.908780   -4.607625
  C     -1.916579   -2.485081   -3.643665
  H     -2.554525   -1.712428   -4.091993
  C     -1.363531   -1.981337   -2.293608
  H     -2.553448   -3.355667   -3.458815
  F     -0.350395   -2.749689   -1.796006
  H      2.308385   -1.588704   -5.457128
  H      1.674286   -3.203478   -5.697392
  C      2.489007   -1.668510   -2.737538
  N      3.596314   -0.947608   -2.952247
  C      1.663936   -1.413685   -1.777806
  H      0.811642   -1.963178   -1.702755
  H      1.845503   -0.635078   -1.158749
  H      4.205351   -1.176003   -3.733825
  H      3.817230   -0.125845   -2.406041
  H     -1.244829   -3.280884   -5.541040
  H     -0.306331   -3.757746   -4.142734
  H     -0.036244   -1.318555   -5.865303
  H      0.175004   -1.035382   -4.158095
  H      3.143106   -3.362803   -3.811524
  H      1.487683   -3.458935   -3.165211
  H     -2.226220   -1.908386   -1.602039
  H     -1.051353   -0.915671   -2.443331

 Total Charge           Charge          ....    0
 Multiplicity           Mult            ....    1
 Number of Electrons    NEL             ....   80
 Basis Dimension        Dim             ....  331

ORBITAL ENERGIES
----------------

  NO   OCC          E(Eh)            E(eV)
   0   2.0000     -24.805049      -674.9797
   1   2.0000     -14.422852      -392.4658
   2   2.0000     -10.373060      -282.2653
   3   2.0000     -10.297052      -280.1970
   4   2.0000     -10.290027      -280.0059
   5   2.0000     -10.284686      -279.8605
   6   2.0000     -10.281657      -279.7781
   7   2.0000     -10.277771      -279.6724
   8   2.0000     -10.275617      -279.6138
   9   2.0000     -10.187208      -277.2080
  10   2.0000      -1.327386       -36.1200
  11   2.0000      -1.016864       -27.6703
  12   2.0000      -0.924814       -25.1655
  13   2.0000      -0.888219       -24.1697
  14   2.0000      -0.836429       -22.7604
  15   2.0000      -0.809957       -22.0401
  16   2.0000      -0.765513       -20.8307
  17   2.0000      -0.710119       -19.3233
  18   2.0000      -0.675977       -18.3943
  19   2.0000      -0.673047       -18.3145
  20   2.0000      -0.631925       -17.1956
  21   2.0000      -0.618845       -16.8396
  22   2.0000      -0.601657       -16.3719
  23   2.0000      -0.591409       -16.0931
  24   2.0000      -0.564874       -15.3710
  25   2.0000      -0.548357       -14.9216
  26   2.0000      -0.543276       -14.7833
  27   2.0000      -0.530809       -14.4440
  28   2.0000      -0.501778       -13.6541
  29   2.0000      -0.481000       -13.0887
  30   2.0000      -0.465851       -12.6765
  31   2.0000      -0.453654       -12.3445
  32   2.0000      -0.447038       -12.1645
  33   2.0000      -0.433650       -11.8002
  34   2.0000      -0.422542       -11.4980
  35   2.0000      -0.418385       -11.3848
  36   2.0000      -0.404600       -11.0097
  37   2.0000      -0.400726       -10.9043
  38   2.0000      -0.387359       -10.5406
  39   2.0000      -0.267484        -7.2786
  40   0.0000       0.093411         2.5418
  41   0.0000       0.099322         2.7027
  42   0.0000       0.107539         2.9263
  43   0.0000       0.117567         3.1991
  44   0.0000       0.130910         3.5622

MULLIKEN ATOMIC CHARGES
-----------------------
   0 C :    0.285939
   1 C :    0.138647
   2 C :    0.243204
   3 C :    0.057756
   4 C :    0.145413
   5 H :   -0.096336
   6 C :    0.564636
   7 H :    0.026775
   8 F :   -0.545128
   9 H :   -0.038441
  10 H :   -0.094718
  11 C :    0.065534
  12 N :    0.033184
  13 C :    1.109832
  14 H :   -0.442790
  15 H :   -0.743462
  16 H :   -0.105761
  17 H :   -0.158120
  18 H :   -0.186095
  19 H :    0.011951
  20 H :   -0.152637
  21 H :   -0.052554
  22 H :   -0.160114
  23 H :    0.016199
  24 H :   -0.244665
  25 H :    0.321752
Sum of atomic charges:   -0.0000000

LOEWDIN ATOMIC CHARGES
----------------------
   0 C :   -0.020690
   1 C :   -0.016055
   2 C :    0.020987
   3 C :   -0.026586
   4 C :   -0.014262
   5 H :    0.033898
   6 C :    0.147772
   7 H :    0.023576
   8 F :   -0.200466
   9 H :    0.016609
  10 H :    0.020583
  11 C :   -0.239049
  12 N :    0.161148
  13 C :    0.198003
  14 H :   -0.182317
  15 H :   -0.069769
  16 H :   -0.004181
  17 H :    0.000813
  18 H :    0.023624
  19 H :    0.007116
  20 H :    0.020344
  21 H :   -0.000976
  22 H :    0.022982
  23 H :    0.002921
  24 H :    0.036672
  25 H :    0.037302

  Mayer bond orders larger than 0.100000
B(  0-C ,  1-C ) :   1.2200 B(  0-C ,  2-C ) :   1.1070 B(  0-C ,  9-H ) :   0.7645
B(  0-C , 10-H ) :   0.8450 B(  0-C , 21-H ) :   0.1658 B(  0-C , 22-H ) :   0.1089
B(  1-C ,  3-C ) :   1.1563 B(  1-C ,  9-H ) :   0.1699 B(  1-C , 18-H ) :   0.1905
B(  1-C , 20-H ) :   0.8756 B(  1-C , 21-H ) :   0.8329 B(  2-C ,  9-H ) :   0.1312
B(  2-C , 10-H ) :   0.1471 B(  2-C , 11-C ) :   1.1706 B(  2-C , 12-N ) :   0.1455
B(  2-C , 13-C ) :   0.1192 B(  2-C , 22-H ) :   0.8481 B(  2-C , 23-H ) :   0.8384
B(  3-C ,  4-C ) :   1.2257 B(  3-C ,  5-H ) :   0.1250 B(  3-C ,  7-H ) :   0.1924
B(  3-C , 18-H ) :   0.9122 B(  3-C , 19-H ) :   0.8246 B(  3-C , 20-H ) :   0.1158
B(  3-C , 21-H ) :   0.1321 B(  4-C ,  5-H ) :   0.9020 B(  4-C ,  6-C ) :   1.2326
B(  4-C ,  7-H ) :   0.7285 B(  4-C , 24-H ) :   0.1302 B(  5-H ,  6-C ) :   0.1142
B(  6-C ,  8-F ) :   0.5923 B(  6-C , 14-H ) :   0.1083 B(  6-C , 24-H ) :   1.0460
B(  6-C , 25-H ) :   0.7326 B(  8-F , 14-H ) :   0.2455 B( 11-C , 12-N ) :   0.9745
B( 11-C , 13-C ) :   1.9191 B( 11-C , 14-H ) :   0.2114 B( 11-C , 15-H ) :   0.1894
B( 11-C , 22-H ) :   0.2165 B( 11-C , 23-H ) :   0.1227 B( 12-N , 13-C ) :   0.3203
B( 12-N , 16-H ) :   1.1673 B( 12-N , 17-H ) :   1.2592 B( 13-C , 14-H ) :   0.4895
B( 13-C , 15-H ) :   0.5686 B( 14-H , 15-H ) :  -0.2990 B( 15-H , 21-H ) :  -0.1091
B( 16-H , 17-H ) :  -0.1475 B( 19-H , 23-H ) :   0.1196

Dispersion correction           -0.010964995
FINAL SINGLE POINT ENERGY      -468.578728865625

DIPOLE MOMENT
-------------
                                X             Y             Z
Electronic contribution:      0.38698      -1.31420       6.06977
Nuclear contribution   :     -0.73748       1.64619      -6.72655
                        -----------------------------------------
Total Dipole Moment    :     -0.35050       0.33199      -0.65678
                        -----------------------------------------
Magnitude (a.u.)       :      0.81512
Magnitude (Debye)      :      2.07187

Rotational constants in cm-1:     0.063169     0.031711     0.023958
Rotational constants in MHz :  1893.751676   950.657187   718.229932

                             ****ORCA TERMINATED NORMALLY****
TOTAL RUN TIME: 0 days 0 hours 0 minutes 49 seconds 646 msec
