                         Program Version 5.0.0 -  RELEASE  -
|  1> !CAM-B3LYP RIJCOSX def2-SVPD def2/J TightSCF
|  2> *xyz -1 1
|  3> C         -0.91495        0.61511        2.50554
|  4> C         -0.05915        1.50352        3.41058
|  5> H          0.36536        2.34431        2.86116
|  6> H         -0.69226        1.92021        4.19898
|  7> C          1.08303        0.74964        4.08571
|  8> O          2.22817        1.26348        4.01983
|  9> O          0.81003       -0.34541        4.63627
| 10> C         -0.13074       -0.19398        1.47076
| 11> H         -1.64796        1.24596        1.99108
| 12> H         -1.47818       -0.08105        3.13042
| 13> H         -0.80952       -0.78099        0.88803
| 14> H          0.55985       -0.83974        1.97175
| 15> H          0.40595        0.47288        0.82877
| 16> *
| 17>
| 18> %MaxCore 64000
| 19>
| 20> %pal nprocs 4
| 21> end
| 22>
| 23> %scf
| 24>   MaxIter 150
| 25> end
| 26>
| 27>
| 28>                          ****END OF INPUT****

CARTESIAN COORDINATES (ANGSTROEM)
---------------------------------
  C     -0.914950    0.615110    2.505540
  C     -0.059150    1.503520    3.410580
  H      0.365360    2.344310    2.861160
  H     -0.692260    1.920210    4.198980
  C      1.083030    0.749640    4.085710
  O      2.228170    1.263480    4.019830
  O      0.810030   -0.345410    4.636270
  C     -0.130740   -0.193980    1.470760
  H     -1.647960    1.245960    1.991080
  H     -1.478180   -0.081050    3.130420
  H     -0.809520   -0.780990    0.888030
  H      0.559850   -0.839740    1.971750
  H      0.405950    0.472880    0.828770

 Total Charge           Charge          ....   -1
 Multiplicity           Mult            ....    1
 Number of Electrons    NEL             ....   48
 Basis Dimension        Dim             ....  182

ORBITAL ENERGIES
----------------

  NO   OCC          E(Eh)            E(eV)
   0   2.0000     -18.955457      -515.8042
   1   2.0000     -18.954852      -515.7877
   2   2.0000     -10.150825      -276.2180
   3   2.0000     -10.110584      -275.1230
   4   2.0000     -10.103516      -274.9307
   5   2.0000     -10.086653      -274.4718
   6   2.0000      -0.898408       -24.4469
   7   2.0000      -0.802648       -21.8412
   8   2.0000      -0.715269       -19.4635
   9   2.0000      -0.619137       -16.8476
  10   2.0000      -0.519374       -14.1329
  11   2.0000      -0.399931       -10.8827
  12   2.0000      -0.376851       -10.2546
  13   2.0000      -0.360933        -9.8215
  14   2.0000      -0.326779        -8.8921
  15   2.0000      -0.305996        -8.3266
  16   2.0000      -0.284350        -7.7376
  17   2.0000      -0.276949        -7.5362
  18   2.0000      -0.263845        -7.1796
  19   2.0000      -0.242824        -6.6076
  20   2.0000      -0.232032        -6.3139
  21   2.0000      -0.118230        -3.2172
  22   2.0000      -0.113032        -3.0758
  23   2.0000      -0.100440        -2.7331
  24   0.0000       0.175206         4.7676
  25   0.0000       0.198223         5.3939
  26   0.0000       0.215689         5.8692
  27   0.0000       0.226969         6.1761
  28   0.0000       0.250237         6.8093

MULLIKEN ATOMIC CHARGES
-----------------------
   0 C :   -0.271859
   1 C :    0.306726
   2 H :   -0.087078
   3 H :   -0.102860
   4 C :    0.340055
   5 O :   -0.658541
   6 O :   -0.717496
   7 C :    0.842441
   8 H :   -0.256284
   9 H :   -0.050942
  10 H :   -0.146222
  11 H :   -0.112638
  12 H :   -0.085302
Sum of atomic charges:   -1.0000000

LOEWDIN ATOMIC CHARGES
----------------------
   0 C :   -0.090639
   1 C :   -0.003002
   2 H :    0.003109
   3 H :    0.012342
   4 C :   -0.316318
   5 O :   -0.327343
   6 O :   -0.319505
   7 C :    0.115380
   8 H :   -0.002174
   9 H :    0.010696
  10 H :   -0.036844
  11 H :   -0.021322
  12 H :   -0.024378

  Mayer bond orders larger than 0.100000
B(  0-C ,  1-C ) :   1.1897 B(  0-C ,  2-H ) :   0.1513 B(  0-C ,  3-H ) :   0.1385
B(  0-C ,  7-C ) :   1.3118 B(  0-C ,  8-H ) :   0.9458 B(  0-C ,  9-H ) :   0.8695
B(  0-C , 10-H ) :   0.2437 B(  0-C , 11-H ) :   0.2299 B(  0-C , 12-H ) :   0.2178
B(  1-C ,  2-H ) :   0.8474 B(  1-C ,  3-H ) :   0.8022 B(  1-C ,  4-C ) :   1.0068
B(  1-C ,  8-H ) :   0.1082 B(  1-C ,  9-H ) :   0.1289 B(  2-H ,  4-C ) :   0.2445
B(  3-H ,  4-C ) :   0.1133 B(  4-C ,  5-O ) :   1.4730 B(  4-C ,  6-O ) :   1.5228
B(  7-C , 10-H ) :   0.7081 B(  7-C , 11-H ) :   0.8019 B(  7-C , 12-H ) :   0.7546

FINAL SINGLE POINT ENERGY      -306.808963990143

DIPOLE MOMENT
-------------
                                X             Y             Z
Electronic contribution:      4.56073       0.22148       5.48741
Nuclear contribution   :     -6.45806       0.15825      -7.12052
                        -----------------------------------------
Total Dipole Moment    :     -1.89733       0.37972      -1.63312
                        -----------------------------------------
Magnitude (a.u.)       :      2.53202
Magnitude (Debye)      :      6.43589

Rotational constants in cm-1:     0.199323     0.080770     0.077827
Rotational constants in MHz :  5975.562678  2421.415024  2333.195390

                             ****ORCA TERMINATED NORMALLY****
TOTAL RUN TIME: 0 days 0 hours 0 minutes 27 seconds 614 msec
