                         Program Version 5.0.0 -  RELEASE  -
|  1> !CAM-B3LYP RIJCOSX def2-SVPD def2/J TightSCF
|  2> *xyz 1 1
|  3> C          4.60295       -2.44010        2.63478
|  4> C          3.86085       -1.59157        3.62289
|  5> N          2.75650       -2.04616        4.16633
|  6> N          4.25433       -0.36291        3.86046
|  7> H          3.56526        0.31099        4.16898
|  8> H          5.05429       -0.01606        3.33784
|  9> H          2.43970       -2.97389        3.89740
| 10> H          2.06687       -1.41253        4.54981
| 11> C          3.74469       -2.58056        1.36188
| 12> C          3.20372       -1.25600        0.82621
| 13> H          2.89894       -3.23929        1.58307
| 14> H          4.33496       -3.09552        0.60019
| 15> H          5.56156       -1.97135        2.40708
| 16> H          4.81050       -3.42255        3.06310
| 17> H          2.62184       -1.43789       -0.05313
| 18> H          4.02069       -0.60826        0.58562
| 19> H          2.58975       -0.79418        1.57097
| 20> *
| 21>
| 22> %MaxCore 64000
| 23>
| 24> %pal nprocs 4
| 25> end
| 26>
| 27> %scf
| 28>   MaxIter 150
| 29> end
| 30>
| 31>
| 32>                          ****END OF INPUT****

CARTESIAN COORDINATES (ANGSTROEM)
---------------------------------
  C      4.602950   -2.440100    2.634780
  C      3.860850   -1.591570    3.622890
  N      2.756500   -2.046160    4.166330
  N      4.254330   -0.362910    3.860460
  H      3.565260    0.310990    4.168980
  H      5.054290   -0.016060    3.337840
  H      2.439700   -2.973890    3.897400
  H      2.066870   -1.412530    4.549810
  C      3.744690   -2.580560    1.361880
  C      3.203720   -1.256000    0.826210
  H      2.898940   -3.239290    1.583070
  H      4.334960   -3.095520    0.600190
  H      5.561560   -1.971350    2.407080
  H      4.810500   -3.422550    3.063100
  H      2.621840   -1.437890   -0.053130
  H      4.020690   -0.608260    0.585620
  H      2.589750   -0.794180    1.570970

 Total Charge           Charge          ....    1
 Multiplicity           Mult            ....    1
 Number of Electrons    NEL             ....   48
 Basis Dimension        Dim             ....  208

ORBITAL ENERGIES
----------------

  NO   OCC          E(Eh)            E(eV)
   0   2.0000     -14.649984      -398.6463
   1   2.0000     -14.649748      -398.6399
   2   2.0000     -10.583574      -287.9937
   3   2.0000     -10.456172      -284.5269
   4   2.0000     -10.426485      -283.7191
   5   2.0000     -10.394391      -282.8457
   6   2.0000      -1.284101       -34.9422
   7   2.0000      -1.183212       -32.1968
   8   2.0000      -1.055885       -28.7321
   9   2.0000      -0.966152       -26.2903
  10   2.0000      -0.909183       -24.7401
  11   2.0000      -0.858297       -23.3555
  12   2.0000      -0.845047       -22.9949
  13   2.0000      -0.807483       -21.9727
  14   2.0000      -0.766664       -20.8620
  15   2.0000      -0.740028       -20.1372
  16   2.0000      -0.700441       -19.0600
  17   2.0000      -0.663523       -18.0554
  18   2.0000      -0.644337       -17.5333
  19   2.0000      -0.636512       -17.3204
  20   2.0000      -0.577486       -15.7142
  21   2.0000      -0.575449       -15.6588
  22   2.0000      -0.563908       -15.3447
  23   2.0000      -0.558343       -15.1933
  24   0.0000      -0.168934        -4.5969
  25   0.0000      -0.122768        -3.3407
  26   0.0000      -0.084705        -2.3049
  27   0.0000      -0.079176        -2.1545
  28   0.0000      -0.055142        -1.5005

MULLIKEN ATOMIC CHARGES
-----------------------
   0 C :    0.455992
   1 C :    0.268539
   2 N :    0.173103
   3 N :    0.137457
   4 H :   -0.085899
   5 H :    0.073149
   6 H :    0.061196
   7 H :   -0.133245
   8 C :   -0.193542
   9 C :    0.993590
  10 H :   -0.052648
  11 H :   -0.227628
  12 H :   -0.031126
  13 H :   -0.068141
  14 H :   -0.178879
  15 H :   -0.082687
  16 H :   -0.109232
Sum of atomic charges:    1.0000000

LOEWDIN ATOMIC CHARGES
----------------------
   0 C :    0.052965
   1 C :   -0.070635
   2 N :    0.292558
   3 N :    0.291789
   4 H :    0.050732
   5 H :    0.052925
   6 H :    0.053359
   7 H :    0.051811
   8 C :   -0.039030
   9 C :    0.142090
  10 H :    0.023775
  11 H :    0.041649
  12 H :    0.039551
  13 H :    0.049500
  14 H :    0.002448
  15 H :   -0.005510
  16 H :   -0.029979

  Mayer bond orders larger than 0.100000
B(  0-C ,  1-C ) :   1.1992 B(  0-C ,  8-C ) :   1.1318 B(  0-C , 10-H ) :   0.1103
B(  0-C , 11-H ) :   0.1164 B(  0-C , 12-H ) :   0.7523 B(  0-C , 13-H ) :   0.7769
B(  1-C ,  2-N ) :   1.1955 B(  1-C ,  3-N ) :   1.1554 B(  1-C ,  4-H ) :  -0.1147
B(  1-C ,  7-H ) :  -0.1060 B(  1-C , 12-H ) :   0.2131 B(  1-C , 13-H ) :   0.2073
B(  2-N ,  3-N ) :   0.1555 B(  2-N ,  6-H ) :   1.0311 B(  2-N ,  7-H ) :   1.2216
B(  3-N ,  4-H ) :   1.1923 B(  3-N ,  5-H ) :   1.0039 B(  4-H ,  5-H ) :  -0.1442
B(  6-H ,  7-H ) :  -0.1632 B(  8-C ,  9-C ) :   1.3210 B(  8-C , 10-H ) :   0.8676
B(  8-C , 11-H ) :   0.9627 B(  8-C , 12-H ) :   0.1446 B(  8-C , 14-H ) :   0.2445
B(  8-C , 15-H ) :   0.2128 B(  8-C , 16-H ) :   0.2480 B(  9-C , 14-H ) :   0.7125
B(  9-C , 15-H ) :   0.7252 B(  9-C , 16-H ) :   0.7527 B( 15-H , 16-H ) :   0.1063

FINAL SINGLE POINT ENERGY      -268.014753369346

DIPOLE MOMENT
-------------
                                X             Y             Z
Electronic contribution:      0.49892       0.56893       5.20435
Nuclear contribution   :     -0.82989      -0.08664      -4.26094
                        -----------------------------------------
Total Dipole Moment    :     -0.33097       0.48229       0.94341
                        -----------------------------------------
Magnitude (a.u.)       :      1.11003
Magnitude (Debye)      :      2.82147

Rotational constants in cm-1:     0.166042     0.084809     0.078793
Rotational constants in MHz :  4977.819890  2542.513379  2362.161076

                             ****ORCA TERMINATED NORMALLY****
TOTAL RUN TIME: 0 days 0 hours 0 minutes 35 seconds 535 msec
