                         Program Version 5.0.0 -  RELEASE  -
|  1> !CAM-B3LYP RIJCOSX def2-SVPD def2/J TightSCF
|  2> *xyz 0 1
|  3> C         -0.91495        0.61511        2.50554
|  4> C         -0.05915        1.50352        3.41058
|  5> H          0.36536        2.34431        2.86116
|  6> H         -0.69226        1.92021        4.19898
|  7> C          1.08303        0.74964        4.08571
|  8> F          2.22817        1.26348        4.01983
|  9> O          0.81003       -0.34541        4.63627
| 10> C         -0.13074       -0.19398        1.47076
| 11> H         -1.64796        1.24596        1.99108
| 12> H         -1.47818       -0.08105        3.13042
| 13> H         -0.80952       -0.78099        0.88803
| 14> H          0.55985       -0.83974        1.97175
| 15> H          0.40595        0.47288        0.82877
| 16> *
| 17>
| 18> %MaxCore 64000
| 19>
| 20> %pal nprocs 4
| 21> end
| 22>
| 23> %scf
| 24>   MaxIter 150
| 25> end
| 26>
| 27>
| 28>                          ****END OF INPUT****

CARTESIAN COORDINATES (ANGSTROEM)
---------------------------------
  C     -0.914950    0.615110    2.505540
  C     -0.059150    1.503520    3.410580
  H      0.365360    2.344310    2.861160
  H     -0.692260    1.920210    4.198980
  C      1.083030    0.749640    4.085710
  F      2.228170    1.263480    4.019830
  O      0.810030   -0.345410    4.636270
  C     -0.130740   -0.193980    1.470760
  H     -1.647960    1.245960    1.991080
  H     -1.478180   -0.081050    3.130420
  H     -0.809520   -0.780990    0.888030
  H      0.559850   -0.839740    1.971750
  H      0.405950    0.472880    0.828770

 Total Charge           Charge          ....    0
 Multiplicity           Mult            ....    1
 Number of Electrons    NEL             ....   48
 Basis Dimension        Dim             ....  182

ORBITAL ENERGIES
----------------

  NO   OCC          E(Eh)            E(eV)
   0   2.0000     -24.847706      -676.1405
   1   2.0000     -19.226896      -523.1904
   2   2.0000     -10.447569      -284.2928
   3   2.0000     -10.291532      -280.0468
   4   2.0000     -10.273303      -279.5508
   5   2.0000     -10.251124      -278.9473
   6   2.0000      -1.391047       -37.8523
   7   2.0000      -1.110899       -30.2291
   8   2.0000      -0.892881       -24.2965
   9   2.0000      -0.807969       -21.9860
  10   2.0000      -0.740954       -20.1624
  11   2.0000      -0.687080       -18.6964
  12   2.0000      -0.629454       -17.1283
  13   2.0000      -0.609876       -16.5956
  14   2.0000      -0.585314       -15.9272
  15   2.0000      -0.539219       -14.6729
  16   2.0000      -0.528553       -14.3827
  17   2.0000      -0.489587       -13.3223
  18   2.0000      -0.476415       -12.9639
  19   2.0000      -0.441112       -12.0033
  20   2.0000      -0.424610       -11.5542
  21   2.0000      -0.416195       -11.3252
  22   2.0000      -0.411926       -11.2091
  23   2.0000      -0.366983        -9.9861
  24   0.0000       0.012687         0.3452
  25   0.0000       0.044174         1.2020
  26   0.0000       0.070291         1.9127
  27   0.0000       0.075508         2.0547
  28   0.0000       0.088926         2.4198

MULLIKEN ATOMIC CHARGES
-----------------------
   0 C :   -0.219186
   1 C :    0.220746
   2 H :   -0.050372
   3 H :   -0.038162
   4 C :    0.673503
   5 F :   -0.350681
   6 O :   -0.495719
   7 C :    0.860930
   8 H :   -0.220264
   9 H :   -0.044795
  10 H :   -0.121378
  11 H :   -0.136063
  12 H :   -0.078559
Sum of atomic charges:   -0.0000000

LOEWDIN ATOMIC CHARGES
----------------------
   0 C :   -0.062374
   1 C :    0.039511
   2 H :    0.025554
   3 H :    0.042274
   4 C :   -0.017751
   5 F :   -0.030659
   6 O :   -0.130310
   7 C :    0.132914
   8 H :    0.024413
   9 H :    0.026955
  10 H :   -0.014168
  11 H :   -0.021355
  12 H :   -0.015004

  Mayer bond orders larger than 0.100000
B(  0-C ,  1-C ) :   1.2195 B(  0-C ,  2-H ) :   0.1493 B(  0-C ,  3-H ) :   0.1369
B(  0-C ,  7-C ) :   1.3352 B(  0-C ,  8-H ) :   0.9318 B(  0-C ,  9-H ) :   0.8690
B(  0-C , 10-H ) :   0.2304 B(  0-C , 11-H ) :   0.2155 B(  0-C , 12-H ) :   0.2088
B(  1-C ,  2-H ) :   0.8631 B(  1-C ,  3-H ) :   0.8055 B(  1-C ,  4-C ) :   1.0759
B(  1-C ,  8-H ) :   0.1079 B(  1-C ,  9-H ) :   0.1188 B(  2-H ,  4-C ) :   0.1238
B(  4-C ,  5-F ) :   0.7544 B(  4-C ,  6-O ) :   1.8460 B(  5-F ,  6-O ) :   0.1082
B(  7-C , 10-H ) :   0.7199 B(  7-C , 11-H ) :   0.7989 B(  7-C , 12-H ) :   0.7563

FINAL SINGLE POINT ENERGY      -331.341409746313

DIPOLE MOMENT
-------------
                                X             Y             Z
Electronic contribution:      7.95642       1.48065       7.20533
Nuclear contribution   :     -8.39104      -0.60591      -7.87060
                        -----------------------------------------
Total Dipole Moment    :     -0.43462       0.87474      -0.66527
                        -----------------------------------------
Magnitude (a.u.)       :      1.18180
Magnitude (Debye)      :      3.00390

Rotational constants in cm-1:     0.194210     0.077092     0.074391
Rotational constants in MHz :  5822.269139  2311.145895  2230.180895

                             ****ORCA TERMINATED NORMALLY****
TOTAL RUN TIME: 0 days 0 hours 0 minutes 29 seconds 432 msec
