                         Program Version 5.0.0 -  RELEASE  -
|  1> !CAM-B3LYP RIJCOSX def2-SVPD def2/J TightSCF
|  2> *xyz 0 1
|  3> C          4.60295       -2.44010        2.63478
|  4> C          3.86085       -1.59157        3.62289
|  5> C          2.75650       -2.04616        4.16633
|  6> N          4.25433       -0.36291        3.86046
|  7> H          3.56526        0.31099        4.16898
|  8> H          5.05429       -0.01606        3.33784
|  9> H          2.43970       -2.97389        3.89740
| 10> H          2.06687       -1.41253        4.54981
| 11> C          3.74469       -2.58056        1.36188
| 12> C          3.20372       -1.25600        0.82621
| 13> H          2.89894       -3.23929        1.58307
| 14> H          4.33496       -3.09552        0.60019
| 15> H          5.56156       -1.97135        2.40708
| 16> H          4.81050       -3.42255        3.06310
| 17> H          2.62184       -1.43789       -0.05313
| 18> H          4.02069       -0.60826        0.58562
| 19> H          2.58975       -0.79418        1.57097
| 20> *
| 21>
| 22> %MaxCore 64000
| 23>
| 24> %pal nprocs 4
| 25> end
| 26>
| 27> %scf
| 28>   MaxIter 150
| 29> end
| 30>
| 31>
| 32>                          ****END OF INPUT****

CARTESIAN COORDINATES (ANGSTROEM)
---------------------------------
  C      4.602950   -2.440100    2.634780
  C      3.860850   -1.591570    3.622890
  C      2.756500   -2.046160    4.166330
  N      4.254330   -0.362910    3.860460
  H      3.565260    0.310990    4.168980
  H      5.054290   -0.016060    3.337840
  H      2.439700   -2.973890    3.897400
  H      2.066870   -1.412530    4.549810
  C      3.744690   -2.580560    1.361880
  C      3.203720   -1.256000    0.826210
  H      2.898940   -3.239290    1.583070
  H      4.334960   -3.095520    0.600190
  H      5.561560   -1.971350    2.407080
  H      4.810500   -3.422550    3.063100
  H      2.621840   -1.437890   -0.053130
  H      4.020690   -0.608260    0.585620
  H      2.589750   -0.794180    1.570970

 Total Charge           Charge          ....    0
 Multiplicity           Mult            ....    1
 Number of Electrons    NEL             ....   48
 Basis Dimension        Dim             ....  208

ORBITAL ENERGIES
----------------

  NO   OCC          E(Eh)            E(eV)
   0   2.0000     -14.407523      -392.0486
   1   2.0000     -10.279261      -279.7129
   2   2.0000     -10.259346      -279.1710
   3   2.0000     -10.255585      -279.0686
   4   2.0000     -10.239275      -278.6248
   5   2.0000     -10.189191      -277.2620
   6   2.0000      -1.010643       -27.5010
   7   2.0000      -0.873658       -23.7734
   8   2.0000      -0.806446       -21.9445
   9   2.0000      -0.760439       -20.6926
  10   2.0000      -0.679773       -18.4976
  11   2.0000      -0.629395       -17.1267
  12   2.0000      -0.593975       -16.1629
  13   2.0000      -0.559102       -15.2139
  14   2.0000      -0.528071       -14.3695
  15   2.0000      -0.506807       -13.7909
  16   2.0000      -0.470985       -12.8162
  17   2.0000      -0.458039       -12.4639
  18   2.0000      -0.434839       -11.8326
  19   2.0000      -0.429331       -11.6827
  20   2.0000      -0.402988       -10.9659
  21   2.0000      -0.395371       -10.7586
  22   2.0000      -0.389054       -10.5867
  23   2.0000      -0.251201        -6.8355
  24   0.0000       0.047194         1.2842
  25   0.0000       0.064917         1.7665
  26   0.0000       0.077191         2.1005
  27   0.0000       0.084675         2.3041
  28   0.0000       0.095639         2.6025

MULLIKEN ATOMIC CHARGES
-----------------------
   0 C :    0.627243
   1 C :   -0.395741
   2 C :    0.499504
   3 N :    0.232159
   4 H :   -0.096384
   5 H :   -0.012910
   6 H :   -0.202221
   7 H :   -0.490931
   8 C :   -0.246781
   9 C :    0.984982
  10 H :   -0.074586
  11 H :   -0.227862
  12 H :   -0.120010
  13 H :   -0.062002
  14 H :   -0.259837
  15 H :   -0.081058
  16 H :   -0.073566
Sum of atomic charges:   -0.0000000

LOEWDIN ATOMIC CHARGES
----------------------
   0 C :    0.012658
   1 C :   -0.278403
   2 C :    0.170562
   3 N :    0.178127
   4 H :    0.010682
   5 H :    0.000244
   6 H :   -0.078248
   7 H :   -0.081968
   8 C :   -0.062118
   9 C :    0.124090
  10 H :    0.016328
  11 H :    0.015554
  12 H :    0.012829
  13 H :    0.027419
  14 H :   -0.019868
  15 H :   -0.019623
  16 H :   -0.028265

  Mayer bond orders larger than 0.100000
B(  0-C ,  1-C ) :   1.2183 B(  0-C ,  2-C ) :   0.1032 B(  0-C ,  8-C ) :   1.1236
B(  0-C , 10-H ) :   0.1325 B(  0-C , 11-H ) :   0.1800 B(  0-C , 12-H ) :   0.5762
B(  0-C , 13-H ) :   0.7487 B(  1-C ,  2-C ) :   1.9310 B(  1-C ,  3-N ) :   1.0207
B(  1-C ,  5-H ) :   0.1202 B(  1-C ,  7-H ) :   0.2219 B(  1-C , 12-H ) :   0.3227
B(  1-C , 13-H ) :   0.2262 B(  2-C ,  3-N ) :   0.3105 B(  2-C ,  6-H ) :   0.7385
B(  2-C ,  7-H ) :   0.7018 B(  3-N ,  4-H ) :   1.0639 B(  3-N ,  5-H ) :   0.9426
B(  4-H ,  5-H ) :  -0.1350 B(  8-C ,  9-C ) :   1.2783 B(  8-C , 10-H ) :   0.8868
B(  8-C , 11-H ) :   0.8974 B(  8-C , 12-H ) :   0.1867 B(  8-C , 14-H ) :   0.2566
B(  8-C , 15-H ) :   0.2252 B(  8-C , 16-H ) :   0.2750 B(  9-C , 10-H ) :   0.1064
B(  9-C , 14-H ) :   0.7086 B(  9-C , 15-H ) :   0.7243 B(  9-C , 16-H ) :   0.7620

FINAL SINGLE POINT ENERGY      -251.553327713669

DIPOLE MOMENT
-------------
                                X             Y             Z
Electronic contribution:      1.35859       0.69147       3.40902
Nuclear contribution   :     -1.05621      -0.17147      -3.92631
                        -----------------------------------------
Total Dipole Moment    :      0.30238       0.52000      -0.51729
                        -----------------------------------------
Magnitude (a.u.)       :      0.79336
Magnitude (Debye)      :      2.01656

Rotational constants in cm-1:     0.171127     0.086782     0.080643
Rotational constants in MHz :  5130.249275  2601.647634  2417.629092

                             ****ORCA TERMINATED NORMALLY****
TOTAL RUN TIME: 0 days 0 hours 0 minutes 38 seconds 546 msec
