                         Program Version 5.0.0 -  RELEASE  -
|  1> !CAM-B3LYP RIJCOSX def2-SVPD def2/J TightSCF
|  2> *xyz 0 1
|  3> C         -0.91495        0.61511        2.50554
|  4> C         -0.05915        1.50352        3.41058
|  5> H          0.36536        2.34431        2.86116
|  6> H         -0.69226        1.92021        4.19898
|  7> C          1.08303        0.74964        4.08571
|  8> O          2.22817        1.26348        4.01983
|  9> F          0.81003       -0.34541        4.63627
| 10> C         -0.13074       -0.19398        1.47076
| 11> H         -1.64796        1.24596        1.99108
| 12> H         -1.47818       -0.08105        3.13042
| 13> H         -0.80952       -0.78099        0.88803
| 14> H          0.55985       -0.83974        1.97175
| 15> H          0.40595        0.47288        0.82877
| 16> *
| 17>
| 18> %MaxCore 64000
| 19>
| 20> %pal nprocs 4
| 21> end
| 22>
| 23> %scf
| 24>   MaxIter 150
| 25> end
| 26>
| 27>
| 28>                          ****END OF INPUT****

CARTESIAN COORDINATES (ANGSTROEM)
---------------------------------
  C     -0.914950    0.615110    2.505540
  C     -0.059150    1.503520    3.410580
  H      0.365360    2.344310    2.861160
  H     -0.692260    1.920210    4.198980
  C      1.083030    0.749640    4.085710
  O      2.228170    1.263480    4.019830
  F      0.810030   -0.345410    4.636270
  C     -0.130740   -0.193980    1.470760
  H     -1.647960    1.245960    1.991080
  H     -1.478180   -0.081050    3.130420
  H     -0.809520   -0.780990    0.888030
  H      0.559850   -0.839740    1.971750
  H      0.405950    0.472880    0.828770

 Total Charge           Charge          ....    0
 Multiplicity           Mult            ....    1
 Number of Electrons    NEL             ....   48
 Basis Dimension        Dim             ....  182

ORBITAL ENERGIES
----------------

  NO   OCC          E(Eh)            E(eV)
   0   2.0000     -24.849005      -676.1758
   1   2.0000     -19.225617      -523.1556
   2   2.0000     -10.446555      -284.2652
   3   2.0000     -10.290641      -280.0226
   4   2.0000     -10.278273      -279.6860
   5   2.0000     -10.256903      -279.1045
   6   2.0000      -1.392636       -37.8956
   7   2.0000      -1.108420       -30.1616
   8   2.0000      -0.897961       -24.4348
   9   2.0000      -0.808248       -21.9935
  10   2.0000      -0.740913       -20.1613
  11   2.0000      -0.692412       -18.8415
  12   2.0000      -0.632369       -17.2076
  13   2.0000      -0.621423       -16.9098
  14   2.0000      -0.568078       -15.4582
  15   2.0000      -0.546104       -14.8603
  16   2.0000      -0.530580       -14.4378
  17   2.0000      -0.492373       -13.3982
  18   2.0000      -0.474532       -12.9127
  19   2.0000      -0.446957       -12.1623
  20   2.0000      -0.434970       -11.8361
  21   2.0000      -0.420021       -11.4294
  22   2.0000      -0.414390       -11.2761
  23   2.0000      -0.360654        -9.8139
  24   0.0000       0.016388         0.4460
  25   0.0000       0.041346         1.1251
  26   0.0000       0.071178         1.9369
  27   0.0000       0.076033         2.0690
  28   0.0000       0.084113         2.2888

MULLIKEN ATOMIC CHARGES
-----------------------
   0 C :   -0.227395
   1 C :    0.248245
   2 H :   -0.070816
   3 H :   -0.051915
   4 C :    0.690366
   5 O :   -0.443042
   6 F :   -0.395851
   7 C :    0.868525
   8 H :   -0.227897
   9 H :   -0.067001
  10 H :   -0.120963
  11 H :   -0.135233
  12 H :   -0.067024
Sum of atomic charges:    0.0000000

LOEWDIN ATOMIC CHARGES
----------------------
   0 C :   -0.070671
   1 C :    0.044228
   2 H :    0.036794
   3 H :    0.039228
   4 C :   -0.024388
   5 O :   -0.132394
   6 F :   -0.027720
   7 C :    0.133413
   8 H :    0.024575
   9 H :    0.021771
  10 H :   -0.014259
  11 H :   -0.020868
  12 H :   -0.009710

  Mayer bond orders larger than 0.100000
B(  0-C ,  1-C ) :   1.1929 B(  0-C ,  2-H ) :   0.1395 B(  0-C ,  3-H ) :   0.1301
B(  0-C ,  7-C ) :   1.3363 B(  0-C ,  8-H ) :   0.9385 B(  0-C ,  9-H ) :   0.8688
B(  0-C , 10-H ) :   0.2355 B(  0-C , 11-H ) :   0.2166 B(  0-C , 12-H ) :   0.2151
B(  1-C ,  2-H ) :   0.8876 B(  1-C ,  3-H ) :   0.8143 B(  1-C ,  4-C ) :   1.0321
B(  1-C ,  8-H ) :   0.1109 B(  1-C ,  9-H ) :   0.1106 B(  2-H ,  4-C ) :   0.1629
B(  4-C ,  5-O ) :   1.8346 B(  4-C ,  6-F ) :   0.7203 B(  5-O ,  6-F ) :   0.1231
B(  7-C , 10-H ) :   0.7152 B(  7-C , 11-H ) :   0.7952 B(  7-C , 12-H ) :   0.7589

FINAL SINGLE POINT ENERGY      -331.340464636104

DIPOLE MOMENT
-------------
                                X             Y             Z
Electronic contribution:      5.51540      -1.24982       8.21395
Nuclear contribution   :     -6.78915       1.21145      -8.56691
                        -----------------------------------------
Total Dipole Moment    :     -1.27375      -0.03837      -0.35296
                        -----------------------------------------
Magnitude (a.u.)       :      1.32231
Magnitude (Debye)      :      3.36104

Rotational constants in cm-1:     0.188995     0.079574     0.075294
Rotational constants in MHz :  5665.932233  2385.568994  2257.246443

                             ****ORCA TERMINATED NORMALLY****
TOTAL RUN TIME: 0 days 0 hours 0 minutes 28 seconds 840 msec
