                         Program Version 5.0.0 -  RELEASE  -
|  1> !CAM-B3LYP RIJCOSX def2-SVPD def2/J TightSCF
|  2> *xyz 0 1
|  3> C          4.60295       -2.44010        2.63478
|  4> C          3.86085       -1.59157        3.62289
|  5> N          2.75650       -2.04616        4.16633
|  6> C          4.25433       -0.36291        3.86046
|  7> H          3.56526        0.31099        4.16898
|  8> H          5.05429       -0.01606        3.33784
|  9> H          2.43970       -2.97389        3.89740
| 10> H          2.06687       -1.41253        4.54981
| 11> C          3.74469       -2.58056        1.36188
| 12> C          3.20372       -1.25600        0.82621
| 13> H          2.89894       -3.23929        1.58307
| 14> H          4.33496       -3.09552        0.60019
| 15> H          5.56156       -1.97135        2.40708
| 16> H          4.81050       -3.42255        3.06310
| 17> H          2.62184       -1.43789       -0.05313
| 18> H          4.02069       -0.60826        0.58562
| 19> H          2.58975       -0.79418        1.57097
| 20> *
| 21>
| 22> %MaxCore 64000
| 23>
| 24> %pal nprocs 4
| 25> end
| 26>
| 27> %scf
| 28>   MaxIter 150
| 29> end
| 30>
| 31>
| 32>                          ****END OF INPUT****

CARTESIAN COORDINATES (ANGSTROEM)
---------------------------------
  C      4.602950   -2.440100    2.634780
  C      3.860850   -1.591570    3.622890
  N      2.756500   -2.046160    4.166330
  C      4.254330   -0.362910    3.860460
  H      3.565260    0.310990    4.168980
  H      5.054290   -0.016060    3.337840
  H      2.439700   -2.973890    3.897400
  H      2.066870   -1.412530    4.549810
  C      3.744690   -2.580560    1.361880
  C      3.203720   -1.256000    0.826210
  H      2.898940   -3.239290    1.583070
  H      4.334960   -3.095520    0.600190
  H      5.561560   -1.971350    2.407080
  H      4.810500   -3.422550    3.063100
  H      2.621840   -1.437890   -0.053130
  H      4.020690   -0.608260    0.585620
  H      2.589750   -0.794180    1.570970

 Total Charge           Charge          ....    0
 Multiplicity           Mult            ....    1
 Number of Electrons    NEL             ....   48
 Basis Dimension        Dim             ....  208

ORBITAL ENERGIES
----------------

  NO   OCC          E(Eh)            E(eV)
   0   2.0000     -14.408109      -392.0646
   1   2.0000     -10.279492      -279.7192
   2   2.0000     -10.259014      -279.1620
   3   2.0000     -10.258515      -279.1484
   4   2.0000     -10.238049      -278.5915
   5   2.0000     -10.190099      -277.2867
   6   2.0000      -1.010451       -27.4958
   7   2.0000      -0.872409       -23.7394
   8   2.0000      -0.809561       -22.0293
   9   2.0000      -0.761837       -20.7306
  10   2.0000      -0.672363       -18.2959
  11   2.0000      -0.640078       -17.4174
  12   2.0000      -0.597793       -16.2668
  13   2.0000      -0.543559       -14.7910
  14   2.0000      -0.529269       -14.4021
  15   2.0000      -0.518418       -14.1069
  16   2.0000      -0.460374       -12.5274
  17   2.0000      -0.458182       -12.4678
  18   2.0000      -0.444318       -12.0905
  19   2.0000      -0.430944       -11.7266
  20   2.0000      -0.398967       -10.8564
  21   2.0000      -0.396709       -10.7950
  22   2.0000      -0.386659       -10.5215
  23   2.0000      -0.253200        -6.8899
  24   0.0000       0.044965         1.2236
  25   0.0000       0.066118         1.7992
  26   0.0000       0.077748         2.1156
  27   0.0000       0.083738         2.2786
  28   0.0000       0.097878         2.6634

MULLIKEN ATOMIC CHARGES
-----------------------
   0 C :    0.455828
   1 C :   -0.419566
   2 N :    0.301858
   3 C :    0.552589
   4 H :   -0.451909
   5 H :   -0.142233
   6 H :   -0.056873
   7 H :   -0.173925
   8 C :   -0.194836
   9 C :    0.993811
  10 H :   -0.048657
  11 H :   -0.298591
  12 H :    0.028762
  13 H :   -0.135411
  14 H :   -0.173502
  15 H :   -0.102057
  16 H :   -0.135287
Sum of atomic charges:   -0.0000000

LOEWDIN ATOMIC CHARGES
----------------------
   0 C :    0.011598
   1 C :   -0.282552
   2 N :    0.181773
   3 C :    0.169692
   4 H :   -0.081188
   5 H :   -0.080567
   6 H :    0.001956
   7 H :    0.010973
   8 C :   -0.065018
   9 C :    0.125821
  10 H :    0.008510
  11 H :    0.016593
  12 H :    0.024408
  13 H :    0.019648
  14 H :   -0.020472
  15 H :   -0.012975
  16 H :   -0.028200

  Mayer bond orders larger than 0.100000
B(  0-C ,  1-C ) :   1.3004 B(  0-C ,  3-C ) :   0.1172 B(  0-C ,  8-C ) :   1.1302
B(  0-C , 10-H ) :   0.1383 B(  0-C , 11-H ) :   0.1977 B(  0-C , 12-H ) :   0.7634
B(  0-C , 13-H ) :   0.7354 B(  1-C ,  2-N ) :   1.1017 B(  1-C ,  3-C ) :   2.0341
B(  1-C ,  4-H ) :   0.2924 B(  1-C ,  5-H ) :   0.1560 B(  1-C , 12-H ) :   0.2091
B(  1-C , 13-H ) :   0.2549 B(  2-N ,  3-C ) :   0.2818 B(  2-N ,  6-H ) :   1.0351
B(  2-N ,  7-H ) :   1.1077 B(  3-C ,  4-H ) :   0.6392 B(  3-C ,  5-H ) :   0.8141
B(  3-C , 12-H ) :  -0.1078 B(  6-H ,  7-H ) :  -0.1446 B(  8-C ,  9-C ) :   1.2880
B(  8-C , 10-H ) :   0.8493 B(  8-C , 11-H ) :   0.9392 B(  8-C , 12-H ) :   0.1694
B(  8-C , 14-H ) :   0.2520 B(  8-C , 15-H ) :   0.2182 B(  8-C , 16-H ) :   0.2797
B(  9-C , 10-H ) :   0.1002 B(  9-C , 14-H ) :   0.7026 B(  9-C , 15-H ) :   0.7369
B(  9-C , 16-H ) :   0.7625 B( 15-H , 16-H ) :   0.1276

FINAL SINGLE POINT ENERGY      -251.553385953897

DIPOLE MOMENT
-------------
                                X             Y             Z
Electronic contribution:      0.08803      -0.72902       3.68220
Nuclear contribution   :     -0.70193       0.22667      -3.99866
                        -----------------------------------------
Total Dipole Moment    :     -0.61390      -0.50235      -0.31646
                        -----------------------------------------
Magnitude (a.u.)       :      0.85403
Magnitude (Debye)      :      2.17077

Rotational constants in cm-1:     0.170665     0.086587     0.081284
Rotational constants in MHz :  5116.404877  2595.819690  2436.831753

                             ****ORCA TERMINATED NORMALLY****
TOTAL RUN TIME: 0 days 0 hours 0 minutes 38 seconds 751 msec
