                         Program Version 5.0.0 -  RELEASE  -
|  1> !CAM-B3LYP RIJCOSX def2-SVPD def2/J TightSCF xyzfile
|  2>
|  3> *xyzfile 0 1 D3.xyz
|  4>
|  5> %MaxCore 64000
|  6>
|  7> %pal nprocs 4
|  8> end
|  9>
| 10> %scf
| 11>   MaxIter 150
| 12> end
| 13>
| 14>
| 15>                          ****END OF INPUT****

CARTESIAN COORDINATES (ANGSTROEM)
---------------------------------
  C      4.602954   -2.440100    2.634780
  C     -0.914947    0.615112    2.505538
  C     -0.059146    1.503524    3.410578
  H      0.365364    2.344315    2.861161
  H     -0.692261    1.920207    4.198985
  C      1.083027    0.749640    4.085705
  C      3.860851   -1.591565    3.622893
  C      2.756502   -2.046159    4.166333
  N      4.254325   -0.362905    3.860455
  H      3.565256    0.310994    4.168983
  H      5.054292   -0.016059    3.337838
  H      2.439696   -2.973894    3.897395
  H      2.066869   -1.412532    4.549813
  O      2.228167    1.263475    4.019826
  F      0.810034   -0.345411    4.636269
  C      3.744685   -2.580557    1.361882
  C      0.772139    0.636882    0.562129
  C     -0.130740   -0.193985    1.470763
  H     -0.840563   -0.760165    0.856377
  H      0.466691   -0.938942    2.006959
  H     -1.647961    1.245963    1.991076
  H     -1.478180   -0.081046    3.130424
  C      3.203721   -1.256004    0.826211
  H      2.898939   -3.239289    1.583074
  H      4.334962   -3.095523    0.600188
  C      2.107815   -1.442385   -0.216865
  H      2.786775   -0.672760    1.650711
  H      4.021008   -0.652993    0.414046
  C      1.390662   -0.145912   -0.602422
  H      1.372179   -2.152184    0.176151
  H      2.523302   -1.906787   -1.117115
  H      1.561361    1.100094    1.161831
  H      0.195516    1.468325    0.142758
  H      0.602893   -0.398214   -1.319716
  H      2.087247    0.508272   -1.137335
  H      5.561557   -1.971347    2.407084
  H      4.810498   -3.422552    3.063099

 Total Charge           Charge          ....    0
 Multiplicity           Mult            ....    1
 Number of Electrons    NEL             ....  118
 Basis Dimension        Dim             ....  482

ORBITAL ENERGIES
----------------

  NO   OCC          E(Eh)            E(eV)
   0   2.0000     -24.863316      -676.5652
   1   2.0000     -19.248223      -523.7708
   2   2.0000     -14.368537      -390.9878
   3   2.0000     -10.467709      -284.8408
   4   2.0000     -10.299092      -280.2525
   5   2.0000     -10.280294      -279.7410
   6   2.0000     -10.264074      -279.2996
   7   2.0000     -10.259827      -279.1841
   8   2.0000     -10.257466      -279.1198
   9   2.0000     -10.252911      -278.9959
  10   2.0000     -10.246906      -278.8325
  11   2.0000     -10.245603      -278.7970
  12   2.0000     -10.245006      -278.7808
  13   2.0000     -10.241323      -278.6806
  14   2.0000     -10.164093      -276.5790
  15   2.0000      -1.411295       -38.4033
  16   2.0000      -1.136534       -30.9267
  17   2.0000      -0.983267       -26.7560
  18   2.0000      -0.914883       -24.8952
  19   2.0000      -0.884997       -24.0820
  20   2.0000      -0.857809       -23.3422
  21   2.0000      -0.822078       -22.3699
  22   2.0000      -0.788787       -21.4640
  23   2.0000      -0.772448       -21.0194
  24   2.0000      -0.747841       -20.3498
  25   2.0000      -0.724339       -19.7103
  26   2.0000      -0.690304       -18.7841
  27   2.0000      -0.664255       -18.0753
  28   2.0000      -0.650554       -17.7025
  29   2.0000      -0.644825       -17.5466
  30   2.0000      -0.629855       -17.1392
  31   2.0000      -0.615900       -16.7595
  32   2.0000      -0.593506       -16.1501
  33   2.0000      -0.565924       -15.3996
  34   2.0000      -0.557911       -15.1815
  35   2.0000      -0.551975       -15.0200
  36   2.0000      -0.539440       -14.6789
  37   2.0000      -0.520231       -14.1562
  38   2.0000      -0.516552       -14.0561
  39   2.0000      -0.503763       -13.7081
  40   2.0000      -0.494329       -13.4514
  41   2.0000      -0.481030       -13.0895
  42   2.0000      -0.478443       -13.0191
  43   2.0000      -0.461713       -12.5638
  44   2.0000      -0.455476       -12.3941
  45   2.0000      -0.444934       -12.1073
  46   2.0000      -0.440660       -11.9910
  47   2.0000      -0.433375       -11.7927
  48   2.0000      -0.420290       -11.4367
  49   2.0000      -0.410065       -11.1584
  50   2.0000      -0.407553       -11.0901
  51   2.0000      -0.401295       -10.9198
  52   2.0000      -0.389140       -10.5890
  53   2.0000      -0.384762       -10.4699
  54   2.0000      -0.376886       -10.2556
  55   2.0000      -0.375218       -10.2102
  56   2.0000      -0.367629       -10.0037
  57   2.0000      -0.359764        -9.7897
  58   2.0000      -0.229006        -6.2316
  59   0.0000      -0.003167        -0.0862
  60   0.0000       0.039731         1.0811
  61   0.0000       0.058393         1.5890
  62   0.0000       0.059089         1.6079
  63   0.0000       0.063157         1.7186

MULLIKEN ATOMIC CHARGES
-----------------------
   0 C :    1.017970
   1 C :    0.692124
   2 C :    0.317291
   3 H :    0.107761
   4 H :   -0.240127
   5 C :    0.629313
   6 C :   -0.571718
   7 C :    1.213116
   8 N :    0.544983
   9 H :   -0.493073
  10 H :    0.067175
  11 H :   -0.288657
  12 H :   -1.062055
  13 O :   -0.487986
  14 F :   -0.460313
  15 C :    0.209295
  16 C :   -0.041133
  17 C :    0.042094
  18 H :   -0.241906
  19 H :   -0.187405
  20 H :   -0.146826
  21 H :   -0.054365
  22 C :    0.365752
  23 H :    0.009345
  24 H :   -0.361163
  25 C :    0.136609
  26 H :   -0.495315
  27 H :   -0.053910
  28 C :    0.968088
  29 H :    0.112735
  30 H :   -0.435341
  31 H :    0.092323
  32 H :   -0.610798
  33 H :   -0.003569
  34 H :   -0.090367
  35 H :   -0.129070
  36 H :   -0.070877
Sum of atomic charges:   -0.0000000

LOEWDIN ATOMIC CHARGES
----------------------
   0 C :    0.019381
   1 C :   -0.020336
   2 C :    0.062369
   3 H :    0.035179
   4 H :    0.043006
   5 C :    0.049562
   6 C :   -0.253893
   7 C :    0.191075
   8 N :    0.204416
   9 H :   -0.108004
  10 H :    0.003956
  11 H :   -0.075209
  12 H :   -0.145369
  13 O :   -0.109932
  14 F :   -0.030323
  15 C :   -0.019848
  16 C :   -0.033713
  17 C :   -0.029271
  18 H :    0.032571
  19 H :    0.011774
  20 H :    0.029111
  21 H :    0.025823
  22 C :   -0.031054
  23 H :    0.016858
  24 H :    0.020144
  25 C :   -0.038139
  26 H :   -0.014777
  27 H :    0.034147
  28 C :   -0.028179
  29 H :    0.015911
  30 H :    0.024206
  31 H :    0.010715
  32 H :    0.023867
  33 H :    0.020748
  34 H :    0.023196
  35 H :    0.013425
  36 H :    0.026605

  Mayer bond orders larger than 0.100000
B(  0-C ,  6-C ) :   1.2044 B(  0-C ,  8-N ) :   0.1057 B(  0-C , 15-C ) :   1.0583
B(  0-C , 35-H ) :   0.4055 B(  0-C , 36-H ) :   0.5772 B(  1-C ,  2-C ) :   1.1455
B(  1-C ,  4-H ) :   0.1814 B(  1-C , 17-C ) :   1.1919 B(  1-C , 19-H ) :   0.1127
B(  1-C , 20-H ) :   0.7153 B(  1-C , 21-H ) :   0.5826 B(  1-C , 28-C ) :   0.1082
B(  2-C ,  3-H ) :   0.8322 B(  2-C ,  4-H ) :   0.6382 B(  2-C ,  5-C ) :   1.1863
B(  2-C , 17-C ) :   0.1297 B(  2-C , 20-H ) :   0.1659 B(  2-C , 21-H ) :   0.1095
B(  3-H ,  5-C ) :   0.1708 B(  4-H ,  5-C ) :   0.2684 B(  5-C , 13-O ) :   1.6911
B(  5-C , 14-F ) :   0.6497 B(  6-C ,  7-C ) :   1.9768 B(  6-C ,  8-N ) :   0.9201
B(  6-C , 10-H ) :   0.1641 B(  6-C , 12-H ) :   0.3733 B(  6-C , 15-C ) :   0.1696
B(  6-C , 35-H ) :   0.4294 B(  6-C , 36-H ) :   0.2713 B(  7-C ,  8-N ) :   0.4167
B(  7-C , 11-H ) :   0.5429 B(  7-C , 12-H ) :  -0.3940 B(  8-N ,  9-H ) :   1.0114
B(  8-N , 10-H ) :   0.8914 B(  8-N , 11-H ) :   0.2733 B(  8-N , 12-H ) :  -0.2390
B(  9-H , 10-H ) :  -0.2525 B(  9-H , 13-O ) :   0.1308 B( 12-H , 14-F ) :   0.2661
B( 13-O , 14-F ) :   0.1248 B( 15-C , 22-C ) :   1.1149 B( 15-C , 23-H ) :   0.8357
B( 15-C , 24-H ) :   0.8770 B( 15-C , 25-C ) :   0.1165 B( 15-C , 26-H ) :   0.1964
B( 15-C , 27-H ) :   0.1111 B( 15-C , 35-H ) :   0.2295 B( 15-C , 36-H ) :   0.1844
B( 16-C , 17-C ) :   1.2572 B( 16-C , 18-H ) :   0.1898 B( 16-C , 19-H ) :   0.1536
B( 16-C , 25-C ) :   0.1830 B( 16-C , 28-C ) :   1.0455 B( 16-C , 31-H ) :   0.8094
B( 16-C , 32-H ) :   1.0558 B( 16-C , 33-H ) :   0.1683 B( 16-C , 34-H ) :   0.3245
B( 17-C , 18-H ) :   0.8304 B( 17-C , 19-H ) :   0.8639 B( 17-C , 20-H ) :   0.2148
B( 17-C , 21-H ) :   0.2984 B( 17-C , 31-H ) :   0.1179 B( 17-C , 32-H ) :   0.1189
B( 20-H , 21-H ) :  -0.1542 B( 22-C , 23-H ) :   0.1464 B( 22-C , 24-H ) :   0.2554
B( 22-C , 25-C ) :   1.1768 B( 22-C , 26-H ) :   0.8156 B( 22-C , 27-H ) :   0.6674
B( 22-C , 29-H ) :   0.1431 B( 22-C , 30-H ) :   0.2491 B( 23-H , 30-H ) :  -0.1085
B( 25-C , 26-H ) :   0.1186 B( 25-C , 27-H ) :   0.1152 B( 25-C , 28-C ) :   1.1183
B( 25-C , 29-H ) :   0.7968 B( 25-C , 30-H ) :   0.8863 B( 25-C , 33-H ) :   0.2576
B( 25-C , 34-H ) :   0.1736 B( 26-H , 27-H ) :   0.1901 B( 26-H , 31-H ) :   0.2090
B( 26-H , 32-H ) :  -0.1425 B( 28-C , 29-H ) :   0.1093 B( 28-C , 33-H ) :   0.5854
B( 28-C , 34-H ) :   0.5478 B( 33-H , 34-H ) :  -0.1423

FINAL SINGLE POINT ENERGY      -699.473290857415

DIPOLE MOMENT
-------------
                                X             Y             Z
Electronic contribution:     -1.24982       4.75567      15.93613
Nuclear contribution   :      0.05905      -3.94566     -16.70013
                        -----------------------------------------
Total Dipole Moment    :     -1.19077       0.81001      -0.76400
                        -----------------------------------------
Magnitude (a.u.)       :      1.63026
Magnitude (Debye)      :      4.14378

Rotational constants in cm-1:     0.021602     0.017295     0.011353
Rotational constants in MHz :   647.614981   518.478934   340.359556

                             ****ORCA TERMINATED NORMALLY****
TOTAL RUN TIME: 0 days 0 hours 6 minutes 26 seconds 469 msec
