                         Program Version 5.0.0 -  RELEASE  -
|  1> !LC-PBE RIJCOSX def2-TZVP def2/J TightSCF
|  2> *xyz -1 1
|  3> C          0.96805        1.63064       -3.71575
|  4> C         -0.50835        1.72268       -4.12430
|  5> S         -1.32861        0.14674       -4.43578
|  6> H         -0.59151        2.29496       -5.04722
|  7> H         -1.11411        2.23561       -3.37436
|  8> O         -2.57135        0.47573       -5.06834
|  9> O         -1.51496       -0.40051       -3.06342
| 10> O         -0.37793       -0.62756       -5.20114
| 11> H          1.51840        1.12197       -4.47946
| 12> H          1.05062        1.08971       -2.79625
| 13> H          1.36450        2.61606       -3.58668
| 14> *
| 15> %MaxCore 64000
| 16>
| 17> %pal nprocs 4
| 18> end
| 19>
| 20> %scf
| 21>   MaxIter 150
| 22> end
| 23>
| 24>
| 25>                          ****END OF INPUT****

CARTESIAN COORDINATES (ANGSTROEM)
---------------------------------
  C      0.968050    1.630640   -3.715750
  C     -0.508350    1.722680   -4.124300
  S     -1.328610    0.146740   -4.435780
  H     -0.591510    2.294960   -5.047220
  H     -1.114110    2.235610   -3.374360
  O     -2.571350    0.475730   -5.068340
  O     -1.514960   -0.400510   -3.063420
  O     -0.377930   -0.627560   -5.201140
  H      1.518400    1.121970   -4.479460
  H      1.050620    1.089710   -2.796250
  H      1.364500    2.616060   -3.586680

 Total Charge           Charge          ....   -1
 Multiplicity           Mult            ....    1
 Number of Electrons    NEL             ....   58
 Basis Dimension        Dim             ....  222

ORBITAL ENERGIES
----------------

  NO   OCC          E(Eh)            E(eV)
   0   2.0000     -88.265995     -2401.8398
   1   2.0000     -18.756707      -510.3959
   2   2.0000     -18.752920      -510.2929
   3   2.0000     -18.735686      -509.8239
   4   2.0000      -9.973623      -271.3961
   5   2.0000      -9.966505      -271.2024
   6   2.0000      -7.876590      -214.3329
   7   2.0000      -5.893654      -160.3745
   8   2.0000      -5.891934      -160.3277
   9   2.0000      -5.891600      -160.3186
  10   2.0000      -1.097871       -29.8746
  11   2.0000      -0.957537       -26.0559
  12   2.0000      -0.926684       -25.2164
  13   2.0000      -0.805158       -21.9095
  14   2.0000      -0.668389       -18.1878
  15   2.0000      -0.529025       -14.3955
  16   2.0000      -0.462852       -12.5948
  17   2.0000      -0.459696       -12.5090
  18   2.0000      -0.418083       -11.3766
  19   2.0000      -0.405609       -11.0372
  20   2.0000      -0.393995       -10.7211
  21   2.0000      -0.360704        -9.8152
  22   2.0000      -0.342291        -9.3142
  23   2.0000      -0.291892        -7.9428
  24   2.0000      -0.290197        -7.8967
  25   2.0000      -0.253350        -6.8940
  26   2.0000      -0.238151        -6.4804
  27   2.0000      -0.224984        -6.1221
  28   2.0000      -0.194347        -5.2884
  29   0.0000       0.256954         6.9921
  30   0.0000       0.300909         8.1882
  31   0.0000       0.317667         8.6441
  32   0.0000       0.322019         8.7626
  33   0.0000       0.350937         9.5495

MULLIKEN ATOMIC CHARGES
-----------------------
   0 C :   -0.427068
   1 C :   -0.310034
   2 S :    0.728660
   3 H :    0.115632
   4 H :    0.126039
   5 O :   -0.512937
   6 O :   -0.583821
   7 O :   -0.533770
   8 H :    0.150855
   9 H :    0.144833
  10 H :    0.101610
Sum of atomic charges:   -1.0000000

LOEWDIN ATOMIC CHARGES
----------------------
   0 C :   -0.362109
   1 C :   -0.442905
   2 S :    0.382351
   3 H :    0.123045
   4 H :    0.126797
   5 O :   -0.362524
   6 O :   -0.439199
   7 O :   -0.376459
   8 H :    0.122236
   9 H :    0.122203
  10 H :    0.106563

  Mayer bond orders larger than 0.100000
B(  0-C ,  1-C ) :   0.9440 B(  0-C ,  8-H ) :   0.9695 B(  0-C ,  9-H ) :   0.9716
B(  0-C , 10-H ) :   0.9732 B(  1-C ,  2-S ) :   0.9056 B(  1-C ,  3-H ) :   0.9595
B(  1-C ,  4-H ) :   0.9653 B(  2-S ,  5-O ) :   1.8606 B(  2-S ,  6-O ) :   1.7550
B(  2-S ,  7-O ) :   1.7939

FINAL SINGLE POINT ENERGY      -702.101501833609

DIPOLE MOMENT
-------------
                                X             Y             Z
Electronic contribution:     -5.57724      -5.25668      -1.93772
Nuclear contribution   :      6.64523       6.80157       2.07300
                        -----------------------------------------
Total Dipole Moment    :      1.06799       1.54489       0.13528
                        -----------------------------------------
Magnitude (a.u.)       :      1.88297
Magnitude (Debye)      :      4.78614

Rotational constants in cm-1:     0.163070     0.082807     0.081541
Rotational constants in MHz :  4888.719902  2482.497026  2444.541148

                             ****ORCA TERMINATED NORMALLY****
TOTAL RUN TIME: 0 days 0 hours 0 minutes 30 seconds 237 msec
