                         Program Version 5.0.0 -  RELEASE  -
|  1> !LC-PBE RIJCOSX def2-TZVP def2/J TightSCF
|  2> *xyz 1 1
|  3> C          1.36401        0.46874       -2.81376
|  4> N          0.42884        0.32140       -1.65531
|  5> C          0.96805        1.63064       -3.71575
|  6> H          0.74858       -0.40054       -1.00134
|  7> H         -0.46105        0.02333       -2.07773
|  8> H          0.31026        1.20137       -1.13495
|  9> H          1.29485       -0.46874       -3.36468
| 10> H          2.37622        0.59740       -2.43149
| 11> H          1.65923        1.70213       -4.52942
| 12> H          0.98421        2.54058       -3.15304
| 13> H         -0.01744        1.46536       -4.09838
| 14> *
| 15> %MaxCore 64000
| 16>
| 17> %pal nprocs 4
| 18> end
| 19>
| 20> %scf
| 21>   MaxIter 150
| 22> end
| 23>
| 24>
| 25>                          ****END OF INPUT****

CARTESIAN COORDINATES (ANGSTROEM)
---------------------------------
  C      1.364010    0.468740   -2.813760
  N      0.428840    0.321400   -1.655310
  C      0.968050    1.630640   -3.715750
  H      0.748580   -0.400540   -1.001340
  H     -0.461050    0.023330   -2.077730
  H      0.310260    1.201370   -1.134950
  H      1.294850   -0.468740   -3.364680
  H      2.376220    0.597400   -2.431490
  H      1.659230    1.702130   -4.529420
  H      0.984210    2.540580   -3.153040
  H     -0.017440    1.465360   -4.098380

 Total Charge           Charge          ....    1
 Multiplicity           Mult            ....    1
 Number of Electrons    NEL             ....   26
 Basis Dimension        Dim             ....  141

ORBITAL ENERGIES
----------------

  NO   OCC          E(Eh)            E(eV)
   0   2.0000     -14.550035      -395.9266
   1   2.0000     -10.370745      -282.2023
   2   2.0000     -10.287929      -279.9488
   3   2.0000      -1.390016       -37.8242
   4   2.0000      -1.140039       -31.0220
   5   2.0000      -1.005565       -27.3628
   6   2.0000      -0.953222       -25.9385
   7   2.0000      -0.935633       -25.4599
   8   2.0000      -0.836243       -22.7553
   9   2.0000      -0.786180       -21.3930
  10   2.0000      -0.718960       -19.5639
  11   2.0000      -0.700410       -19.0591
  12   2.0000      -0.682784       -18.5795
  13   0.0000      -0.105279        -2.8648
  14   0.0000      -0.043989        -1.1970
  15   0.0000      -0.039809        -1.0833
  16   0.0000      -0.020473        -0.5571
  17   0.0000       0.017166         0.4671

MULLIKEN ATOMIC CHARGES
-----------------------
   0 C :   -0.296626
   1 N :   -0.309933
   2 C :   -0.449372
   3 H :    0.351450
   4 H :    0.347570
   5 H :    0.345439
   6 H :    0.221352
   7 H :    0.220413
   8 H :    0.211428
   9 H :    0.180848
  10 H :    0.177432
Sum of atomic charges:    1.0000000

LOEWDIN ATOMIC CHARGES
----------------------
   0 C :   -0.296270
   1 N :    0.159346
   2 C :   -0.299355
   3 H :    0.227229
   4 H :    0.233438
   5 H :    0.227895
   6 H :    0.160064
   7 H :    0.159062
   8 H :    0.154640
   9 H :    0.137196
  10 H :    0.136756

  Mayer bond orders larger than 0.100000
B(  0-C ,  1-N ) :   0.8727 B(  0-C ,  2-C ) :   0.9854 B(  0-C ,  6-H ) :   0.9492
B(  0-C ,  7-H ) :   0.9473 B(  1-N ,  3-H ) :   0.8687 B(  1-N ,  4-H ) :   0.8706
B(  1-N ,  5-H ) :   0.8661 B(  2-C ,  8-H ) :   0.9541 B(  2-C ,  9-H ) :   0.9541
B(  2-C , 10-H ) :   0.9513

FINAL SINGLE POINT ENERGY      -135.129834319537

DIPOLE MOMENT
-------------
                                X             Y             Z
Electronic contribution:     -0.35553      -0.96207       1.59589
Nuclear contribution   :     -0.20470       0.31427      -0.31587
                        -----------------------------------------
Total Dipole Moment    :     -0.56023      -0.64780       1.28003
                        -----------------------------------------
Magnitude (a.u.)       :      1.54012
Magnitude (Debye)      :      3.91468

Rotational constants in cm-1:     1.011480     0.279280     0.248378
Rotational constants in MHz : 30323.408050  8372.602834  7446.185305

                             ****ORCA TERMINATED NORMALLY****
TOTAL RUN TIME: 0 days 0 hours 0 minutes 13 seconds 656 msec
