                         Program Version 5.0.0 -  RELEASE  -
|  1> !LC-PBE RIJCOSX def2-TZVP def2/J TightSCF
|  2> *xyz 0 1
|  3> C          0.96805        1.63064       -3.71575
|  4> C         -0.50835        1.72268       -4.12430
|  5> S         -1.32861        0.14674       -4.43578
|  6> H         -0.59151        2.29496       -5.04722
|  7> H         -1.11411        2.23561       -3.37436
|  8> F         -2.57135        0.47573       -5.06834
|  9> O         -1.51496       -0.40051       -3.06342
| 10> O         -0.37793       -0.62756       -5.20114
| 11> H          1.51840        1.12197       -4.47946
| 12> H          1.05062        1.08971       -2.79625
| 13> H          1.36450        2.61606       -3.58668
| 14> *
| 15> %MaxCore 64000
| 16>
| 17> %pal nprocs 4
| 18> end
| 19>
| 20> %scf
| 21>   MaxIter 150
| 22> end
| 23>
| 24>
| 25>                          ****END OF INPUT****

CARTESIAN COORDINATES (ANGSTROEM)
---------------------------------
  C      0.968050    1.630640   -3.715750
  C     -0.508350    1.722680   -4.124300
  S     -1.328610    0.146740   -4.435780
  H     -0.591510    2.294960   -5.047220
  H     -1.114110    2.235610   -3.374360
  F     -2.571350    0.475730   -5.068340
  O     -1.514960   -0.400510   -3.063420
  O     -0.377930   -0.627560   -5.201140
  H      1.518400    1.121970   -4.479460
  H      1.050620    1.089710   -2.796250
  H      1.364500    2.616060   -3.586680

 Total Charge           Charge          ....    0
 Multiplicity           Mult            ....    1
 Number of Electrons    NEL             ....   58
 Basis Dimension        Dim             ....  222

ORBITAL ENERGIES
----------------

  NO   OCC          E(Eh)            E(eV)
   0   2.0000     -88.535061     -2409.1615
   1   2.0000     -24.622874      -670.0225
   2   2.0000     -18.993302      -516.8340
   3   2.0000     -18.976578      -516.3789
   4   2.0000     -10.178752      -276.9779
   5   2.0000     -10.130955      -275.6773
   6   2.0000      -8.146245      -221.6706
   7   2.0000      -6.166492      -167.7988
   8   2.0000      -6.159720      -167.6145
   9   2.0000      -6.159047      -167.5962
  10   2.0000      -1.557001       -42.3682
  11   2.0000      -1.275717       -34.7140
  12   2.0000      -1.166706       -31.7477
  13   2.0000      -0.997436       -27.1416
  14   2.0000      -0.903605       -24.5884
  15   2.0000      -0.840870       -22.8812
  16   2.0000      -0.752462       -20.4755
  17   2.0000      -0.749903       -20.4059
  18   2.0000      -0.707493       -19.2519
  19   2.0000      -0.639759       -17.4087
  20   2.0000      -0.630489       -17.1565
  21   2.0000      -0.583924       -15.8894
  22   2.0000      -0.570533       -15.5250
  23   2.0000      -0.544192       -14.8082
  24   2.0000      -0.526324       -14.3220
  25   2.0000      -0.519594       -14.1389
  26   2.0000      -0.471076       -12.8186
  27   2.0000      -0.451769       -12.2933
  28   2.0000      -0.441324       -12.0090
  29   0.0000       0.108872         2.9626
  30   0.0000       0.126489         3.4420
  31   0.0000       0.151814         4.1311
  32   0.0000       0.156324         4.2538
  33   0.0000       0.166591         4.5332

MULLIKEN ATOMIC CHARGES
-----------------------
   0 C :   -0.445815
   1 C :   -0.314635
   2 S :    0.766786
   3 H :    0.169413
   4 H :    0.186020
   5 F :   -0.059898
   6 O :   -0.434144
   7 O :   -0.386594
   8 H :    0.178707
   9 H :    0.178764
  10 H :    0.161396
Sum of atomic charges:    0.0000000

LOEWDIN ATOMIC CHARGES
----------------------
   0 C :   -0.322729
   1 C :   -0.411353
   2 S :    0.503453
   3 H :    0.140967
   4 H :    0.146834
   5 F :    0.124599
   6 O :   -0.320250
   7 O :   -0.261970
   8 H :    0.133934
   9 H :    0.135050
  10 H :    0.131465

  Mayer bond orders larger than 0.100000
B(  0-C ,  1-C ) :   0.9595 B(  0-C ,  8-H ) :   0.9604 B(  0-C ,  9-H ) :   0.9616
B(  0-C , 10-H ) :   0.9606 B(  1-C ,  2-S ) :   0.9357 B(  1-C ,  3-H ) :   0.9364
B(  1-C ,  4-H ) :   0.9368 B(  2-S ,  5-F ) :   1.2004 B(  2-S ,  6-O ) :   1.8924
B(  2-S ,  7-O ) :   1.9376

FINAL SINGLE POINT ENERGY      -726.584960930789

DIPOLE MOMENT
-------------
                                X             Y             Z
Electronic contribution:     -8.35568      -5.08761      -3.26323
Nuclear contribution   :      8.31000       6.74109       2.87442
                        -----------------------------------------
Total Dipole Moment    :     -0.04568       1.65348      -0.38881
                        -----------------------------------------
Magnitude (a.u.)       :      1.69919
Magnitude (Debye)      :      4.31901

Rotational constants in cm-1:     0.158705     0.080192     0.078179
Rotational constants in MHz :  4757.865601  2404.095079  2343.752507

                             ****ORCA TERMINATED NORMALLY****
TOTAL RUN TIME: 0 days 0 hours 0 minutes 27 seconds 991 msec
