                         Program Version 5.0.0 -  RELEASE  -
|  1> !LC-PBE RIJCOSX def2-TZVP def2/J TightSCF
|  2> *xyz 0 1
|  3> C          1.36401        0.46874       -2.81376
|  4> C          0.42884        0.32140       -1.65531
|  5> C          0.96805        1.63064       -3.71575
|  6> H          0.74858       -0.40054       -1.00134
|  7> H         -0.46105        0.02333       -2.07773
|  8> H          0.31026        1.20137       -1.13495
|  9> H          1.29485       -0.46874       -3.36468
| 10> H          2.37622        0.59740       -2.43149
| 11> H          1.65923        1.70213       -4.52942
| 12> H          0.98421        2.54058       -3.15304
| 13> H         -0.01744        1.46536       -4.09838
| 14> *
| 15> %MaxCore 64000
| 16>
| 17> %pal nprocs 4
| 18> end
| 19>
| 20> %scf
| 21>   MaxIter 150
| 22> end
| 23>
| 24>
| 25>                          ****END OF INPUT****

CARTESIAN COORDINATES (ANGSTROEM)
---------------------------------
  C      1.364010    0.468740   -2.813760
  C      0.428840    0.321400   -1.655310
  C      0.968050    1.630640   -3.715750
  H      0.748580   -0.400540   -1.001340
  H     -0.461050    0.023330   -2.077730
  H      0.310260    1.201370   -1.134950
  H      1.294850   -0.468740   -3.364680
  H      2.376220    0.597400   -2.431490
  H      1.659230    1.702130   -4.529420
  H      0.984210    2.540580   -3.153040
  H     -0.017440    1.465360   -4.098380

 Total Charge           Charge          ....    0
 Multiplicity           Mult            ....    1
 Number of Electrons    NEL             ....   26
 Basis Dimension        Dim             ....  141

ORBITAL ENERGIES
----------------

  NO   OCC          E(Eh)            E(eV)
   0   2.0000     -10.100916      -274.8599
   1   2.0000     -10.089913      -274.5605
   2   2.0000     -10.072118      -274.0763
   3   2.0000      -0.971696       -26.4412
   4   2.0000      -0.859584       -23.3905
   5   2.0000      -0.743632       -20.2352
   6   2.0000      -0.619255       -16.8508
   7   2.0000      -0.589731       -16.0474
   8   2.0000      -0.540606       -14.7107
   9   2.0000      -0.526120       -14.3164
  10   2.0000      -0.466363       -12.6904
  11   2.0000      -0.460721       -12.5369
  12   2.0000      -0.455358       -12.3909
  13   0.0000       0.123985         3.3738
  14   0.0000       0.169182         4.6037
  15   0.0000       0.175588         4.7780
  16   0.0000       0.179852         4.8940
  17   0.0000       0.198128         5.3913

MULLIKEN ATOMIC CHARGES
-----------------------
   0 C :   -0.233311
   1 C :   -0.416125
   2 C :   -0.424475
   3 H :    0.142500
   4 H :    0.136741
   5 H :    0.134509
   6 H :    0.120926
   7 H :    0.120428
   8 H :    0.143503
   9 H :    0.138693
  10 H :    0.136612
Sum of atomic charges:   -0.0000000

LOEWDIN ATOMIC CHARGES
----------------------
   0 C :   -0.339427
   1 C :   -0.323091
   2 C :   -0.327873
   3 H :    0.113531
   4 H :    0.119976
   5 H :    0.113688
   6 H :    0.140196
   7 H :    0.135999
   8 H :    0.122019
   9 H :    0.122362
  10 H :    0.122619

  Mayer bond orders larger than 0.100000
B(  0-C ,  1-C ) :   0.9550 B(  0-C ,  2-C ) :   0.9633 B(  0-C ,  6-H ) :   0.9763
B(  0-C ,  7-H ) :   0.9771 B(  1-C ,  3-H ) :   0.9830 B(  1-C ,  4-H ) :   0.9759
B(  1-C ,  5-H ) :   0.9769 B(  2-C ,  8-H ) :   0.9806 B(  2-C ,  9-H ) :   0.9751
B(  2-C , 10-H ) :   0.9723

FINAL SINGLE POINT ENERGY      -118.736969200358

DIPOLE MOMENT
-------------
                                X             Y             Z
Electronic contribution:      0.36898      -0.18680      -0.01884
Nuclear contribution   :     -0.35842       0.15752       0.02695
                        -----------------------------------------
Total Dipole Moment    :      0.01056      -0.02928       0.00812
                        -----------------------------------------
Magnitude (a.u.)       :      0.03217
Magnitude (Debye)      :      0.08177

Rotational constants in cm-1:     1.019891     0.293671     0.260247
Rotational constants in MHz : 30575.551403  8804.039097  7802.009261

                             ****ORCA TERMINATED NORMALLY****
TOTAL RUN TIME: 0 days 0 hours 0 minutes 14 seconds 159 msec
