                         Program Version 5.0.0 -  RELEASE  -
|  1> !LC-PBE RIJCOSX def2-TZVP def2/J TightSCF
|  2> *xyz 0 1
|  3> C          0.96805        1.63064       -3.71575
|  4> C         -0.50835        1.72268       -4.12430
|  5> S         -1.32861        0.14674       -4.43578
|  6> H         -0.59151        2.29496       -5.04722
|  7> H         -1.11411        2.23561       -3.37436
|  8> O         -2.57135        0.47573       -5.06834
|  9> F         -1.51496       -0.40051       -3.06342
| 10> O         -0.37793       -0.62756       -5.20114
| 11> H          1.51840        1.12197       -4.47946
| 12> H          1.05062        1.08971       -2.79625
| 13> H          1.36450        2.61606       -3.58668
| 14> *
| 15> %MaxCore 64000
| 16>
| 17> %pal nprocs 4
| 18> end
| 19>
| 20> %scf
| 21>   MaxIter 150
| 22> end
| 23>
| 24>
| 25>                          ****END OF INPUT****

CARTESIAN COORDINATES (ANGSTROEM)
---------------------------------
  C      0.968050    1.630640   -3.715750
  C     -0.508350    1.722680   -4.124300
  S     -1.328610    0.146740   -4.435780
  H     -0.591510    2.294960   -5.047220
  H     -1.114110    2.235610   -3.374360
  O     -2.571350    0.475730   -5.068340
  F     -1.514960   -0.400510   -3.063420
  O     -0.377930   -0.627560   -5.201140
  H      1.518400    1.121970   -4.479460
  H      1.050620    1.089710   -2.796250
  H      1.364500    2.616060   -3.586680

 Total Charge           Charge          ....    0
 Multiplicity           Mult            ....    1
 Number of Electrons    NEL             ....   58
 Basis Dimension        Dim             ....  222

ORBITAL ENERGIES
----------------

  NO   OCC          E(Eh)            E(eV)
   0   2.0000     -88.532092     -2409.0807
   1   2.0000     -24.592571      -669.1979
   2   2.0000     -18.996901      -516.9320
   3   2.0000     -18.993141      -516.8296
   4   2.0000     -10.177892      -276.9545
   5   2.0000     -10.132990      -275.7327
   6   2.0000      -8.143261      -221.5894
   7   2.0000      -6.163792      -167.7253
   8   2.0000      -6.156847      -167.5363
   9   2.0000      -6.155894      -167.5104
  10   2.0000      -1.510109       -41.0922
  11   2.0000      -1.290406       -35.1137
  12   2.0000      -1.192825       -32.4584
  13   2.0000      -0.999704       -27.2033
  14   2.0000      -0.884664       -24.0729
  15   2.0000      -0.832332       -22.6489
  16   2.0000      -0.734409       -19.9843
  17   2.0000      -0.717871       -19.5343
  18   2.0000      -0.699308       -19.0291
  19   2.0000      -0.642027       -17.4704
  20   2.0000      -0.623786       -16.9741
  21   2.0000      -0.602499       -16.3948
  22   2.0000      -0.575817       -15.6688
  23   2.0000      -0.549134       -14.9427
  24   2.0000      -0.539237       -14.6734
  25   2.0000      -0.516805       -14.0630
  26   2.0000      -0.482868       -13.1395
  27   2.0000      -0.464884       -12.6501
  28   2.0000      -0.461946       -12.5702
  29   0.0000       0.102930         2.8009
  30   0.0000       0.138598         3.7714
  31   0.0000       0.147192         4.0053
  32   0.0000       0.157757         4.2928
  33   0.0000       0.172513         4.6943

MULLIKEN ATOMIC CHARGES
-----------------------
   0 C :   -0.444442
   1 C :   -0.326076
   2 S :    0.769670
   3 H :    0.195047
   4 H :    0.181774
   5 O :   -0.376565
   6 F :   -0.107949
   7 O :   -0.396455
   8 H :    0.185349
   9 H :    0.157651
  10 H :    0.161995
Sum of atomic charges:   -0.0000000

LOEWDIN ATOMIC CHARGES
----------------------
   0 C :   -0.334503
   1 C :   -0.406693
   2 S :    0.511046
   3 H :    0.155502
   4 H :    0.144574
   5 O :   -0.251926
   6 F :    0.054256
   7 O :   -0.264955
   8 H :    0.134081
   9 H :    0.127635
  10 H :    0.130982

  Mayer bond orders larger than 0.100000
B(  0-C ,  1-C ) :   0.9488 B(  0-C ,  8-H ) :   0.9587 B(  0-C ,  9-H ) :   0.9660
B(  0-C , 10-H ) :   0.9626 B(  1-C ,  2-S ) :   0.9276 B(  1-C ,  3-H ) :   0.9372
B(  1-C ,  4-H ) :   0.9432 B(  2-S ,  5-O ) :   1.9836 B(  2-S ,  6-F ) :   1.1329
B(  2-S ,  7-O ) :   1.9355

FINAL SINGLE POINT ENERGY      -726.610073629899

DIPOLE MOMENT
-------------
                                X             Y             Z
Electronic contribution:     -6.53956      -6.59979       0.21443
Nuclear contribution   :      7.20921       7.65416       0.78523
                        -----------------------------------------
Total Dipole Moment    :      0.66966       1.05437       0.99967
                        -----------------------------------------
Magnitude (a.u.)       :      1.59983
Magnitude (Debye)      :      4.06645

Rotational constants in cm-1:     0.153780     0.081282     0.079816
Rotational constants in MHz :  4610.199589  2436.778679  2392.820729

                             ****ORCA TERMINATED NORMALLY****
TOTAL RUN TIME: 0 days 0 hours 0 minutes 27 seconds 948 msec
