                         Program Version 5.0.0 -  RELEASE  -
|  1> !LC-PBE RIJCOSX def2-TZVP def2/J TightSCF
|  2> *xyz 0 1
|  3> C          0.96805        1.63064       -3.71575
|  4> C         -0.50835        1.72268       -4.12430
|  5> S         -1.32861        0.14674       -4.43578
|  6> H         -0.59151        2.29496       -5.04722
|  7> H         -1.11411        2.23561       -3.37436
|  8> O         -2.57135        0.47573       -5.06834
|  9> O         -1.51496       -0.40051       -3.06342
| 10> F         -0.37793       -0.62756       -5.20114
| 11> H          1.51840        1.12197       -4.47946
| 12> H          1.05062        1.08971       -2.79625
| 13> H          1.36450        2.61606       -3.58668
| 14> *
| 15> %MaxCore 64000
| 16>
| 17> %pal nprocs 4
| 18> end
| 19>
| 20> %scf
| 21>   MaxIter 150
| 22> end
| 23>
| 24>
| 25>                          ****END OF INPUT****

CARTESIAN COORDINATES (ANGSTROEM)
---------------------------------
  C      0.968050    1.630640   -3.715750
  C     -0.508350    1.722680   -4.124300
  S     -1.328610    0.146740   -4.435780
  H     -0.591510    2.294960   -5.047220
  H     -1.114110    2.235610   -3.374360
  O     -2.571350    0.475730   -5.068340
  O     -1.514960   -0.400510   -3.063420
  F     -0.377930   -0.627560   -5.201140
  H      1.518400    1.121970   -4.479460
  H      1.050620    1.089710   -2.796250
  H      1.364500    2.616060   -3.586680

 Total Charge           Charge          ....    0
 Multiplicity           Mult            ....    1
 Number of Electrons    NEL             ....   58
 Basis Dimension        Dim             ....  222

ORBITAL ENERGIES
----------------

  NO   OCC          E(Eh)            E(eV)
   0   2.0000     -88.534225     -2409.1387
   1   2.0000     -24.616170      -669.8400
   2   2.0000     -18.997299      -516.9428
   3   2.0000     -18.976627      -516.3803
   4   2.0000     -10.178598      -276.9737
   5   2.0000     -10.136807      -275.8366
   6   2.0000      -8.145420      -221.6482
   7   2.0000      -6.165871      -167.7819
   8   2.0000      -6.158795      -167.5893
   9   2.0000      -6.158183      -167.5727
  10   2.0000      -1.546239       -42.0753
  11   2.0000      -1.281398       -34.8686
  12   2.0000      -1.169671       -31.8284
  13   2.0000      -1.001869       -27.2622
  14   2.0000      -0.895649       -24.3718
  15   2.0000      -0.843975       -22.9657
  16   2.0000      -0.756709       -20.5911
  17   2.0000      -0.743813       -20.2402
  18   2.0000      -0.697581       -18.9821
  19   2.0000      -0.641504       -17.4562
  20   2.0000      -0.623517       -16.9668
  21   2.0000      -0.596187       -16.2231
  22   2.0000      -0.579375       -15.7656
  23   2.0000      -0.550513       -14.9802
  24   2.0000      -0.533166       -14.5082
  25   2.0000      -0.519897       -14.1471
  26   2.0000      -0.472886       -12.8679
  27   2.0000      -0.452974       -12.3260
  28   2.0000      -0.444580       -12.0976
  29   0.0000       0.098543         2.6815
  30   0.0000       0.136295         3.7088
  31   0.0000       0.150822         4.1041
  32   0.0000       0.155756         4.2383
  33   0.0000       0.167776         4.5654

MULLIKEN ATOMIC CHARGES
-----------------------
   0 C :   -0.453444
   1 C :   -0.317710
   2 S :    0.764709
   3 H :    0.180882
   4 H :    0.201809
   5 O :   -0.367617
   6 O :   -0.436773
   7 F :   -0.074656
   8 H :    0.156161
   9 H :    0.182089
  10 H :    0.164551
Sum of atomic charges:   -0.0000000

LOEWDIN ATOMIC CHARGES
----------------------
   0 C :   -0.336788
   1 C :   -0.404378
   2 S :    0.505405
   3 H :    0.144883
   4 H :    0.157742
   5 O :   -0.248046
   6 O :   -0.320576
   7 F :    0.110373
   8 H :    0.125514
   9 H :    0.133576
  10 H :    0.132295

  Mayer bond orders larger than 0.100000
B(  0-C ,  1-C ) :   0.9475 B(  0-C ,  8-H ) :   0.9658 B(  0-C ,  9-H ) :   0.9596
B(  0-C , 10-H ) :   0.9632 B(  1-C ,  2-S ) :   0.9293 B(  1-C ,  3-H ) :   0.9403
B(  1-C ,  4-H ) :   0.9367 B(  2-S ,  5-O ) :   1.9860 B(  2-S ,  6-O ) :   1.8902
B(  2-S ,  7-F ) :   1.1733

FINAL SINGLE POINT ENERGY      -726.590107533051

DIPOLE MOMENT
-------------
                                X             Y             Z
Electronic contribution:     -4.57518      -6.96530      -3.47651
Nuclear contribution   :      6.02439       7.89075       3.01280
                        -----------------------------------------
Total Dipole Moment    :      1.44921       0.92546      -0.46371
                        -----------------------------------------
Magnitude (a.u.)       :      1.78093
Magnitude (Debye)      :      4.52675

Rotational constants in cm-1:     0.153652     0.082400     0.079295
Rotational constants in MHz :  4606.361242  2470.285703  2377.214112

                             ****ORCA TERMINATED NORMALLY****
TOTAL RUN TIME: 0 days 0 hours 0 minutes 20 seconds 462 msec
