                         Program Version 5.0.0 -  RELEASE  -
|  1> !LC-PBE RIJCOSX def2-TZVP def2/J TightSCF xyzfile
|  2>
|  3> *xyzfile 0 1 D2.xyz
|  4>
|  5> %MaxCore 64000
|  6>
|  7> %pal nprocs 18
|  8> end
|  9>
| 10> %scf
| 11>   MaxIter 150
| 12> end
| 13>
| 14>
| 15>                          ****END OF INPUT****

CARTESIAN COORDINATES (ANGSTROEM)
---------------------------------
  C      1.364014    0.468742   -2.813764
  C      0.428844    0.321402   -1.655312
  C      0.968045    1.630639   -3.715749
  C     -0.508347    1.722679   -4.124300
  S     -1.328608    0.146737   -4.435781
  H     -0.591511    2.294958   -5.047219
  H     -1.114114    2.235610   -3.374362
  H      0.748578   -0.400542   -1.001345
  H     -0.461053    0.023332   -2.077731
  H      0.310258    1.201375   -1.134948
  O     -2.571347    0.475733   -5.068341
  F     -1.514963   -0.400512   -3.063420
  H      1.294847   -0.468742   -3.364684
  H      2.376216    0.597400   -2.431495
  H      1.578688    1.520652   -4.612733
  H      1.266653    2.575988   -3.250448
  O     -0.377928   -0.627558   -5.201141

 Total Charge           Charge          ....    0
 Multiplicity           Mult            ....    1
 Number of Electrons    NEL             ....   74
 Basis Dimension        Dim             ....  308

ORBITAL ENERGIES
----------------

  NO   OCC          E(Eh)            E(eV)
   0   2.0000     -88.535979     -2409.1865
   1   2.0000     -24.599565      -669.3882
   2   2.0000     -18.999981      -517.0158
   3   2.0000     -18.996622      -516.9244
   4   2.0000     -10.177200      -276.9357
   5   2.0000     -10.139150      -275.9003
   6   2.0000     -10.115384      -275.2536
   7   2.0000     -10.071955      -274.0718
   8   2.0000      -8.147394      -221.7019
   9   2.0000      -6.168084      -167.8421
  10   2.0000      -6.160817      -167.6444
  11   2.0000      -6.159923      -167.6200
  12   2.0000      -1.524250       -41.4769
  13   2.0000      -1.295254       -35.2456
  14   2.0000      -1.196482       -32.5579
  15   2.0000      -1.021665       -27.8009
  16   2.0000      -0.954587       -25.9756
  17   2.0000      -0.878482       -23.9047
  18   2.0000      -0.863456       -23.4958
  19   2.0000      -0.761692       -20.7267
  20   2.0000      -0.746766       -20.3205
  21   2.0000      -0.728062       -19.8116
  22   2.0000      -0.701321       -19.0839
  23   2.0000      -0.649569       -17.6757
  24   2.0000      -0.631067       -17.1722
  25   2.0000      -0.623568       -16.9681
  26   2.0000      -0.605575       -16.4785
  27   2.0000      -0.572955       -15.5909
  28   2.0000      -0.553421       -15.0593
  29   2.0000      -0.541949       -14.7472
  30   2.0000      -0.537646       -14.6301
  31   2.0000      -0.491926       -13.3860
  32   2.0000      -0.488988       -13.3060
  33   2.0000      -0.471763       -12.8373
  34   2.0000      -0.465176       -12.6581
  35   2.0000      -0.460912       -12.5421
  36   2.0000      -0.447411       -12.1747
  37   0.0000       0.102787         2.7970
  38   0.0000       0.126371         3.4387
  39   0.0000       0.136829         3.7233
  40   0.0000       0.142404         3.8750
  41   0.0000       0.158667         4.3175

MULLIKEN ATOMIC CHARGES
-----------------------
   0 C :   -0.371468
   1 C :   -0.439275
   2 C :   -0.266257
   3 C :   -0.390503
   4 S :    0.765416
   5 H :    0.214550
   6 H :    0.207250
   7 H :    0.154773
   8 H :    0.141044
   9 H :    0.145637
  10 O :   -0.374176
  11 F :   -0.081754
  12 H :    0.197471
  13 H :    0.145356
  14 H :    0.169820
  15 H :    0.164306
  16 O :   -0.382190
Sum of atomic charges:   -0.0000000

LOEWDIN ATOMIC CHARGES
----------------------
   0 C :   -0.324810
   1 C :   -0.336166
   2 C :   -0.300123
   3 C :   -0.374953
   4 S :    0.524269
   5 H :    0.159608
   6 H :    0.149938
   7 H :    0.115921
   8 H :    0.090493
   9 H :    0.113798
  10 O :   -0.248174
  11 F :    0.084458
  12 H :    0.149927
  13 H :    0.144184
  14 H :    0.154960
  15 H :    0.152434
  16 O :   -0.255764

  Mayer bond orders larger than 0.100000
B(  0-C ,  1-C ) :   0.9100 B(  0-C ,  2-C ) :   0.9249 B(  0-C , 12-H ) :   0.9747
B(  0-C , 13-H ) :   0.9776 B(  1-C ,  7-H ) :   0.9862 B(  1-C ,  8-H ) :   0.9685
B(  1-C ,  9-H ) :   0.9809 B(  2-C ,  3-C ) :   0.9158 B(  2-C , 14-H ) :   0.9737
B(  2-C , 15-H ) :   0.9619 B(  3-C ,  4-S ) :   0.9346 B(  3-C ,  5-H ) :   0.9407
B(  3-C ,  6-H ) :   0.9364 B(  4-S , 10-O ) :   2.0008 B(  4-S , 11-F ) :   1.0913
B(  4-S , 16-O ) :   1.9251

FINAL SINGLE POINT ENERGY      -804.941004874962

DIPOLE MOMENT
-------------
                                X             Y             Z
Electronic contribution:    -10.48380      -5.53099      -6.12840
Nuclear contribution   :     11.08796       6.45140       7.05645
                        -----------------------------------------
Total Dipole Moment    :      0.60417       0.92041       0.92805
                        -----------------------------------------
Magnitude (a.u.)       :      1.43995
Magnitude (Debye)      :      3.66005

Rotational constants in cm-1:     0.100113     0.046890     0.041843
Rotational constants in MHz :  3001.313402  1405.711946  1254.411771

                             ****ORCA TERMINATED NORMALLY****
TOTAL RUN TIME: 0 days 0 hours 0 minutes 21 seconds 644 msec
