                         Program Version 5.0.0 -  RELEASE  -
|  1> !LC-PBE RIJCOSX def2-TZVP def2/J TightSCF xyzfile
|  2>
|  3> *xyzfile 0 1 D3.xyz
|  4>
|  5> %MaxCore 64000
|  6>
|  7> %pal nprocs 18
|  8> end
|  9>
| 10> %scf
| 11>   MaxIter 150
| 12> end
| 13>
| 14>
| 15>                          ****END OF INPUT****

CARTESIAN COORDINATES (ANGSTROEM)
---------------------------------
  C      1.364014    0.468742   -2.813764
  C      0.428844    0.321402   -1.655312
  C      0.968045    1.630639   -3.715749
  C     -0.508347    1.722679   -4.124300
  S     -1.328608    0.146737   -4.435781
  H     -0.591511    2.294958   -5.047219
  H     -1.114114    2.235610   -3.374362
  H      0.748578   -0.400542   -1.001345
  H     -0.461053    0.023332   -2.077731
  H      0.310258    1.201375   -1.134948
  O     -2.571347    0.475733   -5.068341
  O     -1.514963   -0.400512   -3.063420
  H      1.294847   -0.468742   -3.364684
  H      2.376216    0.597400   -2.431495
  H      1.578688    1.520652   -4.612733
  H      1.266653    2.575988   -3.250448
  F     -0.377928   -0.627558   -5.201141

 Total Charge           Charge          ....    0
 Multiplicity           Mult            ....    1
 Number of Electrons    NEL             ....   74
 Basis Dimension        Dim             ....  308

ORBITAL ENERGIES
----------------

  NO   OCC          E(Eh)            E(eV)
   0   2.0000     -88.541705     -2409.3423
   1   2.0000     -24.621251      -669.9783
   2   2.0000     -19.002481      -517.0838
   3   2.0000     -18.984753      -516.6014
   4   2.0000     -10.178978      -276.9841
   5   2.0000     -10.141833      -275.9733
   6   2.0000     -10.112655      -275.1793
   7   2.0000     -10.043928      -273.3092
   8   2.0000      -8.152996      -221.8543
   9   2.0000      -6.173427      -167.9875
  10   2.0000      -6.166297      -167.7935
  11   2.0000      -6.165841      -167.7811
  12   2.0000      -1.551724       -42.2246
  13   2.0000      -1.289932       -35.1008
  14   2.0000      -1.185259       -32.2525
  15   2.0000      -1.019625       -27.7454
  16   2.0000      -0.948622       -25.8133
  17   2.0000      -0.886764       -24.1301
  18   2.0000      -0.848296       -23.0833
  19   2.0000      -0.776103       -21.1188
  20   2.0000      -0.751862       -20.4592
  21   2.0000      -0.742535       -20.2054
  22   2.0000      -0.697053       -18.9678
  23   2.0000      -0.653681       -17.7876
  24   2.0000      -0.645535       -17.5659
  25   2.0000      -0.617781       -16.8107
  26   2.0000      -0.602617       -16.3980
  27   2.0000      -0.570748       -15.5309
  28   2.0000      -0.553680       -15.0664
  29   2.0000      -0.534552       -14.5459
  30   2.0000      -0.532301       -14.4847
  31   2.0000      -0.505562       -13.7570
  32   2.0000      -0.478734       -13.0270
  33   2.0000      -0.468149       -12.7390
  34   2.0000      -0.461288       -12.5523
  35   2.0000      -0.451329       -12.2813
  36   2.0000      -0.401091       -10.9142
  37   0.0000       0.096977         2.6389
  38   0.0000       0.126400         3.4395
  39   0.0000       0.137330         3.7369
  40   0.0000       0.148101         4.0300
  41   0.0000       0.154429         4.2022

MULLIKEN ATOMIC CHARGES
-----------------------
   0 C :   -0.346805
   1 C :   -0.451139
   2 C :   -0.305017
   3 C :   -0.371395
   4 S :    0.773013
   5 H :    0.204182
   6 H :    0.220990
   7 H :    0.137853
   8 H :    0.206220
   9 H :    0.129499
  10 O :   -0.364415
  11 O :   -0.404652
  12 H :    0.158830
  13 H :    0.143774
  14 H :    0.164465
  15 H :    0.168664
  16 F :   -0.064067
Sum of atomic charges:   -0.0000000

LOEWDIN ATOMIC CHARGES
----------------------
   0 C :   -0.327834
   1 C :   -0.338609
   2 C :   -0.305572
   3 C :   -0.371377
   4 S :    0.526271
   5 H :    0.150269
   6 H :    0.162781
   7 H :    0.111863
   8 H :    0.088498
   9 H :    0.109384
  10 O :   -0.243168
  11 O :   -0.266586
  12 H :    0.140127
  13 H :    0.143678
  14 H :    0.148579
  15 H :    0.154844
  16 F :    0.116851

  Mayer bond orders larger than 0.100000
B(  0-C ,  1-C ) :   0.8922 B(  0-C ,  2-C ) :   0.9215 B(  0-C , 12-H ) :   0.9891
B(  0-C , 13-H ) :   0.9764 B(  1-C ,  7-H ) :   0.9850 B(  1-C ,  8-H ) :   0.9293
B(  1-C ,  9-H ) :   0.9816 B(  2-C ,  3-C ) :   0.9226 B(  2-C , 14-H ) :   0.9815
B(  2-C , 15-H ) :   0.9607 B(  3-C ,  4-S ) :   0.9404 B(  3-C ,  5-H ) :   0.9459
B(  3-C ,  6-H ) :   0.9291 B(  4-S , 10-O ) :   2.0022 B(  4-S , 11-O ) :   1.7925
B(  4-S , 16-F ) :   1.1781

FINAL SINGLE POINT ENERGY      -804.922812778646

DIPOLE MOMENT
-------------
                                X             Y             Z
Electronic contribution:     -8.61625      -5.93904      -9.94850
Nuclear contribution   :      9.83476       6.70164       9.41257
                        -----------------------------------------
Total Dipole Moment    :      1.21852       0.76260      -0.53593
                        -----------------------------------------
Magnitude (a.u.)       :      1.53413
Magnitude (Debye)      :      3.89946

Rotational constants in cm-1:     0.099832     0.045916     0.042219
Rotational constants in MHz :  2992.874960  1376.530174  1265.693813

                             ****ORCA TERMINATED NORMALLY****
TOTAL RUN TIME: 0 days 0 hours 0 minutes 23 seconds 103 msec
