                         Program Version 5.0.0 -  RELEASE  -
|  1> !LC-BLYP RIJCOSX def2-SVPD def2/J TightSCF
|  2> *xyz -1 1
|  3> C          4.93020       -7.37532       -2.64962
|  4> C          3.84189       -6.95161       -3.63283
|  5> H          3.45814       -5.95442       -3.40712
|  6> H          2.98848       -7.64361       -3.56708
|  7> S          4.31812       -6.91593       -5.36869
|  8> O          5.40615       -5.89948       -5.51297
|  9> O          3.11191       -6.44508       -6.04379
| 10> O          4.76340       -8.23942       -5.69863
| 11> H          5.27901       -8.35440       -2.90385
| 12> H          4.53000       -7.38577       -1.65734
| 13> H          5.74437       -6.68276       -2.69856
| 14> *
| 15>
| 16> %MaxCore 64000
| 17>
| 18> %pal nprocs 4
| 19> end
| 20>
| 21> %scf
| 22>   MaxIter 150
| 23> end
| 24>
| 25>
| 26>                          ****END OF INPUT****

CARTESIAN COORDINATES (ANGSTROEM)
---------------------------------
  C      4.930200   -7.375320   -2.649620
  C      3.841890   -6.951610   -3.632830
  H      3.458140   -5.954420   -3.407120
  H      2.988480   -7.643610   -3.567080
  S      4.318120   -6.915930   -5.368690
  O      5.406150   -5.899480   -5.512970
  O      3.111910   -6.445080   -6.043790
  O      4.763400   -8.239420   -5.698630
  H      5.279010   -8.354400   -2.903850
  H      4.530000   -7.385770   -1.657340
  H      5.744370   -6.682760   -2.698560

 Total Charge           Charge          ....   -1
 Multiplicity           Mult            ....    1
 Number of Electrons    NEL             ....   58
 Basis Dimension        Dim             ....  176

ORBITAL ENERGIES
----------------

  NO   OCC          E(Eh)            E(eV)
   0   2.0000     -88.311008     -2403.0647
   1   2.0000     -18.744981      -510.0769
   2   2.0000     -18.735596      -509.8215
   3   2.0000     -18.728113      -509.6179
   4   2.0000      -9.955588      -270.9053
   5   2.0000      -9.947783      -270.6929
   6   2.0000      -7.859782      -213.8755
   7   2.0000      -5.894152      -160.3880
   8   2.0000      -5.893995      -160.3837
   9   2.0000      -5.893545      -160.3715
  10   2.0000      -1.030868       -28.0513
  11   2.0000      -0.887829       -24.1590
  12   2.0000      -0.857926       -23.3454
  13   2.0000      -0.744572       -20.2608
  14   2.0000      -0.618324       -16.8254
  15   2.0000      -0.492084       -13.3903
  16   2.0000      -0.430449       -11.7131
  17   2.0000      -0.425885       -11.5889
  18   2.0000      -0.386982       -10.5303
  19   2.0000      -0.371125       -10.0988
  20   2.0000      -0.362755        -9.8711
  21   2.0000      -0.337709        -9.1895
  22   2.0000      -0.316580        -8.6146
  23   2.0000      -0.256709        -6.9854
  24   2.0000      -0.254840        -6.9346
  25   2.0000      -0.219153        -5.9635
  26   2.0000      -0.208584        -5.6759
  27   2.0000      -0.201846        -5.4925
  28   2.0000      -0.163649        -4.4531
  29   0.0000       0.188554         5.1308
  30   0.0000       0.212360         5.7786
  31   0.0000       0.216746         5.8979
  32   0.0000       0.223290         6.0760
  33   0.0000       0.243993         6.6394

MULLIKEN ATOMIC CHARGES
-----------------------
   0 C :    1.008439
   1 C :   -0.219720
   2 H :   -0.148394
   3 H :   -0.088480
   4 S :    1.103727
   5 O :   -0.767724
   6 O :   -0.724788
   7 O :   -0.706822
   8 H :   -0.135125
   9 H :   -0.181539
  10 H :   -0.139574
Sum of atomic charges:   -1.0000000

LOEWDIN ATOMIC CHARGES
----------------------
   0 C :    0.093529
   1 C :   -0.151761
   2 H :    0.010405
   3 H :    0.015495
   4 S :    0.801730
   5 O :   -0.583513
   6 O :   -0.571815
   7 O :   -0.554585
   8 H :   -0.016099
   9 H :   -0.028622
  10 H :   -0.014763

  Mayer bond orders larger than 0.100000
B(  0-C ,  1-C ) :   1.2693 B(  0-C ,  3-H ) :   0.1038 B(  0-C ,  8-H ) :   0.7550
B(  0-C ,  9-H ) :   0.6600 B(  0-C , 10-H ) :   0.7646 B(  1-C ,  2-H ) :   0.9705
B(  1-C ,  3-H ) :   0.9534 B(  1-C ,  4-S ) :   0.9216 B(  1-C ,  8-H ) :   0.2271
B(  1-C ,  9-H ) :   0.2702 B(  1-C , 10-H ) :   0.2206 B(  4-S ,  5-O ) :   1.3132
B(  4-S ,  6-O ) :   1.3856 B(  4-S ,  7-O ) :   1.3639

FINAL SINGLE POINT ENERGY      -701.945706303007

DIPOLE MOMENT
-------------
                                X             Y             Z
Electronic contribution:     -0.38898       0.79019      -7.67737
Nuclear contribution   :      0.07504      -1.14369       9.75001
                        -----------------------------------------
Total Dipole Moment    :     -0.31393      -0.35350       2.07263
                        -----------------------------------------
Magnitude (a.u.)       :      2.12587
Magnitude (Debye)      :      5.40353

Rotational constants in cm-1:     0.160553     0.082191     0.080550
Rotational constants in MHz :  4813.250478  2464.013016  2414.833054

                             ****ORCA TERMINATED NORMALLY****
TOTAL RUN TIME: 0 days 0 hours 0 minutes 27 seconds 601 msec
