                         Program Version 5.0.0 -  RELEASE  -
|  1> !LC-BLYP RIJCOSX def2-SVPD def2/J TightSCF
|  2> *xyz 1 1
|  3> C          5.55821       -1.99291       -6.21505
|  4> C          4.18188       -2.58967       -6.29891
|  5> N          3.14587       -1.76843       -6.48675
|  6> N          4.01910       -3.86431       -6.22743
|  7> H          4.76849       -4.59115       -5.99077
|  8> H          3.12241       -4.33339       -6.31462
|  9> H          3.28164       -0.77779       -6.56655
| 10> H          2.21255       -2.13419       -6.56225
| 11> C          6.41926       -2.54294       -5.07763
| 12> H          6.03683       -2.19819       -7.17685
| 13> H          5.46761       -0.90737       -6.12797
| 14> H          6.50056       -3.60553       -5.17358
| 15> H          5.96544       -2.30329       -4.13874
| 16> H          7.39438       -2.10494       -5.12457
| 17> *
| 18>
| 19> %MaxCore 64000
| 20>
| 21> %pal nprocs 4
| 22> end
| 23>
| 24> %scf
| 25>   MaxIter 150
| 26> end
| 27>
| 28>
| 29>                          ****END OF INPUT****

CARTESIAN COORDINATES (ANGSTROEM)
---------------------------------
  C      5.558210   -1.992910   -6.215050
  C      4.181880   -2.589670   -6.298910
  N      3.145870   -1.768430   -6.486750
  N      4.019100   -3.864310   -6.227430
  H      4.768490   -4.591150   -5.990770
  H      3.122410   -4.333390   -6.314620
  H      3.281640   -0.777790   -6.566550
  H      2.212550   -2.134190   -6.562250
  C      6.419260   -2.542940   -5.077630
  H      6.036830   -2.198190   -7.176850
  H      5.467610   -0.907370   -6.127970
  H      6.500560   -3.605530   -5.173580
  H      5.965440   -2.303290   -4.138740
  H      7.394380   -2.104940   -5.124570

 Total Charge           Charge          ....    1
 Multiplicity           Mult            ....    1
 Number of Electrons    NEL             ....   40
 Basis Dimension        Dim             ....  172

ORBITAL ENERGIES
----------------

  NO   OCC          E(Eh)            E(eV)
   0   2.0000     -14.441070      -392.9615
   1   2.0000     -14.429594      -392.6492
   2   2.0000     -10.412582      -283.3408
   3   2.0000     -10.283668      -279.8328
   4   2.0000     -10.240683      -278.6632
   5   2.0000      -1.298710       -35.3397
   6   2.0000      -1.199389       -32.6370
   7   2.0000      -1.073282       -29.2055
   8   2.0000      -0.969528       -26.3822
   9   2.0000      -0.921595       -25.0779
  10   2.0000      -0.881167       -23.9778
  11   2.0000      -0.850411       -23.1409
  12   2.0000      -0.799956       -21.7679
  13   2.0000      -0.765694       -20.8356
  14   2.0000      -0.726380       -19.7658
  15   2.0000      -0.708590       -19.2817
  16   2.0000      -0.650689       -17.7061
  17   2.0000      -0.639051       -17.3895
  18   2.0000      -0.621687       -16.9170
  19   2.0000      -0.592463       -16.1217
  20   0.0000      -0.129475        -3.5232
  21   0.0000      -0.099026        -2.6946
  22   0.0000      -0.063386        -1.7248
  23   0.0000      -0.053974        -1.4687
  24   0.0000      -0.029182        -0.7941

MULLIKEN ATOMIC CHARGES
-----------------------
   0 C :   -0.196222
   1 C :    0.512734
   2 N :    0.247577
   3 N :    0.311267
   4 H :    0.026128
   5 H :   -0.198578
   6 H :   -0.022822
   7 H :   -0.175440
   8 C :    1.017293
   9 H :   -0.061802
  10 H :   -0.028921
  11 H :   -0.231409
  12 H :   -0.126075
  13 H :   -0.073729
Sum of atomic charges:    1.0000000

LOEWDIN ATOMIC CHARGES
----------------------
   0 C :   -0.000531
   1 C :   -0.064855
   2 N :    0.295891
   3 N :    0.273526
   4 H :    0.098415
   5 H :    0.052705
   6 H :    0.040911
   7 H :    0.040989
   8 C :    0.152924
   9 H :    0.061719
  10 H :    0.044198
  11 H :   -0.018529
  12 H :    0.008332
  13 H :    0.014306

  Mayer bond orders larger than 0.100000
B(  0-C ,  1-C ) :   1.1112 B(  0-C ,  2-N ) :   0.1130 B(  0-C ,  8-C ) :   1.2951
B(  0-C ,  9-H ) :   0.8594 B(  0-C , 10-H ) :   0.8584 B(  0-C , 11-H ) :   0.2152
B(  0-C , 12-H ) :   0.2418 B(  0-C , 13-H ) :   0.2104 B(  1-C ,  2-N ) :   1.1083
B(  1-C ,  3-N ) :   1.2104 B(  1-C ,  5-H ) :  -0.2388 B(  1-C ,  7-H ) :  -0.2204
B(  1-C ,  9-H ) :   0.1360 B(  1-C , 10-H ) :   0.1584 B(  2-N ,  3-N ) :   0.1457
B(  2-N ,  6-H ) :   1.1261 B(  2-N ,  7-H ) :   1.3224 B(  3-N ,  4-H ) :   1.1380
B(  3-N ,  5-H ) :   1.2956 B(  4-H ,  5-H ) :  -0.1902 B(  6-H ,  7-H ) :  -0.1947
B(  8-C , 10-H ) :   0.1313 B(  8-C , 11-H ) :   0.7491 B(  8-C , 12-H ) :   0.6766
B(  8-C , 13-H ) :   0.7567

FINAL SINGLE POINT ENERGY      -228.263069990626

DIPOLE MOMENT
-------------
                                X             Y             Z
Electronic contribution:     -3.78695      -0.48530      -1.57336
Nuclear contribution   :      2.76041       0.12669       1.26265
                        -----------------------------------------
Total Dipole Moment    :     -1.02654      -0.35861      -0.31071
                        -----------------------------------------
Magnitude (a.u.)       :      1.13090
Magnitude (Debye)      :      2.87452

Rotational constants in cm-1:     0.280918     0.124524     0.094121
Rotational constants in MHz :  8421.697738  3733.133254  2821.684112

                             ****ORCA TERMINATED NORMALLY****
TOTAL RUN TIME: 0 days 0 hours 0 minutes 22 seconds 908 msec
