                         Program Version 5.0.0 -  RELEASE  -
|  1> !LC-BLYP RIJCOSX def2-SVPD def2/J TightSCF
|  2> *xyz 0 1
|  3> C          4.93020       -7.37532       -2.64962
|  4> C          3.84189       -6.95161       -3.63283
|  5> H          3.45814       -5.95442       -3.40712
|  6> H          2.98848       -7.64361       -3.56708
|  7> S          4.31812       -6.91593       -5.36869
|  8> F          5.40615       -5.89948       -5.51297
|  9> O          3.11191       -6.44508       -6.04379
| 10> O          4.76340       -8.23942       -5.69863
| 11> H          5.27901       -8.35440       -2.90385
| 12> H          4.53000       -7.38577       -1.65734
| 13> H          5.74437       -6.68276       -2.69856
| 14> *
| 15>
| 16> %MaxCore 64000
| 17>
| 18> %pal nprocs 4
| 19> end
| 20>
| 21> %scf
| 22>   MaxIter 150
| 23> end
| 24>
| 25>
| 26>                          ****END OF INPUT****

CARTESIAN COORDINATES (ANGSTROEM)
---------------------------------
  C      4.930200   -7.375320   -2.649620
  C      3.841890   -6.951610   -3.632830
  H      3.458140   -5.954420   -3.407120
  H      2.988480   -7.643610   -3.567080
  S      4.318120   -6.915930   -5.368690
  F      5.406150   -5.899480   -5.512970
  O      3.111910   -6.445080   -6.043790
  O      4.763400   -8.239420   -5.698630
  H      5.279010   -8.354400   -2.903850
  H      4.530000   -7.385770   -1.657340
  H      5.744370   -6.682760   -2.698560

 Total Charge           Charge          ....    0
 Multiplicity           Mult            ....    1
 Number of Electrons    NEL             ....   58
 Basis Dimension        Dim             ....  176

ORBITAL ENERGIES
----------------

  NO   OCC          E(Eh)            E(eV)
   0   2.0000     -88.565873     -2409.9999
   1   2.0000     -24.573674      -668.6837
   2   2.0000     -18.978008      -516.4178
   3   2.0000     -18.967999      -516.1455
   4   2.0000     -10.155657      -276.3495
   5   2.0000     -10.111890      -275.1585
   6   2.0000      -8.115478      -220.8334
   7   2.0000      -6.154134      -167.4625
   8   2.0000      -6.147635      -167.2857
   9   2.0000      -6.146267      -167.2484
  10   2.0000      -1.420778       -38.6613
  11   2.0000      -1.214987       -33.0615
  12   2.0000      -1.116222       -30.3739
  13   2.0000      -0.935821       -25.4650
  14   2.0000      -0.828551       -22.5460
  15   2.0000      -0.782558       -21.2945
  16   2.0000      -0.689900       -18.7731
  17   2.0000      -0.666528       -18.1372
  18   2.0000      -0.652624       -17.7588
  19   2.0000      -0.605175       -16.4677
  20   2.0000      -0.587493       -15.9865
  21   2.0000      -0.563258       -15.3270
  22   2.0000      -0.543056       -14.7773
  23   2.0000      -0.515155       -14.0181
  24   2.0000      -0.509838       -13.8734
  25   2.0000      -0.484155       -13.1745
  26   2.0000      -0.444752       -12.1023
  27   2.0000      -0.432362       -11.7652
  28   2.0000      -0.421660       -11.4739
  29   0.0000       0.043314         1.1786
  30   0.0000       0.075738         2.0609
  31   0.0000       0.078882         2.1465
  32   0.0000       0.081025         2.2048
  33   0.0000       0.102875         2.7994

MULLIKEN ATOMIC CHARGES
-----------------------
   0 C :    1.039257
   1 C :   -0.245785
   2 H :   -0.106611
   3 H :   -0.035332
   4 S :    1.272173
   5 F :   -0.368469
   6 O :   -0.583929
   7 O :   -0.573675
   8 H :   -0.110893
   9 H :   -0.145905
  10 H :   -0.140831
Sum of atomic charges:    0.0000000

LOEWDIN ATOMIC CHARGES
----------------------
   0 C :    0.122742
   1 C :   -0.104645
   2 H :    0.029220
   3 H :    0.047649
   4 S :    1.065754
   5 F :   -0.257871
   6 O :   -0.456822
   7 O :   -0.440593
   8 H :   -0.001138
   9 H :   -0.000194
  10 H :   -0.004103

  Mayer bond orders larger than 0.100000
B(  0-C ,  1-C ) :   1.2943 B(  0-C ,  8-H ) :   0.7578 B(  0-C ,  9-H ) :   0.6643
B(  0-C , 10-H ) :   0.7517 B(  1-C ,  2-H ) :   0.9735 B(  1-C ,  3-H ) :   0.9487
B(  1-C ,  4-S ) :   0.9794 B(  1-C ,  8-H ) :   0.2242 B(  1-C ,  9-H ) :   0.2606
B(  1-C , 10-H ) :   0.2143 B(  4-S ,  5-F ) :   0.6816 B(  4-S ,  6-O ) :   1.5952
B(  4-S ,  7-O ) :   1.5809

FINAL SINGLE POINT ENERGY      -726.433612001415

DIPOLE MOMENT
-------------
                                X             Y             Z
Electronic contribution:      1.29256       2.62773      -8.66889
Nuclear contribution   :     -0.98922      -2.24849      10.35711
                        -----------------------------------------
Total Dipole Moment    :      0.30334       0.37923       1.68822
                        -----------------------------------------
Magnitude (a.u.)       :      1.75668
Magnitude (Debye)      :      4.46512

Rotational constants in cm-1:     0.151436     0.080885     0.078670
Rotational constants in MHz :  4539.936009  2424.868817  2358.476812

                             ****ORCA TERMINATED NORMALLY****
TOTAL RUN TIME: 0 days 0 hours 0 minutes 24 seconds 317 msec
