                         Program Version 5.0.0 -  RELEASE  -
|  1> !LC-BLYP RIJCOSX def2-SVPD def2/J TightSCF
|  2> *xyz 0 1
|  3> C          5.55821       -1.99291       -6.21505
|  4> C          4.18188       -2.58967       -6.29891
|  5> C          3.14587       -1.76843       -6.48675
|  6> N          4.01910       -3.86431       -6.22743
|  7> H          4.76849       -4.59115       -5.99077
|  8> H          3.12241       -4.33339       -6.31462
|  9> H          3.28164       -0.77779       -6.56655
| 10> H          2.21255       -2.13419       -6.56225
| 11> C          6.41926       -2.54294       -5.07763
| 12> H          6.03683       -2.19819       -7.17685
| 13> H          5.46761       -0.90737       -6.12797
| 14> H          6.50056       -3.60553       -5.17358
| 15> H          5.96544       -2.30329       -4.13874
| 16> H          7.39438       -2.10494       -5.12457
| 17> *
| 18>
| 19> %MaxCore 64000
| 20>
| 21> %pal nprocs 4
| 22> end
| 23>
| 24> %scf
| 25>   MaxIter 150
| 26> end
| 27>
| 28>
| 29>                          ****END OF INPUT****

CARTESIAN COORDINATES (ANGSTROEM)
---------------------------------
  C      5.558210   -1.992910   -6.215050
  C      4.181880   -2.589670   -6.298910
  C      3.145870   -1.768430   -6.486750
  N      4.019100   -3.864310   -6.227430
  H      4.768490   -4.591150   -5.990770
  H      3.122410   -4.333390   -6.314620
  H      3.281640   -0.777790   -6.566550
  H      2.212550   -2.134190   -6.562250
  C      6.419260   -2.542940   -5.077630
  H      6.036830   -2.198190   -7.176850
  H      5.467610   -0.907370   -6.127970
  H      6.500560   -3.605530   -5.173580
  H      5.965440   -2.303290   -4.138740
  H      7.394380   -2.104940   -5.124570

 Total Charge           Charge          ....    0
 Multiplicity           Mult            ....    1
 Number of Electrons    NEL             ....   40
 Basis Dimension        Dim             ....  172

ORBITAL ENERGIES
----------------

  NO   OCC          E(Eh)            E(eV)
   0   2.0000     -14.196693      -386.3117
   1   2.0000     -10.109450      -275.0921
   2   2.0000     -10.084042      -274.4007
   3   2.0000     -10.074590      -274.1435
   4   2.0000     -10.014395      -272.5055
   5   2.0000      -1.028748       -27.9936
   6   2.0000      -0.881147       -23.9772
   7   2.0000      -0.820106       -22.3162
   8   2.0000      -0.734312       -19.9816
   9   2.0000      -0.686958       -18.6931
  10   2.0000      -0.623380       -16.9630
  11   2.0000      -0.578544       -15.7430
  12   2.0000      -0.548316       -14.9204
  13   2.0000      -0.526244       -14.3198
  14   2.0000      -0.494101       -13.4452
  15   2.0000      -0.484580       -13.1861
  16   2.0000      -0.457716       -12.4551
  17   2.0000      -0.435952       -11.8629
  18   2.0000      -0.427231       -11.6256
  19   2.0000      -0.281078        -7.6485
  20   0.0000       0.068770         1.8713
  21   0.0000       0.099030         2.6947
  22   0.0000       0.102948         2.8014
  23   0.0000       0.118010         3.2112
  24   0.0000       0.130567         3.5529

MULLIKEN ATOMIC CHARGES
-----------------------
   0 C :    0.054230
   1 C :   -0.271579
   2 C :    0.708953
   3 N :    0.435106
   4 H :   -0.134591
   5 H :   -0.273472
   6 H :   -0.319691
   7 H :   -0.578984
   8 C :    0.994800
   9 H :   -0.141446
  10 H :    0.044400
  11 H :   -0.260231
  12 H :   -0.138583
  13 H :   -0.118911
Sum of atomic charges:   -0.0000000

LOEWDIN ATOMIC CHARGES
----------------------
   0 C :   -0.041977
   1 C :   -0.281726
   2 C :    0.172662
   3 N :    0.160596
   4 H :    0.040307
   5 H :    0.010439
   6 H :   -0.092255
   7 H :   -0.090721
   8 C :    0.114788
   9 H :    0.032977
  10 H :    0.029120
  11 H :   -0.035051
  12 H :   -0.006404
  13 H :   -0.012755

  Mayer bond orders larger than 0.100000
B(  0-C ,  1-C ) :   1.1582 B(  0-C ,  2-C ) :   0.1650 B(  0-C ,  6-H ) :  -0.1247
B(  0-C ,  8-C ) :   1.2455 B(  0-C ,  9-H ) :   0.7658 B(  0-C , 10-H ) :   0.8382
B(  0-C , 11-H ) :   0.2265 B(  0-C , 12-H ) :   0.2291 B(  0-C , 13-H ) :   0.2392
B(  1-C ,  2-C ) :   1.5715 B(  1-C ,  3-N ) :   1.3222 B(  1-C ,  5-H ) :  -0.1054
B(  1-C ,  7-H ) :   0.2482 B(  1-C ,  9-H ) :   0.2469 B(  1-C , 10-H ) :   0.1114
B(  2-C ,  3-N ) :   0.2661 B(  2-C ,  6-H ) :   1.0256 B(  2-C ,  7-H ) :   0.4780
B(  3-N ,  4-H ) :   1.1898 B(  3-N ,  5-H ) :   1.2271 B(  4-H ,  5-H ) :  -0.1720
B(  8-C , 10-H ) :   0.1385 B(  8-C , 11-H ) :   0.7401 B(  8-C , 12-H ) :   0.6938
B(  8-C , 13-H ) :   0.7195

FINAL SINGLE POINT ENERGY      -211.805974339637

DIPOLE MOMENT
-------------
                                X             Y             Z
Electronic contribution:     -2.03223      -1.06244      -1.02799
Nuclear contribution   :      2.41345       0.31141       1.16343
                        -----------------------------------------
Total Dipole Moment    :      0.38122      -0.75103       0.13544
                        -----------------------------------------
Magnitude (a.u.)       :      0.85307
Magnitude (Debye)      :      2.16832

Rotational constants in cm-1:     0.287957     0.129204     0.097498
Rotational constants in MHz :  8632.737925  3873.424745  2922.919500

                             ****ORCA TERMINATED NORMALLY****
TOTAL RUN TIME: 0 days 0 hours 0 minutes 23 seconds 909 msec
