                         Program Version 5.0.0 -  RELEASE  -
|  1> !LC-BLYP RIJCOSX def2-SVPD def2/J TightSCF
|  2> *xyz 0 1
|  3> C          4.93020       -7.37532       -2.64962
|  4> C          3.84189       -6.95161       -3.63283
|  5> H          3.45814       -5.95442       -3.40712
|  6> H          2.98848       -7.64361       -3.56708
|  7> S          4.31812       -6.91593       -5.36869
|  8> O          5.40615       -5.89948       -5.51297
|  9> F          3.11191       -6.44508       -6.04379
| 10> O          4.76340       -8.23942       -5.69863
| 11> H          5.27901       -8.35440       -2.90385
| 12> H          4.53000       -7.38577       -1.65734
| 13> H          5.74437       -6.68276       -2.69856
| 14> *
| 15>
| 16> %MaxCore 64000
| 17>
| 18> %pal nprocs 4
| 19> end
| 20>
| 21> %scf
| 22>   MaxIter 150
| 23> end
| 24>
| 25>
| 26>                          ****END OF INPUT****

CARTESIAN COORDINATES (ANGSTROEM)
---------------------------------
  C      4.930200   -7.375320   -2.649620
  C      3.841890   -6.951610   -3.632830
  H      3.458140   -5.954420   -3.407120
  H      2.988480   -7.643610   -3.567080
  S      4.318120   -6.915930   -5.368690
  O      5.406150   -5.899480   -5.512970
  F      3.111910   -6.445080   -6.043790
  O      4.763400   -8.239420   -5.698630
  H      5.279010   -8.354400   -2.903850
  H      4.530000   -7.385770   -1.657340
  H      5.744370   -6.682760   -2.698560

 Total Charge           Charge          ....    0
 Multiplicity           Mult            ....    1
 Number of Electrons    NEL             ....   58
 Basis Dimension        Dim             ....  176

ORBITAL ENERGIES
----------------

  NO   OCC          E(Eh)            E(eV)
   0   2.0000     -88.567692     -2410.0494
   1   2.0000     -24.588385      -669.0840
   2   2.0000     -18.977524      -516.4047
   3   2.0000     -18.960167      -515.9324
   4   2.0000     -10.156870      -276.3825
   5   2.0000     -10.109992      -275.1069
   6   2.0000      -8.117359      -220.8846
   7   2.0000      -6.156135      -167.5169
   8   2.0000      -6.149433      -167.3346
   9   2.0000      -6.147950      -167.2942
  10   2.0000      -1.447793       -39.3964
  11   2.0000      -1.209288       -32.9064
  12   2.0000      -1.097844       -29.8739
  13   2.0000      -0.935735       -25.4626
  14   2.0000      -0.842635       -22.9293
  15   2.0000      -0.782397       -21.2901
  16   2.0000      -0.691629       -18.8202
  17   2.0000      -0.686243       -18.6736
  18   2.0000      -0.662624       -18.0309
  19   2.0000      -0.606715       -16.5095
  20   2.0000      -0.592376       -16.1194
  21   2.0000      -0.549437       -14.9509
  22   2.0000      -0.538997       -14.6669
  23   2.0000      -0.517614       -14.0850
  24   2.0000      -0.493646       -13.4328
  25   2.0000      -0.492540       -13.4027
  26   2.0000      -0.440458       -11.9855
  27   2.0000      -0.425958       -11.5909
  28   2.0000      -0.408542       -11.1170
  29   0.0000       0.045554         1.2396
  30   0.0000       0.070429         1.9165
  31   0.0000       0.079848         2.1728
  32   0.0000       0.081406         2.2152
  33   0.0000       0.107795         2.9332

MULLIKEN ATOMIC CHARGES
-----------------------
   0 C :    1.014279
   1 C :   -0.264678
   2 H :   -0.094474
   3 H :   -0.032733
   4 S :    1.292033
   5 O :   -0.619895
   6 F :   -0.354112
   7 O :   -0.561590
   8 H :   -0.114394
   9 H :   -0.145346
  10 H :   -0.119090
Sum of atomic charges:   -0.0000000

LOEWDIN ATOMIC CHARGES
----------------------
   0 C :    0.137357
   1 C :   -0.115871
   2 H :    0.028232
   3 H :    0.034050
   4 S :    1.068382
   5 O :   -0.468163
   6 F :   -0.248286
   7 O :   -0.442507
   8 H :    0.001800
   9 H :    0.001801
  10 H :    0.003205

  Mayer bond orders larger than 0.100000
B(  0-C ,  1-C ) :   1.3342 B(  0-C ,  3-H ) :   0.1003 B(  0-C ,  8-H ) :   0.7500
B(  0-C ,  9-H ) :   0.6740 B(  0-C , 10-H ) :   0.7617 B(  1-C ,  2-H ) :   0.9594
B(  1-C ,  3-H ) :   0.9383 B(  1-C ,  4-S ) :   0.9549 B(  1-C ,  8-H ) :   0.2214
B(  1-C ,  9-H ) :   0.2614 B(  1-C , 10-H ) :   0.2170 B(  4-S ,  5-O ) :   1.5208
B(  4-S ,  6-F ) :   0.7488 B(  4-S ,  7-O ) :   1.5771

FINAL SINGLE POINT ENERGY      -726.421970309705

DIPOLE MOMENT
-------------
                                X             Y             Z
Electronic contribution:     -2.61809       1.69210      -9.58683
Nuclear contribution   :      1.40145      -1.67996      10.91024
                        -----------------------------------------
Total Dipole Moment    :     -1.21665       0.01214       1.32341
                        -----------------------------------------
Magnitude (a.u.)       :      1.79771
Magnitude (Debye)      :      4.56943

Rotational constants in cm-1:     0.155875     0.079864     0.077188
Rotational constants in MHz :  4673.017506  2394.277415  2314.027118

                             ****ORCA TERMINATED NORMALLY****
TOTAL RUN TIME: 0 days 0 hours 0 minutes 24 seconds 841 msec
