                         Program Version 5.0.0 -  RELEASE  -
|  1> !LC-BLYP RIJCOSX def2-SVPD def2/J TightSCF
|  2> *xyz 0 1
|  3> C          5.55821       -1.99291       -6.21505
|  4> C          4.18188       -2.58967       -6.29891
|  5> N          3.14587       -1.76843       -6.48675
|  6> C          4.01910       -3.86431       -6.22743
|  7> H          4.76849       -4.59115       -5.99077
|  8> H          3.12241       -4.33339       -6.31462
|  9> H          3.28164       -0.77779       -6.56655
| 10> H          2.21255       -2.13419       -6.56225
| 11> C          6.41926       -2.54294       -5.07763
| 12> H          6.03683       -2.19819       -7.17685
| 13> H          5.46761       -0.90737       -6.12797
| 14> H          6.50056       -3.60553       -5.17358
| 15> H          5.96544       -2.30329       -4.13874
| 16> H          7.39438       -2.10494       -5.12457
| 17> *
| 18>
| 19> %MaxCore 64000
| 20>
| 21> %pal nprocs 4
| 22> end
| 23>
| 24> %scf
| 25>   MaxIter 150
| 26> end
| 27>
| 28>
| 29>                          ****END OF INPUT****

CARTESIAN COORDINATES (ANGSTROEM)
---------------------------------
  C      5.558210   -1.992910   -6.215050
  C      4.181880   -2.589670   -6.298910
  N      3.145870   -1.768430   -6.486750
  C      4.019100   -3.864310   -6.227430
  H      4.768490   -4.591150   -5.990770
  H      3.122410   -4.333390   -6.314620
  H      3.281640   -0.777790   -6.566550
  H      2.212550   -2.134190   -6.562250
  C      6.419260   -2.542940   -5.077630
  H      6.036830   -2.198190   -7.176850
  H      5.467610   -0.907370   -6.127970
  H      6.500560   -3.605530   -5.173580
  H      5.965440   -2.303290   -4.138740
  H      7.394380   -2.104940   -5.124570

 Total Charge           Charge          ....    0
 Multiplicity           Mult            ....    1
 Number of Electrons    NEL             ....   40
 Basis Dimension        Dim             ....  172

ORBITAL ENERGIES
----------------

  NO   OCC          E(Eh)            E(eV)
   0   2.0000     -14.185955      -386.0195
   1   2.0000     -10.107073      -275.0274
   2   2.0000     -10.085217      -274.4327
   3   2.0000     -10.068336      -273.9734
   4   2.0000     -10.022188      -272.7176
   5   2.0000      -1.018723       -27.7209
   6   2.0000      -0.884633       -24.0721
   7   2.0000      -0.815095       -22.1799
   8   2.0000      -0.745678       -20.2909
   9   2.0000      -0.661314       -17.9953
  10   2.0000      -0.626962       -17.0605
  11   2.0000      -0.592550       -16.1241
  12   2.0000      -0.554686       -15.0938
  13   2.0000      -0.521843       -14.2001
  14   2.0000      -0.489446       -13.3185
  15   2.0000      -0.472238       -12.8503
  16   2.0000      -0.450503       -12.2588
  17   2.0000      -0.435145       -11.8409
  18   2.0000      -0.426931       -11.6174
  19   2.0000      -0.289935        -7.8895
  20   0.0000       0.074948         2.0394
  21   0.0000       0.096646         2.6299
  22   0.0000       0.105522         2.8714
  23   0.0000       0.117229         3.1900
  24   0.0000       0.132729         3.6117

MULLIKEN ATOMIC CHARGES
-----------------------
   0 C :    0.094934
   1 C :    0.168035
   2 N :    0.398069
   3 C :    0.274239
   4 H :   -0.143231
   5 H :   -0.623825
   6 H :   -0.197118
   7 H :   -0.221026
   8 C :    1.034602
   9 H :   -0.145846
  10 H :   -0.150905
  11 H :   -0.233372
  12 H :   -0.141097
  13 H :   -0.113460
Sum of atomic charges:    0.0000000

LOEWDIN ATOMIC CHARGES
----------------------
   0 C :   -0.044926
   1 C :   -0.269431
   2 N :    0.186569
   3 C :    0.147547
   4 H :   -0.043626
   5 H :   -0.082014
   6 H :   -0.015764
   7 H :   -0.000113
   8 C :    0.119725
   9 H :    0.034817
  10 H :    0.016618
  11 H :   -0.028228
  12 H :   -0.006832
  13 H :   -0.014341

  Mayer bond orders larger than 0.100000
B(  0-C ,  1-C ) :   1.0378 B(  0-C ,  2-N ) :   0.1322 B(  0-C ,  3-C ) :   0.1102
B(  0-C ,  8-C ) :   1.2729 B(  0-C ,  9-H ) :   0.8255 B(  0-C , 10-H ) :   0.7480
B(  0-C , 11-H ) :   0.2059 B(  0-C , 12-H ) :   0.2445 B(  0-C , 13-H ) :   0.2174
B(  1-C ,  2-N ) :   1.1235 B(  1-C ,  3-C ) :   1.4362 B(  1-C ,  7-H ) :  -0.1278
B(  1-C ,  9-H ) :   0.1723 B(  1-C , 10-H ) :   0.1888 B(  2-N ,  3-C ) :   0.3167
B(  2-N ,  6-H ) :   1.1187 B(  2-N ,  7-H ) :   1.2682 B(  3-C ,  4-H ) :   0.9207
B(  3-C ,  5-H ) :   0.7005 B(  4-H ,  5-H ) :  -0.1263 B(  6-H ,  7-H ) :  -0.1744
B(  8-C , 10-H ) :   0.1102 B(  8-C , 11-H ) :   0.7563 B(  8-C , 12-H ) :   0.6977
B(  8-C , 13-H ) :   0.7264

FINAL SINGLE POINT ENERGY      -211.815945451261

DIPOLE MOMENT
-------------
                                X             Y             Z
Electronic contribution:     -2.79883       0.78892      -1.28858
Nuclear contribution   :      2.61570      -0.17401       1.22349
                        -----------------------------------------
Total Dipole Moment    :     -0.18313       0.61491      -0.06509
                        -----------------------------------------
Magnitude (a.u.)       :      0.64489
Magnitude (Debye)      :      1.63919

Rotational constants in cm-1:     0.298189     0.125314     0.096441
Rotational constants in MHz :  8939.495008  3756.825352  2891.223400

                             ****ORCA TERMINATED NORMALLY****
TOTAL RUN TIME: 0 days 0 hours 0 minutes 29 seconds 260 msec
