                         Program Version 5.0.0 -  RELEASE  -
|  1> !LC-BLYP RIJCOSX def2-SVPD def2/J TightSCF
|  2> *xyz 0 1
|  3> C          4.93020       -7.37532       -2.64962
|  4> C          3.84189       -6.95161       -3.63283
|  5> H          3.45814       -5.95442       -3.40712
|  6> H          2.98848       -7.64361       -3.56708
|  7> S          4.31812       -6.91593       -5.36869
|  8> O          5.40615       -5.89948       -5.51297
|  9> O          3.11191       -6.44508       -6.04379
| 10> F          4.76340       -8.23942       -5.69863
| 11> H          5.27901       -8.35440       -2.90385
| 12> H          4.53000       -7.38577       -1.65734
| 13> H          5.74437       -6.68276       -2.69856
| 14> *
| 15>
| 16> %MaxCore 64000
| 17>
| 18> %pal nprocs 4
| 19> end
| 20>
| 21> %scf
| 22>   MaxIter 150
| 23> end
| 24>
| 25>
| 26>                          ****END OF INPUT****

CARTESIAN COORDINATES (ANGSTROEM)
---------------------------------
  C      4.930200   -7.375320   -2.649620
  C      3.841890   -6.951610   -3.632830
  H      3.458140   -5.954420   -3.407120
  H      2.988480   -7.643610   -3.567080
  S      4.318120   -6.915930   -5.368690
  O      5.406150   -5.899480   -5.512970
  O      3.111910   -6.445080   -6.043790
  F      4.763400   -8.239420   -5.698630
  H      5.279010   -8.354400   -2.903850
  H      4.530000   -7.385770   -1.657340
  H      5.744370   -6.682760   -2.698560

 Total Charge           Charge          ....    0
 Multiplicity           Mult            ....    1
 Number of Electrons    NEL             ....   58
 Basis Dimension        Dim             ....  176

ORBITAL ENERGIES
----------------

  NO   OCC          E(Eh)            E(eV)
   0   2.0000     -88.568961     -2410.0840
   1   2.0000     -24.601488      -669.4405
   2   2.0000     -18.968397      -516.1563
   3   2.0000     -18.961026      -515.9558
   4   2.0000     -10.157051      -276.3874
   5   2.0000     -10.113066      -275.1905
   6   2.0000      -8.118646      -220.9196
   7   2.0000      -6.157674      -167.5588
   8   2.0000      -6.150495      -167.3635
   9   2.0000      -6.149088      -167.3252
  10   2.0000      -1.469560       -39.9888
  11   2.0000      -1.198798       -32.6209
  12   2.0000      -1.090194       -29.6657
  13   2.0000      -0.938420       -25.5357
  14   2.0000      -0.845203       -22.9992
  15   2.0000      -0.793315       -21.5872
  16   2.0000      -0.712310       -19.3829
  17   2.0000      -0.700065       -19.0497
  18   2.0000      -0.656754       -17.8712
  19   2.0000      -0.605268       -16.4702
  20   2.0000      -0.587399       -15.9839
  21   2.0000      -0.560038       -15.2394
  22   2.0000      -0.538034       -14.6407
  23   2.0000      -0.515231       -14.0202
  24   2.0000      -0.503445       -13.6994
  25   2.0000      -0.480358       -13.0712
  26   2.0000      -0.431724       -11.7478
  27   2.0000      -0.425442       -11.5769
  28   2.0000      -0.402950       -10.9648
  29   0.0000       0.041640         1.1331
  30   0.0000       0.073178         1.9913
  31   0.0000       0.077726         2.1150
  32   0.0000       0.081656         2.2220
  33   0.0000       0.107654         2.9294

MULLIKEN ATOMIC CHARGES
-----------------------
   0 C :    1.036898
   1 C :   -0.245308
   2 H :   -0.096361
   3 H :   -0.043847
   4 S :    1.264734
   5 O :   -0.615147
   6 O :   -0.567126
   7 F :   -0.337822
   8 H :   -0.135148
   9 H :   -0.145115
  10 H :   -0.115757
Sum of atomic charges:    0.0000000

LOEWDIN ATOMIC CHARGES
----------------------
   0 C :    0.122596
   1 C :   -0.105125
   2 H :    0.041913
   3 H :    0.035059
   4 S :    1.068140
   5 O :   -0.466064
   6 O :   -0.456526
   7 F :   -0.234933
   8 H :   -0.005570
   9 H :    0.000050
  10 H :    0.000459

  Mayer bond orders larger than 0.100000
B(  0-C ,  1-C ) :   1.2924 B(  0-C ,  8-H ) :   0.7414 B(  0-C ,  9-H ) :   0.6651
B(  0-C , 10-H ) :   0.7690 B(  1-C ,  2-H ) :   0.9727 B(  1-C ,  3-H ) :   0.9525
B(  1-C ,  4-S ) :   0.9766 B(  1-C ,  8-H ) :   0.2185 B(  1-C ,  9-H ) :   0.2610
B(  1-C , 10-H ) :   0.2187 B(  4-S ,  5-O ) :   1.5330 B(  4-S ,  6-O ) :   1.6000
B(  4-S ,  7-F ) :   0.7524

FINAL SINGLE POINT ENERGY      -726.410319942535

DIPOLE MOMENT
-------------
                                X             Y             Z
Electronic contribution:      0.18580      -1.33647      -8.98473
Nuclear contribution   :     -0.31946       0.18980      10.55057
                        -----------------------------------------
Total Dipole Moment    :     -0.13365      -1.14667       1.56584
                        -----------------------------------------
Magnitude (a.u.)       :      1.94540
Magnitude (Debye)      :      4.94480

Rotational constants in cm-1:     0.151421     0.081183     0.078684
Rotational constants in MHz :  4539.489207  2433.790160  2358.892966

                             ****ORCA TERMINATED NORMALLY****
TOTAL RUN TIME: 0 days 0 hours 0 minutes 25 seconds 384 msec
