                         Program Version 5.0.0 -  RELEASE  -
|  1> !LC-BLYP RIJCOSX def2-SVPD def2/J TightSCF xyzfile
|  2>
|  3> *xyzfile 0 1 D5.xyz
|  4>
|  5> %MaxCore 64000
|  6>
|  7> %pal nprocs 4
|  8> end
|  9>
| 10> %scf
| 11>   MaxIter 150
| 12> end
| 13>
| 14>
| 15>                          ****END OF INPUT****

CARTESIAN COORDINATES (ANGSTROEM)
---------------------------------
  C      5.558206   -1.992914   -6.215054
  C      4.930199   -7.375319   -2.649623
  C      3.841892   -6.951611   -3.632829
  H      3.458144   -5.954425   -3.407121
  H      2.988484   -7.643606   -3.567078
  S      4.318115   -6.915930   -5.368692
  C      4.181880   -2.589671   -6.298911
  C      3.145873   -1.768431   -6.486753
  N      4.019102   -3.864307   -6.227427
  H      4.768490   -4.591153   -5.990773
  H      3.122405   -4.333392   -6.314620
  H      3.281635   -0.777786   -6.566549
  H      2.212549   -2.134193   -6.562246
  O      5.406154   -5.899480   -5.512972
  O      3.111910   -6.445079   -6.043792
  C      6.419260   -2.542944   -5.077630
  C      5.872267   -5.002756   -2.427819
  C      6.173994   -6.485522   -2.606315
  H      6.734852   -6.613767   -3.534015
  H      6.821463   -6.831018   -1.793617
  H      4.469612   -7.406168   -1.655876
  H      5.230134   -8.398678   -2.885906
  C      5.896512   -2.169314   -3.694552
  H      7.428880   -2.143665   -5.208078
  H      6.505894   -3.627541   -5.175502
  C      6.807804   -2.623428   -2.551019
  H      4.894708   -2.589732   -3.557501
  H      5.778823   -1.081255   -3.635790
  C      7.111544   -4.122463   -2.520363
  H      7.751615   -2.071393   -2.614406
  H      6.345837   -2.326401   -1.604086
  H      5.362882   -4.828697   -1.471335
  H      5.174429   -4.702577   -3.211298
  H      7.778329   -4.329347   -1.677651
  H      7.673189   -4.402845   -3.417586
  F      4.763396   -8.239424   -5.698629
  H      6.036826   -2.198189   -7.176852
  H      5.467610   -0.907371   -6.127968

 Total Charge           Charge          ....    0
 Multiplicity           Mult            ....    1
 Number of Electrons    NEL             ....  136
 Basis Dimension        Dim             ....  512

ORBITAL ENERGIES
----------------

  NO   OCC          E(Eh)            E(eV)
   0   2.0000     -88.598817     -2410.8964
   1   2.0000     -24.624453      -670.0654
   2   2.0000     -18.994568      -516.8685
   3   2.0000     -18.993528      -516.8402
   4   2.0000     -14.141831      -384.8188
   5   2.0000     -10.168974      -276.7118
   6   2.0000     -10.128685      -275.6155
   7   2.0000     -10.098474      -274.7935
   8   2.0000     -10.086104      -274.4568
   9   2.0000     -10.079364      -274.2734
  10   2.0000     -10.078624      -274.2533
  11   2.0000     -10.073209      -274.1059
  12   2.0000     -10.065381      -273.8929
  13   2.0000     -10.065095      -273.8852
  14   2.0000     -10.060710      -273.7658
  15   2.0000      -9.986374      -271.7430
  16   2.0000      -8.146851      -221.6871
  17   2.0000      -6.185828      -168.3249
  18   2.0000      -6.179268      -168.1464
  19   2.0000      -6.177071      -168.0866
  20   2.0000      -1.491769       -40.5931
  21   2.0000      -1.230979       -33.4966
  22   2.0000      -1.125296       -30.6209
  23   2.0000      -0.991232       -26.9728
  24   2.0000      -0.965104       -26.2618
  25   2.0000      -0.918793       -25.0016
  26   2.0000      -0.892482       -24.2857
  27   2.0000      -0.862920       -23.4812
  28   2.0000      -0.845511       -23.0075
  29   2.0000      -0.813790       -22.1443
  30   2.0000      -0.791022       -21.5248
  31   2.0000      -0.758887       -20.6504
  32   2.0000      -0.737618       -20.0716
  33   2.0000      -0.726932       -19.7808
  34   2.0000      -0.711204       -19.3528
  35   2.0000      -0.698722       -19.0132
  36   2.0000      -0.677958       -18.4482
  37   2.0000      -0.661035       -17.9877
  38   2.0000      -0.650994       -17.7144
  39   2.0000      -0.622924       -16.9506
  40   2.0000      -0.617625       -16.8064
  41   2.0000      -0.610835       -16.6217
  42   2.0000      -0.590938       -16.0802
  43   2.0000      -0.571230       -15.5440
  44   2.0000      -0.568855       -15.4793
  45   2.0000      -0.558707       -15.2032
  46   2.0000      -0.545225       -14.8363
  47   2.0000      -0.536418       -14.5967
  48   2.0000      -0.527579       -14.3562
  49   2.0000      -0.524806       -14.2807
  50   2.0000      -0.507788       -13.8176
  51   2.0000      -0.501943       -13.6586
  52   2.0000      -0.493498       -13.4288
  53   2.0000      -0.479292       -13.0422
  54   2.0000      -0.471002       -12.8166
  55   2.0000      -0.460468       -12.5300
  56   2.0000      -0.457455       -12.4480
  57   2.0000      -0.450192       -12.2503
  58   2.0000      -0.448730       -12.2106
  59   2.0000      -0.438477       -11.9316
  60   2.0000      -0.428434       -11.6583
  61   2.0000      -0.424515       -11.5516
  62   2.0000      -0.422410       -11.4944
  63   2.0000      -0.411611       -11.2005
  64   2.0000      -0.403552       -10.9812
  65   2.0000      -0.394725       -10.7410
  66   2.0000      -0.390026       -10.6131
  67   2.0000      -0.250148        -6.8069
  68   0.0000       0.031488         0.8568
  69   0.0000       0.058590         1.5943
  70   0.0000       0.065403         1.7797
  71   0.0000       0.073309         1.9948
  72   0.0000       0.079892         2.1740

MULLIKEN ATOMIC CHARGES
-----------------------
   0 C :    0.982306
   1 C :    0.663456
   2 C :    0.153058
   3 H :    0.156483
   4 H :   -0.309452
   5 S :    1.373950
   6 C :   -0.570916
   7 C :    0.521159
   8 N :    1.271784
   9 H :   -0.485691
  10 H :   -0.320006
  11 H :   -0.416366
  12 H :   -0.471131
  13 O :   -0.896163
  14 O :   -0.625266
  15 C :    0.687643
  16 C :    0.213159
  17 C :    0.493777
  18 H :   -0.003347
  19 H :   -0.424502
  20 H :   -0.005071
  21 H :   -0.117460
  22 C :    0.093756
  23 H :   -0.218740
  24 H :   -0.839345
  25 C :    0.776372
  26 H :    0.044100
  27 H :   -0.413487
  28 C :    0.290353
  29 H :   -0.037668
  30 H :   -0.145418
  31 H :   -0.033955
  32 H :   -0.536352
  33 H :   -0.423824
  34 H :    0.044296
  35 F :   -0.448468
  36 H :   -0.241750
  37 H :    0.218723
Sum of atomic charges:    0.0000000

LOEWDIN ATOMIC CHARGES
----------------------
   0 C :    0.005113
   1 C :   -0.039274
   2 C :   -0.044318
   3 H :    0.039049
   4 H :    0.040856
   5 S :    1.142441
   6 C :   -0.268898
   7 C :    0.163908
   8 N :    0.200924
   9 H :   -0.113907
  10 H :   -0.024536
  11 H :   -0.101677
  12 H :   -0.094739
  13 O :   -0.431260
  14 O :   -0.427481
  15 C :   -0.035230
  16 C :   -0.042255
  17 C :   -0.040658
  18 H :    0.015220
  19 H :    0.037299
  20 H :    0.044087
  21 H :    0.031737
  22 C :   -0.040638
  23 H :    0.032875
  24 H :   -0.007776
  25 C :   -0.042578
  26 H :    0.019784
  27 H :    0.032107
  28 C :   -0.041693
  29 H :    0.027567
  30 H :    0.026211
  31 H :    0.045273
  32 H :   -0.012029
  33 H :    0.029268
  34 H :    0.025087
  35 F :   -0.213119
  36 H :    0.034619
  37 H :    0.028643

  Mayer bond orders larger than 0.100000
B(  0-C ,  6-C ) :   0.9354 B(  0-C ,  8-N ) :   0.1874 B(  0-C , 12-H ) :   0.1141
B(  0-C , 15-C ) :   1.1191 B(  0-C , 23-H ) :   0.1135 B(  0-C , 24-H ) :   0.1774
B(  0-C , 36-H ) :   0.3747 B(  0-C , 37-H ) :   0.6200 B(  1-C ,  2-C ) :   1.2331
B(  1-C ,  4-H ) :   0.1795 B(  1-C , 16-C ) :   0.1180 B(  1-C , 17-C ) :   1.1783
B(  1-C , 20-H ) :   0.6578 B(  1-C , 21-H ) :   0.5729 B(  2-C ,  3-H ) :   0.8260
B(  2-C ,  4-H ) :   0.7690 B(  2-C ,  5-S ) :   0.9758 B(  2-C , 20-H ) :   0.2114
B(  2-C , 21-H ) :   0.1101 B(  3-H , 17-C ) :  -0.1131 B(  4-H ,  5-S ) :   0.1332
B(  5-S , 13-O ) :   1.2874 B(  5-S , 14-O ) :   1.5402 B(  5-S , 35-F ) :   0.6847
B(  6-C ,  7-C ) :   1.5407 B(  6-C ,  8-N ) :   1.3683 B(  6-C , 10-H ) :  -0.1877
B(  6-C , 11-H ) :   0.1131 B(  6-C , 12-H ) :   0.3239 B(  6-C , 15-C ) :   0.1720
B(  6-C , 24-H ) :  -0.1276 B(  6-C , 36-H ) :   0.3385 B(  6-C , 37-H ) :   0.1728
B(  7-C ,  8-N ) :   0.1098 B(  7-C , 10-H ) :  -0.1248 B(  7-C , 11-H ) :   0.8273
B(  7-C , 12-H ) :   0.5041 B(  8-N ,  9-H ) :   0.5967 B(  8-N , 10-H ) :   0.8465
B(  8-N , 13-O ) :  -0.1465 B(  8-N , 24-H ) :   0.1128 B(  9-H , 10-H ) :  -0.2143
B(  9-H , 13-O ) :   0.2644 B( 10-H , 14-O ) :   0.1735 B( 13-O , 14-O ) :   0.1785
B( 13-O , 24-H ) :   0.2182 B( 15-C , 22-C ) :   1.1605 B( 15-C , 23-H ) :   0.6742
B( 15-C , 24-H ) :   0.2594 B( 15-C , 26-H ) :   0.1499 B( 15-C , 27-H ) :   0.2124
B( 15-C , 36-H ) :   0.3138 B( 15-C , 37-H ) :   0.1978 B( 16-C , 17-C ) :   1.1831
B( 16-C , 18-H ) :   0.1505 B( 16-C , 19-H ) :   0.1830 B( 16-C , 28-C ) :   1.2182
B( 16-C , 31-H ) :   0.7154 B( 16-C , 32-H ) :   0.8409 B( 16-C , 33-H ) :   0.2278
B( 16-C , 34-H ) :   0.1488 B( 17-C , 18-H ) :   0.7960 B( 17-C , 19-H ) :   0.7595
B( 17-C , 21-H ) :   0.2993 B( 17-C , 28-C ) :   0.1925 B( 17-C , 31-H ) :   0.1041
B( 20-H , 21-H ) :  -0.1427 B( 22-C , 23-H ) :   0.1521 B( 22-C , 24-H ) :   0.2850
B( 22-C , 25-C ) :   1.0567 B( 22-C , 26-H ) :   0.8386 B( 22-C , 27-H ) :   0.9531
B( 22-C , 28-C ) :   0.1914 B( 22-C , 29-H ) :   0.1420 B( 22-C , 30-H ) :   0.2833
B( 23-H , 27-H ) :   0.1149 B( 24-H , 34-H ) :   0.1231 B( 25-C , 28-C ) :   1.0999
B( 25-C , 29-H ) :   0.6170 B( 25-C , 30-H ) :   0.6334 B( 26-H , 32-H ) :   0.1853
B( 28-C , 29-H ) :   0.2681 B( 28-C , 30-H ) :   0.1169 B( 28-C , 31-H ) :   0.1206
B( 28-C , 33-H ) :   0.8872 B( 28-C , 34-H ) :   0.7770 B( 29-H , 30-H ) :  -0.1490
B( 31-H , 32-H ) :   0.1114 B( 36-H , 37-H ) :  -0.1030

FINAL SINGLE POINT ENERGY     -1132.894107724966

DIPOLE MOMENT
-------------
                                X             Y             Z
Electronic contribution:     -8.09221     -23.37948     -13.53745
Nuclear contribution   :      8.54118      20.92489      15.31138
                        -----------------------------------------
Total Dipole Moment    :      0.44897      -2.45459       1.77393
                        -----------------------------------------
Magnitude (a.u.)       :      3.06160
Magnitude (Debye)      :      7.78197

Rotational constants in cm-1:     0.018156     0.012306     0.008278
Rotational constants in MHz :   544.309022   368.914527   248.178402

                             ****ORCA TERMINATED NORMALLY****
TOTAL RUN TIME: 0 days 0 hours 4 minutes 57 seconds 195 msec
