                         Program Version 5.0.0 -  RELEASE  -
|  1> !TPSS D3BJ RIJCOSX def2-TZVP def2/J TightSCF
|  2>
|  3> *xyz -1 1
|  4> C          2.95263        1.86308       -3.57485
|  5> C          4.12921        0.89839       -3.41895
|  6> H          3.73369       -0.10060       -3.23763
|  7> H          4.71910        0.86256       -4.33901
|  8> C          5.01734        1.31521       -2.22130
|  9> O          4.73706        0.85411       -1.12283
| 10> O          5.92815        2.16811       -2.49136
| 11> H          2.35067        1.56005       -4.40594
| 12> H          3.32277        2.85258       -3.74453
| 13> H          2.36134        1.85149       -2.68315
| 14> *
| 15> %MaxCore 64000
| 16>
| 17> %pal nprocs 4
| 18> end
| 19>
| 20> %scf
| 21>   MaxIter 150
| 22> end
| 23>
| 24>
| 25>                          ****END OF INPUT****

CARTESIAN COORDINATES (ANGSTROEM)
---------------------------------
  C      2.952630    1.863080   -3.574850
  C      4.129210    0.898390   -3.418950
  H      3.733690   -0.100600   -3.237630
  H      4.719100    0.862560   -4.339010
  C      5.017340    1.315210   -2.221300
  O      4.737060    0.854110   -1.122830
  O      5.928150    2.168110   -2.491360
  H      2.350670    1.560050   -4.405940
  H      3.322770    2.852580   -3.744530
  H      2.361340    1.851490   -2.683150

 Total Charge           Charge          ....   -1
 Multiplicity           Mult            ....    1
 Number of Electrons    NEL             ....   40
 Basis Dimension        Dim             ....  185

ORBITAL ENERGIES
----------------

  NO   OCC          E(Eh)            E(eV)
   0   2.0000     -18.611172      -506.4357
   1   2.0000     -18.600897      -506.1561
   2   2.0000      -9.845980      -267.9227
   3   2.0000      -9.817659      -267.1521
   4   2.0000      -9.800160      -266.6759
   5   2.0000      -0.743622       -20.2350
   6   2.0000      -0.651210       -17.7203
   7   2.0000      -0.542851       -14.7717
   8   2.0000      -0.413333       -11.2474
   9   2.0000      -0.267761        -7.2861
  10   2.0000      -0.243944        -6.6381
  11   2.0000      -0.208499        -5.6736
  12   2.0000      -0.179550        -4.8858
  13   2.0000      -0.161490        -4.3944
  14   2.0000      -0.158522        -4.3136
  15   2.0000      -0.126270        -3.4360
  16   2.0000      -0.116428        -3.1682
  17   2.0000      -0.001361        -0.0370
  18   2.0000       0.012759         0.3472
  19   2.0000       0.026685         0.7261
  20   0.0000       0.176368         4.7992
  21   0.0000       0.217356         5.9146
  22   0.0000       0.227989         6.2039
  23   0.0000       0.239903         6.5281
  24   0.0000       0.251756         6.8506

MULLIKEN ATOMIC CHARGES
-----------------------
   0 C :   -0.334091
   1 C :   -0.111845
   2 H :    0.013839
   3 H :    0.022606
   4 C :    0.201455
   5 O :   -0.472514
   6 O :   -0.550694
   7 H :    0.054785
   8 H :    0.088098
   9 H :    0.088361
Sum of atomic charges:   -1.0000000

LOEWDIN ATOMIC CHARGES
----------------------
   0 C :   -0.319900
   1 C :   -0.291921
   2 H :    0.108983
   3 H :    0.110244
   4 C :   -0.722519
   5 O :   -0.051737
   6 O :   -0.136856
   7 H :    0.090290
   8 H :    0.106789
   9 H :    0.106626

  Mayer bond orders larger than 0.100000
B(  0-C ,  1-C ) :   1.0035 B(  0-C ,  7-H ) :   0.9636 B(  0-C ,  8-H ) :   0.9735
B(  0-C ,  9-H ) :   0.9766 B(  1-C ,  2-H ) :   0.9294 B(  1-C ,  3-H ) :   0.9355
B(  1-C ,  4-C ) :   0.9229 B(  4-C ,  5-O ) :   1.9018 B(  4-C ,  6-O ) :   1.8247

Dispersion correction           -0.008081358
FINAL SINGLE POINT ENERGY      -267.982066133200

DIPOLE MOMENT
-------------
                                X             Y             Z
Electronic contribution:      4.53577      -0.15101       4.02208
Nuclear contribution   :     -5.85873      -0.10793      -5.24103
                        -----------------------------------------
Total Dipole Moment    :     -1.32296      -0.25894      -1.21895
                        -----------------------------------------
Magnitude (a.u.)       :      1.81745
Magnitude (Debye)      :      4.61959

Rotational constants in cm-1:     0.292505     0.135951     0.110253
Rotational constants in MHz :  8769.065873  4075.717001  3305.311891

                             ****ORCA TERMINATED NORMALLY****
TOTAL RUN TIME: 0 days 0 hours 0 minutes 13 seconds 417 msec
