                         Program Version 5.0.0 -  RELEASE  -
|  1> !TPSS D3BJ RIJCOSX def2-TZVP def2/J TightSCF
|  2>
|  3> *xyz 1 1
|  4> C          3.34350        3.35457       -3.59200
|  5> C          2.95263        1.86308       -3.57485
|  6> C          4.25587        3.70385       -4.72605
|  7> N          3.73403        4.29378       -5.80077
|  8> N          5.51504        3.40725       -4.63718
|  9> H          6.14919        3.60120       -5.39905
| 10> H          5.81358        2.89950       -3.80879
| 11> H          2.74138        4.51311       -5.82470
| 12> H          4.28755        4.52126       -6.61434
| 13> H          3.86125        3.59725       -2.66298
| 14> H          2.44649        3.97346       -3.65656
| 15> H          2.44395        1.61721       -4.48352
| 16> H          2.30781        1.67290       -2.74242
| 17> H          3.83491        1.26414       -3.48670
| 18> *
| 19> %MaxCore 64000
| 20>
| 21> %pal nprocs 4
| 22> end
| 23>
| 24> %scf
| 25>   MaxIter 150
| 26> end
| 27>
| 28>
| 29>                          ****END OF INPUT****

CARTESIAN COORDINATES (ANGSTROEM)
---------------------------------
  C      3.343500    3.354570   -3.592000
  C      2.952630    1.863080   -3.574850
  C      4.255870    3.703850   -4.726050
  N      3.734030    4.293780   -5.800770
  N      5.515040    3.407250   -4.637180
  H      6.149190    3.601200   -5.399050
  H      5.813580    2.899500   -3.808790
  H      2.741380    4.513110   -5.824700
  H      4.287550    4.521260   -6.614340
  H      3.861250    3.597250   -2.662980
  H      2.446490    3.973460   -3.656560
  H      2.443950    1.617210   -4.483520
  H      2.307810    1.672900   -2.742420
  H      3.834910    1.264140   -3.486700

 Total Charge           Charge          ....    1
 Multiplicity           Mult            ....    1
 Number of Electrons    NEL             ....   40
 Basis Dimension        Dim             ....  209

ORBITAL ENERGIES
----------------

  NO   OCC          E(Eh)            E(eV)
   0   2.0000     -14.348600      -390.4453
   1   2.0000     -14.344438      -390.3320
   2   2.0000     -10.295750      -280.1616
   3   2.0000     -10.183747      -277.1138
   4   2.0000     -10.141386      -275.9611
   5   2.0000      -1.138600       -30.9829
   6   2.0000      -1.050351       -28.5815
   7   2.0000      -0.911793       -24.8112
   8   2.0000      -0.810292       -22.0492
   9   2.0000      -0.766668       -20.8621
  10   2.0000      -0.730353       -19.8739
  11   2.0000      -0.706260       -19.2183
  12   2.0000      -0.659538       -17.9469
  13   2.0000      -0.604712       -16.4551
  14   2.0000      -0.583935       -15.8897
  15   2.0000      -0.571201       -15.5432
  16   2.0000      -0.506806       -13.7909
  17   2.0000      -0.499816       -13.6007
  18   2.0000      -0.493335       -13.4243
  19   2.0000      -0.455702       -12.4003
  20   0.0000      -0.234013        -6.3678
  21   0.0000      -0.173786        -4.7290
  22   0.0000      -0.128449        -3.4953
  23   0.0000      -0.125828        -3.4240
  24   0.0000      -0.100202        -2.7266

MULLIKEN ATOMIC CHARGES
-----------------------
   0 C :   -0.236969
   1 C :   -0.320139
   2 C :    0.282913
   3 N :   -0.342101
   4 N :   -0.298168
   5 H :    0.283045
   6 H :    0.302472
   7 H :    0.301418
   8 H :    0.281884
   9 H :    0.162163
  10 H :    0.142534
  11 H :    0.139037
  12 H :    0.173005
  13 H :    0.128905
Sum of atomic charges:    1.0000000

LOEWDIN ATOMIC CHARGES
----------------------
   0 C :   -0.215727
   1 C :   -0.250702
   2 C :   -0.304189
   3 N :    0.110415
   4 N :    0.136188
   5 H :    0.200764
   6 H :    0.215549
   7 H :    0.208322
   8 H :    0.193527
   9 H :    0.163068
  10 H :    0.157630
  11 H :    0.126408
  12 H :    0.136916
  13 H :    0.121833

  Mayer bond orders larger than 0.100000
B(  0-C ,  1-C ) :   1.0028 B(  0-C ,  2-C ) :   1.0138 B(  0-C ,  9-H ) :   0.9331
B(  0-C , 10-H ) :   0.9416 B(  1-C , 11-H ) :   0.9583 B(  1-C , 12-H ) :   0.9544
B(  1-C , 13-H ) :   0.9633 B(  2-C ,  3-N ) :   1.4541 B(  2-C ,  4-N ) :   1.4931
B(  3-N ,  7-H ) :   0.8789 B(  3-N ,  8-H ) :   0.8843 B(  4-N ,  5-H ) :   0.8819
B(  4-N ,  6-H ) :   0.8763

Dispersion correction           -0.012436221
FINAL SINGLE POINT ENERGY      -229.163473348645

DIPOLE MOMENT
-------------
                                X             Y             Z
Electronic contribution:      2.38111       2.57444      -2.29731
Nuclear contribution   :     -1.74195      -2.09431       1.58516
                        -----------------------------------------
Total Dipole Moment    :      0.63917       0.48013      -0.71215
                        -----------------------------------------
Magnitude (a.u.)       :      1.07062
Magnitude (Debye)      :      2.72129

Rotational constants in cm-1:     0.258965     0.126500     0.098780
Rotational constants in MHz :  7763.584551  3792.383135  2961.336502

                             ****ORCA TERMINATED NORMALLY****
TOTAL RUN TIME: 0 days 0 hours 0 minutes 14 seconds 692 msec
