                         Program Version 5.0.0 -  RELEASE  -
|  1> !TPSS D3BJ RIJCOSX def2-TZVP def2/J TightSCF
|  2>
|  3> *xyz 0 1
|  4> C          2.95263        1.86308       -3.57485
|  5> C          4.12921        0.89839       -3.41895
|  6> H          3.73369       -0.10060       -3.23763
|  7> H          4.71910        0.86256       -4.33901
|  8> C          5.01734        1.31521       -2.22130
|  9> F          4.73706        0.85411       -1.12283
| 10> O          5.92815        2.16811       -2.49136
| 11> H          2.35067        1.56005       -4.40594
| 12> H          3.32277        2.85258       -3.74453
| 13> H          2.36134        1.85149       -2.68315
| 14> *
| 15> %MaxCore 64000
| 16>
| 17> %pal nprocs 4
| 18> end
| 19>
| 20> %scf
| 21>   MaxIter 150
| 22> end
| 23>
| 24>
| 25>                          ****END OF INPUT****

CARTESIAN COORDINATES (ANGSTROEM)
---------------------------------
  C      2.952630    1.863080   -3.574850
  C      4.129210    0.898390   -3.418950
  H      3.733690   -0.100600   -3.237630
  H      4.719100    0.862560   -4.339010
  C      5.017340    1.315210   -2.221300
  F      4.737060    0.854110   -1.122830
  O      5.928150    2.168110   -2.491360
  H      2.350670    1.560050   -4.405940
  H      3.322770    2.852580   -3.744530
  H      2.361340    1.851490   -2.683150

 Total Charge           Charge          ....    0
 Multiplicity           Mult            ....    1
 Number of Electrons    NEL             ....   40
 Basis Dimension        Dim             ....  185

ORBITAL ENERGIES
----------------

  NO   OCC          E(Eh)            E(eV)
   0   2.0000     -24.488485      -666.3656
   1   2.0000     -18.880660      -513.7689
   2   2.0000     -10.151281      -276.2304
   3   2.0000     -10.013717      -272.4871
   4   2.0000      -9.992310      -271.9046
   5   2.0000      -1.261200       -34.3190
   6   2.0000      -0.947934       -25.7946
   7   2.0000      -0.742421       -20.2023
   8   2.0000      -0.635421       -17.2907
   9   2.0000      -0.592755       -16.1297
  10   2.0000      -0.504730       -13.7344
  11   2.0000      -0.490775       -13.3547
  12   2.0000      -0.455883       -12.4052
  13   2.0000      -0.421929       -11.4813
  14   2.0000      -0.390518       -10.6265
  15   2.0000      -0.358097        -9.7443
  16   2.0000      -0.337819        -9.1925
  17   2.0000      -0.331177        -9.0118
  18   2.0000      -0.302559        -8.2330
  19   2.0000      -0.237496        -6.4626
  20   0.0000      -0.058435        -1.5901
  21   0.0000       0.024041         0.6542
  22   0.0000       0.063210         1.7200
  23   0.0000       0.077000         2.0953
  24   0.0000       0.089566         2.4372

MULLIKEN ATOMIC CHARGES
-----------------------
   0 C :   -0.356669
   1 C :   -0.175784
   2 H :    0.095153
   3 H :    0.123563
   4 C :    0.322753
   5 F :   -0.049765
   6 O :   -0.332507
   7 H :    0.124060
   8 H :    0.133394
   9 H :    0.115802
Sum of atomic charges:   -0.0000000

LOEWDIN ATOMIC CHARGES
----------------------
   0 C :   -0.283617
   1 C :   -0.255220
   2 H :    0.133907
   3 H :    0.146709
   4 C :   -0.529809
   5 F :    0.385981
   6 O :    0.045281
   7 H :    0.118326
   8 H :    0.121651
   9 H :    0.116792

  Mayer bond orders larger than 0.100000
B(  0-C ,  1-C ) :   1.0020 B(  0-C ,  7-H ) :   0.9618 B(  0-C ,  8-H ) :   0.9684
B(  0-C ,  9-H ) :   0.9696 B(  1-C ,  2-H ) :   0.9358 B(  1-C ,  3-H ) :   0.9449
B(  1-C ,  4-C ) :   1.0028 B(  4-C ,  5-F ) :   1.2052 B(  4-C ,  6-O ) :   2.0361

Dispersion correction           -0.007641014
FINAL SINGLE POINT ENERGY      -292.546462019551

DIPOLE MOMENT
-------------
                                X             Y             Z
Electronic contribution:      5.09688      -1.14688       6.55387
Nuclear contribution   :     -6.06116       0.51860      -6.80802
                        -----------------------------------------
Total Dipole Moment    :     -0.96428      -0.62828      -0.25415
                        -----------------------------------------
Magnitude (a.u.)       :      1.17863
Magnitude (Debye)      :      2.99584

Rotational constants in cm-1:     0.276196     0.132056     0.105465
Rotational constants in MHz :  8280.156449  3958.940601  3161.775929

                             ****ORCA TERMINATED NORMALLY****
TOTAL RUN TIME: 0 days 0 hours 0 minutes 11 seconds 117 msec
