                         Program Version 5.0.0 -  RELEASE  -
|  1> !TPSS D3BJ RIJCOSX def2-TZVP def2/J TightSCF
|  2>
|  3> *xyz 0 1
|  4> C          3.34350        3.35457       -3.59200
|  5> C          2.95263        1.86308       -3.57485
|  6> C          4.25587        3.70385       -4.72605
|  7> C          3.73403        4.29378       -5.80077
|  8> N          5.51504        3.40725       -4.63718
|  9> H          6.14919        3.60120       -5.39905
| 10> H          5.81358        2.89950       -3.80879
| 11> H          2.74138        4.51311       -5.82470
| 12> H          4.28755        4.52126       -6.61434
| 13> H          3.86125        3.59725       -2.66298
| 14> H          2.44649        3.97346       -3.65656
| 15> H          2.44395        1.61721       -4.48352
| 16> H          2.30781        1.67290       -2.74242
| 17> H          3.83491        1.26414       -3.48670
| 18> *
| 19> %MaxCore 64000
| 20>
| 21> %pal nprocs 4
| 22> end
| 23>
| 24> %scf
| 25>   MaxIter 150
| 26> end
| 27>
| 28>
| 29>                          ****END OF INPUT****

CARTESIAN COORDINATES (ANGSTROEM)
---------------------------------
  C      3.343500    3.354570   -3.592000
  C      2.952630    1.863080   -3.574850
  C      4.255870    3.703850   -4.726050
  C      3.734030    4.293780   -5.800770
  N      5.515040    3.407250   -4.637180
  H      6.149190    3.601200   -5.399050
  H      5.813580    2.899500   -3.808790
  H      2.741380    4.513110   -5.824700
  H      4.287550    4.521260   -6.614340
  H      3.861250    3.597250   -2.662980
  H      2.446490    3.973460   -3.656560
  H      2.443950    1.617210   -4.483520
  H      2.307810    1.672900   -2.742420
  H      3.834910    1.264140   -3.486700

 Total Charge           Charge          ....    0
 Multiplicity           Mult            ....    1
 Number of Electrons    NEL             ....   40
 Basis Dimension        Dim             ....  209

ORBITAL ENERGIES
----------------

  NO   OCC          E(Eh)            E(eV)
   0   2.0000     -14.103776      -383.7833
   1   2.0000      -9.995968      -272.0041
   2   2.0000      -9.983384      -271.6617
   3   2.0000      -9.970526      -271.3118
   4   2.0000      -9.913256      -269.7534
   5   2.0000      -0.873158       -23.7598
   6   2.0000      -0.720258       -19.5992
   7   2.0000      -0.657420       -17.8893
   8   2.0000      -0.585227       -15.9248
   9   2.0000      -0.521414       -14.1884
  10   2.0000      -0.487908       -13.2767
  11   2.0000      -0.434133       -11.8134
  12   2.0000      -0.396723       -10.7954
  13   2.0000      -0.378485       -10.2991
  14   2.0000      -0.351085        -9.5535
  15   2.0000      -0.342324        -9.3151
  16   2.0000      -0.317635        -8.6433
  17   2.0000      -0.295371        -8.0375
  18   2.0000      -0.291220        -7.9245
  19   2.0000      -0.155166        -4.2223
  20   0.0000       0.011523         0.3136
  21   0.0000       0.028091         0.7644
  22   0.0000       0.055963         1.5228
  23   0.0000       0.067334         1.8322
  24   0.0000       0.077456         2.1077

MULLIKEN ATOMIC CHARGES
-----------------------
   0 C :   -0.189358
   1 C :   -0.310402
   2 C :    0.187124
   3 C :   -0.413353
   4 N :   -0.432828
   5 H :    0.231664
   6 H :    0.230942
   7 H :    0.101252
   8 H :    0.083853
   9 H :    0.081304
  10 H :    0.105251
  11 H :    0.117745
  12 H :    0.112475
  13 H :    0.094330
Sum of atomic charges:   -0.0000000

LOEWDIN ATOMIC CHARGES
----------------------
   0 C :   -0.234002
   1 C :   -0.285827
   2 C :   -0.381744
   3 C :   -0.277706
   4 N :    0.022223
   5 H :    0.174421
   6 H :    0.174311
   7 H :    0.103127
   8 H :    0.091434
   9 H :    0.131531
  10 H :    0.144639
  11 H :    0.116746
  12 H :    0.111789
  13 H :    0.109059

  Mayer bond orders larger than 0.100000
B(  0-C ,  1-C ) :   1.0019 B(  0-C ,  2-C ) :   1.0001 B(  0-C ,  9-H ) :   0.9484
B(  0-C , 10-H ) :   0.9580 B(  1-C , 11-H ) :   0.9727 B(  1-C , 12-H ) :   0.9655
B(  1-C , 13-H ) :   0.9700 B(  2-C ,  3-C ) :   1.7692 B(  2-C ,  4-N ) :   1.2111
B(  3-C ,  7-H ) :   0.9767 B(  3-C ,  8-H ) :   0.9726 B(  4-N ,  5-H ) :   0.9082
B(  4-N ,  6-H ) :   0.9153

Dispersion correction           -0.012939304
FINAL SINGLE POINT ENERGY      -212.686103620695

DIPOLE MOMENT
-------------
                                X             Y             Z
Electronic contribution:      2.37612       1.47237      -0.86073
Nuclear contribution   :     -1.79713      -1.86925       1.28073
                        -----------------------------------------
Total Dipole Moment    :      0.57899      -0.39688       0.42000
                        -----------------------------------------
Magnitude (a.u.)       :      0.81801
Magnitude (Debye)      :      2.07922

Rotational constants in cm-1:     0.269040     0.129645     0.102087
Rotational constants in MHz :  8065.609820  3886.645139  3060.489045

                             ****ORCA TERMINATED NORMALLY****
TOTAL RUN TIME: 0 days 0 hours 0 minutes 11 seconds 169 msec
