                         Program Version 5.0.0 -  RELEASE  -
|  1> !TPSS D3BJ RIJCOSX def2-TZVP def2/J TightSCF
|  2>
|  3> *xyz 0 1
|  4> C          2.95263        1.86308       -3.57485
|  5> C          4.12921        0.89839       -3.41895
|  6> H          3.73369       -0.10060       -3.23763
|  7> H          4.71910        0.86256       -4.33901
|  8> C          5.01734        1.31521       -2.22130
|  9> O          4.73706        0.85411       -1.12283
| 10> F          5.92815        2.16811       -2.49136
| 11> H          2.35067        1.56005       -4.40594
| 12> H          3.32277        2.85258       -3.74453
| 13> H          2.36134        1.85149       -2.68315
| 14> *
| 15> %MaxCore 64000
| 16>
| 17> %pal nprocs 4
| 18> end
| 19>
| 20> %scf
| 21>   MaxIter 150
| 22> end
| 23>
| 24>
| 25>                          ****END OF INPUT****

CARTESIAN COORDINATES (ANGSTROEM)
---------------------------------
  C      2.952630    1.863080   -3.574850
  C      4.129210    0.898390   -3.418950
  H      3.733690   -0.100600   -3.237630
  H      4.719100    0.862560   -4.339010
  C      5.017340    1.315210   -2.221300
  O      4.737060    0.854110   -1.122830
  F      5.928150    2.168110   -2.491360
  H      2.350670    1.560050   -4.405940
  H      3.322770    2.852580   -3.744530
  H      2.361340    1.851490   -2.683150

 Total Charge           Charge          ....    0
 Multiplicity           Mult            ....    1
 Number of Electrons    NEL             ....   40
 Basis Dimension        Dim             ....  185

ORBITAL ENERGIES
----------------

  NO   OCC          E(Eh)            E(eV)
   0   2.0000     -24.467920      -665.8060
   1   2.0000     -18.889673      -514.0141
   2   2.0000     -10.147086      -276.1162
   3   2.0000     -10.013513      -272.4815
   4   2.0000      -9.992696      -271.9151
   5   2.0000      -1.221892       -33.2494
   6   2.0000      -0.980467       -26.6799
   7   2.0000      -0.742419       -20.2022
   8   2.0000      -0.627027       -17.0623
   9   2.0000      -0.579213       -15.7612
  10   2.0000      -0.487529       -13.2663
  11   2.0000      -0.471833       -12.8392
  12   2.0000      -0.453610       -12.3433
  13   2.0000      -0.420269       -11.4361
  14   2.0000      -0.392361       -10.6767
  15   2.0000      -0.359718        -9.7884
  16   2.0000      -0.343471        -9.3463
  17   2.0000      -0.333118        -9.0646
  18   2.0000      -0.318894        -8.6775
  19   2.0000      -0.249493        -6.7891
  20   0.0000      -0.053536        -1.4568
  21   0.0000       0.024127         0.6565
  22   0.0000       0.063096         1.7169
  23   0.0000       0.077190         2.1005
  24   0.0000       0.089520         2.4360

MULLIKEN ATOMIC CHARGES
-----------------------
   0 C :   -0.358709
   1 C :   -0.179322
   2 H :    0.117806
   3 H :    0.102952
   4 C :    0.310101
   5 O :   -0.271353
   6 F :   -0.095682
   7 H :    0.124502
   8 H :    0.117938
   9 H :    0.131767
Sum of atomic charges:    0.0000000

LOEWDIN ATOMIC CHARGES
----------------------
   0 C :   -0.283901
   1 C :   -0.253768
   2 H :    0.146067
   3 H :    0.135356
   4 C :   -0.519299
   5 O :    0.118190
   6 F :    0.300420
   7 H :    0.118439
   8 H :    0.117154
   9 H :    0.121342

  Mayer bond orders larger than 0.100000
B(  0-C ,  1-C ) :   1.0023 B(  0-C ,  7-H ) :   0.9621 B(  0-C ,  8-H ) :   0.9701
B(  0-C ,  9-H ) :   0.9687 B(  1-C ,  2-H ) :   0.9466 B(  1-C ,  3-H ) :   0.9361
B(  1-C ,  4-C ) :   1.0050 B(  4-C ,  5-O ) :   2.1047 B(  4-C ,  6-F ) :   1.1496

Dispersion correction           -0.007640549
FINAL SINGLE POINT ENERGY      -292.562255702693

DIPOLE MOMENT
-------------
                                X             Y             Z
Electronic contribution:      7.05646       1.01828       4.28552
Nuclear contribution   :     -7.35982      -0.91407      -5.31589
                        -----------------------------------------
Total Dipole Moment    :     -0.30335       0.10421      -1.03038
                        -----------------------------------------
Magnitude (a.u.)       :      1.07915
Magnitude (Debye)      :      2.74298

Rotational constants in cm-1:     0.275433     0.132201     0.105422
Rotational constants in MHz :  8257.268192  3963.279062  3160.465566

                             ****ORCA TERMINATED NORMALLY****
TOTAL RUN TIME: 0 days 0 hours 0 minutes 7 seconds 862 msec
