                         Program Version 5.0.0 -  RELEASE  -
|  1> !TPSS D3BJ RIJCOSX def2-TZVP def2/J TightSCF
|  2>
|  3> *xyz 0 1
|  4> C          3.34350        3.35457       -3.59200
|  5> C          2.95263        1.86308       -3.57485
|  6> C          4.25587        3.70385       -4.72605
|  7> N          3.73403        4.29378       -5.80077
|  8> C          5.51504        3.40725       -4.63718
|  9> H          6.14919        3.60120       -5.39905
| 10> H          5.81358        2.89950       -3.80879
| 11> H          2.74138        4.51311       -5.82470
| 12> H          4.28755        4.52126       -6.61434
| 13> H          3.86125        3.59725       -2.66298
| 14> H          2.44649        3.97346       -3.65656
| 15> H          2.44395        1.61721       -4.48352
| 16> H          2.30781        1.67290       -2.74242
| 17> H          3.83491        1.26414       -3.48670
| 18> *
| 19> %MaxCore 64000
| 20>
| 21> %pal nprocs 4
| 22> end
| 23>
| 24> %scf
| 25>   MaxIter 150
| 26> end
| 27>
| 28>
| 29>                          ****END OF INPUT****

CARTESIAN COORDINATES (ANGSTROEM)
---------------------------------
  C      3.343500    3.354570   -3.592000
  C      2.952630    1.863080   -3.574850
  C      4.255870    3.703850   -4.726050
  N      3.734030    4.293780   -5.800770
  C      5.515040    3.407250   -4.637180
  H      6.149190    3.601200   -5.399050
  H      5.813580    2.899500   -3.808790
  H      2.741380    4.513110   -5.824700
  H      4.287550    4.521260   -6.614340
  H      3.861250    3.597250   -2.662980
  H      2.446490    3.973460   -3.656560
  H      2.443950    1.617210   -4.483520
  H      2.307810    1.672900   -2.742420
  H      3.834910    1.264140   -3.486700

 Total Charge           Charge          ....    0
 Multiplicity           Mult            ....    1
 Number of Electrons    NEL             ....   40
 Basis Dimension        Dim             ....  209

ORBITAL ENERGIES
----------------

  NO   OCC          E(Eh)            E(eV)
   0   2.0000     -14.099727      -383.6731
   1   2.0000      -9.993736      -271.9434
   2   2.0000      -9.983043      -271.6524
   3   2.0000      -9.968456      -271.2555
   4   2.0000      -9.911413      -269.7033
   5   2.0000      -0.858923       -23.3725
   6   2.0000      -0.722537       -19.6612
   7   2.0000      -0.661169       -17.9913
   8   2.0000      -0.586187       -15.9510
   9   2.0000      -0.515249       -14.0206
  10   2.0000      -0.475984       -12.9522
  11   2.0000      -0.437930       -11.9167
  12   2.0000      -0.397928       -10.8282
  13   2.0000      -0.371898       -10.1199
  14   2.0000      -0.351947        -9.5770
  15   2.0000      -0.342761        -9.3270
  16   2.0000      -0.313710        -8.5365
  17   2.0000      -0.299612        -8.1529
  18   2.0000      -0.286428        -7.7941
  19   2.0000      -0.158657        -4.3173
  20   0.0000       0.014573         0.3966
  21   0.0000       0.028623         0.7789
  22   0.0000       0.056770         1.5448
  23   0.0000       0.064526         1.7559
  24   0.0000       0.081568         2.2196

MULLIKEN ATOMIC CHARGES
-----------------------
   0 C :   -0.181735
   1 C :   -0.313364
   2 C :    0.217626
   3 N :   -0.473575
   4 C :   -0.399138
   5 H :    0.080882
   6 H :    0.103531
   7 H :    0.229082
   8 H :    0.229020
   9 H :    0.109006
  10 H :    0.070899
  11 H :    0.103168
  12 H :    0.108634
  13 H :    0.115961
Sum of atomic charges:   -0.0000000

LOEWDIN ATOMIC CHARGES
----------------------
   0 C :   -0.232481
   1 C :   -0.282968
   2 C :   -0.370491
   3 N :   -0.003354
   4 C :   -0.264703
   5 H :    0.097121
   6 H :    0.110339
   7 H :    0.166387
   8 H :    0.166623
   9 H :    0.145378
  10 H :    0.128971
  11 H :    0.113040
  12 H :    0.110338
  13 H :    0.115801

  Mayer bond orders larger than 0.100000
B(  0-C ,  1-C ) :   1.0083 B(  0-C ,  2-C ) :   0.9793 B(  0-C ,  9-H ) :   0.9633
B(  0-C , 10-H ) :   0.9482 B(  1-C , 11-H ) :   0.9723 B(  1-C , 12-H ) :   0.9647
B(  1-C , 13-H ) :   0.9710 B(  2-C ,  3-N ) :   1.1621 B(  2-C ,  4-C ) :   1.8049
B(  3-N ,  7-H ) :   0.9168 B(  3-N ,  8-H ) :   0.9106 B(  4-C ,  5-H ) :   0.9708
B(  4-C ,  6-H ) :   0.9767

Dispersion correction           -0.012951692
FINAL SINGLE POINT ENERGY      -212.686240278571

DIPOLE MOMENT
-------------
                                X             Y             Z
Electronic contribution:      0.76376       2.29089      -1.90148
Nuclear contribution   :     -1.38463      -2.07457       1.55023
                        -----------------------------------------
Total Dipole Moment    :     -0.62087       0.21632      -0.35125
                        -----------------------------------------
Magnitude (a.u.)       :      0.74542
Magnitude (Debye)      :      1.89470

Rotational constants in cm-1:     0.272312     0.128195     0.101724
Rotational constants in MHz :  8163.717141  3843.180148  3049.598073

                             ****ORCA TERMINATED NORMALLY****
TOTAL RUN TIME: 0 days 0 hours 0 minutes 10 seconds 714 msec
