                         Program Version 5.0.0 -  RELEASE  -
|  1> !TPSS D3BJ RIJCOSX def2-TZVP def2/J TightSCF xyzfile
|  2>
|  3> *xyzfile 0 1 D1.xyz
|  4>
|  5> %MaxCore 64000
|  6>
|  7> %pal nprocs 18
|  8> end
|  9>
| 10> %scf
| 11>   MaxIter 150
| 12> end
| 13>
| 14>
| 15>                          ****END OF INPUT****

CARTESIAN COORDINATES (ANGSTROEM)
---------------------------------
  C      3.343500    3.354571   -3.591998
  C      2.952633    1.863077   -3.574849
  C      4.129209    0.898394   -3.418950
  H      3.733687   -0.100605   -3.237633
  H      4.719095    0.862556   -4.339005
  C      5.017344    1.315212   -2.221305
  C      4.255868    3.703851   -4.726054
  C      3.734032    4.293783   -5.800770
  N      5.515039    3.407255   -4.637185
  H      6.149187    3.601203   -5.399053
  H      5.813584    2.899504   -3.808785
  H      2.741380    4.513109   -5.824701
  H      4.287548    4.521260   -6.614341
  H      2.278938    1.735250   -2.725496
  H      2.377466    1.625787   -4.475869
  F      4.737055    0.854112   -1.122825
  O      5.928146    2.168108   -2.491365
  H      3.861246    3.597252   -2.662979
  H      2.446493    3.973461   -3.656556

 Total Charge           Charge          ....    0
 Multiplicity           Mult            ....    1
 Number of Electrons    NEL             ....   70
 Basis Dimension        Dim             ....  339

ORBITAL ENERGIES
----------------

  NO   OCC          E(Eh)            E(eV)
   0   2.0000     -24.511149      -666.9823
   1   2.0000     -18.911090      -514.5969
   2   2.0000     -14.067079      -382.7847
   3   2.0000     -10.179572      -277.0002
   4   2.0000     -10.023596      -272.7559
   5   2.0000     -10.006842      -272.3000
   6   2.0000      -9.986381      -271.7432
   7   2.0000      -9.986163      -271.7373
   8   2.0000      -9.903642      -269.4918
   9   2.0000      -1.283026       -34.9129
  10   2.0000      -0.987488       -26.8709
  11   2.0000      -0.851826       -23.1794
  12   2.0000      -0.763450       -20.7745
  13   2.0000      -0.693698       -18.8765
  14   2.0000      -0.652049       -17.7432
  15   2.0000      -0.622552       -16.9405
  16   2.0000      -0.578963       -15.7544
  17   2.0000      -0.527147       -14.3444
  18   2.0000      -0.519987       -14.1496
  19   2.0000      -0.499890       -13.6027
  20   2.0000      -0.494380       -13.4528
  21   2.0000      -0.459868       -12.5136
  22   2.0000      -0.439156       -11.9500
  23   2.0000      -0.415917       -11.3177
  24   2.0000      -0.399804       -10.8792
  25   2.0000      -0.383852       -10.4451
  26   2.0000      -0.352441        -9.5904
  27   2.0000      -0.345498        -9.4015
  28   2.0000      -0.334632        -9.1058
  29   2.0000      -0.332270        -9.0415
  30   2.0000      -0.320607        -8.7241
  31   2.0000      -0.289879        -7.8880
  32   2.0000      -0.282205        -7.6792
  33   2.0000      -0.262019        -7.1299
  34   2.0000      -0.141970        -3.8632
  35   0.0000      -0.085372        -2.3231
  36   0.0000       0.016236         0.4418
  37   0.0000       0.034125         0.9286
  38   0.0000       0.052695         1.4339
  39   0.0000       0.055113         1.4997

MULLIKEN ATOMIC CHARGES
-----------------------
   0 C :   -0.245622
   1 C :   -0.138628
   2 C :   -0.248016
   3 H :    0.112621
   4 H :    0.149900
   5 C :    0.345420
   6 C :    0.171283
   7 C :   -0.422838
   8 N :   -0.443355
   9 H :    0.210270
  10 H :    0.262940
  11 H :    0.091565
  12 H :    0.082055
  13 H :    0.094518
  14 H :    0.106444
  15 F :   -0.035501
  16 O :   -0.324494
  17 H :    0.121708
  18 H :    0.109733
Sum of atomic charges:    0.0000000

LOEWDIN ATOMIC CHARGES
----------------------
   0 C :   -0.208800
   1 C :   -0.241557
   2 C :   -0.229254
   3 H :    0.140525
   4 H :    0.154129
   5 C :   -0.499533
   6 C :   -0.382858
   7 C :   -0.291109
   8 N :    0.026926
   9 H :    0.165504
  10 H :    0.130351
  11 H :    0.099265
  12 H :    0.090918
  13 H :    0.135818
  14 H :    0.143829
  15 F :    0.400531
  16 O :    0.076395
  17 H :    0.140008
  18 H :    0.148913

  Mayer bond orders larger than 0.100000
B(  0-C ,  1-C ) :   0.9992 B(  0-C ,  6-C ) :   0.9845 B(  0-C , 17-H ) :   0.9574
B(  0-C , 18-H ) :   0.9451 B(  1-C ,  2-C ) :   1.0149 B(  1-C , 13-H ) :   0.9448
B(  1-C , 14-H ) :   0.9354 B(  2-C ,  3-H ) :   0.9328 B(  2-C ,  4-H ) :   0.9306
B(  2-C ,  5-C ) :   1.0253 B(  5-C , 15-F ) :   1.2342 B(  5-C , 16-O ) :   1.8682
B(  6-C ,  7-C ) :   1.7530 B(  6-C ,  8-N ) :   1.2460 B(  7-C ,  8-N ) :   0.1014
B(  7-C , 11-H ) :   0.9737 B(  7-C , 12-H ) :   0.9738 B(  8-N ,  9-H ) :   0.9155
B(  8-N , 10-H ) :   0.8242 B( 10-H , 16-O ) :   0.1445

Dispersion correction           -0.023497205
FINAL SINGLE POINT ENERGY      -464.690876662085

DIPOLE MOMENT
-------------
                                X             Y             Z
Electronic contribution:      5.60462      -5.92332      10.57221
Nuclear contribution   :     -5.86483       4.68058     -10.07545
                        -----------------------------------------
Total Dipole Moment    :     -0.26021      -1.24274       0.49677
                        -----------------------------------------
Magnitude (a.u.)       :      1.36341
Magnitude (Debye)      :      3.46552

Rotational constants in cm-1:     0.107256     0.035474     0.030113
Rotational constants in MHz :  3215.453922  1063.481574   902.777619

                             ****ORCA TERMINATED NORMALLY****
TOTAL RUN TIME: 0 days 0 hours 0 minutes 10 seconds 937 msec
