                         Program Version 5.0.0 -  RELEASE  -
|  1> !TPSS D3BJ RIJCOSX def2-TZVP def2/J TightSCF xyzfile
|  2>
|  3> *xyzfile 0 1 D2.xyz
|  4>
|  5> %MaxCore 64000
|  6>
|  7> %pal nprocs 18
|  8> end
|  9>
| 10> %scf
| 11>   MaxIter 150
| 12> end
| 13>
| 14>
| 15>                          ****END OF INPUT****

CARTESIAN COORDINATES (ANGSTROEM)
---------------------------------
  C      3.343500    3.354571   -3.591998
  C      2.952633    1.863077   -3.574849
  C      4.129209    0.898394   -3.418950
  H      3.733687   -0.100605   -3.237633
  H      4.719095    0.862556   -4.339005
  C      5.017344    1.315212   -2.221305
  C      4.255868    3.703851   -4.726054
  N      3.734032    4.293783   -5.800770
  C      5.515039    3.407255   -4.637185
  H      6.149187    3.601203   -5.399053
  H      5.813584    2.899504   -3.808785
  H      2.741380    4.513109   -5.824701
  H      4.287548    4.521260   -6.614341
  H      2.278938    1.735250   -2.725496
  H      2.377466    1.625787   -4.475869
  F      4.737055    0.854112   -1.122825
  O      5.928146    2.168108   -2.491365
  H      3.861246    3.597252   -2.662979
  H      2.446493    3.973461   -3.656556

 Total Charge           Charge          ....    0
 Multiplicity           Mult            ....    1
 Number of Electrons    NEL             ....   70
 Basis Dimension        Dim             ....  339

ORBITAL ENERGIES
----------------

  NO   OCC          E(Eh)            E(eV)
   0   2.0000     -24.491613      -666.4507
   1   2.0000     -18.883780      -513.8538
   2   2.0000     -14.090537      -383.4230
   3   2.0000     -10.156564      -276.3741
   4   2.0000     -10.010276      -272.3935
   5   2.0000     -10.002622      -272.1852
   6   2.0000      -9.985662      -271.7237
   7   2.0000      -9.982328      -271.6329
   8   2.0000      -9.881897      -268.9001
   9   2.0000      -1.264179       -34.4001
  10   2.0000      -0.961169       -26.1547
  11   2.0000      -0.850605       -23.1461
  12   2.0000      -0.756695       -20.5907
  13   2.0000      -0.691293       -18.8110
  14   2.0000      -0.644229       -17.5304
  15   2.0000      -0.618515       -16.8307
  16   2.0000      -0.568273       -15.4635
  17   2.0000      -0.519124       -14.1261
  18   2.0000      -0.504647       -13.7321
  19   2.0000      -0.488903       -13.3037
  20   2.0000      -0.479452       -13.0465
  21   2.0000      -0.451795       -12.2940
  22   2.0000      -0.433731       -11.8024
  23   2.0000      -0.420327       -11.4377
  24   2.0000      -0.399631       -10.8745
  25   2.0000      -0.370685       -10.0869
  26   2.0000      -0.350444        -9.5361
  27   2.0000      -0.347925        -9.4675
  28   2.0000      -0.322651        -8.7798
  29   2.0000      -0.314332        -8.5534
  30   2.0000      -0.308139        -8.3849
  31   2.0000      -0.285377        -7.7655
  32   2.0000      -0.278640        -7.5822
  33   2.0000      -0.223200        -6.0736
  34   2.0000      -0.146751        -3.9933
  35   0.0000      -0.065204        -1.7743
  36   0.0000       0.014531         0.3954
  37   0.0000       0.032348         0.8802
  38   0.0000       0.042534         1.1574
  39   0.0000       0.057656         1.5689

MULLIKEN ATOMIC CHARGES
-----------------------
   0 C :   -0.247328
   1 C :   -0.132063
   2 C :   -0.248473
   3 H :    0.102466
   4 H :    0.156249
   5 C :    0.313722
   6 C :    0.202869
   7 N :   -0.480772
   8 C :   -0.456227
   9 H :    0.063268
  10 H :    0.202646
  11 H :    0.219788
  12 H :    0.227406
  13 H :    0.095493
  14 H :    0.093962
  15 F :   -0.043710
  16 O :   -0.289366
  17 H :    0.141716
  18 H :    0.078356
Sum of atomic charges:    0.0000000

LOEWDIN ATOMIC CHARGES
----------------------
   0 C :   -0.210736
   1 C :   -0.242973
   2 C :   -0.229485
   3 H :    0.137642
   4 H :    0.155552
   5 C :   -0.513416
   6 C :   -0.379724
   7 N :   -0.012147
   8 C :   -0.250526
   9 H :    0.092413
  10 H :    0.086367
  11 H :    0.161223
  12 H :    0.165109
  13 H :    0.135332
  14 H :    0.138973
  15 F :    0.390429
  16 O :    0.091364
  17 H :    0.151255
  18 H :    0.133349

  Mayer bond orders larger than 0.100000
B(  0-C ,  1-C ) :   0.9993 B(  0-C ,  6-C ) :   0.9903 B(  0-C , 17-H ) :   0.9703
B(  0-C , 18-H ) :   0.9375 B(  1-C ,  2-C ) :   1.0200 B(  1-C , 13-H ) :   0.9478
B(  1-C , 14-H ) :   0.9348 B(  2-C ,  3-H ) :   0.9316 B(  2-C ,  4-H ) :   0.9330
B(  2-C ,  5-C ) :   1.0247 B(  5-C , 15-F ) :   1.2151 B(  5-C , 16-O ) :   1.9394
B(  6-C ,  7-N ) :   1.1308 B(  6-C ,  8-C ) :   1.7556 B(  7-N , 11-H ) :   0.9189
B(  7-N , 12-H ) :   0.9126 B(  8-C ,  9-H ) :   0.9699 B(  8-C , 10-H ) :   0.9313
B( 10-H , 16-O ) :   0.1003

Dispersion correction           -0.023637212
FINAL SINGLE POINT ENERGY      -464.666018500700

DIPOLE MOMENT
-------------
                                X             Y             Z
Electronic contribution:      4.32371      -5.07309       9.54303
Nuclear contribution   :     -5.64491       4.57111      -9.93176
                        -----------------------------------------
Total Dipole Moment    :     -1.32120      -0.50198      -0.38874
                        -----------------------------------------
Magnitude (a.u.)       :      1.46583
Magnitude (Debye)      :      3.72585

Rotational constants in cm-1:     0.109825     0.034347     0.029470
Rotational constants in MHz :  3292.465653  1029.684117   883.494260

                             ****ORCA TERMINATED NORMALLY****
TOTAL RUN TIME: 0 days 0 hours 0 minutes 10 seconds 855 msec
