                         Program Version 5.0.0 -  RELEASE  -
|  1> !TPSS D3BJ RIJCOSX def2-TZVP def2/J TightSCF xyzfile
|  2>
|  3> *xyzfile 0 1 D3.xyz
|  4>
|  5> %MaxCore 64000
|  6>
|  7> %pal nprocs 18
|  8> end
|  9>
| 10> %scf
| 11>   MaxIter 150
| 12> end
| 13>
| 14>
| 15>                          ****END OF INPUT****

CARTESIAN COORDINATES (ANGSTROEM)
---------------------------------
  C      3.343500    3.354571   -3.591998
  C      2.952633    1.863077   -3.574849
  C      4.129209    0.898394   -3.418950
  H      3.733687   -0.100605   -3.237633
  H      4.719095    0.862556   -4.339005
  C      5.017344    1.315212   -2.221305
  C      4.255868    3.703851   -4.726054
  C      3.734032    4.293783   -5.800770
  N      5.515039    3.407255   -4.637185
  H      6.149187    3.601203   -5.399053
  H      5.813584    2.899504   -3.808785
  H      2.741380    4.513109   -5.824701
  H      4.287548    4.521260   -6.614341
  H      2.278938    1.735250   -2.725496
  H      2.377466    1.625787   -4.475869
  O      4.737055    0.854112   -1.122825
  F      5.928146    2.168108   -2.491365
  H      3.861246    3.597252   -2.662979
  H      2.446493    3.973461   -3.656556

 Total Charge           Charge          ....    0
 Multiplicity           Mult            ....    1
 Number of Electrons    NEL             ....   70
 Basis Dimension        Dim             ....  339

ORBITAL ENERGIES
----------------

  NO   OCC          E(Eh)            E(eV)
   0   2.0000     -24.500420      -666.6903
   1   2.0000     -18.907316      -514.4942
   2   2.0000     -14.093424      -383.5016
   3   2.0000     -10.165056      -276.6052
   4   2.0000     -10.020096      -272.6607
   5   2.0000     -10.005981      -272.2766
   6   2.0000      -9.999740      -272.1068
   7   2.0000      -9.994907      -271.9752
   8   2.0000      -9.916735      -269.8481
   9   2.0000      -1.259497       -34.2726
  10   2.0000      -0.997717       -27.1493
  11   2.0000      -0.873606       -23.7720
  12   2.0000      -0.763856       -20.7856
  13   2.0000      -0.699965       -19.0470
  14   2.0000      -0.659694       -17.9512
  15   2.0000      -0.623199       -16.9581
  16   2.0000      -0.586706       -15.9651
  17   2.0000      -0.534461       -14.5434
  18   2.0000      -0.516464       -14.0537
  19   2.0000      -0.500239       -13.6122
  20   2.0000      -0.478164       -13.0115
  21   2.0000      -0.457677       -12.4540
  22   2.0000      -0.439926       -11.9710
  23   2.0000      -0.426361       -11.6019
  24   2.0000      -0.403709       -10.9855
  25   2.0000      -0.378070       -10.2878
  26   2.0000      -0.362110        -9.8535
  27   2.0000      -0.353557        -9.6208
  28   2.0000      -0.346432        -9.4269
  29   2.0000      -0.338367        -9.2074
  30   2.0000      -0.323255        -8.7962
  31   2.0000      -0.298508        -8.1228
  32   2.0000      -0.294894        -8.0245
  33   2.0000      -0.264060        -7.1854
  34   2.0000      -0.157357        -4.2819
  35   0.0000      -0.071538        -1.9466
  36   0.0000       0.013642         0.3712
  37   0.0000       0.025704         0.6994
  38   0.0000       0.045717         1.2440
  39   0.0000       0.053553         1.4573

MULLIKEN ATOMIC CHARGES
-----------------------
   0 C :   -0.253301
   1 C :   -0.119943
   2 C :   -0.250497
   3 H :    0.125360
   4 H :    0.136039
   5 C :    0.302821
   6 C :    0.170172
   7 C :   -0.410393
   8 N :   -0.448249
   9 H :    0.222104
  10 H :    0.243601
  11 H :    0.097884
  12 H :    0.085801
  13 H :    0.103107
  14 H :    0.100914
  15 O :   -0.248084
  16 F :   -0.092843
  17 H :    0.121152
  18 H :    0.114357
Sum of atomic charges:    0.0000000

LOEWDIN ATOMIC CHARGES
----------------------
   0 C :   -0.208271
   1 C :   -0.239205
   2 C :   -0.229944
   3 H :    0.150345
   4 H :    0.143058
   5 C :   -0.514358
   6 C :   -0.382779
   7 C :   -0.276911
   8 N :    0.021065
   9 H :    0.170532
  10 H :    0.139623
  11 H :    0.102141
  12 H :    0.092242
  13 H :    0.140847
  14 H :    0.141970
  15 O :    0.135607
  16 F :    0.323996
  17 H :    0.139168
  18 H :    0.150875

  Mayer bond orders larger than 0.100000
B(  0-C ,  1-C ) :   1.0077 B(  0-C ,  6-C ) :   0.9840 B(  0-C , 17-H ) :   0.9581
B(  0-C , 18-H ) :   0.9455 B(  1-C ,  2-C ) :   1.0220 B(  1-C , 13-H ) :   0.9394
B(  1-C , 14-H ) :   0.9339 B(  2-C ,  3-H ) :   0.9374 B(  2-C ,  4-H ) :   0.9229
B(  2-C ,  5-C ) :   1.0087 B(  5-C , 15-O ) :   2.1302 B(  5-C , 16-F ) :   1.0548
B(  6-C ,  7-C ) :   1.7690 B(  6-C ,  8-N ) :   1.2139 B(  7-C , 11-H ) :   0.9737
B(  7-C , 12-H ) :   0.9725 B(  8-N ,  9-H ) :   0.9114 B(  8-N , 10-H ) :   0.8731

Dispersion correction           -0.023282824
FINAL SINGLE POINT ENERGY      -464.695413785944

DIPOLE MOMENT
-------------
                                X             Y             Z
Electronic contribution:      7.49741      -3.58429       8.09294
Nuclear contribution   :     -7.21688       3.18902      -8.52197
                        -----------------------------------------
Total Dipole Moment    :      0.28053      -0.39527      -0.42903
                        -----------------------------------------
Magnitude (a.u.)       :      0.64730
Magnitude (Debye)      :      1.64531

Rotational constants in cm-1:     0.103917     0.036987     0.030872
Rotational constants in MHz :  3115.342573  1108.839114   925.506342

                             ****ORCA TERMINATED NORMALLY****
TOTAL RUN TIME: 0 days 0 hours 0 minutes 10 seconds 418 msec
