                         Program Version 5.0.0 -  RELEASE  -
|  1> !BLYP D3BJ RIJCOSX def2-SVPD def2/J TightSCF
|  2> *xyz -1 1
|  3> C         -0.29041        0.95134       -5.15342
|  4> C         -0.05517        1.61942       -3.78858
|  5> H          0.04501        0.86230       -3.00301
|  6> H         -0.92294        2.23033       -3.51703
|  7> C          1.22302        2.46987       -3.75691
|  8> H          1.11470        3.25807       -4.53300
|  9> H          1.23773        3.01124       -2.79216
| 10> O          2.35381        1.71203       -3.93448
| 11> H         -0.38575        1.70447       -5.90748
| 12> H         -1.18723        0.36894       -5.11561
| 13> H          0.53806        0.31571       -5.38692
| 14> *
| 15>
| 16> %MaxCore 64000
| 17>
| 18> %pal nprocs 4
| 19> end
| 20>
| 21> %scf
| 22>   MaxIter 150
| 23> end
| 24>
| 25>
| 26>                          ****END OF INPUT****

CARTESIAN COORDINATES (ANGSTROEM)
---------------------------------
  C     -0.290410    0.951340   -5.153420
  C     -0.055170    1.619420   -3.788580
  H      0.045010    0.862300   -3.003010
  H     -0.922940    2.230330   -3.517030
  C      1.223020    2.469870   -3.756910
  H      1.114700    3.258070   -4.533000
  H      1.237730    3.011240   -2.792160
  O      2.353810    1.712030   -3.934480
  H     -0.385750    1.704470   -5.907480
  H     -1.187230    0.368940   -5.115610
  H      0.538060    0.315710   -5.386920

 Total Charge           Charge          ....   -1
 Multiplicity           Mult            ....    1
 Number of Electrons    NEL             ....   34
 Basis Dimension        Dim             ....  139

ORBITAL ENERGIES
----------------

  NO   OCC          E(Eh)            E(eV)
   0   2.0000     -18.473165      -502.6804
   1   2.0000      -9.742487      -265.1066
   2   2.0000      -9.740751      -265.0593
   3   2.0000      -9.732045      -264.8224
   4   2.0000      -0.592001       -16.1092
   5   2.0000      -0.499102       -13.5812
   6   2.0000      -0.393997       -10.7212
   7   2.0000      -0.301200        -8.1961
   8   2.0000      -0.221145        -6.0177
   9   2.0000      -0.215423        -5.8620
  10   2.0000      -0.172997        -4.7075
  11   2.0000      -0.142087        -3.8664
  12   2.0000      -0.117833        -3.2064
  13   2.0000      -0.110941        -3.0189
  14   2.0000      -0.069964        -1.9038
  15   2.0000       0.063962         1.7405
  16   2.0000       0.068206         1.8560
  17   0.0000       0.148645         4.0448
  18   0.0000       0.173503         4.7213
  19   0.0000       0.188127         5.1192
  20   0.0000       0.215025         5.8511
  21   0.0000       0.229495         6.2449

MULLIKEN ATOMIC CHARGES
-----------------------
   0 C :    0.961850
   1 C :   -0.291391
   2 H :   -0.176232
   3 H :   -0.196147
   4 C :    0.616023
   5 H :   -0.219877
   6 H :   -0.312249
   7 O :   -0.821622
   8 H :   -0.184974
   9 H :   -0.229770
  10 H :   -0.145611
Sum of atomic charges:   -1.0000000

LOEWDIN ATOMIC CHARGES
----------------------
   0 C :    0.102159
   1 C :   -0.103081
   2 H :   -0.005242
   3 H :   -0.026176
   4 C :   -0.218875
   5 H :   -0.038543
   6 H :   -0.045352
   7 O :   -0.523191
   8 H :   -0.044387
   9 H :   -0.057564
  10 H :   -0.039748

  Mayer bond orders larger than 0.100000
B(  0-C ,  1-C ) :   1.2452 B(  0-C ,  3-H ) :   0.1159 B(  0-C ,  8-H ) :   0.7473
B(  0-C ,  9-H ) :   0.7031 B(  0-C , 10-H ) :   0.7635 B(  1-C ,  2-H ) :   0.9191
B(  1-C ,  3-H ) :   0.9757 B(  1-C ,  4-C ) :   1.0292 B(  1-C ,  5-H ) :   0.1751
B(  1-C ,  6-H ) :   0.2009 B(  1-C ,  7-O ) :   0.2329 B(  1-C ,  8-H ) :   0.2417
B(  1-C ,  9-H ) :   0.2590 B(  1-C , 10-H ) :   0.2520 B(  2-H ,  4-C ) :   0.1762
B(  3-H ,  4-C ) :   0.1194 B(  4-C ,  5-H ) :   0.8952 B(  4-C ,  6-H ) :   0.8886
B(  4-C ,  7-O ) :   1.1540

Dispersion correction           -0.013552587
FINAL SINGLE POINT ENERGY      -193.535623352233

DIPOLE MOMENT
-------------
                                X             Y             Z
Electronic contribution:      3.05786      -0.07986       0.69634
Nuclear contribution   :     -4.97104      -0.06484      -1.04325
                        -----------------------------------------
Total Dipole Moment    :     -1.91318      -0.14469      -0.34691
                        -----------------------------------------
Magnitude (a.u.)       :      1.94976
Magnitude (Debye)      :      4.95589

Rotational constants in cm-1:     0.508668     0.174500     0.148765
Rotational constants in MHz : 15249.486055  5231.367342  4459.875680

                             ****ORCA TERMINATED NORMALLY****
TOTAL RUN TIME: 0 days 0 hours 0 minutes 4 seconds 523 msec
