                         Program Version 5.0.0 -  RELEASE  -
|  1> !BLYP D3BJ RIJCOSX def2-SVPD def2/J TightSCF
|  2> *xyz 1 1
|  3> C          1.63556       -1.67040       -5.29211
|  4> C          0.33848       -1.50091       -4.50540
|  5> N          2.48451       -0.50741       -5.14039
|  6> C         -0.68487       -0.52803       -5.09989
|  7> H          1.39834       -1.82924       -6.35259
|  8> H          2.15586       -2.56540       -4.93209
|  9> C          3.45115       -0.14953       -5.95259
| 10> N          3.92267        1.08956       -5.85071
| 11> N          3.96616       -1.00618       -6.86788
| 12> H          3.52139       -1.90647       -6.99527
| 13> H          4.44482       -0.62347       -7.67035
| 14> H          2.25200        0.24080       -4.49879
| 15> H          3.46428        1.64078       -5.13639
| 16> H          4.83447        1.31375       -6.22465
| 17> H          0.59489       -1.21158       -3.48231
| 18> H         -0.12653       -2.48766       -4.43418
| 19> H         -0.92267       -0.82721       -6.09931
| 20> H         -0.27317        0.45953       -5.11162
| 21> H         -1.57350       -0.53693       -4.50394
| 22> *
| 23>
| 24> %MaxCore 64000
| 25>
| 26> %pal nprocs 4
| 27> end
| 28>
| 29> %scf
| 30>   MaxIter 150
| 31> end
| 32>
| 33>
| 34>                          ****END OF INPUT****

CARTESIAN COORDINATES (ANGSTROEM)
---------------------------------
  C      1.635560   -1.670400   -5.292110
  C      0.338480   -1.500910   -4.505400
  N      2.484510   -0.507410   -5.140390
  C     -0.684870   -0.528030   -5.099890
  H      1.398340   -1.829240   -6.352590
  H      2.155860   -2.565400   -4.932090
  C      3.451150   -0.149530   -5.952590
  N      3.922670    1.089560   -5.850710
  N      3.966160   -1.006180   -6.867880
  H      3.521390   -1.906470   -6.995270
  H      4.444820   -0.623470   -7.670350
  H      2.252000    0.240800   -4.498790
  H      3.464280    1.640780   -5.136390
  H      4.834470    1.313750   -6.224650
  H      0.594890   -1.211580   -3.482310
  H     -0.126530   -2.487660   -4.434180
  H     -0.922670   -0.827210   -6.099310
  H     -0.273170    0.459530   -5.111620
  H     -1.573500   -0.536930   -4.503940

 Total Charge           Charge          ....    1
 Multiplicity           Mult            ....    1
 Number of Electrons    NEL             ....   56
 Basis Dimension        Dim             ....  236

ORBITAL ENERGIES
----------------

  NO   OCC          E(Eh)            E(eV)
   0   2.0000     -14.246543      -387.6682
   1   2.0000     -14.244548      -387.6138
   2   2.0000     -14.243010      -387.5720
   3   2.0000     -10.243145      -278.7301
   4   2.0000     -10.126226      -275.5486
   5   2.0000     -10.067557      -273.9522
   6   2.0000     -10.038708      -273.1671
   7   2.0000      -1.116630       -30.3851
   8   2.0000      -1.011614       -27.5274
   9   2.0000      -0.999645       -27.2017
  10   2.0000      -0.860634       -23.4190
  11   2.0000      -0.783985       -21.3333
  12   2.0000      -0.757806       -20.6209
  13   2.0000      -0.719920       -19.5900
  14   2.0000      -0.702809       -19.1244
  15   2.0000      -0.668401       -18.1881
  16   2.0000      -0.637271       -17.3410
  17   2.0000      -0.630319       -17.1519
  18   2.0000      -0.598466       -16.2851
  19   2.0000      -0.591736       -16.1020
  20   2.0000      -0.543539       -14.7905
  21   2.0000      -0.524477       -14.2717
  22   2.0000      -0.506102       -13.7717
  23   2.0000      -0.456656       -12.4262
  24   2.0000      -0.442425       -12.0390
  25   2.0000      -0.439247       -11.9525
  26   2.0000      -0.431125       -11.7315
  27   2.0000      -0.408946       -11.1280
  28   0.0000      -0.199956        -5.4411
  29   0.0000      -0.179153        -4.8750
  30   0.0000      -0.148350        -4.0368
  31   0.0000      -0.129264        -3.5175
  32   0.0000      -0.112269        -3.0550

MULLIKEN ATOMIC CHARGES
-----------------------
   0 C :    0.698494
   1 C :    0.037347
   2 N :   -0.251369
   3 C :    1.163753
   4 H :   -0.111858
   5 H :   -0.281564
   6 C :    0.858737
   7 N :    0.284108
   8 N :    0.219845
   9 H :   -0.079311
  10 H :   -0.162217
  11 H :   -0.178981
  12 H :   -0.040873
  13 H :   -0.191867
  14 H :   -0.203445
  15 H :   -0.241250
  16 H :   -0.126762
  17 H :   -0.191039
  18 H :   -0.201748
Sum of atomic charges:    1.0000000

LOEWDIN ATOMIC CHARGES
----------------------
   0 C :    0.062066
   1 C :   -0.042807
   2 N :    0.063682
   3 C :    0.159379
   4 H :    0.034528
   5 H :    0.038295
   6 C :   -0.063503
   7 N :    0.283962
   8 N :    0.302638
   9 H :    0.009730
  10 H :    0.029729
  11 H :    0.046883
  12 H :    0.027226
  13 H :    0.037985
  14 H :    0.025429
  15 H :    0.032452
  16 H :   -0.013191
  17 H :   -0.028652
  18 H :   -0.005833

  Mayer bond orders larger than 0.100000
B(  0-C ,  1-C ) :   1.2028 B(  0-C ,  2-N ) :   1.0682 B(  0-C ,  4-H ) :   0.7228
B(  0-C ,  5-H ) :   0.8012 B(  0-C , 11-H ) :  -0.1405 B(  0-C , 14-H ) :   0.1916
B(  0-C , 15-H ) :   0.2826 B(  1-C ,  2-N ) :   0.1313 B(  1-C ,  3-C ) :   1.2695
B(  1-C , 14-H ) :   0.7573 B(  1-C , 15-H ) :   0.7127 B(  1-C , 16-H ) :   0.2450
B(  1-C , 17-H ) :   0.2843 B(  1-C , 18-H ) :   0.3040 B(  2-N ,  4-H ) :   0.2050
B(  2-N ,  5-H ) :   0.1503 B(  2-N ,  6-C ) :   1.1295 B(  2-N ,  7-N ) :   0.3141
B(  2-N ,  8-N ) :   0.2310 B(  2-N , 11-H ) :   1.1341 B(  3-C , 16-H ) :   0.7110
B(  3-C , 17-H ) :   0.7050 B(  3-C , 18-H ) :   0.6474 B(  6-C ,  7-N ) :   1.0476
B(  6-C ,  8-N ) :   1.0288 B(  6-C ,  9-H ) :  -0.1309 B(  6-C , 10-H ) :  -0.1268
B(  6-C , 11-H ) :  -0.2685 B(  6-C , 13-H ) :  -0.1138 B(  7-N ,  8-N ) :   0.1660
B(  7-N , 12-H ) :   1.0697 B(  7-N , 13-H ) :   1.2185 B(  8-N ,  9-H ) :   1.0466
B(  8-N , 10-H ) :   1.2146 B(  9-H , 10-H ) :  -0.1661 B( 12-H , 13-H ) :  -0.1577

Dispersion correction           -0.030783501
FINAL SINGLE POINT ENERGY      -323.370138357922

DIPOLE MOMENT
-------------
                                X             Y             Z
Electronic contribution:      7.33222       1.73042      -1.59047
Nuclear contribution   :     -5.91327      -1.13589       1.03073
                        -----------------------------------------
Total Dipole Moment    :      1.41895       0.59453      -0.55974
                        -----------------------------------------
Magnitude (a.u.)       :      1.63713
Magnitude (Debye)      :      4.16125

Rotational constants in cm-1:     0.176161     0.043658     0.038822
Rotational constants in MHz :  5281.161077  1308.843263  1163.840625

                             ****ORCA TERMINATED NORMALLY****
TOTAL RUN TIME: 0 days 0 hours 0 minutes 9 seconds 319 msec
