                         Program Version 5.0.0 -  RELEASE  -
|  1> !BLYP D3BJ RIJCOSX def2-SVPD def2/J TightSCF xyzfile
|  2>
|  3> *xyzfile 0 1 B.xyz
|  4>
|  5> %MaxCore 64000
|  6>
|  7> %pal nprocs 4
|  8> end
|  9>
| 10> %scf
| 11>   MaxIter 150
| 12> end
| 13>
| 14>
| 15>                          ****END OF INPUT****

CARTESIAN COORDINATES (ANGSTROEM)
---------------------------------
  C      1.635557   -1.670396   -5.292109
  C      0.338484   -1.500907   -4.505398
  N      2.484511   -0.507410   -5.140392
  C     -0.684873   -0.528026   -5.099889
  C     -0.290406    0.951335   -5.153423
  H      0.607991    1.070692   -5.764412
  C     -0.055168    1.619420   -3.788577
  H     -1.080912    1.483775   -5.689436
  H      0.045006    0.862302   -3.003015
  H     -0.922936    2.230329   -3.517028
  C      1.223022    2.469865   -3.756911
  H      1.114701    3.258074   -4.532999
  H      1.237732    3.011242   -2.792157
  O      2.353815    1.712032   -3.934477
  H      1.398337   -1.829239   -6.352591
  H      2.155864   -2.565398   -4.932091
  C      3.451149   -0.149530   -5.952589
  N      3.922667    1.089559   -5.850711
  N      3.966162   -1.006183   -6.867880
  H      3.521391   -1.906467   -6.995270
  H      4.444824   -0.623472   -7.670348
  H      2.251995    0.240804   -4.498792
  H      3.464277    1.640782   -5.136392
  H      4.834470    1.313745   -6.224653
  H     -0.937999   -0.869056   -6.110838
  H     -1.604638   -0.622496   -4.513132
  H      0.594887   -1.211578   -3.482312
  H     -0.126530   -2.487656   -4.434176

 Total Charge           Charge          ....    0
 Multiplicity           Mult            ....    1
 Number of Electrons    NEL             ....   88
 Basis Dimension        Dim             ....  359

ORBITAL ENERGIES
----------------

  NO   OCC          E(Eh)            E(eV)
   0   2.0000     -18.664635      -507.8905
   1   2.0000     -14.080595      -383.1525
   2   2.0000     -14.037670      -381.9844
   3   2.0000     -14.037032      -381.9670
   4   2.0000     -10.056960      -273.6638
   5   2.0000      -9.972598      -271.3682
   6   2.0000      -9.925059      -270.0746
   7   2.0000      -9.912419      -269.7306
   8   2.0000      -9.902299      -269.4553
   9   2.0000      -9.894588      -269.2454
  10   2.0000      -9.877093      -268.7694
  11   2.0000      -0.930701       -25.3257
  12   2.0000      -0.833996       -22.6942
  13   2.0000      -0.814753       -22.1706
  14   2.0000      -0.785508       -21.3748
  15   2.0000      -0.714593       -19.4451
  16   2.0000      -0.664801       -18.0902
  17   2.0000      -0.613103       -16.6834
  18   2.0000      -0.583890       -15.8885
  19   2.0000      -0.557252       -15.1636
  20   2.0000      -0.537777       -14.6337
  21   2.0000      -0.515208       -14.0195
  22   2.0000      -0.499981       -13.6052
  23   2.0000      -0.462725       -12.5914
  24   2.0000      -0.456621       -12.4253
  25   2.0000      -0.442010       -12.0277
  26   2.0000      -0.433498       -11.7961
  27   2.0000      -0.425427       -11.5764
  28   2.0000      -0.387547       -10.5457
  29   2.0000      -0.375377       -10.2145
  30   2.0000      -0.366154        -9.9636
  31   2.0000      -0.361789        -9.8448
  32   2.0000      -0.336223        -9.1491
  33   2.0000      -0.320016        -8.7081
  34   2.0000      -0.312908        -8.5147
  35   2.0000      -0.293011        -7.9732
  36   2.0000      -0.276463        -7.5229
  37   2.0000      -0.266954        -7.2642
  38   2.0000      -0.261159        -7.1065
  39   2.0000      -0.254521        -6.9259
  40   2.0000      -0.248329        -6.7574
  41   2.0000      -0.223097        -6.0708
  42   2.0000      -0.136364        -3.7107
  43   2.0000      -0.128419        -3.4945
  44   0.0000      -0.030589        -0.8324
  45   0.0000      -0.020573        -0.5598
  46   0.0000      -0.000127        -0.0035
  47   0.0000       0.015370         0.4182
  48   0.0000       0.028106         0.7648

MULLIKEN ATOMIC CHARGES
-----------------------
   0 C :    0.957643
   1 C :    0.440204
   2 N :    0.302719
   3 C :    0.495689
   4 C :    0.473635
   5 H :   -0.161545
   6 C :    0.323587
   7 H :   -0.438467
   8 H :   -0.163763
   9 H :   -0.391562
  10 C :    1.135117
  11 H :   -0.276249
  12 H :   -0.331739
  13 O :   -1.026665
  14 H :   -0.106919
  15 H :   -0.373988
  16 C :    0.706567
  17 N :    0.625869
  18 N :    0.281224
  19 H :   -0.132023
  20 H :   -0.197368
  21 H :   -0.724437
  22 H :   -0.249011
  23 H :   -0.334074
  24 H :   -0.057742
  25 H :   -0.281408
  26 H :   -0.115394
  27 H :   -0.379903
Sum of atomic charges:    0.0000000

LOEWDIN ATOMIC CHARGES
----------------------
   0 C :    0.060274
   1 C :   -0.008099
   2 N :    0.083878
   3 C :   -0.020969
   4 C :   -0.018736
   5 H :   -0.000779
   6 C :   -0.012545
   7 H :    0.010381
   8 H :    0.002468
   9 H :    0.007553
  10 C :   -0.066596
  11 H :    0.005235
  12 H :    0.000123
  13 O :   -0.396628
  14 H :    0.016739
  15 H :    0.018801
  16 C :   -0.071293
  17 N :    0.287196
  18 N :    0.262773
  19 H :   -0.016290
  20 H :    0.001374
  21 H :   -0.107296
  22 H :   -0.108046
  23 H :    0.007247
  24 H :    0.012238
  25 H :    0.017654
  26 H :    0.016608
  27 H :    0.016736

  Mayer bond orders larger than 0.100000
B(  0-C ,  1-C ) :   1.1792 B(  0-C ,  2-N ) :   0.9971 B(  0-C ,  3-C ) :   0.1264
B(  0-C , 14-H ) :   0.6324 B(  0-C , 15-H ) :   0.7077 B(  0-C , 21-H ) :  -0.2371
B(  0-C , 26-H ) :   0.1635 B(  0-C , 27-H ) :   0.2813 B(  1-C ,  2-N ) :   0.1405
B(  1-C ,  3-C ) :   1.1966 B(  1-C ,  4-C ) :   0.1426 B(  1-C , 24-H ) :   0.2034
B(  1-C , 25-H ) :   0.2591 B(  1-C , 26-H ) :   0.6679 B(  1-C , 27-H ) :   0.5842
B(  2-N , 14-H ) :   0.3692 B(  2-N , 15-H ) :   0.1832 B(  2-N , 16-C ) :   1.2906
B(  2-N , 17-N ) :   0.1399 B(  2-N , 18-N ) :   0.1443 B(  2-N , 21-H ) :   0.8508
B(  2-N , 22-H ) :   0.1010 B(  3-C ,  4-C ) :   1.2448 B(  3-C ,  5-H ) :   0.2055
B(  3-C ,  6-C ) :   0.1021 B(  3-C ,  7-H ) :   0.1741 B(  3-C , 24-H ) :   0.5496
B(  3-C , 25-H ) :   0.6763 B(  3-C , 26-H ) :   0.1964 B(  3-C , 27-H ) :   0.1767
B(  4-C ,  5-H ) :   0.7004 B(  4-C ,  6-C ) :   1.1839 B(  4-C ,  7-H ) :   0.5571
B(  4-C ,  8-H ) :   0.1622 B(  4-C ,  9-H ) :   0.2236 B(  4-C , 10-C ) :   0.1388
B(  4-C , 24-H ) :   0.2849 B(  4-C , 25-H ) :   0.1427 B(  5-H ,  6-C ) :   0.1815
B(  5-H ,  7-H ) :  -0.1305 B(  5-H , 13-O ) :   0.1148 B(  5-H , 21-H ) :   0.1084
B(  6-C ,  7-H ) :   0.1159 B(  6-C ,  8-H ) :   0.7559 B(  6-C ,  9-H ) :   0.7926
B(  6-C , 10-C ) :   1.0287 B(  6-C , 11-H ) :   0.1271 B(  6-C , 12-H ) :   0.2680
B(  6-C , 13-O ) :   0.1534 B(  7-H ,  9-H ) :  -0.1038 B(  8-H ,  9-H ) :  -0.1530
B(  8-H , 26-H ) :   0.1047 B(  9-H , 10-C ) :   0.1006 B( 10-C , 11-H ) :   0.7155
B( 10-C , 12-H ) :   0.6617 B( 10-C , 13-O ) :   1.0310 B( 11-H , 13-O ) :   0.2973
B( 13-O , 21-H ) :   0.3415 B( 13-O , 22-H ) :   0.3228 B( 14-H , 15-H ) :  -0.1227
B( 14-H , 25-H ) :  -0.1269 B( 15-H , 24-H ) :  -0.1036 B( 16-C , 17-N ) :   0.9939
B( 16-C , 18-N ) :   0.9865 B( 16-C , 19-H ) :  -0.1178 B( 16-C , 20-H ) :  -0.1050
B( 16-C , 21-H ) :  -0.5198 B( 16-C , 22-H ) :  -0.1400 B( 16-C , 23-H ) :  -0.1347
B( 17-N , 18-N ) :   0.1500 B( 17-N , 22-H ) :   1.0179 B( 17-N , 23-H ) :   1.2501
B( 18-N , 19-H ) :   1.0626 B( 18-N , 20-H ) :   1.2301 B( 19-H , 20-H ) :  -0.1691
B( 22-H , 23-H ) :  -0.2087 B( 24-H , 25-H ) :  -0.1532 B( 26-H , 27-H ) :  -0.1130

Dispersion correction           -0.057937194
FINAL SINGLE POINT ENERGY      -515.927000765395

DIPOLE MOMENT
-------------
                                X             Y             Z
Electronic contribution:      8.33822      -0.86946      -2.17261
Nuclear contribution   :     -7.46499      -1.05836       0.01518
                        -----------------------------------------
Total Dipole Moment    :      0.87323      -1.92783      -2.15743
                        -----------------------------------------
Magnitude (a.u.)       :      3.02218
Magnitude (Debye)      :      7.68177

Rotational constants in cm-1:     0.044680     0.028958     0.019773
Rotational constants in MHz :  1339.486245   868.136755   592.791310

                             ****ORCA TERMINATED NORMALLY****
TOTAL RUN TIME: 0 days 0 hours 0 minutes 31 seconds 428 msec
