                         Program Version 5.0.0 -  RELEASE  -
|  1> !BLYP D3BJ RIJCOSX def2-SVPD def2/J TightSCF
|  2> *xyz 0 1
|  3> C         -0.29041        0.95134       -5.15342
|  4> C         -0.05517        1.61942       -3.78858
|  5> H          0.04501        0.86230       -3.00301
|  6> H         -0.92294        2.23033       -3.51703
|  7> C          1.22302        2.46987       -3.75691
|  8> H          1.11470        3.25807       -4.53300
|  9> H          1.23773        3.01124       -2.79216
| 10> F          2.35381        1.71203       -3.93448
| 11> H         -0.38575        1.70447       -5.90748
| 12> H         -1.18723        0.36894       -5.11561
| 13> H          0.53806        0.31571       -5.38692
| 14> *
| 15>
| 16> %MaxCore 64000
| 17>
| 18> %pal nprocs 4
| 19> end
| 20>
| 21> %scf
| 22>   MaxIter 150
| 23> end
| 24>
| 25>
| 26>                          ****END OF INPUT****

CARTESIAN COORDINATES (ANGSTROEM)
---------------------------------
  C     -0.290410    0.951340   -5.153420
  C     -0.055170    1.619420   -3.788580
  H      0.045010    0.862300   -3.003010
  H     -0.922940    2.230330   -3.517030
  C      1.223020    2.469870   -3.756910
  H      1.114700    3.258070   -4.533000
  H      1.237730    3.011240   -2.792160
  F      2.353810    1.712030   -3.934480
  H     -0.385750    1.704470   -5.907480
  H     -1.187230    0.368940   -5.115610
  H      0.538060    0.315710   -5.386920

 Total Charge           Charge          ....    0
 Multiplicity           Mult            ....    1
 Number of Electrons    NEL             ....   34
 Basis Dimension        Dim             ....  139

ORBITAL ENERGIES
----------------

  NO   OCC          E(Eh)            E(eV)
   0   2.0000     -24.294601      -661.0897
   1   2.0000      -9.998752      -272.0799
   2   2.0000      -9.929208      -270.1875
   3   2.0000      -9.911621      -269.7089
   4   2.0000      -1.077577       -29.3224
   5   2.0000      -0.703504       -19.1433
   6   2.0000      -0.612189       -16.6585
   7   2.0000      -0.529491       -14.4082
   8   2.0000      -0.453791       -12.3483
   9   2.0000      -0.434556       -11.8249
  10   2.0000      -0.412976       -11.2377
  11   2.0000      -0.382847       -10.4178
  12   2.0000      -0.347540        -9.4570
  13   2.0000      -0.327757        -8.9187
  14   2.0000      -0.308807        -8.4031
  15   2.0000      -0.281238        -7.6529
  16   2.0000      -0.279582        -7.6078
  17   0.0000       0.002843         0.0774
  18   0.0000       0.028924         0.7870
  19   0.0000       0.037038         1.0078
  20   0.0000       0.043594         1.1862
  21   0.0000       0.067592         1.8393

MULLIKEN ATOMIC CHARGES
-----------------------
   0 C :    1.010831
   1 C :   -0.179091
   2 H :   -0.206256
   3 H :   -0.214065
   4 C :    0.925665
   5 H :   -0.159768
   6 H :   -0.238494
   7 F :   -0.388491
   8 H :   -0.178049
   9 H :   -0.212105
  10 H :   -0.160176
Sum of atomic charges:    0.0000000

LOEWDIN ATOMIC CHARGES
----------------------
   0 C :    0.140599
   1 C :   -0.053498
   2 H :    0.018002
   3 H :    0.019270
   4 C :    0.086897
   5 H :    0.027833
   6 H :    0.022855
   7 F :   -0.189534
   8 H :   -0.024251
   9 H :   -0.025877
  10 H :   -0.022297

  Mayer bond orders larger than 0.100000
B(  0-C ,  1-C ) :   1.3048 B(  0-C ,  8-H ) :   0.7285 B(  0-C ,  9-H ) :   0.7162
B(  0-C , 10-H ) :   0.7470 B(  1-C ,  2-H ) :   0.8770 B(  1-C ,  3-H ) :   0.8861
B(  1-C ,  4-C ) :   1.1885 B(  1-C ,  5-H ) :   0.1286 B(  1-C ,  6-H ) :   0.1574
B(  1-C ,  8-H ) :   0.2192 B(  1-C ,  9-H ) :   0.2452 B(  1-C , 10-H ) :   0.2324
B(  2-H ,  4-C ) :   0.1245 B(  4-C ,  5-H ) :   0.8429 B(  4-C ,  6-H ) :   0.8274
B(  4-C ,  7-F ) :   0.7968

Dispersion correction           -0.012782177
FINAL SINGLE POINT ENERGY      -218.146058229023

DIPOLE MOMENT
-------------
                                X             Y             Z
Electronic contribution:      6.19512       0.37400       1.40046
Nuclear contribution   :     -6.82889      -0.09322      -1.32039
                        -----------------------------------------
Total Dipole Moment    :     -0.63377       0.28078       0.08007
                        -----------------------------------------
Magnitude (a.u.)       :      0.69779
Magnitude (Debye)      :      1.77365

Rotational constants in cm-1:     0.494282     0.164406     0.140369
Rotational constants in MHz : 14818.207649  4928.760399  4208.156468

                             ****ORCA TERMINATED NORMALLY****
TOTAL RUN TIME: 0 days 0 hours 0 minutes 3 seconds 936 msec
