                         Program Version 5.0.0 -  RELEASE  -
|  1> !BLYP D3BJ RIJCOSX def2-SVPD def2/J TightSCF
|  2> *xyz 0 1
|  3> C          1.63556       -1.67040       -5.29211
|  4> C          0.33848       -1.50091       -4.50540
|  5> C          2.48451       -0.50741       -5.14039
|  6> C         -0.68487       -0.52803       -5.09989
|  7> H          1.39834       -1.82924       -6.35259
|  8> H          2.15586       -2.56540       -4.93209
|  9> C          3.45115       -0.14953       -5.95259
| 10> N          3.92267        1.08956       -5.85071
| 11> N          3.96616       -1.00618       -6.86788
| 12> H          3.52139       -1.90647       -6.99527
| 13> H          4.44482       -0.62347       -7.67035
| 14> H          2.25200        0.24080       -4.49879
| 15> H          3.46428        1.64078       -5.13639
| 16> H          4.83447        1.31375       -6.22465
| 17> H          0.59489       -1.21158       -3.48231
| 18> H         -0.12653       -2.48766       -4.43418
| 19> H         -0.92267       -0.82721       -6.09931
| 20> H         -0.27317        0.45953       -5.11162
| 21> H         -1.57350       -0.53693       -4.50394
| 22> *
| 23>
| 24> %MaxCore 64000
| 25>
| 26> %pal nprocs 4
| 27> end
| 28>
| 29> %scf
| 30>   MaxIter 150
| 31> end
| 32>
| 33>
| 34>                          ****END OF INPUT****

CARTESIAN COORDINATES (ANGSTROEM)
---------------------------------
  C      1.635560   -1.670400   -5.292110
  C      0.338480   -1.500910   -4.505400
  C      2.484510   -0.507410   -5.140390
  C     -0.684870   -0.528030   -5.099890
  H      1.398340   -1.829240   -6.352590
  H      2.155860   -2.565400   -4.932090
  C      3.451150   -0.149530   -5.952590
  N      3.922670    1.089560   -5.850710
  N      3.966160   -1.006180   -6.867880
  H      3.521390   -1.906470   -6.995270
  H      4.444820   -0.623470   -7.670350
  H      2.252000    0.240800   -4.498790
  H      3.464280    1.640780   -5.136390
  H      4.834470    1.313750   -6.224650
  H      0.594890   -1.211580   -3.482310
  H     -0.126530   -2.487660   -4.434180
  H     -0.922670   -0.827210   -6.099310
  H     -0.273170    0.459530   -5.111620
  H     -1.573500   -0.536930   -4.503940

 Total Charge           Charge          ....    0
 Multiplicity           Mult            ....    1
 Number of Electrons    NEL             ....   56
 Basis Dimension        Dim             ....  236

ORBITAL ENERGIES
----------------

  NO   OCC          E(Eh)            E(eV)
   0   2.0000     -14.026197      -381.6722
   1   2.0000     -14.021119      -381.5340
   2   2.0000      -9.956330      -270.9255
   3   2.0000      -9.902009      -269.4474
   4   2.0000      -9.898681      -269.3568
   5   2.0000      -9.894453      -269.2418
   6   2.0000      -9.846843      -267.9462
   7   2.0000      -0.860682       -23.4203
   8   2.0000      -0.779935       -21.2231
   9   2.0000      -0.701006       -19.0753
  10   2.0000      -0.642458       -17.4822
  11   2.0000      -0.584628       -15.9085
  12   2.0000      -0.528373       -14.3778
  13   2.0000      -0.506287       -13.7768
  14   2.0000      -0.476694       -12.9715
  15   2.0000      -0.455700       -12.4002
  16   2.0000      -0.417704       -11.3663
  17   2.0000      -0.391837       -10.6624
  18   2.0000      -0.383416       -10.4333
  19   2.0000      -0.360996        -9.8232
  20   2.0000      -0.338573        -9.2131
  21   2.0000      -0.324777        -8.8376
  22   2.0000      -0.316943        -8.6244
  23   2.0000      -0.283901        -7.7253
  24   2.0000      -0.275331        -7.4921
  25   2.0000      -0.269028        -7.3206
  26   2.0000      -0.218691        -5.9509
  27   2.0000      -0.129986        -3.5371
  28   0.0000      -0.005290        -0.1439
  29   0.0000       0.018698         0.5088
  30   0.0000       0.022650         0.6163
  31   0.0000       0.039112         1.0643
  32   0.0000       0.047098         1.2816

MULLIKEN ATOMIC CHARGES
-----------------------
   0 C :    0.496479
   1 C :    0.190329
   2 C :   -0.025318
   3 C :    1.164911
   4 H :   -0.175445
   5 H :   -0.277215
   6 C :    0.296654
   7 N :    0.308383
   8 N :    0.183548
   9 H :   -0.076840
  10 H :   -0.252148
  11 H :   -0.552261
  12 H :    0.012141
  13 H :   -0.311825
  14 H :   -0.156233
  15 H :   -0.271762
  16 H :   -0.150775
  17 H :   -0.195131
  18 H :   -0.207491
Sum of atomic charges:   -0.0000000

LOEWDIN ATOMIC CHARGES
----------------------
   0 C :   -0.068285
   1 C :   -0.075114
   2 C :   -0.025222
   3 C :    0.139849
   4 H :    0.012463
   5 H :    0.012873
   6 C :   -0.238096
   7 N :    0.197583
   8 N :    0.226374
   9 H :   -0.022032
  10 H :   -0.021689
  11 H :   -0.054894
  12 H :   -0.005082
  13 H :   -0.016877
  14 H :    0.015368
  15 H :    0.006933
  16 H :   -0.025560
  17 H :   -0.030732
  18 H :   -0.027858

  Mayer bond orders larger than 0.100000
B(  0-C ,  1-C ) :   1.1952 B(  0-C ,  2-C ) :   0.9016 B(  0-C ,  4-H ) :   0.6909
B(  0-C ,  5-H ) :   0.6024 B(  0-C , 11-H ) :   0.3500 B(  0-C , 14-H ) :   0.2284
B(  0-C , 15-H ) :   0.3396 B(  1-C ,  2-C ) :   0.2683 B(  1-C ,  3-C ) :   1.2450
B(  1-C , 11-H ) :  -0.1085 B(  1-C , 14-H ) :   0.7388 B(  1-C , 15-H ) :   0.6116
B(  1-C , 16-H ) :   0.2522 B(  1-C , 17-H ) :   0.2918 B(  1-C , 18-H ) :   0.3005
B(  2-C ,  4-H ) :   0.2323 B(  2-C ,  5-H ) :   0.3424 B(  2-C ,  6-C ) :   1.4277
B(  2-C ,  7-N ) :   0.3903 B(  2-C ,  8-N ) :   0.2678 B(  2-C ,  9-H ) :  -0.1379
B(  2-C , 11-H ) :   0.5898 B(  2-C , 12-H ) :  -0.1132 B(  3-C , 16-H ) :   0.7157
B(  3-C , 17-H ) :   0.7193 B(  3-C , 18-H ) :   0.6296 B(  4-H , 11-H ) :   0.1383
B(  6-C ,  7-N ) :   1.0156 B(  6-C ,  8-N ) :   1.0847 B(  6-C , 11-H ) :   0.1493
B(  7-N ,  8-N ) :   0.1240 B(  7-N , 12-H ) :   1.0423 B(  7-N , 13-H ) :   1.2093
B(  8-N ,  9-H ) :   1.0583 B(  8-N , 10-H ) :   1.1961 B(  9-H , 10-H ) :  -0.1403
B( 12-H , 13-H ) :  -0.1593

Dispersion correction           -0.032038378
FINAL SINGLE POINT ENERGY      -306.889778958611

DIPOLE MOMENT
-------------
                                X             Y             Z
Electronic contribution:      6.38488       1.43302      -1.63991
Nuclear contribution   :     -5.84539      -1.11717       1.11949
                        -----------------------------------------
Total Dipole Moment    :      0.53948       0.31585      -0.52042
                        -----------------------------------------
Magnitude (a.u.)       :      0.81341
Magnitude (Debye)      :      2.06753

Rotational constants in cm-1:     0.177055     0.043715     0.038831
Rotational constants in MHz :  5307.971484  1310.555422  1164.112547

                             ****ORCA TERMINATED NORMALLY****
TOTAL RUN TIME: 0 days 0 hours 0 minutes 10 seconds 760 msec
