                         Program Version 5.0.0 -  RELEASE  -
|  1> !BLYP D3BJ RIJCOSX def2-SVPD def2/J TightSCF
|  2> *xyz 0 1
|  3> C          1.63556       -1.67040       -5.29211
|  4> C          0.33848       -1.50091       -4.50540
|  5> N          2.48451       -0.50741       -5.14039
|  6> C         -0.68487       -0.52803       -5.09989
|  7> H          1.39834       -1.82924       -6.35259
|  8> H          2.15586       -2.56540       -4.93209
|  9> C          3.45115       -0.14953       -5.95259
| 10> C          3.92267        1.08956       -5.85071
| 11> N          3.96616       -1.00618       -6.86788
| 12> H          3.52139       -1.90647       -6.99527
| 13> H          4.44482       -0.62347       -7.67035
| 14> H          2.25200        0.24080       -4.49879
| 15> H          3.46428        1.64078       -5.13639
| 16> H          4.83447        1.31375       -6.22465
| 17> H          0.59489       -1.21158       -3.48231
| 18> H         -0.12653       -2.48766       -4.43418
| 19> H         -0.92267       -0.82721       -6.09931
| 20> H         -0.27317        0.45953       -5.11162
| 21> H         -1.57350       -0.53693       -4.50394
| 22> *
| 23>
| 24> %MaxCore 64000
| 25>
| 26> %pal nprocs 4
| 27> end
| 28>
| 29> %scf
| 30>   MaxIter 150
| 31> end
| 32>
| 33>
| 34>                          ****END OF INPUT****

CARTESIAN COORDINATES (ANGSTROEM)
---------------------------------
  C      1.635560   -1.670400   -5.292110
  C      0.338480   -1.500910   -4.505400
  N      2.484510   -0.507410   -5.140390
  C     -0.684870   -0.528030   -5.099890
  H      1.398340   -1.829240   -6.352590
  H      2.155860   -2.565400   -4.932090
  C      3.451150   -0.149530   -5.952590
  C      3.922670    1.089560   -5.850710
  N      3.966160   -1.006180   -6.867880
  H      3.521390   -1.906470   -6.995270
  H      4.444820   -0.623470   -7.670350
  H      2.252000    0.240800   -4.498790
  H      3.464280    1.640780   -5.136390
  H      4.834470    1.313750   -6.224650
  H      0.594890   -1.211580   -3.482310
  H     -0.126530   -2.487660   -4.434180
  H     -0.922670   -0.827210   -6.099310
  H     -0.273170    0.459530   -5.111620
  H     -1.573500   -0.536930   -4.503940

 Total Charge           Charge          ....    0
 Multiplicity           Mult            ....    1
 Number of Electrons    NEL             ....   56
 Basis Dimension        Dim             ....  236

ORBITAL ENERGIES
----------------

  NO   OCC          E(Eh)            E(eV)
   0   2.0000     -14.023342      -381.5945
   1   2.0000     -14.022881      -381.5820
   2   2.0000      -9.960929      -271.0506
   3   2.0000      -9.958698      -270.9899
   4   2.0000      -9.931900      -270.2607
   5   2.0000      -9.916045      -269.8293
   6   2.0000      -9.833472      -267.5824
   7   2.0000      -0.871675       -23.7195
   8   2.0000      -0.791515       -21.5382
   9   2.0000      -0.710274       -19.3275
  10   2.0000      -0.647290       -17.6137
  11   2.0000      -0.594272       -16.1710
  12   2.0000      -0.540800       -14.7159
  13   2.0000      -0.525811       -14.3080
  14   2.0000      -0.478815       -13.0292
  15   2.0000      -0.444478       -12.0949
  16   2.0000      -0.419810       -11.4236
  17   2.0000      -0.414646       -11.2831
  18   2.0000      -0.393845       -10.7171
  19   2.0000      -0.368284       -10.0215
  20   2.0000      -0.344489        -9.3740
  21   2.0000      -0.333761        -9.0821
  22   2.0000      -0.325715        -8.8631
  23   2.0000      -0.311286        -8.4705
  24   2.0000      -0.307155        -8.3581
  25   2.0000      -0.296083        -8.0568
  26   2.0000      -0.212975        -5.7954
  27   2.0000      -0.126100        -3.4314
  28   0.0000      -0.006172        -0.1680
  29   0.0000       0.010589         0.2881
  30   0.0000       0.017702         0.4817
  31   0.0000       0.031524         0.8578
  32   0.0000       0.039228         1.0675

MULLIKEN ATOMIC CHARGES
-----------------------
   0 C :    0.707305
   1 C :    0.040214
   2 N :   -0.148349
   3 C :    1.147392
   4 H :   -0.167405
   5 H :   -0.353843
   6 C :    0.357724
   7 C :    0.721028
   8 N :    0.290496
   9 H :   -0.214144
  10 H :   -0.150575
  11 H :   -0.189789
  12 H :   -0.367283
  13 H :   -0.645140
  14 H :   -0.218975
  15 H :   -0.264455
  16 H :   -0.135518
  17 H :   -0.185420
  18 H :   -0.223261
Sum of atomic charges:    0.0000000

LOEWDIN ATOMIC CHARGES
----------------------
   0 C :    0.031649
   1 C :   -0.060995
   2 N :    0.003978
   3 C :    0.143924
   4 H :    0.016294
   5 H :    0.014454
   6 C :   -0.245564
   7 C :    0.153065
   8 N :    0.222368
   9 H :   -0.035716
  10 H :   -0.003535
  11 H :    0.022410
  12 H :   -0.112555
  13 H :   -0.107469
  14 H :    0.015883
  15 H :    0.013840
  16 H :   -0.022217
  17 H :   -0.026715
  18 H :   -0.023098

  Mayer bond orders larger than 0.100000
B(  0-C ,  1-C ) :   1.1852 B(  0-C ,  2-N ) :   1.0153 B(  0-C ,  4-H ) :   0.7377
B(  0-C ,  5-H ) :   0.7922 B(  0-C , 11-H ) :  -0.1573 B(  0-C , 14-H ) :   0.2089
B(  0-C , 15-H ) :   0.2950 B(  1-C ,  2-N ) :   0.1149 B(  1-C ,  3-C ) :   1.2431
B(  1-C , 14-H ) :   0.7566 B(  1-C , 15-H ) :   0.7142 B(  1-C , 16-H ) :   0.2540
B(  1-C , 17-H ) :   0.2888 B(  1-C , 18-H ) :   0.3095 B(  2-N ,  4-H ) :   0.2053
B(  2-N ,  5-H ) :   0.1858 B(  2-N ,  6-C ) :   1.1875 B(  2-N ,  7-C ) :   0.2889
B(  2-N ,  8-N ) :   0.1336 B(  2-N , 11-H ) :   1.0828 B(  3-C , 16-H ) :   0.7157
B(  3-C , 17-H ) :   0.7096 B(  3-C , 18-H ) :   0.6414 B(  6-C ,  7-C ) :   1.4645
B(  6-C ,  8-N ) :   0.9913 B(  6-C , 10-H ) :  -0.1047 B(  6-C , 11-H ) :  -0.2099
B(  6-C , 12-H ) :   0.3082 B(  6-C , 13-H ) :   0.3378 B(  7-C ,  8-N ) :   0.2848
B(  7-C , 12-H ) :   0.7331 B(  7-C , 13-H ) :   0.4330 B(  8-N ,  9-H ) :   1.0248
B(  8-N , 10-H ) :   1.1746 B(  9-H , 10-H ) :  -0.1531

Dispersion correction           -0.031618996
FINAL SINGLE POINT ENERGY      -306.879474775497

DIPOLE MOMENT
-------------
                                X             Y             Z
Electronic contribution:      4.78792      -0.13746      -1.04122
Nuclear contribution   :     -5.53036      -0.76734       0.96389
                        -----------------------------------------
Total Dipole Moment    :     -0.74243      -0.90480      -0.07733
                        -----------------------------------------
Magnitude (a.u.)       :      1.17297
Magnitude (Debye)      :      2.98145

Rotational constants in cm-1:     0.181901     0.044719     0.039941
Rotational constants in MHz :  5453.254735  1340.639344  1197.391002

                             ****ORCA TERMINATED NORMALLY****
TOTAL RUN TIME: 0 days 0 hours 0 minutes 10 seconds 288 msec
