                         Program Version 5.0.0 -  RELEASE  -
|  1> !BLYP D3BJ RIJCOSX def2-SVPD def2/J TightSCF
|  2> *xyz 0 1
|  3> C          1.63556       -1.67040       -5.29211
|  4> C          0.33848       -1.50091       -4.50540
|  5> N          2.48451       -0.50741       -5.14039
|  6> C         -0.68487       -0.52803       -5.09989
|  7> H          1.39834       -1.82924       -6.35259
|  8> H          2.15586       -2.56540       -4.93209
|  9> C          3.45115       -0.14953       -5.95259
| 10> N          3.92267        1.08956       -5.85071
| 11> C          3.96616       -1.00618       -6.86788
| 12> H          3.52139       -1.90647       -6.99527
| 13> H          4.44482       -0.62347       -7.67035
| 14> H          2.25200        0.24080       -4.49879
| 15> H          3.46428        1.64078       -5.13639
| 16> H          4.83447        1.31375       -6.22465
| 17> H          0.59489       -1.21158       -3.48231
| 18> H         -0.12653       -2.48766       -4.43418
| 19> H         -0.92267       -0.82721       -6.09931
| 20> H         -0.27317        0.45953       -5.11162
| 21> H         -1.57350       -0.53693       -4.50394
| 22> *
| 23>
| 24> %MaxCore 64000
| 25>
| 26> %pal nprocs 4
| 27> end
| 28>
| 29> %scf
| 30>   MaxIter 150
| 31> end
| 32>
| 33>
| 34>                          ****END OF INPUT****

CARTESIAN COORDINATES (ANGSTROEM)
---------------------------------
  C      1.635560   -1.670400   -5.292110
  C      0.338480   -1.500910   -4.505400
  N      2.484510   -0.507410   -5.140390
  C     -0.684870   -0.528030   -5.099890
  H      1.398340   -1.829240   -6.352590
  H      2.155860   -2.565400   -4.932090
  C      3.451150   -0.149530   -5.952590
  N      3.922670    1.089560   -5.850710
  C      3.966160   -1.006180   -6.867880
  H      3.521390   -1.906470   -6.995270
  H      4.444820   -0.623470   -7.670350
  H      2.252000    0.240800   -4.498790
  H      3.464280    1.640780   -5.136390
  H      4.834470    1.313750   -6.224650
  H      0.594890   -1.211580   -3.482310
  H     -0.126530   -2.487660   -4.434180
  H     -0.922670   -0.827210   -6.099310
  H     -0.273170    0.459530   -5.111620
  H     -1.573500   -0.536930   -4.503940

 Total Charge           Charge          ....    0
 Multiplicity           Mult            ....    1
 Number of Electrons    NEL             ....   56
 Basis Dimension        Dim             ....  236

ORBITAL ENERGIES
----------------

  NO   OCC          E(Eh)            E(eV)
   0   2.0000     -14.029203      -381.7540
   1   2.0000     -14.025461      -381.6522
   2   2.0000      -9.960307      -271.0337
   3   2.0000      -9.954577      -270.8778
   4   2.0000      -9.928539      -270.1693
   5   2.0000      -9.914775      -269.7947
   6   2.0000      -9.835824      -267.6464
   7   2.0000      -0.879993       -23.9458
   8   2.0000      -0.796389       -21.6708
   9   2.0000      -0.702869       -19.1260
  10   2.0000      -0.628366       -17.0987
  11   2.0000      -0.618673       -16.8349
  12   2.0000      -0.541695       -14.7403
  13   2.0000      -0.505850       -13.7649
  14   2.0000      -0.478534       -13.0216
  15   2.0000      -0.467411       -12.7189
  16   2.0000      -0.423496       -11.5239
  17   2.0000      -0.412455       -11.2235
  18   2.0000      -0.385308       -10.4848
  19   2.0000      -0.369578       -10.0567
  20   2.0000      -0.338530        -9.2119
  21   2.0000      -0.335360        -9.1256
  22   2.0000      -0.318827        -8.6757
  23   2.0000      -0.309933        -8.4337
  24   2.0000      -0.302766        -8.2387
  25   2.0000      -0.297011        -8.0821
  26   2.0000      -0.207937        -5.6583
  27   2.0000      -0.131169        -3.5693
  28   0.0000      -0.012593        -0.3427
  29   0.0000       0.008131         0.2213
  30   0.0000       0.024319         0.6618
  31   0.0000       0.031972         0.8700
  32   0.0000       0.042365         1.1528

MULLIKEN ATOMIC CHARGES
-----------------------
   0 C :    0.724462
   1 C :    0.033446
   2 N :   -0.175345
   3 C :    1.155012
   4 H :   -0.102805
   5 H :   -0.325938
   6 C :    0.243764
   7 N :    0.386299
   8 C :    0.715171
   9 H :   -0.226296
  10 H :   -0.655175
  11 H :   -0.324866
  12 H :   -0.197353
  13 H :   -0.203869
  14 H :   -0.226609
  15 H :   -0.275767
  16 H :   -0.132150
  17 H :   -0.193689
  18 H :   -0.218291
Sum of atomic charges:    0.0000000

LOEWDIN ATOMIC CHARGES
----------------------
   0 C :    0.044221
   1 C :   -0.061837
   2 N :    0.003110
   3 C :    0.141590
   4 H :    0.023934
   5 H :    0.022818
   6 C :   -0.255241
   7 N :    0.207800
   8 C :    0.175185
   9 H :   -0.129843
  10 H :   -0.115433
  11 H :    0.010375
  12 H :   -0.022404
  13 H :    0.004495
  14 H :    0.012584
  15 H :    0.014787
  16 H :   -0.021169
  17 H :   -0.031009
  18 H :   -0.023962

  Mayer bond orders larger than 0.100000
B(  0-C ,  1-C ) :   1.1826 B(  0-C ,  2-N ) :   1.0816 B(  0-C ,  4-H ) :   0.7157
B(  0-C ,  5-H ) :   0.7946 B(  0-C ,  6-C ) :  -0.1020 B(  0-C , 11-H ) :  -0.1386
B(  0-C , 14-H ) :   0.2069 B(  0-C , 15-H ) :   0.2772 B(  1-C ,  2-N ) :   0.1134
B(  1-C ,  3-C ) :   1.2447 B(  1-C , 14-H ) :   0.7503 B(  1-C , 15-H ) :   0.7247
B(  1-C , 16-H ) :   0.2544 B(  1-C , 17-H ) :   0.2905 B(  1-C , 18-H ) :   0.3133
B(  2-N ,  4-H ) :   0.2182 B(  2-N ,  5-H ) :   0.1493 B(  2-N ,  6-C ) :   1.1984
B(  2-N ,  7-N ) :   0.2145 B(  2-N ,  8-C ) :   0.3332 B(  2-N , 11-H ) :   1.1298
B(  3-C , 16-H ) :   0.7169 B(  3-C , 17-H ) :   0.7146 B(  3-C , 18-H ) :   0.6343
B(  6-C ,  7-N ) :   1.0216 B(  6-C ,  8-C ) :   1.6425 B(  6-C ,  9-H ) :   0.3709
B(  6-C , 10-H ) :   0.2858 B(  6-C , 11-H ) :  -0.2709 B(  7-N ,  8-C ) :   0.2969
B(  7-N , 12-H ) :   1.0440 B(  7-N , 13-H ) :   1.2110 B(  8-C ,  9-H ) :   0.5574
B(  8-C , 10-H ) :   0.5130 B(  9-H , 10-H ) :   0.1842 B( 12-H , 13-H ) :  -0.1427

Dispersion correction           -0.031727381
FINAL SINGLE POINT ENERGY      -306.880444274086

DIPOLE MOMENT
-------------
                                X             Y             Z
Electronic contribution:      4.85887       1.88609       0.01648
Nuclear contribution   :     -5.52083      -1.22643       0.74108
                        -----------------------------------------
Total Dipole Moment    :     -0.66196       0.65966       0.75755
                        -----------------------------------------
Magnitude (a.u.)       :      1.20301
Magnitude (Debye)      :      3.05780

Rotational constants in cm-1:     0.181479     0.044588     0.039739
Rotational constants in MHz :  5440.604457  1336.706831  1191.355312

                             ****ORCA TERMINATED NORMALLY****
TOTAL RUN TIME: 0 days 0 hours 0 minutes 10 seconds 916 msec
