                         Program Version 5.0.0 -  RELEASE  -
|  1> !BLYP D3BJ RIJCOSX def2-SVPD def2/J TightSCF xyzfile
|  2>
|  3> *xyzfile 0 1 D1.xyz
|  4>
|  5> %MaxCore 64000
|  6>
|  7> %pal nprocs 4
|  8> end
|  9>
| 10> %scf
| 11>   MaxIter 150
| 12> end
| 13>
| 14>
| 15>                          ****END OF INPUT****

CARTESIAN COORDINATES (ANGSTROEM)
---------------------------------
  C      1.635557   -1.670396   -5.292109
  C      0.338484   -1.500907   -4.505398
  C      2.484511   -0.507410   -5.140392
  C     -0.684873   -0.528026   -5.099889
  C     -0.290406    0.951335   -5.153423
  H      0.607991    1.070692   -5.764412
  C     -0.055168    1.619420   -3.788577
  H     -1.080912    1.483775   -5.689436
  H      0.045006    0.862302   -3.003015
  H     -0.922936    2.230329   -3.517028
  C      1.223022    2.469865   -3.756911
  H      1.114701    3.258074   -4.532999
  H      1.237732    3.011242   -2.792157
  F      2.353815    1.712032   -3.934477
  H      1.398337   -1.829239   -6.352591
  H      2.155864   -2.565398   -4.932091
  C      3.451149   -0.149530   -5.952589
  N      3.922667    1.089559   -5.850711
  N      3.966162   -1.006183   -6.867880
  H      3.521391   -1.906467   -6.995270
  H      4.444824   -0.623472   -7.670348
  H      2.251995    0.240804   -4.498792
  H      3.464277    1.640782   -5.136392
  H      4.834470    1.313745   -6.224653
  H     -0.937999   -0.869056   -6.110838
  H     -1.604638   -0.622496   -4.513132
  H      0.594887   -1.211578   -3.482312
  H     -0.126530   -2.487656   -4.434176

 Total Charge           Charge          ....    0
 Multiplicity           Mult            ....    1
 Number of Electrons    NEL             ....   88
 Basis Dimension        Dim             ....  359

ORBITAL ENERGIES
----------------

  NO   OCC          E(Eh)            E(eV)
   0   2.0000     -24.320464      -661.7935
   1   2.0000     -14.011743      -381.2789
   2   2.0000     -13.995903      -380.8479
   3   2.0000     -10.009812      -272.3808
   4   2.0000      -9.938103      -270.4295
   5   2.0000      -9.928354      -270.1642
   6   2.0000      -9.911032      -269.6929
   7   2.0000      -9.907978      -269.6098
   8   2.0000      -9.898319      -269.3470
   9   2.0000      -9.888562      -269.0815
  10   2.0000      -9.819161      -267.1930
  11   2.0000      -1.112745       -30.2793
  12   2.0000      -0.843114       -22.9423
  13   2.0000      -0.763258       -20.7693
  14   2.0000      -0.721784       -19.6407
  15   2.0000      -0.690489       -18.7892
  16   2.0000      -0.644632       -17.5413
  17   2.0000      -0.613505       -16.6943
  18   2.0000      -0.567655       -15.4467
  19   2.0000      -0.537608       -14.6291
  20   2.0000      -0.515574       -14.0295
  21   2.0000      -0.490095       -13.3362
  22   2.0000      -0.475970       -12.9518
  23   2.0000      -0.465074       -12.6553
  24   2.0000      -0.448207       -12.1963
  25   2.0000      -0.444562       -12.0972
  26   2.0000      -0.426895       -11.6164
  27   2.0000      -0.404722       -11.0131
  28   2.0000      -0.388703       -10.5772
  29   2.0000      -0.385935       -10.5018
  30   2.0000      -0.366369        -9.9694
  31   2.0000      -0.350801        -9.5458
  32   2.0000      -0.339516        -9.2387
  33   2.0000      -0.328440        -8.9373
  34   2.0000      -0.314528        -8.5587
  35   2.0000      -0.309768        -8.4292
  36   2.0000      -0.303431        -8.2568
  37   2.0000      -0.291908        -7.9432
  38   2.0000      -0.275620        -7.5000
  39   2.0000      -0.266590        -7.2543
  40   2.0000      -0.260594        -7.0911
  41   2.0000      -0.248049        -6.7498
  42   2.0000      -0.202216        -5.5026
  43   2.0000      -0.112646        -3.0653
  44   0.0000       0.000242         0.0066
  45   0.0000       0.008183         0.2227
  46   0.0000       0.017300         0.4707
  47   0.0000       0.026992         0.7345
  48   0.0000       0.033383         0.9084

MULLIKEN ATOMIC CHARGES
-----------------------
   0 C :    0.708738
   1 C :    0.689889
   2 C :    0.229990
   3 C :    0.499628
   4 C :    0.402417
   5 H :   -0.156129
   6 C :    0.345675
   7 H :   -0.429100
   8 H :   -0.153371
   9 H :   -0.423134
  10 C :    1.349766
  11 H :   -0.227632
  12 H :   -0.256836
  13 F :   -0.710347
  14 H :   -0.107712
  15 H :   -0.336327
  16 C :    0.196256
  17 N :    0.510716
  18 N :    0.171123
  19 H :   -0.104838
  20 H :   -0.238376
  21 H :   -0.640350
  22 H :   -0.103177
  23 H :   -0.392762
  24 H :   -0.036484
  25 H :   -0.285485
  26 H :   -0.112228
  27 H :   -0.389909
Sum of atomic charges:    0.0000000

LOEWDIN ATOMIC CHARGES
----------------------
   0 C :   -0.050139
   1 C :   -0.028950
   2 C :   -0.013808
   3 C :   -0.014020
   4 C :   -0.012828
   5 H :    0.005271
   6 C :    0.009768
   7 H :    0.011446
   8 H :    0.012332
   9 H :    0.023243
  10 C :    0.151050
  11 H :    0.039280
  12 H :    0.029182
  13 F :   -0.193179
  14 H :    0.010336
  15 H :    0.010203
  16 C :   -0.216215
  17 N :    0.216752
  18 N :    0.222969
  19 H :   -0.025784
  20 H :   -0.026004
  21 H :   -0.116957
  22 H :   -0.074099
  23 H :   -0.019070
  24 H :    0.017916
  25 H :    0.013266
  26 H :    0.008316
  27 H :    0.009723

  Mayer bond orders larger than 0.100000
B(  0-C ,  1-C ) :   1.1381 B(  0-C ,  2-C ) :   0.6702 B(  0-C ,  3-C ) :   0.1054
B(  0-C , 14-H ) :   0.6606 B(  0-C , 15-H ) :   0.4194 B(  0-C , 21-H ) :   0.6044
B(  0-C , 26-H ) :   0.1756 B(  0-C , 27-H ) :   0.2999 B(  1-C ,  2-C ) :   0.3269
B(  1-C ,  3-C ) :   1.1819 B(  1-C ,  4-C ) :   0.1433 B(  1-C , 21-H ) :  -0.1945
B(  1-C , 24-H ) :   0.2006 B(  1-C , 25-H ) :   0.2474 B(  1-C , 26-H ) :   0.5831
B(  1-C , 27-H ) :   0.5088 B(  2-C ,  5-H ) :  -0.1077 B(  2-C , 14-H ) :   0.2892
B(  2-C , 15-H ) :   0.4327 B(  2-C , 16-C ) :   1.6913 B(  2-C , 17-N ) :   0.4857
B(  2-C , 18-N ) :   0.3527 B(  2-C , 19-H ) :  -0.1847 B(  2-C , 21-H ) :  -0.1333
B(  2-C , 27-H ) :   0.1129 B(  3-C ,  4-C ) :   1.2576 B(  3-C ,  5-H ) :   0.2013
B(  3-C ,  6-C ) :   0.1274 B(  3-C ,  7-H ) :   0.1817 B(  3-C , 24-H ) :   0.5552
B(  3-C , 25-H ) :   0.6717 B(  3-C , 26-H ) :   0.2031 B(  3-C , 27-H ) :   0.1932
B(  4-C ,  5-H ) :   0.6932 B(  4-C ,  6-C ) :   1.1901 B(  4-C ,  7-H ) :   0.6124
B(  4-C ,  8-H ) :   0.1622 B(  4-C ,  9-H ) :   0.2042 B(  4-C , 10-C ) :   0.1259
B(  4-C , 24-H ) :   0.2773 B(  4-C , 25-H ) :   0.1401 B(  5-H ,  6-C ) :   0.1331
B(  5-H ,  7-H ) :  -0.1571 B(  5-H , 21-H ) :   0.1572 B(  6-C ,  7-H ) :   0.1101
B(  6-C ,  8-H ) :   0.7716 B(  6-C ,  9-H ) :   0.7611 B(  6-C , 10-C ) :   1.1426
B(  6-C , 11-H ) :   0.1503 B(  6-C , 12-H ) :   0.2429 B(  6-C , 13-F ) :   0.1542
B(  7-H ,  9-H ) :  -0.1087 B(  7-H , 21-H ) :  -0.1481 B(  8-H ,  9-H ) :  -0.1477
B(  8-H , 26-H ) :   0.1221 B( 10-C , 11-H ) :   0.6703 B( 10-C , 12-H ) :   0.6368
B( 10-C , 13-F ) :   0.6439 B( 11-H , 13-F ) :   0.3574 B( 13-F , 22-H ) :   0.1368
B( 14-H , 21-H ) :   0.1939 B( 14-H , 25-H ) :  -0.1248 B( 15-H , 24-H ) :  -0.1069
B( 16-C , 17-N ) :   0.8133 B( 16-C , 18-N ) :   1.0353 B( 16-C , 21-H ) :   0.3359
B( 16-C , 23-H ) :  -0.1715 B( 17-N , 18-N ) :   0.1175 B( 17-N , 22-H ) :   1.0809
B( 17-N , 23-H ) :   1.2503 B( 18-N , 19-H ) :   1.0985 B( 18-N , 20-H ) :   1.2051
B( 18-N , 21-H ) :  -0.1727 B( 19-H , 20-H ) :  -0.1478 B( 21-H , 22-H ) :  -0.1397
B( 21-H , 26-H ) :  -0.1020 B( 21-H , 27-H ) :  -0.1549 B( 22-H , 23-H ) :  -0.1905
B( 24-H , 25-H ) :  -0.1537 B( 26-H , 27-H ) :  -0.1640

Dispersion correction           -0.057987834
FINAL SINGLE POINT ENERGY      -523.826218908327

DIPOLE MOMENT
-------------
                                X             Y             Z
Electronic contribution:      7.85244       3.82854       1.16505
Nuclear contribution   :     -8.11591      -2.99033      -1.35383
                        -----------------------------------------
Total Dipole Moment    :     -0.26347       0.83822      -0.18878
                        -----------------------------------------
Magnitude (a.u.)       :      0.89870
Magnitude (Debye)      :      2.28432

Rotational constants in cm-1:     0.043530     0.028984     0.019589
Rotational constants in MHz :  1305.007140   868.923804   587.262638

                             ****ORCA TERMINATED NORMALLY****
TOTAL RUN TIME: 0 days 0 hours 0 minutes 28 seconds 203 msec
