                         Program Version 5.0.0 -  RELEASE  -
|  1> !BLYP D3BJ RIJCOSX def2-SVPD def2/J TightSCF xyzfile
|  2>
|  3> *xyzfile 0 1 D2.xyz
|  4>
|  5> %MaxCore 64000
|  6>
|  7> %pal nprocs 4
|  8> end
|  9>
| 10> %scf
| 11>   MaxIter 150
| 12> end
| 13>
| 14>
| 15>                          ****END OF INPUT****

CARTESIAN COORDINATES (ANGSTROEM)
---------------------------------
  C      1.635557   -1.670396   -5.292109
  C      0.338484   -1.500907   -4.505398
  N      2.484511   -0.507410   -5.140392
  C     -0.684873   -0.528026   -5.099889
  C     -0.290406    0.951335   -5.153423
  H      0.607991    1.070692   -5.764412
  C     -0.055168    1.619420   -3.788577
  H     -1.080912    1.483775   -5.689436
  H      0.045006    0.862302   -3.003015
  H     -0.922936    2.230329   -3.517028
  C      1.223022    2.469865   -3.756911
  H      1.114701    3.258074   -4.532999
  H      1.237732    3.011242   -2.792157
  F      2.353815    1.712032   -3.934477
  H      1.398337   -1.829239   -6.352591
  H      2.155864   -2.565398   -4.932091
  C      3.451149   -0.149530   -5.952589
  C      3.922667    1.089559   -5.850711
  N      3.966162   -1.006183   -6.867880
  H      3.521391   -1.906467   -6.995270
  H      4.444824   -0.623472   -7.670348
  H      2.251995    0.240804   -4.498792
  H      3.464277    1.640782   -5.136392
  H      4.834470    1.313745   -6.224653
  H     -0.937999   -0.869056   -6.110838
  H     -1.604638   -0.622496   -4.513132
  H      0.594887   -1.211578   -3.482312
  H     -0.126530   -2.487656   -4.434176

 Total Charge           Charge          ....    0
 Multiplicity           Mult            ....    1
 Number of Electrons    NEL             ....   88
 Basis Dimension        Dim             ....  359

ORBITAL ENERGIES
----------------

  NO   OCC          E(Eh)            E(eV)
   0   2.0000     -24.321522      -661.8223
   1   2.0000     -14.009099      -381.2070
   2   2.0000     -13.995867      -380.8469
   3   2.0000     -10.011333      -272.4222
   4   2.0000      -9.949353      -270.7356
   5   2.0000      -9.941147      -270.5124
   6   2.0000      -9.936781      -270.3936
   7   2.0000      -9.925312      -270.0815
   8   2.0000      -9.925112      -270.0760
   9   2.0000      -9.923362      -270.0284
  10   2.0000      -9.808501      -266.9029
  11   2.0000      -1.113400       -30.2971
  12   2.0000      -0.854627       -23.2556
  13   2.0000      -0.777176       -21.1480
  14   2.0000      -0.732032       -19.9196
  15   2.0000      -0.693184       -18.8625
  16   2.0000      -0.656821       -17.8730
  17   2.0000      -0.606737       -16.5101
  18   2.0000      -0.578325       -15.7370
  19   2.0000      -0.551946       -15.0192
  20   2.0000      -0.520167       -14.1545
  21   2.0000      -0.503455       -13.6997
  22   2.0000      -0.484931       -13.1956
  23   2.0000      -0.459677       -12.5084
  24   2.0000      -0.451618       -12.2891
  25   2.0000      -0.444502       -12.0955
  26   2.0000      -0.431678       -11.7466
  27   2.0000      -0.417214       -11.3530
  28   2.0000      -0.399142       -10.8612
  29   2.0000      -0.390449       -10.6247
  30   2.0000      -0.372304       -10.1309
  31   2.0000      -0.358965        -9.7679
  32   2.0000      -0.350493        -9.5374
  33   2.0000      -0.331136        -9.0107
  34   2.0000      -0.325416        -8.8550
  35   2.0000      -0.316772        -8.6198
  36   2.0000      -0.305640        -8.3169
  37   2.0000      -0.302060        -8.2195
  38   2.0000      -0.289246        -7.8708
  39   2.0000      -0.282004        -7.6737
  40   2.0000      -0.277324        -7.5464
  41   2.0000      -0.274128        -7.4594
  42   2.0000      -0.196220        -5.3394
  43   2.0000      -0.109451        -2.9783
  44   0.0000      -0.004417        -0.1202
  45   0.0000       0.005308         0.1444
  46   0.0000       0.015125         0.4116
  47   0.0000       0.018698         0.5088
  48   0.0000       0.032469         0.8835

MULLIKEN ATOMIC CHARGES
-----------------------
   0 C :    0.938861
   1 C :    0.471908
   2 N :    0.124213
   3 C :    0.499718
   4 C :    0.406554
   5 H :   -0.071911
   6 C :    0.315896
   7 H :   -0.472183
   8 H :   -0.188508
   9 H :   -0.347473
  10 C :    1.300957
  11 H :   -0.226982
  12 H :   -0.256946
  13 F :   -0.773057
  14 H :   -0.141203
  15 H :   -0.399620
  16 C :    0.503335
  17 C :    0.993384
  18 N :    0.258041
  19 H :   -0.159328
  20 H :   -0.157094
  21 H :   -0.514616
  22 H :   -0.495219
  23 H :   -0.752690
  24 H :   -0.041382
  25 H :   -0.282637
  26 H :   -0.156852
  27 H :   -0.375165
Sum of atomic charges:    0.0000000

LOEWDIN ATOMIC CHARGES
----------------------
   0 C :    0.046598
   1 C :   -0.015454
   2 N :    0.021251
   3 C :   -0.016418
   4 C :   -0.011850
   5 H :    0.006330
   6 C :    0.007464
   7 H :    0.014783
   8 H :    0.009850
   9 H :    0.024942
  10 C :    0.153269
  11 H :    0.043055
  12 H :    0.031001
  13 F :   -0.191116
  14 H :    0.014006
  15 H :    0.011635
  16 C :   -0.224850
  17 C :    0.174073
  18 N :    0.219184
  19 H :   -0.039017
  20 H :   -0.007111
  21 H :   -0.062855
  22 H :   -0.161783
  23 H :   -0.107644
  24 H :    0.019321
  25 H :    0.016494
  26 H :    0.008680
  27 H :    0.016160

  Mayer bond orders larger than 0.100000
B(  0-C ,  1-C ) :   1.1711 B(  0-C ,  2-N ) :   1.0230 B(  0-C ,  3-C ) :   0.1211
B(  0-C , 14-H ) :   0.6437 B(  0-C , 15-H ) :   0.6987 B(  0-C , 21-H ) :  -0.2193
B(  0-C , 26-H ) :   0.1693 B(  0-C , 27-H ) :   0.2813 B(  1-C ,  2-N ) :   0.1154
B(  1-C ,  3-C ) :   1.1870 B(  1-C ,  4-C ) :   0.1514 B(  1-C , 24-H ) :   0.2081
B(  1-C , 25-H ) :   0.2613 B(  1-C , 26-H ) :   0.6538 B(  1-C , 27-H ) :   0.5816
B(  2-N , 14-H ) :   0.4256 B(  2-N , 15-H ) :   0.2421 B(  2-N , 16-C ) :   1.0177
B(  2-N , 17-C ) :   0.3536 B(  2-N , 18-N ) :   0.1568 B(  2-N , 21-H ) :   0.8893
B(  3-C ,  4-C ) :   1.2698 B(  3-C ,  5-H ) :   0.1936 B(  3-C ,  6-C ) :   0.1167
B(  3-C ,  7-H ) :   0.1723 B(  3-C , 24-H ) :   0.5532 B(  3-C , 25-H ) :   0.6801
B(  3-C , 26-H ) :   0.1971 B(  3-C , 27-H ) :   0.1751 B(  4-C ,  5-H ) :   0.7589
B(  4-C ,  6-C ) :   1.1880 B(  4-C ,  7-H ) :   0.5873 B(  4-C ,  8-H ) :   0.1529
B(  4-C ,  9-H ) :   0.2187 B(  4-C , 10-C ) :   0.1301 B(  4-C , 24-H ) :   0.2906
B(  4-C , 25-H ) :   0.1546 B(  5-H ,  6-C ) :   0.1325 B(  5-H ,  7-H ) :  -0.1437
B(  6-C ,  7-H ) :   0.1131 B(  6-C ,  8-H ) :   0.7804 B(  6-C ,  9-H ) :   0.7626
B(  6-C , 10-C ) :   1.1405 B(  6-C , 11-H ) :   0.1318 B(  6-C , 12-H ) :   0.2429
B(  6-C , 13-F ) :   0.1438 B(  7-H ,  9-H ) :  -0.1007 B(  8-H ,  9-H ) :  -0.1274
B( 10-C , 11-H ) :   0.7096 B( 10-C , 12-H ) :   0.6638 B( 10-C , 13-F ) :   0.6799
B( 11-H , 13-F ) :   0.2817 B( 13-F , 22-H ) :   0.2562 B( 14-H , 15-H ) :  -0.1309
B( 14-H , 25-H ) :  -0.1312 B( 15-H , 24-H ) :  -0.1079 B( 16-C , 17-C ) :   1.3655
B( 16-C , 18-N ) :   0.8754 B( 16-C , 20-H ) :  -0.1451 B( 16-C , 21-H ) :  -0.4483
B( 16-C , 22-H ) :   0.3733 B( 16-C , 23-H ) :   0.5086 B( 17-C , 18-N ) :   0.3607
B( 17-C , 22-H ) :   0.3789 B( 17-C , 23-H ) :   0.1348 B( 18-N , 19-H ) :   0.9812
B( 18-N , 20-H ) :   1.2132 B( 18-N , 23-H ) :   0.1106 B( 19-H , 20-H ) :  -0.1659
B( 21-H , 22-H ) :  -0.1574 B( 24-H , 25-H ) :  -0.1575 B( 26-H , 27-H ) :  -0.1199

Dispersion correction           -0.057460723
FINAL SINGLE POINT ENERGY      -523.817617738287

DIPOLE MOMENT
-------------
                                X             Y             Z
Electronic contribution:      6.39238       2.45924       1.72033
Nuclear contribution   :     -7.85451      -2.70006      -1.48294
                        -----------------------------------------
Total Dipole Moment    :     -1.46212      -0.24082       0.23739
                        -----------------------------------------
Magnitude (a.u.)       :      1.50072
Magnitude (Debye)      :      3.81452

Rotational constants in cm-1:     0.044065     0.029250     0.019826
Rotational constants in MHz :  1321.026981   876.903192   594.367265

                             ****ORCA TERMINATED NORMALLY****
TOTAL RUN TIME: 0 days 0 hours 0 minutes 29 seconds 956 msec
