                         Program Version 5.0.0 -  RELEASE  -
|  1> !PBE D3BJ RIJCOSX def2-SVPD def2/J TightSCF
|  2> *xyz -1 1
|  3> C         -0.77894        0.17197        1.80496
|  4> C         -0.60249       -0.63071        0.49224
|  5> H          0.31389       -1.24035        0.60350
|  6> H         -0.36383        0.11332       -0.30117
|  7> O         -1.71206       -1.37684        0.20253
|  8> H         -1.65864        0.77733        1.73736
|  9> H          0.07466        0.79896        1.95712
| 10> H         -0.87474       -0.50584        2.62734
| 11> *
| 12> %MaxCore 64000
| 13>
| 14> %pal nprocs 4
| 15> end
| 16>
| 17> %scf
| 18>   MaxIter 150
| 19> end
| 20>
| 21>
| 22>                          ****END OF INPUT****

CARTESIAN COORDINATES (ANGSTROEM)
---------------------------------
  C     -0.778940    0.171970    1.804960
  C     -0.602490   -0.630710    0.492240
  H      0.313890   -1.240350    0.603500
  H     -0.363830    0.113320   -0.301170
  O     -1.712060   -1.376840    0.202530
  H     -1.658640    0.777330    1.737360
  H      0.074660    0.798960    1.957120
  H     -0.874740   -0.505840    2.627340

 Total Charge           Charge          ....   -1
 Multiplicity           Mult            ....    1
 Number of Electrons    NEL             ....   26
 Basis Dimension        Dim             ....  103

ORBITAL ENERGIES
----------------

  NO   OCC          E(Eh)            E(eV)
   0   2.0000     -18.444143      -501.8907
   1   2.0000      -9.711826      -264.2722
   2   2.0000      -9.687755      -263.6172
   3   2.0000      -0.594777       -16.1847
   4   2.0000      -0.449612       -12.2346
   5   2.0000      -0.309908        -8.4330
   6   2.0000      -0.202323        -5.5055
   7   2.0000      -0.179946        -4.8966
   8   2.0000      -0.131238        -3.5712
   9   2.0000      -0.115149        -3.1334
  10   2.0000      -0.073836        -2.0092
  11   2.0000       0.065919         1.7937
  12   2.0000       0.068678         1.8688
  13   0.0000       0.163539         4.4501
  14   0.0000       0.192970         5.2510
  15   0.0000       0.224220         6.1013
  16   0.0000       0.237087         6.4515
  17   0.0000       0.255173         6.9436

MULLIKEN ATOMIC CHARGES
-----------------------
   0 C :    0.197248
   1 C :    0.133303
   2 H :   -0.164215
   3 H :   -0.137799
   4 O :   -0.857283
   5 H :   -0.071756
   6 H :   -0.031763
   7 H :   -0.067734
Sum of atomic charges:   -1.0000000

LOEWDIN ATOMIC CHARGES
----------------------
   0 C :    0.057667
   1 C :   -0.267071
   2 H :   -0.040302
   3 H :   -0.038613
   4 O :   -0.547032
   5 H :   -0.046465
   6 H :   -0.069719
   7 H :   -0.048465

  Mayer bond orders larger than 0.100000
B(  0-C ,  1-C ) :   1.2044 B(  0-C ,  2-H ) :   0.1541 B(  0-C ,  3-H ) :   0.1574
B(  0-C ,  4-O ) :   0.3098 B(  0-C ,  5-H ) :   0.9216 B(  0-C ,  6-H ) :   0.9397
B(  0-C ,  7-H ) :   0.9237 B(  1-C ,  2-H ) :   0.9813 B(  1-C ,  3-H ) :   0.9685
B(  1-C ,  4-O ) :   1.0973 B(  1-C ,  5-H ) :   0.1852 B(  1-C ,  6-H ) :   0.1324
B(  1-C ,  7-H ) :   0.1717

Dispersion correction           -0.003762079
FINAL SINGLE POINT ENERGY      -154.134302236979

DIPOLE MOMENT
-------------
                                X             Y             Z
Electronic contribution:     -1.68708      -1.93066      -1.57542
Nuclear contribution   :      2.47835       2.80827       2.30058
                        -----------------------------------------
Total Dipole Moment    :      0.79127       0.87761       0.72516
                        -----------------------------------------
Magnitude (a.u.)       :      1.38642
Magnitude (Debye)      :      3.52401

Rotational constants in cm-1:     1.255775     0.327783     0.287473
Rotational constants in MHz : 37647.186859  9826.677683  8618.224821

                             ****ORCA TERMINATED NORMALLY****
TOTAL RUN TIME: 0 days 0 hours 0 minutes 6 seconds 902 msec
