                         Program Version 5.0.0 -  RELEASE  -
|  1> !PBE D3BJ RIJCOSX def2-SVPD def2/J TightSCF
|  2> *xyz 1 1
|  3> C         -2.12050        0.88520        1.78951
|  4> C         -0.77894        0.17197        1.80496
|  5> H         -2.32419        1.47265        2.68608
|  6> H         -2.18770        1.54127        0.91948
|  7> N         -3.17690       -0.15948        1.61070
|  8> H         -4.06474        0.23127        1.28675
|  9> H         -3.34407       -0.67151        2.48493
| 10> H         -2.71686       -0.78189        0.93588
| 11> H         -0.65708       -0.37837        0.89547
| 12> H         -0.74207       -0.50050        2.63642
| 13> H          0.00707        0.89251        1.89389
| 14> *
| 15> %MaxCore 64000
| 16>
| 17> %pal nprocs 4
| 18> end
| 19>
| 20> %scf
| 21>   MaxIter 150
| 22> end
| 23>
| 24>
| 25>                          ****END OF INPUT****

CARTESIAN COORDINATES (ANGSTROEM)
---------------------------------
  C     -2.120500    0.885200    1.789510
  C     -0.778940    0.171970    1.804960
  H     -2.324190    1.472650    2.686080
  H     -2.187700    1.541270    0.919480
  N     -3.176900   -0.159480    1.610700
  H     -4.064740    0.231270    1.286750
  H     -3.344070   -0.671510    2.484930
  H     -2.716860   -0.781890    0.935880
  H     -0.657080   -0.378370    0.895470
  H     -0.742070   -0.500500    2.636420
  H      0.007070    0.892510    1.893890

 Total Charge           Charge          ....    1
 Multiplicity           Mult            ....    1
 Number of Electrons    NEL             ....   26
 Basis Dimension        Dim             ....  124

ORBITAL ENERGIES
----------------

  NO   OCC          E(Eh)            E(eV)
   0   2.0000     -14.332375      -390.0038
   1   2.0000     -10.151851      -276.2459
   2   2.0000     -10.078474      -274.2492
   3   2.0000      -1.130461       -30.7614
   4   2.0000      -0.894804       -24.3489
   5   2.0000      -0.783456       -21.3189
   6   2.0000      -0.753310       -20.4986
   7   2.0000      -0.742329       -20.1998
   8   2.0000      -0.646940       -17.6041
   9   2.0000      -0.598042       -16.2736
  10   2.0000      -0.543693       -14.7946
  11   2.0000      -0.535740       -14.5782
  12   2.0000      -0.514349       -13.9961
  13   0.0000      -0.215799        -5.8722
  14   0.0000      -0.159878        -4.3505
  15   0.0000      -0.159058        -4.3282
  16   0.0000      -0.143918        -3.9162
  17   0.0000      -0.115385        -3.1398

MULLIKEN ATOMIC CHARGES
-----------------------
   0 C :    0.251919
   1 C :    0.596768
   2 H :   -0.137865
   3 H :   -0.048748
   4 N :   -0.697108
   5 H :    0.304607
   6 H :    0.352395
   7 H :    0.440646
   8 H :   -0.016429
   9 H :    0.037246
  10 H :   -0.083431
Sum of atomic charges:    1.0000000

LOEWDIN ATOMIC CHARGES
----------------------
   0 C :    0.053315
   1 C :    0.170913
   2 H :    0.055056
   3 H :    0.055985
   4 N :    0.338885
   5 H :    0.104570
   6 H :    0.107866
   7 H :    0.086744
   8 H :    0.002024
   9 H :    0.006276
  10 H :    0.018366

  Mayer bond orders larger than 0.100000
B(  0-C ,  1-C ) :   1.3231 B(  0-C ,  2-H ) :   0.9484 B(  0-C ,  3-H ) :   0.8921
B(  0-C ,  4-N ) :   0.8543 B(  0-C ,  8-H ) :   0.1455 B(  0-C ,  9-H ) :   0.1291
B(  0-C , 10-H ) :   0.1870 B(  1-C ,  8-H ) :   0.8408 B(  1-C ,  9-H ) :   0.8152
B(  1-C , 10-H ) :   0.8582 B(  2-H ,  4-N ) :   0.1002 B(  4-N ,  5-H ) :   0.8101
B(  4-N ,  6-H ) :   0.7990 B(  4-N ,  7-H ) :   0.6332

Dispersion correction           -0.006241059
FINAL SINGLE POINT ENERGY      -135.255247951639

DIPOLE MOMENT
-------------
                                X             Y             Z
Electronic contribution:     -1.80776      -0.15312      -0.05710
Nuclear contribution   :      0.50278      -0.30871      -0.06979
                        -----------------------------------------
Total Dipole Moment    :     -1.30497      -0.46183      -0.12689
                        -----------------------------------------
Magnitude (a.u.)       :      1.39009
Magnitude (Debye)      :      3.53332

Rotational constants in cm-1:     0.963746     0.295157     0.256910
Rotational constants in MHz : 28892.375247  8848.576767  7701.963879

                             ****ORCA TERMINATED NORMALLY****
TOTAL RUN TIME: 0 days 0 hours 0 minutes 7 seconds 448 msec
