                         Program Version 5.0.0 -  RELEASE  -
|  1> !PBE D3BJ RIJCOSX def2-SVPD def2/J TightSCF
|  2> *xyz 0 1
|  3> C         -0.77894        0.17197        1.80496
|  4> C         -0.60249       -0.63071        0.49224
|  5> H          0.31389       -1.24035        0.60350
|  6> H         -0.36383        0.11332       -0.30117
|  7> F         -1.71206       -1.37684        0.20253
|  8> H         -1.65864        0.77733        1.73736
|  9> H          0.07466        0.79896        1.95712
| 10> H         -0.87474       -0.50584        2.62734
| 11> *
| 12> %MaxCore 64000
| 13>
| 14> %pal nprocs 4
| 15> end
| 16>
| 17> %scf
| 18>   MaxIter 150
| 19> end
| 20>
| 21>
| 22>                          ****END OF INPUT****

CARTESIAN COORDINATES (ANGSTROEM)
---------------------------------
  C     -0.778940    0.171970    1.804960
  C     -0.602490   -0.630710    0.492240
  H      0.313890   -1.240350    0.603500
  H     -0.363830    0.113320   -0.301170
  F     -1.712060   -1.376840    0.202530
  H     -1.658640    0.777330    1.737360
  H      0.074660    0.798960    1.957120
  H     -0.874740   -0.505840    2.627340

 Total Charge           Charge          ....    0
 Multiplicity           Mult            ....    1
 Number of Electrons    NEL             ....   26
 Basis Dimension        Dim             ....  103

ORBITAL ENERGIES
----------------

  NO   OCC          E(Eh)            E(eV)
   0   2.0000     -24.265778      -660.3054
   1   2.0000      -9.975032      -271.4344
   2   2.0000      -9.892860      -269.1984
   3   2.0000      -1.087389       -29.5894
   4   2.0000      -0.686735       -18.6870
   5   2.0000      -0.565411       -15.3856
   6   2.0000      -0.459500       -12.5036
   7   2.0000      -0.441891       -12.0245
   8   2.0000      -0.405596       -11.0368
   9   2.0000      -0.356307        -9.6956
  10   2.0000      -0.355204        -9.6656
  11   2.0000      -0.289199        -7.8695
  12   2.0000      -0.285724        -7.7750
  13   0.0000       0.005310         0.1445
  14   0.0000       0.037001         1.0068
  15   0.0000       0.049778         1.3545
  16   0.0000       0.061451         1.6722
  17   0.0000       0.085090         2.3154

MULLIKEN ATOMIC CHARGES
-----------------------
   0 C :    0.336849
   1 C :    0.407429
   2 H :   -0.084790
   3 H :   -0.058819
   4 F :   -0.413115
   5 H :   -0.072372
   6 H :   -0.048081
   7 H :   -0.067101
Sum of atomic charges:   -0.0000000

LOEWDIN ATOMIC CHARGES
----------------------
   0 C :    0.136414
   1 C :    0.051275
   2 H :    0.027255
   3 H :    0.030243
   4 F :   -0.196522
   5 H :   -0.015966
   6 H :   -0.015434
   7 H :   -0.017266

  Mayer bond orders larger than 0.100000
B(  0-C ,  1-C ) :   1.3639 B(  0-C ,  5-H ) :   0.8887 B(  0-C ,  6-H ) :   0.8599
B(  0-C ,  7-H ) :   0.8916 B(  1-C ,  2-H ) :   0.9362 B(  1-C ,  3-H ) :   0.9274
B(  1-C ,  4-F ) :   0.7819 B(  1-C ,  5-H ) :   0.1488 B(  1-C ,  6-H ) :   0.1214
B(  1-C ,  7-H ) :   0.1378

Dispersion correction           -0.003480356
FINAL SINGLE POINT ENERGY      -178.726995528496

DIPOLE MOMENT
-------------
                                X             Y             Z
Electronic contribution:     -2.75361      -3.30197      -2.82789
Nuclear contribution   :      3.27800       3.70743       3.04146
                        -----------------------------------------
Total Dipole Moment    :      0.52440       0.40546       0.21357
                        -----------------------------------------
Magnitude (a.u.)       :      0.69642
Magnitude (Debye)      :      1.77016

Rotational constants in cm-1:     1.234437     0.305084     0.268865
Rotational constants in MHz : 37007.496448  9146.194083  8060.380630

                             ****ORCA TERMINATED NORMALLY****
TOTAL RUN TIME: 0 days 0 hours 0 minutes 6 seconds 176 msec
