                         Program Version 5.0.0 -  RELEASE  -
|  1> !PBE D3BJ RIJCOSX def2-SVPD def2/J TightSCF
|  2> *xyz 0 1
|  3> C         -2.12050        0.88520        1.78951
|  4> C         -0.77894        0.17197        1.80496
|  5> H         -2.32419        1.47265        2.68608
|  6> H         -2.18770        1.54127        0.91948
|  7> C         -3.17690       -0.15948        1.61070
|  8> H         -4.06474        0.23127        1.28675
|  9> H         -3.34407       -0.67151        2.48493
| 10> H         -2.71686       -0.78189        0.93588
| 11> H         -0.65708       -0.37837        0.89547
| 12> H         -0.74207       -0.50050        2.63642
| 13> H          0.00707        0.89251        1.89389
| 14> *
| 15> %MaxCore 64000
| 16>
| 17> %pal nprocs 4
| 18> end
| 19>
| 20> %scf
| 21>   MaxIter 150
| 22> end
| 23>
| 24>
| 25>                          ****END OF INPUT****

CARTESIAN COORDINATES (ANGSTROEM)
---------------------------------
  C     -2.120500    0.885200    1.789510
  C     -0.778940    0.171970    1.804960
  H     -2.324190    1.472650    2.686080
  H     -2.187700    1.541270    0.919480
  C     -3.176900   -0.159480    1.610700
  H     -4.064740    0.231270    1.286750
  H     -3.344070   -0.671510    2.484930
  H     -2.716860   -0.781890    0.935880
  H     -0.657080   -0.378370    0.895470
  H     -0.742070   -0.500500    2.636420
  H      0.007070    0.892510    1.893890

 Total Charge           Charge          ....    0
 Multiplicity           Mult            ....    1
 Number of Electrons    NEL             ....   26
 Basis Dimension        Dim             ....  124

ORBITAL ENERGIES
----------------

  NO   OCC          E(Eh)            E(eV)
   0   2.0000      -9.884425      -268.9689
   1   2.0000      -9.876025      -268.7403
   2   2.0000      -9.857588      -268.2386
   3   2.0000      -0.717910       -19.5353
   4   2.0000      -0.613891       -16.7048
   5   2.0000      -0.521324       -14.1859
   6   2.0000      -0.422415       -11.4945
   7   2.0000      -0.405041       -11.0217
   8   2.0000      -0.355128        -9.6635
   9   2.0000      -0.340031        -9.2527
  10   2.0000      -0.299404        -8.1472
  11   2.0000      -0.291733        -7.9385
  12   2.0000      -0.286209        -7.7881
  13   0.0000       0.010000         0.2721
  14   0.0000       0.040037         1.0895
  15   0.0000       0.045573         1.2401
  16   0.0000       0.063142         1.7182
  17   0.0000       0.082645         2.2489

MULLIKEN ATOMIC CHARGES
-----------------------
   0 C :   -0.550835
   1 C :    0.584391
   2 H :   -0.165400
   3 H :   -0.039390
   4 C :    1.005177
   5 H :   -0.294537
   6 H :   -0.167289
   7 H :   -0.175796
   8 H :   -0.013317
   9 H :   -0.026021
  10 H :   -0.156984
Sum of atomic charges:    0.0000000

LOEWDIN ATOMIC CHARGES
----------------------
   0 C :   -0.119790
   1 C :    0.109275
   2 H :    0.020772
   3 H :    0.023433
   4 C :    0.119325
   5 H :   -0.034337
   6 H :   -0.027535
   7 H :   -0.041439
   8 H :   -0.016236
   9 H :   -0.011262
  10 H :   -0.022207

  Mayer bond orders larger than 0.100000
B(  0-C ,  1-C ) :   1.2800 B(  0-C ,  2-H ) :   0.9931 B(  0-C ,  3-H ) :   0.8991
B(  0-C ,  4-C ) :   1.2538 B(  0-C ,  5-H ) :   0.1939 B(  0-C ,  6-H ) :   0.2193
B(  0-C ,  7-H ) :   0.2736 B(  0-C ,  8-H ) :   0.1530 B(  0-C ,  9-H ) :   0.1657
B(  0-C , 10-H ) :   0.1861 B(  1-C ,  8-H ) :   0.8404 B(  1-C ,  9-H ) :   0.8205
B(  1-C , 10-H ) :   0.8582 B(  4-C ,  5-H ) :   0.7455 B(  4-C ,  6-H ) :   0.6988
B(  4-C ,  7-H ) :   0.7341

Dispersion correction           -0.006236927
FINAL SINGLE POINT ENERGY      -118.859565667041

DIPOLE MOMENT
-------------
                                X             Y             Z
Electronic contribution:     -0.14370       0.47442       0.11247
Nuclear contribution   :      0.13334      -0.45108      -0.10852
                        -----------------------------------------
Total Dipole Moment    :     -0.01036       0.02334       0.00396
                        -----------------------------------------
Magnitude (a.u.)       :      0.02584
Magnitude (Debye)      :      0.06568

Rotational constants in cm-1:     0.972269     0.310387     0.269029
Rotational constants in MHz : 29147.878530  9305.178981  8065.286472

                             ****ORCA TERMINATED NORMALLY****
TOTAL RUN TIME: 0 days 0 hours 0 minutes 7 seconds 145 msec
