                         Program Version 5.0.0 -  RELEASE  -
|  1> !B3LYP D3BJ RIJCOSX def2-SVP def2/J TightSCF
|  2> *xyz -1 1
|  3> C         -0.77894        0.17197        1.80496
|  4> C         -0.60249       -0.63071        0.49224
|  5> H          0.31389       -1.24035        0.60350
|  6> H         -0.36383        0.11332       -0.30117
|  7> O         -1.71206       -1.37684        0.20253
|  8> H         -1.65864        0.77733        1.73736
|  9> H          0.07466        0.79896        1.95712
| 10> H         -0.87474       -0.50584        2.62734
| 11> *
| 12> %MaxCore 64000
| 13>
| 14> %pal nprocs 4
| 15> end
| 16>
| 17> %scf
| 18>   MaxIter 150
| 19> end
| 20>
| 21>
| 22>                          ****END OF INPUT****

CARTESIAN COORDINATES (ANGSTROEM)
---------------------------------
  C     -0.778940    0.171970    1.804960
  C     -0.602490   -0.630710    0.492240
  H      0.313890   -1.240350    0.603500
  H     -0.363830    0.113320   -0.301170
  O     -1.712060   -1.376840    0.202530
  H     -1.658640    0.777330    1.737360
  H      0.074660    0.798960    1.957120
  H     -0.874740   -0.505840    2.627340

 Total Charge           Charge          ....   -1
 Multiplicity           Mult            ....    1
 Number of Electrons    NEL             ....   26
 Basis Dimension        Dim             ....   67

ORBITAL ENERGIES
----------------

  NO   OCC          E(Eh)            E(eV)
   0   2.0000     -18.746357      -510.1143
   1   2.0000      -9.971772      -271.3457
   2   2.0000      -9.958126      -270.9744
   3   2.0000      -0.625658       -17.0250
   4   2.0000      -0.494405       -13.4534
   5   2.0000      -0.343234        -9.3399
   6   2.0000      -0.229282        -6.2391
   7   2.0000      -0.206361        -5.6154
   8   2.0000      -0.149441        -4.0665
   9   2.0000      -0.136134        -3.7044
  10   2.0000      -0.068689        -1.8691
  11   2.0000       0.077831         2.1179
  12   2.0000       0.079609         2.1663
  13   0.0000       0.253714         6.9039
  14   0.0000       0.296662         8.0726
  15   0.0000       0.310045         8.4367
  16   0.0000       0.319098         8.6831
  17   0.0000       0.360361         9.8059

MULLIKEN ATOMIC CHARGES
-----------------------
   0 C :    0.095913
   1 C :    0.276350
   2 H :   -0.185225
   3 H :   -0.188946
   4 O :   -0.693839
   5 H :   -0.080774
   6 H :   -0.142341
   7 H :   -0.081137
Sum of atomic charges:   -1.0000000

LOEWDIN ATOMIC CHARGES
----------------------
   0 C :   -0.103271
   1 C :    0.016891
   2 H :   -0.086360
   3 H :   -0.089304
   4 O :   -0.652916
   5 H :   -0.020140
   6 H :   -0.044517
   7 H :   -0.020382

  Mayer bond orders larger than 0.100000
B(  0-C ,  1-C ) :   1.0033 B(  0-C ,  5-H ) :   0.9512 B(  0-C ,  6-H ) :   0.9024
B(  0-C ,  7-H ) :   0.9535 B(  1-C ,  2-H ) :   0.8551 B(  1-C ,  3-H ) :   0.8529
B(  1-C ,  4-O ) :   1.5155

Dispersion correction           -0.006236048
FINAL SINGLE POINT ENERGY      -154.189646764212

DIPOLE MOMENT
-------------
                                X             Y             Z
Electronic contribution:     -1.94906      -2.10226      -1.60790
Nuclear contribution   :      2.47835       2.80827       2.30058
                        -----------------------------------------
Total Dipole Moment    :      0.52929       0.70601       0.69269
                        -----------------------------------------
Magnitude (a.u.)       :      1.12179
Magnitude (Debye)      :      2.85136

Rotational constants in cm-1:     1.255775     0.327783     0.287473
Rotational constants in MHz : 37647.186859  9826.677683  8618.224821

                             ****ORCA TERMINATED NORMALLY****
TOTAL RUN TIME: 0 days 0 hours 0 minutes 8 seconds 176 msec
