                         Program Version 5.0.0 -  RELEASE  -
|  1> !B3LYP D3BJ RIJCOSX def2-SVP def2/J TightSCF
|  2> *xyz 1 1
|  3> C         -2.12050        0.88520        1.78951
|  4> C         -0.77894        0.17197        1.80496
|  5> H         -2.32419        1.47265        2.68608
|  6> H         -2.18770        1.54127        0.91948
|  7> N         -3.17690       -0.15948        1.61070
|  8> H         -4.06474        0.23127        1.28675
|  9> H         -3.34407       -0.67151        2.48493
| 10> H         -2.71686       -0.78189        0.93588
| 11> H         -0.65708       -0.37837        0.89547
| 12> H         -0.74207       -0.50050        2.63642
| 13> H          0.00707        0.89251        1.89389
| 14> *
| 15> %MaxCore 64000
| 16>
| 17> %pal nprocs 4
| 18> end
| 19>
| 20> %scf
| 21>   MaxIter 150
| 22> end
| 23>
| 24>
| 25>                          ****END OF INPUT****

CARTESIAN COORDINATES (ANGSTROEM)
---------------------------------
  C     -2.120500    0.885200    1.789510
  C     -0.778940    0.171970    1.804960
  H     -2.324190    1.472650    2.686080
  H     -2.187700    1.541270    0.919480
  N     -3.176900   -0.159480    1.610700
  H     -4.064740    0.231270    1.286750
  H     -3.344070   -0.671510    2.484930
  H     -2.716860   -0.781890    0.935880
  H     -0.657080   -0.378370    0.895470
  H     -0.742070   -0.500500    2.636420
  H      0.007070    0.892510    1.893890

 Total Charge           Charge          ....    1
 Multiplicity           Mult            ....    1
 Number of Electrons    NEL             ....   26
 Basis Dimension        Dim             ....   82

ORBITAL ENERGIES
----------------

  NO   OCC          E(Eh)            E(eV)
   0   2.0000     -14.665566      -399.0703
   1   2.0000     -10.439080      -284.0618
   2   2.0000     -10.364791      -282.0403
   3   2.0000      -1.209756       -32.9191
   4   2.0000      -0.960939       -26.1485
   5   2.0000      -0.841426       -22.8964
   6   2.0000      -0.806113       -21.9355
   7   2.0000      -0.795084       -21.6353
   8   2.0000      -0.692684       -18.8489
   9   2.0000      -0.643937       -17.5224
  10   2.0000      -0.584908       -15.9162
  11   2.0000      -0.577539       -15.7156
  12   2.0000      -0.556713       -15.1489
  13   0.0000      -0.183947        -5.0054
  14   0.0000      -0.125408        -3.4125
  15   0.0000      -0.122443        -3.3318
  16   0.0000      -0.091135        -2.4799
  17   0.0000      -0.053155        -1.4464

MULLIKEN ATOMIC CHARGES
-----------------------
   0 C :   -0.020741
   1 C :   -0.023794
   2 H :    0.101074
   3 H :    0.092630
   4 N :    0.027335
   5 H :    0.214490
   6 H :    0.210006
   7 H :    0.202483
   8 H :    0.051777
   9 H :    0.054938
  10 H :    0.089801
Sum of atomic charges:    1.0000000

LOEWDIN ATOMIC CHARGES
----------------------
   0 C :    0.062252
   1 C :   -0.035584
   2 H :    0.053792
   3 H :    0.053172
   4 N :    0.299582
   5 H :    0.144218
   6 H :    0.144003
   7 H :    0.140146
   8 H :    0.036631
   9 H :    0.038513
  10 H :    0.063275

  Mayer bond orders larger than 0.100000
B(  0-C ,  1-C ) :   1.1020 B(  0-C ,  2-H ) :   0.9520 B(  0-C ,  3-H ) :   0.9513
B(  0-C ,  4-N ) :   0.9316 B(  1-C ,  8-H ) :   0.9611 B(  1-C ,  9-H ) :   0.9727
B(  1-C , 10-H ) :   0.9552 B(  4-N ,  5-H ) :   0.9312 B(  4-N ,  6-H ) :   0.9371
B(  4-N ,  7-H ) :   0.9371

Dispersion correction           -0.010176617
FINAL SINGLE POINT ENERGY      -135.346135348861

DIPOLE MOMENT
-------------
                                X             Y             Z
Electronic contribution:     -1.87601      -0.18133      -0.06632
Nuclear contribution   :      0.50278      -0.30871      -0.06979
                        -----------------------------------------
Total Dipole Moment    :     -1.37323      -0.49004      -0.13610
                        -----------------------------------------
Magnitude (a.u.)       :      1.46439
Magnitude (Debye)      :      3.72217

Rotational constants in cm-1:     0.963746     0.295157     0.256910
Rotational constants in MHz : 28892.375247  8848.576767  7701.963879

                             ****ORCA TERMINATED NORMALLY****
TOTAL RUN TIME: 0 days 0 hours 0 minutes 9 seconds 551 msec
