                         Program Version 5.0.0 -  RELEASE  -
|  1> !B3LYP D3BJ RIJCOSX def2-TZVP def2/J TightSCF xyzfile
|  2>
|  3> *xyzfile 0 1 B.xyz
|  4>
|  5> %MaxCore 64000
|  6>
|  7> %pal nprocs 18
|  8> end
|  9>
| 10> %scf
| 11>   MaxIter 150
| 12> end
| 13>
| 14>
| 15>                          ****END OF INPUT****

CARTESIAN COORDINATES (ANGSTROEM)
---------------------------------
  C     -2.120502    0.885196    1.789506
  C     -0.778939    0.171966    1.804965
  H     -2.324193    1.472649    2.686078
  H     -2.187698    1.541272    0.919482
  N     -3.176900   -0.159484    1.610700
  H      0.015695    0.910767    1.939153
  H     -0.743553   -0.506827    2.665420
  C     -0.602493   -0.630712    0.492240
  H      0.313894   -1.240346    0.603498
  H     -0.363829    0.113322   -0.301169
  O     -1.712061   -1.376836    0.202535
  H     -4.064736    0.231272    1.286754
  H     -3.344073   -0.671511    2.484928
  H     -2.716861   -0.781886    0.935880

 Total Charge           Charge          ....    0
 Multiplicity           Mult            ....    1
 Number of Electrons    NEL             ....   42
 Basis Dimension        Dim             ....  209

ORBITAL ENERGIES
----------------

  NO   OCC          E(Eh)            E(eV)
   0   2.0000     -18.990758      -516.7648
   1   2.0000     -14.394518      -391.6947
   2   2.0000     -10.231250      -278.4065
   3   2.0000     -10.163296      -276.5573
   4   2.0000     -10.160547      -276.4825
   5   2.0000      -0.991051       -26.9679
   6   2.0000      -0.890549       -24.2331
   7   2.0000      -0.769645       -20.9431
   8   2.0000      -0.653654       -17.7868
   9   2.0000      -0.591198       -16.0873
  10   2.0000      -0.571347       -15.5472
  11   2.0000      -0.543381       -14.7861
  12   2.0000      -0.485064       -13.1993
  13   2.0000      -0.436425       -11.8757
  14   2.0000      -0.402960       -10.9651
  15   2.0000      -0.401057       -10.9133
  16   2.0000      -0.356915        -9.7121
  17   2.0000      -0.339416        -9.2360
  18   2.0000      -0.314602        -8.5608
  19   2.0000      -0.181484        -4.9384
  20   2.0000      -0.172557        -4.6955
  21   0.0000      -0.008843        -0.2406
  22   0.0000       0.035387         0.9629
  23   0.0000       0.046608         1.2683
  24   0.0000       0.079128         2.1532
  25   0.0000       0.091941         2.5018

MULLIKEN ATOMIC CHARGES
-----------------------
   0 C :   -0.110425
   1 C :   -0.202886
   2 H :    0.119734
   3 H :    0.121868
   4 N :   -0.287373
   5 H :    0.084445
   6 H :    0.068694
   7 C :    0.064553
   8 H :    0.034714
   9 H :    0.007096
  10 O :   -0.674762
  11 H :    0.244971
  12 H :    0.244200
  13 H :    0.285170
Sum of atomic charges:    0.0000000

LOEWDIN ATOMIC CHARGES
----------------------
   0 C :   -0.268296
   1 C :   -0.289711
   2 H :    0.122176
   3 H :    0.138426
   4 N :    0.132169
   5 H :    0.133810
   6 H :    0.126447
   7 C :   -0.464021
   8 H :    0.098578
   9 H :    0.089801
  10 O :   -0.278122
  11 H :    0.177000
  12 H :    0.183586
  13 H :    0.098157

  Mayer bond orders larger than 0.100000
B(  0-C ,  1-C ) :   0.9787 B(  0-C ,  2-H ) :   0.9743 B(  0-C ,  3-H ) :   0.9608
B(  0-C ,  4-N ) :   0.8883 B(  1-C ,  5-H ) :   0.9569 B(  1-C ,  6-H ) :   0.9592
B(  1-C ,  7-C ) :   0.9529 B(  4-N , 11-H ) :   0.9060 B(  4-N , 12-H ) :   0.9092
B(  4-N , 13-H ) :   0.6094 B(  7-C ,  8-H ) :   0.9454 B(  7-C ,  9-H ) :   0.9341
B(  7-C , 10-O ) :   1.2452 B( 10-O , 13-H ) :   0.4300

Dispersion correction           -0.017123868
FINAL SINGLE POINT ENERGY      -249.619629024430

DIPOLE MOMENT
-------------
                                X             Y             Z
Electronic contribution:     -1.55009      -1.50702      -0.81891
Nuclear contribution   :      0.08650       3.01678       2.47433
                        -----------------------------------------
Total Dipole Moment    :     -1.46359       1.50976       1.65542
                        -----------------------------------------
Magnitude (a.u.)       :      2.67617
Magnitude (Debye)      :      6.80227

Rotational constants in cm-1:     0.238796     0.156489     0.106146
Rotational constants in MHz :  7158.916762  4691.413084  3182.185740

                             ****ORCA TERMINATED NORMALLY****
TOTAL RUN TIME: 0 days 0 hours 0 minutes 9 seconds 188 msec
