                         Program Version 5.0.0 -  RELEASE  -
|  1> !B3LYP D3BJ RIJCOSX def2-SVP def2/J TightSCF
|  2> *xyz 0 1
|  3> C         -0.77894        0.17197        1.80496
|  4> C         -0.60249       -0.63071        0.49224
|  5> H          0.31389       -1.24035        0.60350
|  6> H         -0.36383        0.11332       -0.30117
|  7> F         -1.71206       -1.37684        0.20253
|  8> H         -1.65864        0.77733        1.73736
|  9> H          0.07466        0.79896        1.95712
| 10> H         -0.87474       -0.50584        2.62734
| 11> *
| 12> %MaxCore 64000
| 13>
| 14> %pal nprocs 4
| 15> end
| 16>
| 17> %scf
| 18>   MaxIter 150
| 19> end
| 20>
| 21>
| 22>                          ****END OF INPUT****

CARTESIAN COORDINATES (ANGSTROEM)
---------------------------------
  C     -0.778940    0.171970    1.804960
  C     -0.602490   -0.630710    0.492240
  H      0.313890   -1.240350    0.603500
  H     -0.363830    0.113320   -0.301170
  F     -1.712060   -1.376840    0.202530
  H     -1.658640    0.777330    1.737360
  H      0.074660    0.798960    1.957120
  H     -0.874740   -0.505840    2.627340

 Total Charge           Charge          ....    0
 Multiplicity           Mult            ....    1
 Number of Electrons    NEL             ....   26
 Basis Dimension        Dim             ....   67

ORBITAL ENERGIES
----------------

  NO   OCC          E(Eh)            E(eV)
   0   2.0000     -24.661943      -671.0856
   1   2.0000     -10.257685      -279.1258
   2   2.0000     -10.177286      -276.9380
   3   2.0000      -1.167595       -31.7719
   4   2.0000      -0.749945       -20.4071
   5   2.0000      -0.619556       -16.8590
   6   2.0000      -0.498743       -13.5715
   7   2.0000      -0.487756       -13.2725
   8   2.0000      -0.448131       -12.1943
   9   2.0000      -0.397702       -10.8220
  10   2.0000      -0.396682       -10.7943
  11   2.0000      -0.326604        -8.8874
  12   2.0000      -0.324618        -8.8333
  13   0.0000       0.064316         1.7501
  14   0.0000       0.109397         2.9768
  15   0.0000       0.116405         3.1675
  16   0.0000       0.134203         3.6518
  17   0.0000       0.147534         4.0146

MULLIKEN ATOMIC CHARGES
-----------------------
   0 C :   -0.022997
   1 C :    0.239504
   2 H :    0.000976
   3 H :    0.000728
   4 F :   -0.261586
   5 H :    0.019344
   6 H :    0.005907
   7 H :    0.018123
Sum of atomic charges:   -0.0000000

LOEWDIN ATOMIC CHARGES
----------------------
   0 C :   -0.065703
   1 C :    0.114376
   2 H :    0.006983
   3 H :    0.007398
   4 F :   -0.133368
   5 H :    0.022927
   6 H :    0.025690
   7 H :    0.021697

  Mayer bond orders larger than 0.100000
B(  0-C ,  1-C ) :   1.1003 B(  0-C ,  5-H ) :   0.9707 B(  0-C ,  6-H ) :   0.9597
B(  0-C ,  7-H ) :   0.9720 B(  1-C ,  2-H ) :   0.9554 B(  1-C ,  3-H ) :   0.9560
B(  1-C ,  4-F ) :   1.0061

Dispersion correction           -0.005741384
FINAL SINGLE POINT ENERGY      -178.830087451148

DIPOLE MOMENT
-------------
                                X             Y             Z
Electronic contribution:     -2.77489      -3.33040      -2.84923
Nuclear contribution   :      3.27800       3.70743       3.04146
                        -----------------------------------------
Total Dipole Moment    :      0.50311       0.37703       0.19222
                        -----------------------------------------
Magnitude (a.u.)       :      0.65744
Magnitude (Debye)      :      1.67108

Rotational constants in cm-1:     1.234437     0.305084     0.268865
Rotational constants in MHz : 37007.496448  9146.194083  8060.380630

                             ****ORCA TERMINATED NORMALLY****
TOTAL RUN TIME: 0 days 0 hours 0 minutes 7 seconds 692 msec
