                         Program Version 5.0.0 -  RELEASE  -
|  1> !B3LYP D3BJ RIJCOSX def2-SVP def2/J TightSCF
|  2> *xyz 0 1
|  3> C         -2.12050        0.88520        1.78951
|  4> C         -0.77894        0.17197        1.80496
|  5> H         -2.32419        1.47265        2.68608
|  6> H         -2.18770        1.54127        0.91948
|  7> C         -3.17690       -0.15948        1.61070
|  8> H         -4.06474        0.23127        1.28675
|  9> H         -3.34407       -0.67151        2.48493
| 10> H         -2.71686       -0.78189        0.93588
| 11> H         -0.65708       -0.37837        0.89547
| 12> H         -0.74207       -0.50050        2.63642
| 13> H          0.00707        0.89251        1.89389
| 14> *
| 15> %MaxCore 64000
| 16>
| 17> %pal nprocs 4
| 18> end
| 19>
| 20> %scf
| 21>   MaxIter 150
| 22> end
| 23>
| 24>
| 25>                          ****END OF INPUT****

CARTESIAN COORDINATES (ANGSTROEM)
---------------------------------
  C     -2.120500    0.885200    1.789510
  C     -0.778940    0.171970    1.804960
  H     -2.324190    1.472650    2.686080
  H     -2.187700    1.541270    0.919480
  C     -3.176900   -0.159480    1.610700
  H     -4.064740    0.231270    1.286750
  H     -3.344070   -0.671510    2.484930
  H     -2.716860   -0.781890    0.935880
  H     -0.657080   -0.378370    0.895470
  H     -0.742070   -0.500500    2.636420
  H      0.007070    0.892510    1.893890

 Total Charge           Charge          ....    0
 Multiplicity           Mult            ....    1
 Number of Electrons    NEL             ....   26
 Basis Dimension        Dim             ....   82

ORBITAL ENERGIES
----------------

  NO   OCC          E(Eh)            E(eV)
   0   2.0000     -10.167708      -276.6774
   1   2.0000     -10.162072      -276.5240
   2   2.0000     -10.144136      -276.0360
   3   2.0000      -0.785538       -21.3756
   4   2.0000      -0.676360       -18.4047
   5   2.0000      -0.577203       -15.7065
   6   2.0000      -0.467830       -12.7303
   7   2.0000      -0.449501       -12.2315
   8   2.0000      -0.397250       -10.8097
   9   2.0000      -0.382142       -10.3986
  10   2.0000      -0.338438        -9.2094
  11   2.0000      -0.329724        -8.9722
  12   2.0000      -0.326084        -8.8732
  13   0.0000       0.065753         1.7892
  14   0.0000       0.110621         3.0101
  15   0.0000       0.113413         3.0861
  16   0.0000       0.120142         3.2692
  17   0.0000       0.145356         3.9553

MULLIKEN ATOMIC CHARGES
-----------------------
   0 C :   -0.051286
   1 C :    0.024735
   2 H :   -0.002524
   3 H :   -0.006504
   4 C :    0.102428
   5 H :   -0.019123
   6 H :   -0.020117
   7 H :   -0.028089
   8 H :    0.002495
   9 H :   -0.000073
  10 H :   -0.001943
Sum of atomic charges:   -0.0000000

LOEWDIN ATOMIC CHARGES
----------------------
   0 C :   -0.031602
   1 C :   -0.044974
   2 H :    0.013673
   3 H :    0.015864
   4 C :   -0.034394
   5 H :    0.008980
   6 H :    0.010291
   7 H :    0.011245
   8 H :    0.017189
   9 H :    0.017288
  10 H :    0.016440

  Mayer bond orders larger than 0.100000
B(  0-C ,  1-C ) :   1.1131 B(  0-C ,  2-H ) :   0.9534 B(  0-C ,  3-H ) :   0.9510
B(  0-C ,  4-C ) :   1.1052 B(  1-C ,  8-H ) :   0.9690 B(  1-C ,  9-H ) :   0.9749
B(  1-C , 10-H ) :   0.9655 B(  4-C ,  5-H ) :   0.9608 B(  4-C ,  6-H ) :   0.9672
B(  4-C ,  7-H ) :   0.9709

Dispersion correction           -0.010251687
FINAL SINGLE POINT ENERGY      -118.949182341721

DIPOLE MOMENT
-------------
                                X             Y             Z
Electronic contribution:     -0.13894       0.45743       0.11000
Nuclear contribution   :      0.13334      -0.45108      -0.10852
                        -----------------------------------------
Total Dipole Moment    :     -0.00560       0.00635       0.00149
                        -----------------------------------------
Magnitude (a.u.)       :      0.00859
Magnitude (Debye)      :      0.02184

Rotational constants in cm-1:     0.972269     0.310387     0.269029
Rotational constants in MHz : 29147.878530  9305.178981  8065.286472

                             ****ORCA TERMINATED NORMALLY****
TOTAL RUN TIME: 0 days 0 hours 0 minutes 9 seconds 215 msec
