                         Program Version 5.0.0 -  RELEASE  -
|  1> !M062X D3Zero RIJCOSX def2-TZVP def2/J TightSCF
|  2> *xyz -1 1
|  3> C          4.90646       -3.10282       -5.95484
|  4> C          3.51177       -2.80621       -6.49228
|  5> H          2.73604       -3.37345       -5.97374
|  6> H          3.44490       -3.04083       -7.55528
|  7> S          3.00462       -1.09621       -6.38926
|  8> O          4.12886       -0.32965       -6.95372
|  9> O          1.78128       -1.00078       -7.13640
| 10> O          2.85155       -0.78368       -4.95679
| 11> H          5.62703       -2.52424       -6.49422
| 12> H          5.12164       -4.14387       -6.07654
| 13> H          4.95004       -2.84862       -4.91639
| 14> *
| 15>
| 16> %MaxCore 64000
| 17>
| 18> %pal nprocs 4
| 19> end
| 20>
| 21> %scf
| 22>   MaxIter 150
| 23> end
| 24>
| 25>
| 26>                          ****END OF INPUT****

CARTESIAN COORDINATES (ANGSTROEM)
---------------------------------
  C      4.906460   -3.102820   -5.954840
  C      3.511770   -2.806210   -6.492280
  H      2.736040   -3.373450   -5.973740
  H      3.444900   -3.040830   -7.555280
  S      3.004620   -1.096210   -6.389260
  O      4.128860   -0.329650   -6.953720
  O      1.781280   -1.000780   -7.136400
  O      2.851550   -0.783680   -4.956790
  H      5.627030   -2.524240   -6.494220
  H      5.121640   -4.143870   -6.076540
  H      4.950040   -2.848620   -4.916390

 Total Charge           Charge          ....   -1
 Multiplicity           Mult            ....    1
 Number of Electrons    NEL             ....   58
 Basis Dimension        Dim             ....  222

ORBITAL ENERGIES
----------------

  NO   OCC          E(Eh)            E(eV)
   0   2.0000     -89.883952     -2445.8667
   1   2.0000     -19.402713      -527.9747
   2   2.0000     -19.390874      -527.6525
   3   2.0000     -19.390310      -527.6372
   4   2.0000     -10.395747      -282.8827
   5   2.0000     -10.388594      -282.6880
   6   2.0000      -8.208541      -223.3658
   7   2.0000      -6.131135      -166.8367
   8   2.0000      -6.130110      -166.8088
   9   2.0000      -6.129920      -166.8036
  10   2.0000      -1.039644       -28.2901
  11   2.0000      -0.904771       -24.6201
  12   2.0000      -0.883974       -24.0542
  13   2.0000      -0.730427       -19.8759
  14   2.0000      -0.596801       -16.2398
  15   2.0000      -0.463266       -12.6061
  16   2.0000      -0.389889       -10.6094
  17   2.0000      -0.388636       -10.5753
  18   2.0000      -0.348275        -9.4770
  19   2.0000      -0.336567        -9.1585
  20   2.0000      -0.324576        -8.8322
  21   2.0000      -0.293148        -7.9770
  22   2.0000      -0.277111        -7.5406
  23   2.0000      -0.222119        -6.0442
  24   2.0000      -0.221113        -6.0168
  25   2.0000      -0.182818        -4.9747
  26   2.0000      -0.170392        -4.6366
  27   2.0000      -0.167610        -4.5609
  28   2.0000      -0.132142        -3.5958
  29   0.0000       0.205486         5.5916
  30   0.0000       0.247564         6.7366
  31   0.0000       0.263663         7.1746
  32   0.0000       0.267880         7.2894
  33   0.0000       0.296301         8.0628

MULLIKEN ATOMIC CHARGES
-----------------------
   0 C :   -0.400396
   1 C :   -0.298133
   2 H :    0.112727
   3 H :    0.114015
   4 S :    0.912270
   5 O :   -0.615598
   6 O :   -0.577505
   7 O :   -0.614926
   8 H :    0.140961
   9 H :    0.091723
  10 H :    0.134862
Sum of atomic charges:   -1.0000000

LOEWDIN ATOMIC CHARGES
----------------------
   0 C :   -0.341913
   1 C :   -0.434138
   2 H :    0.120391
   3 H :    0.121686
   4 S :    0.435059
   5 O :   -0.425689
   6 O :   -0.379718
   7 O :   -0.430482
   8 H :    0.117360
   9 H :    0.101009
  10 H :    0.116436

  Mayer bond orders larger than 0.100000
B(  0-C ,  1-C ) :   0.9324 B(  0-C ,  8-H ) :   0.9714 B(  0-C ,  9-H ) :   0.9690
B(  0-C , 10-H ) :   0.9729 B(  1-C ,  2-H ) :   0.9621 B(  1-C ,  3-H ) :   0.9607
B(  1-C ,  4-S ) :   0.8826 B(  4-S ,  5-O ) :   1.7150 B(  4-S ,  6-O ) :   1.8060
B(  4-S ,  7-O ) :   1.7375

Dispersion correction           -0.000145821
FINAL SINGLE POINT ENERGY      -703.157236327377

DIPOLE MOMENT
-------------
                                X             Y             Z
Electronic contribution:     -4.36512       6.38068      -0.66544
Nuclear contribution   :      5.05690      -8.21735       0.57889
                        -----------------------------------------
Total Dipole Moment    :      0.69179      -1.83668      -0.08655
                        -----------------------------------------
Magnitude (a.u.)       :      1.96455
Magnitude (Debye)      :      4.99348

Rotational constants in cm-1:     0.162547     0.083494     0.081672
Rotational constants in MHz :  4873.033504  2503.090885  2448.458543

                             ****ORCA TERMINATED NORMALLY****
TOTAL RUN TIME: 0 days 0 hours 0 minutes 21 seconds 245 msec
