                         Program Version 5.0.0 -  RELEASE  -
|  1> !M062X D3Zero RIJCOSX def2-TZVP def2/J TightSCF
|  2> *xyz 1 1
|  3> C          4.49059        1.15590       -2.46929
|  4> N          4.30539        1.22276       -3.90832
|  5> C          4.63192        2.24637       -4.67096
|  6> N          4.54169        2.14399       -5.98714
|  7> N          5.08409        3.39358       -4.11855
|  8> H          4.92067        3.57050       -3.13587
|  9> H          5.25465        4.19739       -4.70696
| 10> H          3.82453        0.44911       -4.35093
| 11> H          4.34337        1.24932       -6.41665
| 12> H          4.67671        2.95662       -6.57411
| 13> C          5.94213        0.93950       -2.03689
| 14> H          3.86431        0.32853       -2.13661
| 15> H          4.07623        2.04999       -1.98901
| 16> H          6.32982        0.06401       -2.51451
| 17> H          5.98308        0.81426       -0.97504
| 18> H          6.52865        1.78889       -2.31873
| 19> *
| 20>
| 21> %MaxCore 64000
| 22>
| 23> %pal nprocs 4
| 24> end
| 25>
| 26> %scf
| 27>   MaxIter 150
| 28> end
| 29>
| 30>
| 31>                          ****END OF INPUT****

CARTESIAN COORDINATES (ANGSTROEM)
---------------------------------
  C      4.490590    1.155900   -2.469290
  N      4.305390    1.222760   -3.908320
  C      4.631920    2.246370   -4.670960
  N      4.541690    2.143990   -5.987140
  N      5.084090    3.393580   -4.118550
  H      4.920670    3.570500   -3.135870
  H      5.254650    4.197390   -4.706960
  H      3.824530    0.449110   -4.350930
  H      4.343370    1.249320   -6.416650
  H      4.676710    2.956620   -6.574110
  C      5.942130    0.939500   -2.036890
  H      3.864310    0.328530   -2.136610
  H      4.076230    2.049990   -1.989010
  H      6.329820    0.064010   -2.514510
  H      5.983080    0.814260   -0.975040
  H      6.528650    1.788890   -2.318730

 Total Charge           Charge          ....    1
 Multiplicity           Mult            ....    1
 Number of Electrons    NEL             ....   48
 Basis Dimension        Dim             ....  246

ORBITAL ENERGIES
----------------

  NO   OCC          E(Eh)            E(eV)
   0   2.0000     -14.972325      -407.4177
   1   2.0000     -14.971390      -407.3922
   2   2.0000     -14.969077      -407.3293
   3   2.0000     -10.877291      -295.9861
   4   2.0000     -10.743573      -292.3475
   5   2.0000     -10.667941      -290.2894
   6   2.0000      -1.330230       -36.1974
   7   2.0000      -1.212492       -32.9936
   8   2.0000      -1.195799       -32.5393
   9   2.0000      -1.025973       -27.9181
  10   2.0000      -0.932148       -25.3650
  11   2.0000      -0.883994       -24.0547
  12   2.0000      -0.863911       -23.5082
  13   2.0000      -0.819650       -22.3038
  14   2.0000      -0.764059       -20.7911
  15   2.0000      -0.758467       -20.6389
  16   2.0000      -0.731782       -19.9128
  17   2.0000      -0.697870       -18.9900
  18   2.0000      -0.672351       -18.2956
  19   2.0000      -0.623427       -16.9643
  20   2.0000      -0.595318       -16.1994
  21   2.0000      -0.574372       -15.6295
  22   2.0000      -0.541805       -14.7433
  23   2.0000      -0.511124       -13.9084
  24   0.0000      -0.125037        -3.4024
  25   0.0000      -0.122453        -3.3321
  26   0.0000      -0.090682        -2.4676
  27   0.0000      -0.082626        -2.2484
  28   0.0000      -0.059525        -1.6198

MULLIKEN ATOMIC CHARGES
-----------------------
   0 C :   -0.272449
   1 N :   -0.317997
   2 C :    0.609591
   3 N :   -0.490617
   4 N :   -0.494694
   5 H :    0.304106
   6 H :    0.289428
   7 H :    0.278664
   8 H :    0.300179
   9 H :    0.300186
  10 C :   -0.352762
  11 H :    0.181907
  12 H :    0.178703
  13 H :    0.159418
  14 H :    0.177802
  15 H :    0.148533
Sum of atomic charges:    1.0000000

LOEWDIN ATOMIC CHARGES
----------------------
   0 C :   -0.288043
   1 N :    0.166175
   2 C :   -0.398439
   3 N :    0.064601
   4 N :    0.049974
   5 H :    0.196922
   6 H :    0.196878
   7 H :    0.214506
   8 H :    0.201679
   9 H :    0.201117
  10 C :   -0.282082
  11 H :    0.152354
  12 H :    0.138506
  13 H :    0.128288
  14 H :    0.136512
  15 H :    0.121053

  Mayer bond orders larger than 0.100000
B(  0-C ,  1-N ) :   0.8582 B(  0-C , 10-C ) :   0.9307 B(  0-C , 11-H ) :   0.9541
B(  0-C , 12-H ) :   0.9859 B(  1-N ,  2-C ) :   1.3639 B(  1-N ,  7-H ) :   0.9042
B(  2-C ,  3-N ) :   1.2816 B(  2-C ,  4-N ) :   1.2648 B(  3-N ,  8-H ) :   0.8993
B(  3-N ,  9-H ) :   0.8968 B(  4-N ,  5-H ) :   0.8846 B(  4-N ,  6-H ) :   0.9030
B( 10-C , 13-H ) :   0.9608 B( 10-C , 14-H ) :   0.9669 B( 10-C , 15-H ) :   0.9612

Dispersion correction           -0.000313641
FINAL SINGLE POINT ENERGY      -284.371851000017

DIPOLE MOMENT
-------------
                                X             Y             Z
Electronic contribution:     -1.81919       1.57915      -4.47064
Nuclear contribution   :      1.34333      -1.11039       3.43667
                        -----------------------------------------
Total Dipole Moment    :     -0.47587       0.46876      -1.03397
                        -----------------------------------------
Magnitude (a.u.)       :      1.23097
Magnitude (Debye)      :      3.12887

Rotational constants in cm-1:     0.227161     0.075356     0.065003
Rotational constants in MHz :  6810.114531  2259.122204  1948.738523

                             ****ORCA TERMINATED NORMALLY****
TOTAL RUN TIME: 0 days 0 hours 0 minutes 30 seconds 189 msec
