                         Program Version 5.0.0 -  RELEASE  -
|  1> !M062X D3Zero RIJCOSX def2-TZVP def2/J TightSCF
|  2> *xyz 0 1
|  3> C          4.90646       -3.10282       -5.95484
|  4> C          3.51177       -2.80621       -6.49228
|  5> H          2.73604       -3.37345       -5.97374
|  6> H          3.44490       -3.04083       -7.55528
|  7> S          3.00462       -1.09621       -6.38926
|  8> F          4.12886       -0.32965       -6.95372
|  9> O          1.78128       -1.00078       -7.13640
| 10> O          2.85155       -0.78368       -4.95679
| 11> H          5.62703       -2.52424       -6.49422
| 12> H          5.12164       -4.14387       -6.07654
| 13> H          4.95004       -2.84862       -4.91639
| 14> *
| 15>
| 16> %MaxCore 64000
| 17>
| 18> %pal nprocs 4
| 19> end
| 20>
| 21> %scf
| 22>   MaxIter 150
| 23> end
| 24>
| 25>
| 26>                          ****END OF INPUT****

CARTESIAN COORDINATES (ANGSTROEM)
---------------------------------
  C      4.906460   -3.102820   -5.954840
  C      3.511770   -2.806210   -6.492280
  H      2.736040   -3.373450   -5.973740
  H      3.444900   -3.040830   -7.555280
  S      3.004620   -1.096210   -6.389260
  F      4.128860   -0.329650   -6.953720
  O      1.781280   -1.000780   -7.136400
  O      2.851550   -0.783680   -4.956790
  H      5.627030   -2.524240   -6.494220
  H      5.121640   -4.143870   -6.076540
  H      4.950040   -2.848620   -4.916390

 Total Charge           Charge          ....    0
 Multiplicity           Mult            ....    1
 Number of Electrons    NEL             ....   58
 Basis Dimension        Dim             ....  222

ORBITAL ENERGIES
----------------

  NO   OCC          E(Eh)            E(eV)
   0   2.0000     -90.150410     -2453.1174
   1   2.0000     -25.353821      -689.9125
   2   2.0000     -19.641870      -534.4824
   3   2.0000     -19.629922      -534.1573
   4   2.0000     -10.601078      -288.4700
   5   2.0000     -10.559792      -287.3466
   6   2.0000      -8.475563      -230.6318
   7   2.0000      -6.400495      -174.1663
   8   2.0000      -6.395314      -174.0253
   9   2.0000      -6.394840      -174.0124
  10   2.0000      -1.505890       -40.9774
  11   2.0000      -1.232463       -33.5370
  12   2.0000      -1.131325       -30.7849
  13   2.0000      -0.929506       -25.2931
  14   2.0000      -0.825205       -22.4550
  15   2.0000      -0.768980       -20.9250
  16   2.0000      -0.680953       -18.5297
  17   2.0000      -0.671404       -18.2698
  18   2.0000      -0.633974       -17.2513
  19   2.0000      -0.571812       -15.5598
  20   2.0000      -0.557417       -15.1681
  21   2.0000      -0.532267       -14.4837
  22   2.0000      -0.510818       -13.9001
  23   2.0000      -0.481610       -13.1053
  24   2.0000      -0.469134       -12.7658
  25   2.0000      -0.453772       -12.3478
  26   2.0000      -0.410591       -11.1727
  27   2.0000      -0.396854       -10.7989
  28   2.0000      -0.387325       -10.5396
  29   0.0000       0.045154         1.2287
  30   0.0000       0.085109         2.3159
  31   0.0000       0.094775         2.5790
  32   0.0000       0.103492         2.8162
  33   0.0000       0.112389         3.0583

MULLIKEN ATOMIC CHARGES
-----------------------
   0 C :   -0.411571
   1 C :   -0.300149
   2 H :    0.187036
   3 H :    0.172142
   4 S :    0.931976
   5 F :   -0.133406
   6 O :   -0.438335
   7 O :   -0.476589
   8 H :    0.148190
   9 H :    0.150797
  10 H :    0.169910
Sum of atomic charges:    0.0000000

LOEWDIN ATOMIC CHARGES
----------------------
   0 C :   -0.313831
   1 C :   -0.393564
   2 H :    0.152774
   3 H :    0.142088
   4 S :    0.565370
   5 F :    0.055735
   6 O :   -0.268210
   7 O :   -0.316889
   8 H :    0.121382
   9 H :    0.126762
  10 H :    0.128381

  Mayer bond orders larger than 0.100000
B(  0-C ,  1-C ) :   0.9356 B(  0-C ,  8-H ) :   0.9671 B(  0-C ,  9-H ) :   0.9629
B(  0-C , 10-H ) :   0.9625 B(  1-C ,  2-H ) :   0.9396 B(  1-C ,  3-H ) :   0.9420
B(  1-C ,  4-S ) :   0.9176 B(  4-S ,  5-F ) :   1.0826 B(  4-S ,  6-O ) :   1.9411
B(  4-S ,  7-O ) :   1.8799

Dispersion correction           -0.000152421
FINAL SINGLE POINT ENERGY      -727.683369440906

DIPOLE MOMENT
-------------
                                X             Y             Z
Electronic contribution:     -2.95719       8.16045      -1.76267
Nuclear contribution   :      4.18919      -9.36357       1.23251
                        -----------------------------------------
Total Dipole Moment    :      1.23200      -1.20311      -0.53015
                        -----------------------------------------
Magnitude (a.u.)       :      1.80177
Magnitude (Debye)      :      4.57974

Rotational constants in cm-1:     0.153152     0.082513     0.079874
Rotational constants in MHz :  4591.373714  2473.673397  2394.575279

                             ****ORCA TERMINATED NORMALLY****
TOTAL RUN TIME: 0 days 0 hours 0 minutes 23 seconds 628 msec
