                         Program Version 5.0.0 -  RELEASE  -
|  1> !M062X D3Zero RIJCOSX def2-TZVP def2/J TightSCF
|  2> *xyz 0 1
|  3> C          4.49059        1.15590       -2.46929
|  4> C          4.30539        1.22276       -3.90832
|  5> C          4.63192        2.24637       -4.67096
|  6> N          4.54169        2.14399       -5.98714
|  7> N          5.08409        3.39358       -4.11855
|  8> H          4.92067        3.57050       -3.13587
|  9> H          5.25465        4.19739       -4.70696
| 10> H          3.82453        0.44911       -4.35093
| 11> H          4.34337        1.24932       -6.41665
| 12> H          4.67671        2.95662       -6.57411
| 13> C          5.94213        0.93950       -2.03689
| 14> H          3.86431        0.32853       -2.13661
| 15> H          4.07623        2.04999       -1.98901
| 16> H          6.32982        0.06401       -2.51451
| 17> H          5.98308        0.81426       -0.97504
| 18> H          6.52865        1.78889       -2.31873
| 19> *
| 20>
| 21> %MaxCore 64000
| 22>
| 23> %pal nprocs 4
| 24> end
| 25>
| 26> %scf
| 27>   MaxIter 150
| 28> end
| 29>
| 30>
| 31>                          ****END OF INPUT****

CARTESIAN COORDINATES (ANGSTROEM)
---------------------------------
  C      4.490590    1.155900   -2.469290
  C      4.305390    1.222760   -3.908320
  C      4.631920    2.246370   -4.670960
  N      4.541690    2.143990   -5.987140
  N      5.084090    3.393580   -4.118550
  H      4.920670    3.570500   -3.135870
  H      5.254650    4.197390   -4.706960
  H      3.824530    0.449110   -4.350930
  H      4.343370    1.249320   -6.416650
  H      4.676710    2.956620   -6.574110
  C      5.942130    0.939500   -2.036890
  H      3.864310    0.328530   -2.136610
  H      4.076230    2.049990   -1.989010
  H      6.329820    0.064010   -2.514510
  H      5.983080    0.814260   -0.975040
  H      6.528650    1.788890   -2.318730

 Total Charge           Charge          ....    0
 Multiplicity           Mult            ....    1
 Number of Electrons    NEL             ....   48
 Basis Dimension        Dim             ....  246

ORBITAL ENERGIES
----------------

  NO   OCC          E(Eh)            E(eV)
   0   2.0000     -14.746435      -401.2709
   1   2.0000     -14.743741      -401.1976
   2   2.0000     -10.579503      -287.8829
   3   2.0000     -10.506055      -285.8843
   4   2.0000     -10.493986      -285.5559
   5   2.0000     -10.453767      -284.4615
   6   2.0000      -1.069907       -29.1137
   7   2.0000      -0.973081       -26.4789
   8   2.0000      -0.869253       -23.6536
   9   2.0000      -0.785539       -21.3756
  10   2.0000      -0.701907       -19.0999
  11   2.0000      -0.654508       -17.8101
  12   2.0000      -0.614658       -16.7257
  13   2.0000      -0.581609       -15.8264
  14   2.0000      -0.542068       -14.7504
  15   2.0000      -0.503896       -13.7117
  16   2.0000      -0.488954       -13.3051
  17   2.0000      -0.455096       -12.3838
  18   2.0000      -0.453509       -12.3406
  19   2.0000      -0.410064       -11.1584
  20   2.0000      -0.387441       -10.5428
  21   2.0000      -0.376050       -10.2328
  22   2.0000      -0.330377        -8.9900
  23   2.0000      -0.210782        -5.7357
  24   0.0000       0.049837         1.3561
  25   0.0000       0.080305         2.1852
  26   0.0000       0.092428         2.5151
  27   0.0000       0.111248         3.0272
  28   0.0000       0.116907         3.1812

MULLIKEN ATOMIC CHARGES
-----------------------
   0 C :   -0.366550
   1 C :   -0.311009
   2 C :    0.476417
   3 N :   -0.572218
   4 N :   -0.584476
   5 H :    0.261987
   6 H :    0.229300
   7 H :    0.117738
   8 H :    0.259225
   9 H :    0.231733
  10 C :   -0.355516
  11 H :    0.123546
  12 H :    0.114608
  13 H :    0.127610
  14 H :    0.120327
  15 H :    0.127278
Sum of atomic charges:   -0.0000000

LOEWDIN ATOMIC CHARGES
----------------------
   0 C :   -0.313356
   1 C :   -0.286013
   2 C :   -0.453573
   3 N :   -0.018885
   4 N :   -0.028787
   5 H :    0.175484
   6 H :    0.162101
   7 H :    0.121021
   8 H :    0.180446
   9 H :    0.163351
  10 C :   -0.305224
  11 H :    0.141362
  12 H :    0.125443
  13 H :    0.115368
  14 H :    0.108728
  15 H :    0.112534

  Mayer bond orders larger than 0.100000
B(  0-C ,  1-C ) :   0.9807 B(  0-C , 10-C ) :   0.9207 B(  0-C , 11-H ) :   0.9924
B(  0-C , 12-H ) :   0.9933 B(  1-C ,  2-C ) :   1.6718 B(  1-C ,  7-H ) :   0.9850
B(  2-C ,  3-N ) :   1.0587 B(  2-C ,  4-N ) :   1.0500 B(  3-N ,  8-H ) :   0.9259
B(  3-N ,  9-H ) :   0.9319 B(  4-N ,  5-H ) :   0.9130 B(  4-N ,  6-H ) :   0.9366
B( 10-C , 13-H ) :   0.9774 B( 10-C , 14-H ) :   0.9823 B( 10-C , 15-H ) :   0.9729

Dispersion correction           -0.000311773
FINAL SINGLE POINT ENERGY      -267.890195477364

DIPOLE MOMENT
-------------
                                X             Y             Z
Electronic contribution:     -1.26366       2.01285      -4.15583
Nuclear contribution   :      1.23062      -1.24683       3.43056
                        -----------------------------------------
Total Dipole Moment    :     -0.03304       0.76602      -0.72527
                        -----------------------------------------
Magnitude (a.u.)       :      1.05541
Magnitude (Debye)      :      2.68264

Rotational constants in cm-1:     0.231477     0.075416     0.065327
Rotational constants in MHz :  6939.497385  2260.912204  1958.442932

                             ****ORCA TERMINATED NORMALLY****
TOTAL RUN TIME: 0 days 0 hours 0 minutes 30 seconds 209 msec
