                         Program Version 5.0.0 -  RELEASE  -
|  1> !M062X D3Zero RIJCOSX def2-TZVP def2/J TightSCF
|  2> *xyz 0 1
|  3> C          4.90646       -3.10282       -5.95484
|  4> C          3.51177       -2.80621       -6.49228
|  5> H          2.73604       -3.37345       -5.97374
|  6> H          3.44490       -3.04083       -7.55528
|  7> S          3.00462       -1.09621       -6.38926
|  8> O          4.12886       -0.32965       -6.95372
|  9> F          1.78128       -1.00078       -7.13640
| 10> O          2.85155       -0.78368       -4.95679
| 11> H          5.62703       -2.52424       -6.49422
| 12> H          5.12164       -4.14387       -6.07654
| 13> H          4.95004       -2.84862       -4.91639
| 14> *
| 15>
| 16> %MaxCore 64000
| 17>
| 18> %pal nprocs 4
| 19> end
| 20>
| 21> %scf
| 22>   MaxIter 150
| 23> end
| 24>
| 25>
| 26>                          ****END OF INPUT****

CARTESIAN COORDINATES (ANGSTROEM)
---------------------------------
  C      4.906460   -3.102820   -5.954840
  C      3.511770   -2.806210   -6.492280
  H      2.736040   -3.373450   -5.973740
  H      3.444900   -3.040830   -7.555280
  S      3.004620   -1.096210   -6.389260
  O      4.128860   -0.329650   -6.953720
  F      1.781280   -1.000780   -7.136400
  O      2.851550   -0.783680   -4.956790
  H      5.627030   -2.524240   -6.494220
  H      5.121640   -4.143870   -6.076540
  H      4.950040   -2.848620   -4.916390

 Total Charge           Charge          ....    0
 Multiplicity           Mult            ....    1
 Number of Electrons    NEL             ....   58
 Basis Dimension        Dim             ....  222

ORBITAL ENERGIES
----------------

  NO   OCC          E(Eh)            E(eV)
   0   2.0000     -90.152173     -2453.1653
   1   2.0000     -25.372509      -690.4211
   2   2.0000     -19.630044      -534.1606
   3   2.0000     -19.629895      -534.1566
   4   2.0000     -10.601617      -288.4847
   5   2.0000     -10.555033      -287.2170
   6   2.0000      -8.477359      -230.6807
   7   2.0000      -6.402117      -174.2105
   8   2.0000      -6.397097      -174.0739
   9   2.0000      -6.396676      -174.0624
  10   2.0000      -1.537228       -41.8301
  11   2.0000      -1.217863       -33.1397
  12   2.0000      -1.117524       -30.4094
  13   2.0000      -0.926389       -25.2083
  14   2.0000      -0.841419       -22.8962
  15   2.0000      -0.770985       -20.9796
  16   2.0000      -0.694664       -18.9028
  17   2.0000      -0.687313       -18.7027
  18   2.0000      -0.642640       -17.4871
  19   2.0000      -0.571672       -15.5560
  20   2.0000      -0.559147       -15.2152
  21   2.0000      -0.516531       -14.0555
  22   2.0000      -0.501173       -13.6376
  23   2.0000      -0.477259       -12.9869
  24   2.0000      -0.456807       -12.4304
  25   2.0000      -0.454026       -12.3547
  26   2.0000      -0.400794       -10.9062
  27   2.0000      -0.393350       -10.7036
  28   2.0000      -0.376015       -10.2319
  29   0.0000       0.056039         1.5249
  30   0.0000       0.072600         1.9756
  31   0.0000       0.097849         2.6626
  32   0.0000       0.100558         2.7363
  33   0.0000       0.112770         3.0686

MULLIKEN ATOMIC CHARGES
-----------------------
   0 C :   -0.404834
   1 C :   -0.294263
   2 H :    0.169122
   3 H :    0.162957
   4 S :    0.924536
   5 O :   -0.470032
   6 F :   -0.102935
   7 O :   -0.468574
   8 H :    0.168926
   9 H :    0.148166
  10 H :    0.166932
Sum of atomic charges:   -0.0000000

LOEWDIN ATOMIC CHARGES
----------------------
   0 C :   -0.299101
   1 C :   -0.400461
   2 H :    0.140372
   3 H :    0.139003
   4 S :    0.559820
   5 O :   -0.310769
   6 F :    0.099505
   7 O :   -0.314184
   8 H :    0.129654
   9 H :    0.126421
  10 H :    0.129742

  Mayer bond orders larger than 0.100000
B(  0-C ,  1-C ) :   0.9490 B(  0-C ,  8-H ) :   0.9633 B(  0-C ,  9-H ) :   0.9602
B(  0-C , 10-H ) :   0.9641 B(  1-C ,  2-H ) :   0.9366 B(  1-C ,  3-H ) :   0.9358
B(  1-C ,  4-S ) :   0.9263 B(  4-S ,  5-O ) :   1.8682 B(  4-S ,  6-F ) :   1.1307
B(  4-S ,  7-O ) :   1.8823

Dispersion correction           -0.000140856
FINAL SINGLE POINT ENERGY      -727.668216841722

DIPOLE MOMENT
-------------
                                X             Y             Z
Electronic contribution:     -6.97342       7.03196      -2.07263
Nuclear contribution   :      6.63544      -8.66423       1.42287
                        -----------------------------------------
Total Dipole Moment    :     -0.33798      -1.63227      -0.64976
                        -----------------------------------------
Magnitude (a.u.)       :      1.78906
Magnitude (Debye)      :      4.54742

Rotational constants in cm-1:     0.158118     0.080978     0.078216
Rotational constants in MHz :  4740.271775  2427.649826  2344.849020

                             ****ORCA TERMINATED NORMALLY****
TOTAL RUN TIME: 0 days 0 hours 0 minutes 23 seconds 719 msec
