                         Program Version 5.0.0 -  RELEASE  -
|  1> !M062X D3Zero RIJCOSX def2-TZVP def2/J TightSCF
|  2> *xyz 0 1
|  3> C          4.49059        1.15590       -2.46929
|  4> N          4.30539        1.22276       -3.90832
|  5> C          4.63192        2.24637       -4.67096
|  6> C          4.54169        2.14399       -5.98714
|  7> N          5.08409        3.39358       -4.11855
|  8> H          4.92067        3.57050       -3.13587
|  9> H          5.25465        4.19739       -4.70696
| 10> H          3.82453        0.44911       -4.35093
| 11> H          4.34337        1.24932       -6.41665
| 12> H          4.67671        2.95662       -6.57411
| 13> C          5.94213        0.93950       -2.03689
| 14> H          3.86431        0.32853       -2.13661
| 15> H          4.07623        2.04999       -1.98901
| 16> H          6.32982        0.06401       -2.51451
| 17> H          5.98308        0.81426       -0.97504
| 18> H          6.52865        1.78889       -2.31873
| 19> *
| 20>
| 21> %MaxCore 64000
| 22>
| 23> %pal nprocs 4
| 24> end
| 25>
| 26> %scf
| 27>   MaxIter 150
| 28> end
| 29>
| 30>
| 31>                          ****END OF INPUT****

CARTESIAN COORDINATES (ANGSTROEM)
---------------------------------
  C      4.490590    1.155900   -2.469290
  N      4.305390    1.222760   -3.908320
  C      4.631920    2.246370   -4.670960
  C      4.541690    2.143990   -5.987140
  N      5.084090    3.393580   -4.118550
  H      4.920670    3.570500   -3.135870
  H      5.254650    4.197390   -4.706960
  H      3.824530    0.449110   -4.350930
  H      4.343370    1.249320   -6.416650
  H      4.676710    2.956620   -6.574110
  C      5.942130    0.939500   -2.036890
  H      3.864310    0.328530   -2.136610
  H      4.076230    2.049990   -1.989010
  H      6.329820    0.064010   -2.514510
  H      5.983080    0.814260   -0.975040
  H      6.528650    1.788890   -2.318730

 Total Charge           Charge          ....    0
 Multiplicity           Mult            ....    1
 Number of Electrons    NEL             ....   48
 Basis Dimension        Dim             ....  246

ORBITAL ENERGIES
----------------

  NO   OCC          E(Eh)            E(eV)
   0   2.0000     -14.746032      -401.2599
   1   2.0000     -14.744686      -401.2233
   2   2.0000     -10.581637      -287.9410
   3   2.0000     -10.575871      -287.7841
   4   2.0000     -10.520748      -286.2841
   5   2.0000     -10.444493      -284.2091
   6   2.0000      -1.078782       -29.3552
   7   2.0000      -0.985589       -26.8192
   8   2.0000      -0.867142       -23.5961
   9   2.0000      -0.794547       -21.6207
  10   2.0000      -0.716003       -19.4834
  11   2.0000      -0.676781       -18.4161
  12   2.0000      -0.609417       -16.5831
  13   2.0000      -0.569587       -15.4992
  14   2.0000      -0.548513       -14.9258
  15   2.0000      -0.517017       -14.0687
  16   2.0000      -0.492091       -13.3905
  17   2.0000      -0.469215       -12.7680
  18   2.0000      -0.446650       -12.1540
  19   2.0000      -0.436620       -11.8810
  20   2.0000      -0.423949       -11.5362
  21   2.0000      -0.415754       -11.3132
  22   2.0000      -0.318081        -8.6554
  23   2.0000      -0.214105        -5.8261
  24   0.0000       0.052093         1.4175
  25   0.0000       0.077165         2.0998
  26   0.0000       0.090359         2.4588
  27   0.0000       0.104547         2.8449
  28   0.0000       0.124752         3.3947

MULLIKEN ATOMIC CHARGES
-----------------------
   0 C :   -0.257287
   1 N :   -0.386259
   2 C :    0.534904
   3 C :   -0.599602
   4 N :   -0.584704
   5 H :    0.243398
   6 H :    0.251853
   7 H :    0.243561
   8 H :    0.108327
   9 H :    0.102131
  10 C :   -0.328354
  11 H :    0.136807
  12 H :    0.138878
  13 H :    0.131291
  14 H :    0.127382
  15 H :    0.137675
Sum of atomic charges:   -0.0000000

LOEWDIN ATOMIC CHARGES
----------------------
   0 C :   -0.320781
   1 N :    0.113087
   2 C :   -0.458986
   3 C :   -0.338133
   4 N :   -0.026979
   5 H :    0.161971
   6 H :    0.177120
   7 H :    0.197149
   8 H :    0.097097
   9 H :    0.096340
  10 C :   -0.304981
  11 H :    0.133374
  12 H :    0.122617
  13 H :    0.118152
  14 H :    0.116031
  15 H :    0.116922

  Mayer bond orders larger than 0.100000
B(  0-C ,  1-N ) :   0.9429 B(  0-C , 10-C ) :   0.9119 B(  0-C , 11-H ) :   0.9764
B(  0-C , 12-H ) :   0.9967 B(  1-N ,  2-C ) :   1.1329 B(  1-N ,  7-H ) :   0.9321
B(  2-C ,  3-C ) :   1.5830 B(  2-C ,  4-N ) :   1.0446 B(  3-C ,  8-H ) :   1.0212
B(  3-C ,  9-H ) :   1.0078 B(  4-N ,  5-H ) :   0.9192 B(  4-N ,  6-H ) :   0.9298
B( 10-C , 13-H ) :   0.9709 B( 10-C , 14-H ) :   0.9717 B( 10-C , 15-H ) :   0.9665

Dispersion correction           -0.000307823
FINAL SINGLE POINT ENERGY      -267.883559683207

DIPOLE MOMENT
-------------
                                X             Y             Z
Electronic contribution:     -1.42855       1.08593      -1.94197
Nuclear contribution   :      1.28075      -1.05140       2.98955
                        -----------------------------------------
Total Dipole Moment    :     -0.14780       0.03454       1.04758
                        -----------------------------------------
Magnitude (a.u.)       :      1.05852
Magnitude (Debye)      :      2.69055

Rotational constants in cm-1:     0.229858     0.078444     0.067377
Rotational constants in MHz :  6890.979812  2351.691803  2019.910665

                             ****ORCA TERMINATED NORMALLY****
TOTAL RUN TIME: 0 days 0 hours 0 minutes 31 seconds 818 msec
