                         Program Version 5.0.0 -  RELEASE  -
|  1> !M062X D3Zero RIJCOSX def2-TZVP def2/J TightSCF
|  2> *xyz 0 1
|  3> C          4.90646       -3.10282       -5.95484
|  4> C          3.51177       -2.80621       -6.49228
|  5> H          2.73604       -3.37345       -5.97374
|  6> H          3.44490       -3.04083       -7.55528
|  7> S          3.00462       -1.09621       -6.38926
|  8> O          4.12886       -0.32965       -6.95372
|  9> O          1.78128       -1.00078       -7.13640
| 10> F          2.85155       -0.78368       -4.95679
| 11> H          5.62703       -2.52424       -6.49422
| 12> H          5.12164       -4.14387       -6.07654
| 13> H          4.95004       -2.84862       -4.91639
| 14> *
| 15>
| 16> %MaxCore 64000
| 17>
| 18> %pal nprocs 4
| 19> end
| 20>
| 21> %scf
| 22>   MaxIter 150
| 23> end
| 24>
| 25>
| 26>                          ****END OF INPUT****

CARTESIAN COORDINATES (ANGSTROEM)
---------------------------------
  C      4.906460   -3.102820   -5.954840
  C      3.511770   -2.806210   -6.492280
  H      2.736040   -3.373450   -5.973740
  H      3.444900   -3.040830   -7.555280
  S      3.004620   -1.096210   -6.389260
  O      4.128860   -0.329650   -6.953720
  O      1.781280   -1.000780   -7.136400
  F      2.851550   -0.783680   -4.956790
  H      5.627030   -2.524240   -6.494220
  H      5.121640   -4.143870   -6.076540
  H      4.950040   -2.848620   -4.916390

 Total Charge           Charge          ....    0
 Multiplicity           Mult            ....    1
 Number of Electrons    NEL             ....   58
 Basis Dimension        Dim             ....  222

ORBITAL ENERGIES
----------------

  NO   OCC          E(Eh)            E(eV)
   0   2.0000     -90.150517     -2453.1203
   1   2.0000     -25.353580      -689.9060
   2   2.0000     -19.642093      -534.4885
   3   2.0000     -19.630414      -534.1707
   4   2.0000     -10.600887      -288.4648
   5   2.0000     -10.556656      -287.2612
   6   2.0000      -8.475665      -230.6346
   7   2.0000      -6.400530      -174.1673
   8   2.0000      -6.395532      -174.0313
   9   2.0000      -6.394898      -174.0140
  10   2.0000      -1.504981       -40.9526
  11   2.0000      -1.232694       -33.5433
  12   2.0000      -1.133063       -30.8322
  13   2.0000      -0.927073       -25.2269
  14   2.0000      -0.824624       -22.4392
  15   2.0000      -0.767844       -20.8941
  16   2.0000      -0.678253       -18.4562
  17   2.0000      -0.670491       -18.2450
  18   2.0000      -0.635619       -17.2961
  19   2.0000      -0.570537       -15.5251
  20   2.0000      -0.559050       -15.2125
  21   2.0000      -0.534769       -14.5518
  22   2.0000      -0.505835       -13.7645
  23   2.0000      -0.478637       -13.0244
  24   2.0000      -0.469373       -12.7723
  25   2.0000      -0.450566       -12.2605
  26   2.0000      -0.411444       -11.1960
  27   2.0000      -0.397067       -10.8047
  28   2.0000      -0.388835       -10.5807
  29   0.0000       0.046443         1.2638
  30   0.0000       0.081625         2.2211
  31   0.0000       0.092709         2.5227
  32   0.0000       0.106235         2.8908
  33   0.0000       0.113650         3.0926

MULLIKEN ATOMIC CHARGES
-----------------------
   0 C :   -0.406193
   1 C :   -0.303224
   2 H :    0.168649
   3 H :    0.186909
   4 S :    0.933363
   5 O :   -0.477788
   6 O :   -0.439988
   7 F :   -0.131465
   8 H :    0.174184
   9 H :    0.148925
  10 H :    0.146628
Sum of atomic charges:    0.0000000

LOEWDIN ATOMIC CHARGES
----------------------
   0 C :   -0.312280
   1 C :   -0.395328
   2 H :    0.139676
   3 H :    0.153689
   4 S :    0.566256
   5 O :   -0.313138
   6 O :   -0.268836
   7 F :    0.052812
   8 H :    0.129237
   9 H :    0.125822
  10 H :    0.122090

  Mayer bond orders larger than 0.100000
B(  0-C ,  1-C ) :   0.9353 B(  0-C ,  8-H ) :   0.9622 B(  0-C ,  9-H ) :   0.9620
B(  0-C , 10-H ) :   0.9674 B(  1-C ,  2-H ) :   0.9428 B(  1-C ,  3-H ) :   0.9386
B(  1-C ,  4-S ) :   0.9192 B(  4-S ,  5-O ) :   1.8663 B(  4-S ,  6-O ) :   1.9401
B(  4-S ,  7-F ) :   1.0872

Dispersion correction           -0.000151613
FINAL SINGLE POINT ENERGY      -727.683780054492

DIPOLE MOMENT
-------------
                                X             Y             Z
Electronic contribution:     -5.15151       7.39592       1.66471
Nuclear contribution   :      5.52019      -8.89046      -0.84835
                        -----------------------------------------
Total Dipole Moment    :      0.36868      -1.49454       0.81636
                        -----------------------------------------
Magnitude (a.u.)       :      1.74242
Magnitude (Debye)      :      4.42887

Rotational constants in cm-1:     0.153332     0.082132     0.079755
Rotational constants in MHz :  4596.775407  2462.251277  2391.008596

                             ****ORCA TERMINATED NORMALLY****
TOTAL RUN TIME: 0 days 0 hours 0 minutes 23 seconds 667 msec
