                         Program Version 5.0.0 -  RELEASE  -
|  1> !M062X D3Zero RIJCOSX def2-TZVP def2/J TightSCF
|  2> *xyz 0 1
|  3> C          4.49059        1.15590       -2.46929
|  4> N          4.30539        1.22276       -3.90832
|  5> C          4.63192        2.24637       -4.67096
|  6> N          4.54169        2.14399       -5.98714
|  7> C          5.08409        3.39358       -4.11855
|  8> H          4.92067        3.57050       -3.13587
|  9> H          5.25465        4.19739       -4.70696
| 10> H          3.82453        0.44911       -4.35093
| 11> H          4.34337        1.24932       -6.41665
| 12> H          4.67671        2.95662       -6.57411
| 13> C          5.94213        0.93950       -2.03689
| 14> H          3.86431        0.32853       -2.13661
| 15> H          4.07623        2.04999       -1.98901
| 16> H          6.32982        0.06401       -2.51451
| 17> H          5.98308        0.81426       -0.97504
| 18> H          6.52865        1.78889       -2.31873
| 19> *
| 20>
| 21> %MaxCore 64000
| 22>
| 23> %pal nprocs 4
| 24> end
| 25>
| 26> %scf
| 27>   MaxIter 150
| 28> end
| 29>
| 30>
| 31>                          ****END OF INPUT****

CARTESIAN COORDINATES (ANGSTROEM)
---------------------------------
  C      4.490590    1.155900   -2.469290
  N      4.305390    1.222760   -3.908320
  C      4.631920    2.246370   -4.670960
  N      4.541690    2.143990   -5.987140
  C      5.084090    3.393580   -4.118550
  H      4.920670    3.570500   -3.135870
  H      5.254650    4.197390   -4.706960
  H      3.824530    0.449110   -4.350930
  H      4.343370    1.249320   -6.416650
  H      4.676710    2.956620   -6.574110
  C      5.942130    0.939500   -2.036890
  H      3.864310    0.328530   -2.136610
  H      4.076230    2.049990   -1.989010
  H      6.329820    0.064010   -2.514510
  H      5.983080    0.814260   -0.975040
  H      6.528650    1.788890   -2.318730

 Total Charge           Charge          ....    0
 Multiplicity           Mult            ....    1
 Number of Electrons    NEL             ....   48
 Basis Dimension        Dim             ....  246

ORBITAL ENERGIES
----------------

  NO   OCC          E(Eh)            E(eV)
   0   2.0000     -14.749722      -401.3603
   1   2.0000     -14.746639      -401.2764
   2   2.0000     -10.584592      -288.0214
   3   2.0000     -10.567735      -287.5627
   4   2.0000     -10.510624      -286.0086
   5   2.0000     -10.444740      -284.2158
   6   2.0000      -1.082907       -29.4674
   7   2.0000      -0.992742       -27.0139
   8   2.0000      -0.847228       -23.0542
   9   2.0000      -0.799285       -21.7497
  10   2.0000      -0.725373       -19.7384
  11   2.0000      -0.640948       -17.4411
  12   2.0000      -0.625958       -17.0332
  13   2.0000      -0.595208       -16.1964
  14   2.0000      -0.539434       -14.6787
  15   2.0000      -0.506275       -13.7765
  16   2.0000      -0.481187       -13.0938
  17   2.0000      -0.461727       -12.5642
  18   2.0000      -0.444895       -12.1062
  19   2.0000      -0.428883       -11.6705
  20   2.0000      -0.425390       -11.5755
  21   2.0000      -0.406506       -11.0616
  22   2.0000      -0.312817        -8.5122
  23   2.0000      -0.214532        -5.8377
  24   0.0000       0.051179         1.3927
  25   0.0000       0.079937         2.1752
  26   0.0000       0.092506         2.5172
  27   0.0000       0.105952         2.8831
  28   0.0000       0.122087         3.3222

MULLIKEN ATOMIC CHARGES
-----------------------
   0 C :   -0.207887
   1 N :   -0.395953
   2 C :    0.506814
   3 N :   -0.574650
   4 C :   -0.584092
   5 H :    0.115287
   6 H :    0.089194
   7 H :    0.216648
   8 H :    0.232187
   9 H :    0.261934
  10 C :   -0.354137
  11 H :    0.130324
  12 H :    0.151072
  13 H :    0.119714
  14 H :    0.127666
  15 H :    0.165879
Sum of atomic charges:    0.0000000

LOEWDIN ATOMIC CHARGES
----------------------
   0 C :   -0.303130
   1 N :    0.109997
   2 C :   -0.466541
   3 N :   -0.014563
   4 C :   -0.354822
   5 H :    0.097280
   6 H :    0.092965
   7 H :    0.180566
   8 H :    0.163743
   9 H :    0.181123
  10 C :   -0.302746
  11 H :    0.130175
  12 H :    0.131229
  13 H :    0.114454
  14 H :    0.116320
  15 H :    0.123950

  Mayer bond orders larger than 0.100000
B(  0-C ,  1-N ) :   0.9304 B(  0-C , 10-C ) :   0.9263 B(  0-C , 11-H ) :   0.9753
B(  0-C , 12-H ) :   0.9887 B(  1-N ,  2-C ) :   1.1305 B(  1-N ,  7-H ) :   0.9361
B(  2-C ,  3-N ) :   1.0664 B(  2-C ,  4-C ) :   1.5988 B(  3-N ,  8-H ) :   0.9332
B(  3-N ,  9-H ) :   0.9240 B(  4-C ,  5-H ) :   1.0006 B(  4-C ,  6-H ) :   1.0085
B( 10-C , 13-H ) :   0.9722 B( 10-C , 14-H ) :   0.9743 B( 10-C , 15-H ) :   0.9670

Dispersion correction           -0.000308861
FINAL SINGLE POINT ENERGY      -267.882711949151

DIPOLE MOMENT
-------------
                                X             Y             Z
Electronic contribution:     -1.91143      -0.16239      -3.85690
Nuclear contribution   :      1.39581      -0.78630       3.38596
                        -----------------------------------------
Total Dipole Moment    :     -0.51562      -0.94870      -0.47094
                        -----------------------------------------
Magnitude (a.u.)       :      1.17800
Magnitude (Debye)      :      2.99423

Rotational constants in cm-1:     0.239249     0.075811     0.066261
Rotational constants in MHz :  7172.504830  2272.756282  1986.457543

                             ****ORCA TERMINATED NORMALLY****
TOTAL RUN TIME: 0 days 0 hours 0 minutes 30 seconds 640 msec
