                         Program Version 5.0.0 -  RELEASE  -
|  1> !M062X D3Zero RIJCOSX def2-TZVP def2/J TightSCF xyzfile
|  2>
|  3> *xyzfile 0 1 D2.xyz
|  4>
|  5> %MaxCore 64000
|  6>
|  7> %pal nprocs 18
|  8> end
|  9>
| 10> %scf
| 11>   MaxIter 150
| 12> end
| 13>
| 14>
| 15>                          ****END OF INPUT****

CARTESIAN COORDINATES (ANGSTROEM)
---------------------------------
  C      4.490588    1.155899   -2.469290
  N      4.305394    1.222762   -3.908317
  C      4.906458   -3.102816   -5.954844
  C      3.511771   -2.806215   -6.492283
  H      2.736044   -3.373445   -5.973736
  H      3.444904   -3.040831   -7.555281
  S      3.004618   -1.096206   -6.389259
  C      4.631918    2.246365   -4.670958
  C      4.541686    2.143990   -5.987139
  N      5.084086    3.393584   -4.118545
  H      4.920675    3.570501   -3.135870
  H      5.254652    4.197390   -4.706956
  H      3.824530    0.449113   -4.350926
  H      4.343373    1.249318   -6.416646
  H      4.676712    2.956624   -6.574113
  F      4.128856   -0.329647   -6.953717
  O      1.781285   -1.000779   -7.136399
  C      5.942129    0.939500   -2.036893
  H      3.864305    0.328532   -2.136611
  H      4.076233    2.049994   -1.989010
  C      6.462677   -3.117775   -3.944671
  C      5.024977   -3.025679   -4.437625
  H      4.423321   -3.818693   -3.977648
  H      4.579350   -2.087131   -4.108727
  H      5.201533   -4.100207   -6.296905
  H      5.605922   -2.397822   -6.413368
  C      6.559957   -0.356290   -2.559086
  H      5.967976    0.952567   -0.942444
  H      6.547184    1.788331   -2.368849
  C      6.006283   -1.615917   -1.899301
  H      7.642360   -0.318000   -2.402059
  H      6.414855   -0.403433   -3.642587
  C      6.608718   -2.917014   -2.435655
  H      6.190324   -1.561115   -0.820948
  H      4.919250   -1.651245   -2.016586
  H      7.066975   -2.374258   -4.475514
  H      6.887808   -4.089747   -4.215332
  H      6.135197   -3.755573   -1.915159
  H      7.671142   -2.955503   -2.172291
  O      2.851546   -0.783683   -4.956789

 Total Charge           Charge          ....    0
 Multiplicity           Mult            ....    1
 Number of Electrons    NEL             ....  144
 Basis Dimension        Dim             ....  671

ORBITAL ENERGIES
----------------

  NO   OCC          E(Eh)            E(eV)
   0   2.0000     -90.162808     -2453.4547
   1   2.0000     -25.359461      -690.0660
   2   2.0000     -19.650285      -534.7114
   3   2.0000     -19.648472      -534.6621
   4   2.0000     -14.733416      -400.9166
   5   2.0000     -14.718472      -400.5100
   6   2.0000     -10.603979      -288.5489
   7   2.0000     -10.568954      -287.5959
   8   2.0000     -10.568951      -287.5958
   9   2.0000     -10.559482      -287.3381
  10   2.0000     -10.542009      -286.8626
  11   2.0000     -10.536875      -286.7229
  12   2.0000     -10.532563      -286.6056
  13   2.0000     -10.527398      -286.4651
  14   2.0000     -10.523685      -286.3640
  15   2.0000     -10.523299      -286.3535
  16   2.0000     -10.429732      -283.8074
  17   2.0000      -8.487976      -230.9696
  18   2.0000      -6.412800      -174.5012
  19   2.0000      -6.407752      -174.3638
  20   2.0000      -6.407341      -174.3526
  21   2.0000      -1.515586       -41.2412
  22   2.0000      -1.245783       -33.8995
  23   2.0000      -1.150311       -31.3016
  24   2.0000      -1.062336       -28.9076
  25   2.0000      -0.971580       -26.4380
  26   2.0000      -0.949182       -25.8285
  27   2.0000      -0.913986       -24.8708
  28   2.0000      -0.883323       -24.0364
  29   2.0000      -0.847289       -23.0559
  30   2.0000      -0.825212       -22.4552
  31   2.0000      -0.796669       -21.6785
  32   2.0000      -0.770592       -20.9689
  33   2.0000      -0.737551       -20.0698
  34   2.0000      -0.710801       -19.3419
  35   2.0000      -0.693672       -18.8758
  36   2.0000      -0.683884       -18.6094
  37   2.0000      -0.679873       -18.5003
  38   2.0000      -0.663927       -18.0664
  39   2.0000      -0.642261       -17.4768
  40   2.0000      -0.635024       -17.2799
  41   2.0000      -0.593839       -16.1592
  42   2.0000      -0.578790       -15.7497
  43   2.0000      -0.566508       -15.4155
  44   2.0000      -0.557907       -15.1814
  45   2.0000      -0.553590       -15.0639
  46   2.0000      -0.540027       -14.6949
  47   2.0000      -0.538035       -14.6407
  48   2.0000      -0.532064       -14.4782
  49   2.0000      -0.512989       -13.9591
  50   2.0000      -0.505510       -13.7556
  51   2.0000      -0.501414       -13.6442
  52   2.0000      -0.491438       -13.3727
  53   2.0000      -0.473124       -12.8744
  54   2.0000      -0.461804       -12.5663
  55   2.0000      -0.460535       -12.5318
  56   2.0000      -0.447361       -12.1733
  57   2.0000      -0.441114       -12.0033
  58   2.0000      -0.434360       -11.8195
  59   2.0000      -0.428184       -11.6515
  60   2.0000      -0.425736       -11.5849
  61   2.0000      -0.418804       -11.3962
  62   2.0000      -0.407084       -11.0773
  63   2.0000      -0.406331       -11.0568
  64   2.0000      -0.398220       -10.8361
  65   2.0000      -0.394692       -10.7401
  66   2.0000      -0.388194       -10.5633
  67   2.0000      -0.374318       -10.1857
  68   2.0000      -0.372429       -10.1343
  69   2.0000      -0.366522        -9.9736
  70   2.0000      -0.301667        -8.2088
  71   2.0000      -0.202193        -5.5019
  72   0.0000       0.038798         1.0557
  73   0.0000       0.063459         1.7268
  74   0.0000       0.066059         1.7976
  75   0.0000       0.071082         1.9342
  76   0.0000       0.075501         2.0545

MULLIKEN ATOMIC CHARGES
-----------------------
   0 C :   -0.389428
   1 N :   -0.378863
   2 C :   -0.311791
   3 C :   -0.328694
   4 H :    0.200828
   5 H :    0.198085
   6 S :    0.951806
   7 C :    0.589108
   8 C :   -0.620895
   9 N :   -0.595987
  10 H :    0.243697
  11 H :    0.247375
  12 H :    0.250004
  13 H :    0.070007
  14 H :    0.102981
  15 F :   -0.111329
  16 O :   -0.429237
  17 C :   -0.200080
  18 H :    0.187183
  19 H :    0.160949
  20 C :   -0.303712
  21 C :   -0.314234
  22 H :    0.156664
  23 H :    0.141307
  24 H :    0.162721
  25 H :    0.181579
  26 C :   -0.296599
  27 H :    0.135027
  28 H :    0.158534
  29 C :   -0.316827
  30 H :    0.148528
  31 H :    0.159283
  32 C :   -0.279988
  33 H :    0.147179
  34 H :    0.161640
  35 H :    0.167241
  36 H :    0.148562
  37 H :    0.148829
  38 H :    0.150386
  39 O :   -0.491840
Sum of atomic charges:    0.0000000

LOEWDIN ATOMIC CHARGES
----------------------
   0 C :   -0.299492
   1 N :    0.115078
   2 C :   -0.288570
   3 C :   -0.360794
   4 H :    0.156260
   5 H :    0.147613
   6 S :    0.590571
   7 C :   -0.459747
   8 C :   -0.364523
   9 N :   -0.027431
  10 H :    0.161297
  11 H :    0.174446
  12 H :    0.167565
  13 H :    0.081600
  14 H :    0.094388
  15 F :    0.081114
  16 O :   -0.253846
  17 C :   -0.275843
  18 H :    0.137586
  19 H :    0.125372
  20 C :   -0.274485
  21 C :   -0.277227
  22 H :    0.141968
  23 H :    0.139707
  24 H :    0.148562
  25 H :    0.145250
  26 C :   -0.272227
  27 H :    0.137336
  28 H :    0.138912
  29 C :   -0.275767
  30 H :    0.139536
  31 H :    0.139647
  32 C :   -0.270866
  33 H :    0.138852
  34 H :    0.134881
  35 H :    0.139298
  36 H :    0.137869
  37 H :    0.138323
  38 H :    0.139434
  39 O :   -0.291647

  Mayer bond orders larger than 0.100000
B(  0-C ,  1-N ) :   0.9155 B(  0-C , 17-C ) :   0.8551 B(  0-C , 18-H ) :   0.9931
B(  0-C , 19-H ) :   1.0052 B(  1-N ,  7-C ) :   1.1402 B(  1-N , 12-H ) :   0.8846
B(  2-C ,  3-C ) :   0.9124 B(  2-C , 21-C ) :   0.8820 B(  2-C , 24-H ) :   0.9653
B(  2-C , 25-H ) :   0.9863 B(  3-C ,  4-H ) :   0.9419 B(  3-C ,  5-H ) :   0.9581
B(  3-C ,  6-S ) :   0.9207 B(  6-S , 15-F ) :   1.0855 B(  6-S , 16-O ) :   1.9741
B(  6-S , 39-O ) :   1.7440 B(  7-C ,  8-C ) :   1.5265 B(  7-C ,  9-N ) :   1.0343
B(  8-C , 13-H ) :   1.0622 B(  8-C , 14-H ) :   0.9993 B(  9-N , 10-H ) :   0.9199
B(  9-N , 11-H ) :   0.9334 B( 17-C , 26-C ) :   0.9184 B( 17-C , 27-H ) :   0.9856
B( 17-C , 28-H ) :   0.9765 B( 20-C , 21-C ) :   0.8967 B( 20-C , 32-C ) :   0.9216
B( 20-C , 35-H ) :   0.9887 B( 20-C , 36-H ) :   0.9813 B( 21-C , 22-H ) :   0.9703
B( 21-C , 23-H ) :   0.9825 B( 26-C , 29-C ) :   0.8784 B( 26-C , 30-H ) :   0.9806
B( 26-C , 31-H ) :   0.9718 B( 29-C , 32-C ) :   0.9206 B( 29-C , 33-H ) :   0.9792
B( 29-C , 34-H ) :   0.9870 B( 32-C , 37-H ) :   0.9941 B( 32-C , 38-H ) :   0.9902

Dispersion correction           -0.003058117
FINAL SINGLE POINT ENERGY     -1190.900639483558

DIPOLE MOMENT
-------------
                                X             Y             Z
Electronic contribution:    -16.34012       3.95436     -19.60967
Nuclear contribution   :     17.27667      -5.32157      20.03034
                        -----------------------------------------
Total Dipole Moment    :      0.93655      -1.36720       0.42066
                        -----------------------------------------
Magnitude (a.u.)       :      1.70977
Magnitude (Debye)      :      4.34590

Rotational constants in cm-1:     0.014355     0.012269     0.007481
Rotational constants in MHz :   430.360270   367.823451   224.273399

                             ****ORCA TERMINATED NORMALLY****
TOTAL RUN TIME: 0 days 0 hours 1 minutes 32 seconds 416 msec
