                         Program Version 5.0.0 -  RELEASE  -
|  1> !BLYP D3BJ RIJCOSX def2-TZVP def2/J TightSCF
|  2> *xyz -1 1
|  3> C         -0.05517        1.61942       -3.78858
|  4> C          1.22302        2.46987       -3.75691
|  5> H          1.11470        3.25807       -4.53300
|  6> H          1.23773        3.01124       -2.79216
|  7> O          2.35381        1.71203       -3.93448
|  8> H         -0.10198        1.08015       -4.71156
|  9> H         -0.91014        2.25726       -3.70441
| 10> H         -0.04403        0.92826       -2.97183
| 11> *
| 12>
| 13> %MaxCore 64000
| 14>
| 15> %pal nprocs 4
| 16> end
| 17>
| 18> %scf
| 19>   MaxIter 150
| 20> end
| 21>
| 22>
| 23>                          ****END OF INPUT****

CARTESIAN COORDINATES (ANGSTROEM)
---------------------------------
  C     -0.055170    1.619420   -3.788580
  C      1.223020    2.469870   -3.756910
  H      1.114700    3.258070   -4.533000
  H      1.237730    3.011240   -2.792160
  O      2.353810    1.712030   -3.934480
  H     -0.101980    1.080150   -4.711560
  H     -0.910140    2.257260   -3.704410
  H     -0.044030    0.928260   -2.971830

 Total Charge           Charge          ....   -1
 Multiplicity           Mult            ....    1
 Number of Electrons    NEL             ....   26
 Basis Dimension        Dim             ....  123

ORBITAL ENERGIES
----------------

  NO   OCC          E(Eh)            E(eV)
   0   2.0000     -18.426126      -501.4004
   1   2.0000      -9.707957      -264.1669
   2   2.0000      -9.686870      -263.5931
   3   2.0000      -0.578437       -15.7401
   4   2.0000      -0.442287       -12.0352
   5   2.0000      -0.300438        -8.1753
   6   2.0000      -0.191443        -5.2094
   7   2.0000      -0.169835        -4.6214
   8   2.0000      -0.118531        -3.2254
   9   2.0000      -0.103207        -2.8084
  10   2.0000      -0.053286        -1.4500
  11   2.0000       0.085779         2.3342
  12   2.0000       0.088903         2.4192
  13   0.0000       0.198132         5.3914
  14   0.0000       0.232393         6.3237
  15   0.0000       0.255229         6.9451
  16   0.0000       0.260417         7.0863
  17   0.0000       0.292260         7.9528

MULLIKEN ATOMIC CHARGES
-----------------------
   0 C :   -0.019441
   1 C :    0.048238
   2 H :   -0.093767
   3 H :   -0.091616
   4 O :   -0.724041
   5 H :   -0.015591
   6 H :   -0.090265
   7 H :   -0.013518
Sum of atomic charges:   -1.0000000

LOEWDIN ATOMIC CHARGES
----------------------
   0 C :   -0.360132
   1 C :   -0.548720
   2 H :    0.043827
   3 H :    0.045666
   4 O :   -0.396258
   5 H :    0.078004
   6 H :    0.059452
   7 H :    0.078162

  Mayer bond orders larger than 0.100000
B(  0-C ,  1-C ) :   0.8423 B(  0-C ,  4-O ) :  -0.3883 B(  0-C ,  5-H ) :   0.9485
B(  0-C ,  6-H ) :   0.8772 B(  0-C ,  7-H ) :   0.9530 B(  1-C ,  2-H ) :   0.8975
B(  1-C ,  3-H ) :   0.8980 B(  1-C ,  4-O ) :   1.6846 B(  4-O ,  5-H ) :   0.1078
B(  4-O ,  6-H ) :   0.1615

Dispersion correction           -0.007748558
FINAL SINGLE POINT ENERGY      -154.429346014529

DIPOLE MOMENT
-------------
                                X             Y             Z
Electronic contribution:      3.13749      -0.68665      -0.29143
Nuclear contribution   :     -4.28298       0.81046       0.39340
                        -----------------------------------------
Total Dipole Moment    :     -1.14549       0.12381       0.10198
                        -----------------------------------------
Magnitude (a.u.)       :      1.15667
Magnitude (Debye)      :      2.94001

Rotational constants in cm-1:     1.266793     0.328147     0.288309
Rotational constants in MHz : 37977.512300  9837.594308  8643.275638

                             ****ORCA TERMINATED NORMALLY****
TOTAL RUN TIME: 0 days 0 hours 0 minutes 7 seconds 537 msec
