                         Program Version 5.0.0 -  RELEASE  -
|  1> !BLYP D3BJ RIJCOSX def2-TZVP def2/J TightSCF
|  2> *xyz 1 1
|  3> C          1.63556       -1.67040       -5.29211
|  4> C          0.33848       -1.50091       -4.50540
|  5> N          2.48451       -0.50741       -5.14039
|  6> H          1.39834       -1.82924       -6.35259
|  7> H          2.15586       -2.56540       -4.93209
|  8> C          3.45115       -0.14953       -5.95259
|  9> N          3.92267        1.08956       -5.85071
| 10> N          3.96616       -1.00618       -6.86788
| 11> H          3.52139       -1.90647       -6.99527
| 12> H          4.44482       -0.62347       -7.67035
| 13> H          2.25200        0.24080       -4.49879
| 14> H          3.46428        1.64078       -5.13639
| 15> H          4.83447        1.31375       -6.22465
| 16> H         -0.17658       -0.62881       -4.85045
| 17> H          0.56384       -1.39374       -3.46490
| 18> H         -0.28102       -2.36136       -4.64938
| 19> *
| 20>
| 21> %MaxCore 64000
| 22>
| 23> %pal nprocs 4
| 24> end
| 25>
| 26> %scf
| 27>   MaxIter 150
| 28> end
| 29>
| 30>
| 31>                          ****END OF INPUT****

CARTESIAN COORDINATES (ANGSTROEM)
---------------------------------
  C      1.635560   -1.670400   -5.292110
  C      0.338480   -1.500910   -4.505400
  N      2.484510   -0.507410   -5.140390
  H      1.398340   -1.829240   -6.352590
  H      2.155860   -2.565400   -4.932090
  C      3.451150   -0.149530   -5.952590
  N      3.922670    1.089560   -5.850710
  N      3.966160   -1.006180   -6.867880
  H      3.521390   -1.906470   -6.995270
  H      4.444820   -0.623470   -7.670350
  H      2.252000    0.240800   -4.498790
  H      3.464280    1.640780   -5.136390
  H      4.834470    1.313750   -6.224650
  H     -0.176580   -0.628810   -4.850450
  H      0.563840   -1.393740   -3.464900
  H     -0.281020   -2.361360   -4.649380

 Total Charge           Charge          ....    1
 Multiplicity           Mult            ....    1
 Number of Electrons    NEL             ....   48
 Basis Dimension        Dim             ....  246

ORBITAL ENERGIES
----------------

  NO   OCC          E(Eh)            E(eV)
   0   2.0000     -14.230230      -387.2243
   1   2.0000     -14.225707      -387.1012
   2   2.0000     -14.223990      -387.0544
   3   2.0000     -10.225831      -278.2590
   4   2.0000     -10.113292      -275.1967
   5   2.0000     -10.043260      -273.2910
   6   2.0000      -1.124789       -30.6071
   7   2.0000      -1.020295       -27.7636
   8   2.0000      -1.008058       -27.4307
   9   2.0000      -0.859551       -23.3896
  10   2.0000      -0.766224       -20.8500
  11   2.0000      -0.748719       -20.3737
  12   2.0000      -0.716662       -19.5014
  13   2.0000      -0.686769       -18.6879
  14   2.0000      -0.637138       -17.3374
  15   2.0000      -0.631508       -17.1842
  16   2.0000      -0.605898       -16.4873
  17   2.0000      -0.590361       -16.0645
  18   2.0000      -0.549770       -14.9600
  19   2.0000      -0.500067       -13.6075
  20   2.0000      -0.485653       -13.2153
  21   2.0000      -0.475247       -12.9321
  22   2.0000      -0.431632       -11.7453
  23   2.0000      -0.411448       -11.1961
  24   0.0000      -0.196565        -5.3488
  25   0.0000      -0.180059        -4.8997
  26   0.0000      -0.146288        -3.9807
  27   0.0000      -0.128831        -3.5057
  28   0.0000      -0.108894        -2.9632

MULLIKEN ATOMIC CHARGES
-----------------------
   0 C :   -0.108646
   1 C :   -0.350087
   2 N :   -0.184694
   3 H :    0.128449
   4 H :    0.152067
   5 C :    0.393159
   6 N :   -0.336977
   7 N :   -0.370611
   8 H :    0.269376
   9 H :    0.262598
  10 H :    0.216803
  11 H :    0.246189
  12 H :    0.269715
  13 H :    0.129699
  14 H :    0.135522
  15 H :    0.147437
Sum of atomic charges:    1.0000000

LOEWDIN ATOMIC CHARGES
----------------------
   0 C :   -0.283084
   1 C :   -0.270154
   2 N :    0.184181
   3 H :    0.139272
   4 H :    0.143010
   5 C :   -0.416741
   6 N :    0.073955
   7 N :    0.063659
   8 H :    0.190632
   9 H :    0.192106
  10 H :    0.206423
  11 H :    0.193707
  12 H :    0.196185
  13 H :    0.123931
  14 H :    0.125982
  15 H :    0.136936

  Mayer bond orders larger than 0.100000
B(  0-C ,  1-C ) :   0.9716 B(  0-C ,  2-N ) :   0.8654 B(  0-C ,  3-H ) :   0.9575
B(  0-C ,  4-H ) :   0.9406 B(  1-C , 13-H ) :   0.9709 B(  1-C , 14-H ) :   0.9677
B(  1-C , 15-H ) :   0.9622 B(  2-N ,  5-C ) :   1.3873 B(  2-N , 10-H ) :   0.9084
B(  5-C ,  6-N ) :   1.3142 B(  5-C ,  7-N ) :   1.3005 B(  6-N , 11-H ) :   0.9077
B(  6-N , 12-H ) :   0.8991 B(  7-N ,  8-H ) :   0.9023 B(  7-N ,  9-H ) :   0.9034

Dispersion correction           -0.024363920
FINAL SINGLE POINT ENERGY      -284.404155631388

DIPOLE MOMENT
-------------
                                X             Y             Z
Electronic contribution:      4.70630       2.48086      -1.69892
Nuclear contribution   :     -3.96322      -1.85512       1.24891
                        -----------------------------------------
Total Dipole Moment    :      0.74308       0.62575      -0.45002
                        -----------------------------------------
Magnitude (a.u.)       :      1.07063
Magnitude (Debye)      :      2.72132

Rotational constants in cm-1:     0.261404     0.067000     0.054949
Rotational constants in MHz :  7836.702504  2008.609425  1647.329138

                             ****ORCA TERMINATED NORMALLY****
TOTAL RUN TIME: 0 days 0 hours 0 minutes 13 seconds 60 msec
