                         Program Version 5.0.0 -  RELEASE  -
|  1> !BLYP D3BJ RIJCOSX def2-TZVP def2/J TightSCF xyzfile
|  2>
|  3> *xyzfile 0 1 B.xyz
|  4>
|  5> %MaxCore 64000
|  6>
|  7> %pal nprocs 18
|  8> end
|  9>
| 10> %scf
| 11>   MaxIter 150
| 12> end
| 13>
| 14>
| 15>                          ****END OF INPUT****

CARTESIAN COORDINATES (ANGSTROEM)
---------------------------------
  C      1.635557   -1.670396   -5.292109
  C      0.338484   -1.500907   -4.505398
  N      2.484511   -0.507410   -5.140392
  C     -0.684873   -0.528026   -5.099889
  C     -0.290406    0.951335   -5.153423
  H      0.607991    1.070692   -5.764412
  C     -0.055168    1.619420   -3.788577
  H     -1.080912    1.483775   -5.689436
  H      0.045006    0.862302   -3.003015
  H     -0.922936    2.230329   -3.517028
  C      1.223022    2.469865   -3.756911
  H      1.114701    3.258074   -4.532999
  H      1.237732    3.011242   -2.792157
  O      2.353815    1.712032   -3.934477
  H      1.398337   -1.829239   -6.352591
  H      2.155864   -2.565398   -4.932091
  C      3.451149   -0.149530   -5.952589
  N      3.922667    1.089559   -5.850711
  N      3.966162   -1.006183   -6.867880
  H      3.521391   -1.906467   -6.995270
  H      4.444824   -0.623472   -7.670348
  H      2.251995    0.240804   -4.498792
  H      3.464277    1.640782   -5.136392
  H      4.834470    1.313745   -6.224653
  H     -0.937999   -0.869056   -6.110838
  H     -1.604638   -0.622496   -4.513132
  H      0.594887   -1.211578   -3.482312
  H     -0.126530   -2.487656   -4.434176

 Total Charge           Charge          ....    0
 Multiplicity           Mult            ....    1
 Number of Electrons    NEL             ....   88
 Basis Dimension        Dim             ....  443

ORBITAL ENERGIES
----------------

  NO   OCC          E(Eh)            E(eV)
   0   2.0000     -18.641626      -507.2644
   1   2.0000     -14.058734      -382.5576
   2   2.0000     -14.018454      -381.4615
   3   2.0000     -14.016039      -381.3958
   4   2.0000     -10.036709      -273.1127
   5   2.0000      -9.953824      -270.8573
   6   2.0000      -9.905909      -269.5535
   7   2.0000      -9.893149      -269.2063
   8   2.0000      -9.881208      -268.8813
   9   2.0000      -9.875098      -268.7151
  10   2.0000      -9.857468      -268.2353
  11   2.0000      -0.935847       -25.4657
  12   2.0000      -0.839657       -22.8482
  13   2.0000      -0.820299       -22.3215
  14   2.0000      -0.792219       -21.5574
  15   2.0000      -0.718442       -19.5498
  16   2.0000      -0.668430       -18.1889
  17   2.0000      -0.616494       -16.7757
  18   2.0000      -0.585245       -15.9253
  19   2.0000      -0.558875       -15.2078
  20   2.0000      -0.536043       -14.5865
  21   2.0000      -0.515711       -14.0332
  22   2.0000      -0.500652       -13.6234
  23   2.0000      -0.464592       -12.6422
  24   2.0000      -0.454133       -12.3576
  25   2.0000      -0.440057       -11.9746
  26   2.0000      -0.431795       -11.7497
  27   2.0000      -0.422794       -11.5048
  28   2.0000      -0.385458       -10.4888
  29   2.0000      -0.373410       -10.1610
  30   2.0000      -0.363745        -9.8980
  31   2.0000      -0.360024        -9.7967
  32   2.0000      -0.334310        -9.0970
  33   2.0000      -0.318166        -8.6577
  34   2.0000      -0.311096        -8.4653
  35   2.0000      -0.290831        -7.9139
  36   2.0000      -0.274624        -7.4729
  37   2.0000      -0.264286        -7.1916
  38   2.0000      -0.258545        -7.0354
  39   2.0000      -0.252281        -6.8649
  40   2.0000      -0.245678        -6.6852
  41   2.0000      -0.220526        -6.0008
  42   2.0000      -0.133383        -3.6295
  43   2.0000      -0.124761        -3.3949
  44   0.0000      -0.025977        -0.7069
  45   0.0000      -0.013891        -0.3780
  46   0.0000       0.008565         0.2331
  47   0.0000       0.025310         0.6887
  48   0.0000       0.043469         1.1828

MULLIKEN ATOMIC CHARGES
-----------------------
   0 C :   -0.095737
   1 C :   -0.174051
   2 N :   -0.177207
   3 C :   -0.140913
   4 C :   -0.161623
   5 H :    0.083488
   6 C :   -0.092824
   7 H :    0.062607
   8 H :    0.042237
   9 H :    0.040189
  10 C :    0.060164
  11 H :   -0.000653
  12 H :    0.020686
  13 O :   -0.681348
  14 H :    0.071871
  15 H :    0.099138
  16 C :    0.351353
  17 N :   -0.364971
  18 N :   -0.414759
  19 H :    0.234757
  20 H :    0.223268
  21 H :    0.234024
  22 H :    0.255400
  23 H :    0.198010
  24 H :    0.060702
  25 H :    0.076217
  26 H :    0.108820
  27 H :    0.081154
Sum of atomic charges:   -0.0000000

LOEWDIN ATOMIC CHARGES
----------------------
   0 C :   -0.281404
   1 C :   -0.259798
   2 N :    0.183090
   3 C :   -0.266082
   4 C :   -0.269124
   5 H :    0.132817
   6 C :   -0.278537
   7 H :    0.128191
   8 H :    0.123464
   9 H :    0.121335
  10 C :   -0.464245
  11 H :    0.088820
  12 H :    0.095973
  13 O :   -0.271990
  14 H :    0.124215
  15 H :    0.127305
  16 C :   -0.441399
  17 N :    0.048490
  18 N :    0.010479
  19 H :    0.172188
  20 H :    0.169775
  21 H :    0.155677
  22 H :    0.147972
  23 H :    0.162178
  24 H :    0.128246
  25 H :    0.135656
  26 H :    0.139285
  27 H :    0.137424

  Mayer bond orders larger than 0.100000
B(  0-C ,  1-C ) :   0.9831 B(  0-C ,  2-N ) :   0.9302 B(  0-C , 14-H ) :   0.9464
B(  0-C , 15-H ) :   0.9401 B(  1-C ,  3-C ) :   0.9856 B(  1-C , 26-H ) :   0.9668
B(  1-C , 27-H ) :   0.9594 B(  2-N , 16-C ) :   1.4400 B(  2-N , 21-H ) :   0.7326
B(  3-C ,  4-C ) :   0.9647 B(  3-C , 24-H ) :   0.9569 B(  3-C , 25-H ) :   0.9579
B(  4-C ,  5-H ) :   0.9695 B(  4-C ,  6-C ) :   0.9622 B(  4-C ,  7-H ) :   0.9616
B(  6-C ,  8-H ) :   0.9604 B(  6-C ,  9-H ) :   0.9351 B(  6-C , 10-C ) :   0.9368
B( 10-C , 11-H ) :   0.9471 B( 10-C , 12-H ) :   0.9311 B( 10-C , 13-O ) :   1.2219
B( 13-O , 21-H ) :   0.2946 B( 13-O , 22-H ) :   0.2543 B( 16-C , 17-N ) :   1.3815
B( 16-C , 18-N ) :   1.2059 B( 17-N , 22-H ) :   0.7485 B( 17-N , 23-H ) :   0.9182
B( 18-N , 19-H ) :   0.9163 B( 18-N , 20-H ) :   0.9167

Dispersion correction           -0.057937194
FINAL SINGLE POINT ENERGY      -516.465955188103

DIPOLE MOMENT
-------------
                                X             Y             Z
Electronic contribution:      8.41583      -0.86633      -2.17976
Nuclear contribution   :     -7.46499      -1.05836       0.01518
                        -----------------------------------------
Total Dipole Moment    :      0.95084      -1.92469      -2.16459
                        -----------------------------------------
Magnitude (a.u.)       :      3.04860
Magnitude (Debye)      :      7.74892

Rotational constants in cm-1:     0.044680     0.028958     0.019773
Rotational constants in MHz :  1339.486245   868.136755   592.791310

                             ****ORCA TERMINATED NORMALLY****
TOTAL RUN TIME: 0 days 0 hours 0 minutes 20 seconds 41 msec
