                         Program Version 5.0.0 -  RELEASE  -
|  1> !BLYP D3BJ RIJCOSX def2-TZVP def2/J TightSCF
|  2> *xyz 0 1
|  3> C         -0.05517        1.61942       -3.78858
|  4> C          1.22302        2.46987       -3.75691
|  5> H          1.11470        3.25807       -4.53300
|  6> H          1.23773        3.01124       -2.79216
|  7> F          2.35381        1.71203       -3.93448
|  8> H         -0.10198        1.08015       -4.71156
|  9> H         -0.91014        2.25726       -3.70441
| 10> H         -0.04403        0.92826       -2.97183
| 11> *
| 12>
| 13> %MaxCore 64000
| 14>
| 15> %pal nprocs 4
| 16> end
| 17>
| 18> %scf
| 19>   MaxIter 150
| 20> end
| 21>
| 22>
| 23>                          ****END OF INPUT****

CARTESIAN COORDINATES (ANGSTROEM)
---------------------------------
  C     -0.055170    1.619420   -3.788580
  C      1.223020    2.469870   -3.756910
  H      1.114700    3.258070   -4.533000
  H      1.237730    3.011240   -2.792160
  F      2.353810    1.712030   -3.934480
  H     -0.101980    1.080150   -4.711560
  H     -0.910140    2.257260   -3.704410
  H     -0.044030    0.928260   -2.971830

 Total Charge           Charge          ....    0
 Multiplicity           Mult            ....    1
 Number of Electrons    NEL             ....   26
 Basis Dimension        Dim             ....  123

ORBITAL ENERGIES
----------------

  NO   OCC          E(Eh)            E(eV)
   0   2.0000     -24.268265      -660.3731
   1   2.0000      -9.979806      -271.5643
   2   2.0000      -9.898253      -269.3451
   3   2.0000      -1.088107       -29.6089
   4   2.0000      -0.686407       -18.6781
   5   2.0000      -0.562705       -15.3120
   6   2.0000      -0.449001       -12.2179
   7   2.0000      -0.435227       -11.8431
   8   2.0000      -0.396983       -10.8025
   9   2.0000      -0.352250        -9.5852
  10   2.0000      -0.350061        -9.5257
  11   2.0000      -0.283654        -7.7186
  12   2.0000      -0.280548        -7.6341
  13   0.0000       0.020738         0.5643
  14   0.0000       0.057649         1.5687
  15   0.0000       0.066663         1.8140
  16   0.0000       0.074355         2.0233
  17   0.0000       0.089735         2.4418

MULLIKEN ATOMIC CHARGES
-----------------------
   0 C :   -0.278023
   1 C :    0.065042
   2 H :    0.074165
   3 H :    0.074112
   4 F :   -0.230788
   5 H :    0.102580
   6 H :    0.090962
   7 H :    0.101950
Sum of atomic charges:   -0.0000000

LOEWDIN ATOMIC CHARGES
----------------------
   0 C :   -0.304564
   1 C :   -0.369653
   2 H :    0.112747
   3 H :    0.112110
   4 F :    0.103124
   5 H :    0.114208
   6 H :    0.118597
   7 H :    0.113430

  Mayer bond orders larger than 0.100000
B(  0-C ,  1-C ) :   0.9654 B(  0-C ,  5-H ) :   0.9694 B(  0-C ,  6-H ) :   0.9532
B(  0-C ,  7-H ) :   0.9706 B(  1-C ,  2-H ) :   0.9629 B(  1-C ,  3-H ) :   0.9630
B(  1-C ,  4-F ) :   1.0129

Dispersion correction           -0.007138537
FINAL SINGLE POINT ENERGY      -179.082553316090

DIPOLE MOMENT
-------------
                                X             Y             Z
Electronic contribution:      5.07433      -0.76671      -0.43906
Nuclear contribution   :     -5.66833       1.07099       0.52006
                        -----------------------------------------
Total Dipole Moment    :     -0.59400       0.30428       0.08101
                        -----------------------------------------
Magnitude (a.u.)       :      0.67230
Magnitude (Debye)      :      1.70885

Rotational constants in cm-1:     1.245689     0.305293     0.269541
Rotational constants in MHz : 37344.801915  9152.442838  8080.640229

                             ****ORCA TERMINATED NORMALLY****
TOTAL RUN TIME: 0 days 0 hours 0 minutes 7 seconds 401 msec
