                         Program Version 5.0.0 -  RELEASE  -
|  1> !BLYP D3BJ RIJCOSX def2-TZVP def2/J TightSCF
|  2> *xyz 0 1
|  3> C          1.63556       -1.67040       -5.29211
|  4> C          0.33848       -1.50091       -4.50540
|  5> C          2.48451       -0.50741       -5.14039
|  6> H          1.39834       -1.82924       -6.35259
|  7> H          2.15586       -2.56540       -4.93209
|  8> C          3.45115       -0.14953       -5.95259
|  9> N          3.92267        1.08956       -5.85071
| 10> N          3.96616       -1.00618       -6.86788
| 11> H          3.52139       -1.90647       -6.99527
| 12> H          4.44482       -0.62347       -7.67035
| 13> H          2.25200        0.24080       -4.49879
| 14> H          3.46428        1.64078       -5.13639
| 15> H          4.83447        1.31375       -6.22465
| 16> H         -0.17658       -0.62881       -4.85045
| 17> H          0.56384       -1.39374       -3.46490
| 18> H         -0.28102       -2.36136       -4.64938
| 19> *
| 20>
| 21> %MaxCore 64000
| 22>
| 23> %pal nprocs 4
| 24> end
| 25>
| 26> %scf
| 27>   MaxIter 150
| 28> end
| 29>
| 30>
| 31>                          ****END OF INPUT****

CARTESIAN COORDINATES (ANGSTROEM)
---------------------------------
  C      1.635560   -1.670400   -5.292110
  C      0.338480   -1.500910   -4.505400
  C      2.484510   -0.507410   -5.140390
  H      1.398340   -1.829240   -6.352590
  H      2.155860   -2.565400   -4.932090
  C      3.451150   -0.149530   -5.952590
  N      3.922670    1.089560   -5.850710
  N      3.966160   -1.006180   -6.867880
  H      3.521390   -1.906470   -6.995270
  H      4.444820   -0.623470   -7.670350
  H      2.252000    0.240800   -4.498790
  H      3.464280    1.640780   -5.136390
  H      4.834470    1.313750   -6.224650
  H     -0.176580   -0.628810   -4.850450
  H      0.563840   -1.393740   -3.464900
  H     -0.281020   -2.361360   -4.649380

 Total Charge           Charge          ....    0
 Multiplicity           Mult            ....    1
 Number of Electrons    NEL             ....   48
 Basis Dimension        Dim             ....  246

ORBITAL ENERGIES
----------------

  NO   OCC          E(Eh)            E(eV)
   0   2.0000     -14.003096      -381.0436
   1   2.0000     -13.998146      -380.9089
   2   2.0000      -9.935445      -270.3572
   3   2.0000      -9.879312      -268.8298
   4   2.0000      -9.870132      -268.5799
   5   2.0000      -9.824588      -267.3406
   6   2.0000      -0.865413       -23.5491
   7   2.0000      -0.785391       -21.3716
   8   2.0000      -0.693672       -18.8758
   9   2.0000      -0.621740       -16.9184
  10   2.0000      -0.543825       -14.7982
  11   2.0000      -0.517370       -14.0783
  12   2.0000      -0.475807       -12.9474
  13   2.0000      -0.454501       -12.3676
  14   2.0000      -0.414397       -11.2763
  15   2.0000      -0.385894       -10.5007
  16   2.0000      -0.374802       -10.1989
  17   2.0000      -0.342281        -9.3139
  18   2.0000      -0.325626        -8.8607
  19   2.0000      -0.293988        -7.9998
  20   2.0000      -0.284966        -7.7543
  21   2.0000      -0.283264        -7.7080
  22   2.0000      -0.215005        -5.8506
  23   2.0000      -0.126368        -3.4387
  24   0.0000       0.001107         0.0301
  25   0.0000       0.029721         0.8087
  26   0.0000       0.042496         1.1564
  27   0.0000       0.051284         1.3955
  28   0.0000       0.057883         1.5751

MULLIKEN ATOMIC CHARGES
-----------------------
   0 C :   -0.163519
   1 C :   -0.315390
   2 C :   -0.235380
   3 H :    0.050825
   4 H :    0.069445
   5 C :    0.327234
   6 N :   -0.415097
   7 N :   -0.441395
   8 H :    0.219819
   9 H :    0.191181
  10 H :    0.037785
  11 H :    0.210117
  12 H :    0.192974
  13 H :    0.089392
  14 H :    0.093320
  15 H :    0.088689
Sum of atomic charges:    0.0000000

LOEWDIN ATOMIC CHARGES
----------------------
   0 C :   -0.299791
   1 C :   -0.292453
   2 C :   -0.281217
   3 H :    0.123708
   4 H :    0.126220
   5 C :   -0.458834
   6 N :   -0.009431
   7 N :   -0.015771
   8 H :    0.169141
   9 H :    0.153245
  10 H :    0.121633
  11 H :    0.176036
  12 H :    0.154907
  13 H :    0.111274
  14 H :    0.112851
  15 H :    0.108481

  Mayer bond orders larger than 0.100000
B(  0-C ,  1-C ) :   0.9602 B(  0-C ,  2-C ) :   0.9999 B(  0-C ,  3-H ) :   0.9560
B(  0-C ,  4-H ) :   0.9582 B(  1-C , 13-H ) :   0.9779 B(  1-C , 14-H ) :   0.9798
B(  1-C , 15-H ) :   0.9795 B(  2-C ,  5-C ) :   1.6068 B(  2-C , 10-H ) :   0.9971
B(  5-C ,  6-N ) :   1.1544 B(  5-C ,  7-N ) :   1.1364 B(  6-N , 11-H ) :   0.9249
B(  6-N , 12-H ) :   0.9246 B(  7-N ,  8-H ) :   0.9281 B(  7-N ,  9-H ) :   0.9271

Dispersion correction           -0.025483976
FINAL SINGLE POINT ENERGY      -267.909732640595

DIPOLE MOMENT
-------------
                                X             Y             Z
Electronic contribution:      4.58469       2.19350      -1.93523
Nuclear contribution   :     -3.99655      -1.83277       1.34879
                        -----------------------------------------
Total Dipole Moment    :      0.58814       0.36073      -0.58644
                        -----------------------------------------
Magnitude (a.u.)       :      0.90551
Magnitude (Debye)      :      2.30163

Rotational constants in cm-1:     0.262971     0.067064     0.055026
Rotational constants in MHz :  7883.664566  2010.513309  1649.636654

                             ****ORCA TERMINATED NORMALLY****
TOTAL RUN TIME: 0 days 0 hours 0 minutes 13 seconds 474 msec
