                         Program Version 5.0.0 -  RELEASE  -
|  1> !BLYP D3BJ RIJCOSX def2-TZVP def2/J TightSCF
|  2> *xyz 0 1
|  3> C          1.63556       -1.67040       -5.29211
|  4> C          0.33848       -1.50091       -4.50540
|  5> N          2.48451       -0.50741       -5.14039
|  6> H          1.39834       -1.82924       -6.35259
|  7> H          2.15586       -2.56540       -4.93209
|  8> C          3.45115       -0.14953       -5.95259
|  9> C          3.92267        1.08956       -5.85071
| 10> N          3.96616       -1.00618       -6.86788
| 11> H          3.52139       -1.90647       -6.99527
| 12> H          4.44482       -0.62347       -7.67035
| 13> H          2.25200        0.24080       -4.49879
| 14> H          3.46428        1.64078       -5.13639
| 15> H          4.83447        1.31375       -6.22465
| 16> H         -0.17658       -0.62881       -4.85045
| 17> H          0.56384       -1.39374       -3.46490
| 18> H         -0.28102       -2.36136       -4.64938
| 19> *
| 20>
| 21> %MaxCore 64000
| 22>
| 23> %pal nprocs 4
| 24> end
| 25>
| 26> %scf
| 27>   MaxIter 150
| 28> end
| 29>
| 30>
| 31>                          ****END OF INPUT****

CARTESIAN COORDINATES (ANGSTROEM)
---------------------------------
  C      1.635560   -1.670400   -5.292110
  C      0.338480   -1.500910   -4.505400
  N      2.484510   -0.507410   -5.140390
  H      1.398340   -1.829240   -6.352590
  H      2.155860   -2.565400   -4.932090
  C      3.451150   -0.149530   -5.952590
  C      3.922670    1.089560   -5.850710
  N      3.966160   -1.006180   -6.867880
  H      3.521390   -1.906470   -6.995270
  H      4.444820   -0.623470   -7.670350
  H      2.252000    0.240800   -4.498790
  H      3.464280    1.640780   -5.136390
  H      4.834470    1.313750   -6.224650
  H     -0.176580   -0.628810   -4.850450
  H      0.563840   -1.393740   -3.464900
  H     -0.281020   -2.361360   -4.649380

 Total Charge           Charge          ....    0
 Multiplicity           Mult            ....    1
 Number of Electrons    NEL             ....   48
 Basis Dimension        Dim             ....  246

ORBITAL ENERGIES
----------------

  NO   OCC          E(Eh)            E(eV)
   0   2.0000     -14.004220      -381.0742
   1   2.0000     -14.001575      -381.0022
   2   2.0000      -9.945245      -270.6239
   3   2.0000      -9.939451      -270.4662
   4   2.0000      -9.903636      -269.4916
   5   2.0000      -9.812170      -267.0027
   6   2.0000      -0.877775       -23.8855
   7   2.0000      -0.797740       -21.7076
   8   2.0000      -0.699986       -19.0476
   9   2.0000      -0.626987       -17.0612
  10   2.0000      -0.561857       -15.2889
  11   2.0000      -0.533431       -14.5154
  12   2.0000      -0.476783       -12.9739
  13   2.0000      -0.441859       -12.0236
  14   2.0000      -0.426059       -11.5937
  15   2.0000      -0.411745       -11.2042
  16   2.0000      -0.368348       -10.0233
  17   2.0000      -0.345862        -9.4114
  18   2.0000      -0.331648        -9.0246
  19   2.0000      -0.330044        -8.9810
  20   2.0000      -0.327489        -8.9114
  21   2.0000      -0.300469        -8.1762
  22   2.0000      -0.211319        -5.7503
  23   2.0000      -0.124193        -3.3795
  24   0.0000       0.003627         0.0987
  25   0.0000       0.024139         0.6569
  26   0.0000       0.032242         0.8773
  27   0.0000       0.047745         1.2992
  28   0.0000       0.064205         1.7471

MULLIKEN ATOMIC CHARGES
-----------------------
   0 C :   -0.052580
   1 C :   -0.338900
   2 N :   -0.234742
   3 H :    0.077696
   4 H :    0.090485
   5 C :    0.365312
   6 C :   -0.503533
   7 N :   -0.443463
   8 H :    0.202904
   9 H :    0.220547
  10 H :    0.189015
  11 H :    0.034027
  12 H :    0.073873
  13 H :    0.107899
  14 H :    0.107129
  15 H :    0.104330
Sum of atomic charges:    0.0000000

LOEWDIN ATOMIC CHARGES
----------------------
   0 C :   -0.309535
   1 C :   -0.294884
   2 N :    0.128485
   3 H :    0.121123
   4 H :    0.120487
   5 C :   -0.462641
   6 C :   -0.346317
   7 N :   -0.013135
   8 H :    0.155420
   9 H :    0.170075
  10 H :    0.194570
  11 H :    0.094077
  12 H :    0.093260
  13 H :    0.115398
  14 H :    0.115108
  15 H :    0.118506

  Mayer bond orders larger than 0.100000
B(  0-C ,  1-C ) :   0.9680 B(  0-C ,  2-N ) :   0.9559 B(  0-C ,  3-H ) :   0.9512
B(  0-C ,  4-H ) :   0.9431 B(  1-C , 13-H ) :   0.9745 B(  1-C , 14-H ) :   0.9744
B(  1-C , 15-H ) :   0.9737 B(  2-N ,  5-C ) :   1.2158 B(  2-N , 10-H ) :   0.9255
B(  5-C ,  6-C ) :   1.5701 B(  5-C ,  7-N ) :   1.1202 B(  6-C , 11-H ) :   1.0052
B(  6-C , 12-H ) :   0.9986 B(  7-N ,  8-H ) :   0.9329 B(  7-N ,  9-H ) :   0.9280

Dispersion correction           -0.025175891
FINAL SINGLE POINT ENERGY      -267.900371889865

DIPOLE MOMENT
-------------
                                X             Y             Z
Electronic contribution:      2.98206       0.54368      -1.29442
Nuclear contribution   :     -3.69145      -1.49398       1.19810
                        -----------------------------------------
Total Dipole Moment    :     -0.70939      -0.95030      -0.09632
                        -----------------------------------------
Magnitude (a.u.)       :      1.18978
Magnitude (Debye)      :      3.02419

Rotational constants in cm-1:     0.270790     0.068966     0.056679
Rotational constants in MHz :  8118.084803  2067.559423  1699.196934

                             ****ORCA TERMINATED NORMALLY****
TOTAL RUN TIME: 0 days 0 hours 0 minutes 13 seconds 866 msec
