                         Program Version 5.0.0 -  RELEASE  -
|  1> !BLYP D3BJ RIJCOSX def2-TZVP def2/J TightSCF
|  2> *xyz 0 1
|  3> C          1.63556       -1.67040       -5.29211
|  4> C          0.33848       -1.50091       -4.50540
|  5> N          2.48451       -0.50741       -5.14039
|  6> H          1.39834       -1.82924       -6.35259
|  7> H          2.15586       -2.56540       -4.93209
|  8> C          3.45115       -0.14953       -5.95259
|  9> N          3.92267        1.08956       -5.85071
| 10> C          3.96616       -1.00618       -6.86788
| 11> H          3.52139       -1.90647       -6.99527
| 12> H          4.44482       -0.62347       -7.67035
| 13> H          2.25200        0.24080       -4.49879
| 14> H          3.46428        1.64078       -5.13639
| 15> H          4.83447        1.31375       -6.22465
| 16> H         -0.17658       -0.62881       -4.85045
| 17> H          0.56384       -1.39374       -3.46490
| 18> H         -0.28102       -2.36136       -4.64938
| 19> *
| 20>
| 21> %MaxCore 64000
| 22>
| 23> %pal nprocs 4
| 24> end
| 25>
| 26> %scf
| 27>   MaxIter 150
| 28> end
| 29>
| 30>
| 31>                          ****END OF INPUT****

CARTESIAN COORDINATES (ANGSTROEM)
---------------------------------
  C      1.635560   -1.670400   -5.292110
  C      0.338480   -1.500910   -4.505400
  N      2.484510   -0.507410   -5.140390
  H      1.398340   -1.829240   -6.352590
  H      2.155860   -2.565400   -4.932090
  C      3.451150   -0.149530   -5.952590
  N      3.922670    1.089560   -5.850710
  C      3.966160   -1.006180   -6.867880
  H      3.521390   -1.906470   -6.995270
  H      4.444820   -0.623470   -7.670350
  H      2.252000    0.240800   -4.498790
  H      3.464280    1.640780   -5.136390
  H      4.834470    1.313750   -6.224650
  H     -0.176580   -0.628810   -4.850450
  H      0.563840   -1.393740   -3.464900
  H     -0.281020   -2.361360   -4.649380

 Total Charge           Charge          ....    0
 Multiplicity           Mult            ....    1
 Number of Electrons    NEL             ....   48
 Basis Dimension        Dim             ....  246

ORBITAL ENERGIES
----------------

  NO   OCC          E(Eh)            E(eV)
   0   2.0000     -14.009915      -381.2292
   1   2.0000     -14.003639      -381.0584
   2   2.0000      -9.940626      -270.4982
   3   2.0000      -9.938184      -270.4317
   4   2.0000      -9.899734      -269.3855
   5   2.0000      -9.813283      -267.0330
   6   2.0000      -0.885831       -24.1047
   7   2.0000      -0.802329       -21.8325
   8   2.0000      -0.687159       -18.6985
   9   2.0000      -0.626605       -17.0508
  10   2.0000      -0.577867       -15.7246
  11   2.0000      -0.506729       -13.7888
  12   2.0000      -0.477990       -13.0068
  13   2.0000      -0.467726       -12.7275
  14   2.0000      -0.420207       -11.4344
  15   2.0000      -0.414650       -11.2832
  16   2.0000      -0.351012        -9.5515
  17   2.0000      -0.346564        -9.4305
  18   2.0000      -0.342202        -9.3118
  19   2.0000      -0.322764        -8.7829
  20   2.0000      -0.314706        -8.5636
  21   2.0000      -0.301824        -8.2131
  22   2.0000      -0.206155        -5.6098
  23   2.0000      -0.128219        -3.4890
  24   0.0000      -0.004424        -0.1204
  25   0.0000       0.021042         0.5726
  26   0.0000       0.038689         1.0528
  27   0.0000       0.052922         1.4401
  28   0.0000       0.067110         1.8262

MULLIKEN ATOMIC CHARGES
-----------------------
   0 C :   -0.026493
   1 C :   -0.328622
   2 N :   -0.244710
   3 H :    0.094215
   4 H :    0.091713
   5 C :    0.338657
   6 N :   -0.407462
   7 C :   -0.512461
   8 H :    0.066496
   9 H :    0.066674
  10 H :    0.150217
  11 H :    0.177253
  12 H :    0.225584
  13 H :    0.101179
  14 H :    0.101278
  15 H :    0.106482
Sum of atomic charges:   -0.0000000

LOEWDIN ATOMIC CHARGES
----------------------
   0 C :   -0.291318
   1 C :   -0.297696
   2 N :    0.129999
   3 H :    0.130078
   4 H :    0.125557
   5 C :   -0.474711
   6 N :   -0.003377
   7 C :   -0.353563
   8 H :    0.093615
   9 H :    0.091532
  10 H :    0.174190
  11 H :    0.156283
  12 H :    0.174531
  13 H :    0.112716
  14 H :    0.112766
  15 H :    0.119400

  Mayer bond orders larger than 0.100000
B(  0-C ,  1-C ) :   0.9503 B(  0-C ,  2-N ) :   0.9443 B(  0-C ,  3-H ) :   0.9587
B(  0-C ,  4-H ) :   0.9526 B(  1-C , 13-H ) :   0.9742 B(  1-C , 14-H ) :   0.9738
B(  1-C , 15-H ) :   0.9757 B(  2-N ,  5-C ) :   1.1805 B(  2-N , 10-H ) :   0.9327
B(  5-C ,  6-N ) :   1.1363 B(  5-C ,  7-C ) :   1.5709 B(  6-N , 11-H ) :   0.9327
B(  6-N , 12-H ) :   0.9238 B(  7-C ,  8-H ) :   1.0073 B(  7-C ,  9-H ) :   0.9960

Dispersion correction           -0.025289959
FINAL SINGLE POINT ENERGY      -267.900564996622

DIPOLE MOMENT
-------------
                                X             Y             Z
Electronic contribution:      3.04058       2.67431      -0.17873
Nuclear contribution   :     -3.68222      -1.93858       0.98231
                        -----------------------------------------
Total Dipole Moment    :     -0.64164       0.73573       0.80358
                        -----------------------------------------
Magnitude (a.u.)       :      1.26441
Magnitude (Debye)      :      3.21388

Rotational constants in cm-1:     0.275407     0.068040     0.056255
Rotational constants in MHz :  8256.498401  2039.796466  1686.484500

                             ****ORCA TERMINATED NORMALLY****
TOTAL RUN TIME: 0 days 0 hours 0 minutes 13 seconds 742 msec
