                         Program Version 5.0.0 -  RELEASE  -
|  1> !BLYP D3BJ RIJCOSX def2-TZVP def2/J TightSCF xyzfile
|  2>
|  3> *xyzfile 0 1 D1.xyz
|  4>
|  5> %MaxCore 64000
|  6>
|  7> %pal nprocs 18
|  8> end
|  9>
| 10> %scf
| 11>   MaxIter 150
| 12> end
| 13>
| 14>
| 15>                          ****END OF INPUT****

CARTESIAN COORDINATES (ANGSTROEM)
---------------------------------
  C      1.635557   -1.670396   -5.292109
  C      0.338484   -1.500907   -4.505398
  C      2.484511   -0.507410   -5.140392
  C     -0.684873   -0.528026   -5.099889
  C     -0.290406    0.951335   -5.153423
  H      0.607991    1.070692   -5.764412
  C     -0.055168    1.619420   -3.788577
  H     -1.080912    1.483775   -5.689436
  H      0.045006    0.862302   -3.003015
  H     -0.922936    2.230329   -3.517028
  C      1.223022    2.469865   -3.756911
  H      1.114701    3.258074   -4.532999
  H      1.237732    3.011242   -2.792157
  F      2.353815    1.712032   -3.934477
  H      1.398337   -1.829239   -6.352591
  H      2.155864   -2.565398   -4.932091
  C      3.451149   -0.149530   -5.952589
  N      3.922667    1.089559   -5.850711
  N      3.966162   -1.006183   -6.867880
  H      3.521391   -1.906467   -6.995270
  H      4.444824   -0.623472   -7.670348
  H      2.251995    0.240804   -4.498792
  H      3.464277    1.640782   -5.136392
  H      4.834470    1.313745   -6.224653
  H     -0.937999   -0.869056   -6.110838
  H     -1.604638   -0.622496   -4.513132
  H      0.594887   -1.211578   -3.482312
  H     -0.126530   -2.487656   -4.434176

 Total Charge           Charge          ....    0
 Multiplicity           Mult            ....    1
 Number of Electrons    NEL             ....   88
 Basis Dimension        Dim             ....  443

ORBITAL ENERGIES
----------------

  NO   OCC          E(Eh)            E(eV)
   0   2.0000     -24.297288      -661.1628
   1   2.0000     -13.988760      -380.6535
   2   2.0000     -13.973423      -380.2362
   3   2.0000      -9.989020      -271.8150
   4   2.0000      -9.917496      -269.8688
   5   2.0000      -9.908701      -269.6295
   6   2.0000      -9.891440      -269.1598
   7   2.0000      -9.888535      -269.0807
   8   2.0000      -9.878594      -268.8102
   9   2.0000      -9.868494      -268.5354
  10   2.0000      -9.797514      -266.6039
  11   2.0000      -1.125847       -30.6358
  12   2.0000      -0.848162       -23.0797
  13   2.0000      -0.769001       -20.9256
  14   2.0000      -0.725662       -19.7463
  15   2.0000      -0.694125       -18.8881
  16   2.0000      -0.648269       -17.6403
  17   2.0000      -0.616340       -16.7715
  18   2.0000      -0.570122       -15.5138
  19   2.0000      -0.539461       -14.6795
  20   2.0000      -0.514673       -14.0050
  21   2.0000      -0.490957       -13.3596
  22   2.0000      -0.473807       -12.8929
  23   2.0000      -0.463163       -12.6033
  24   2.0000      -0.445880       -12.1330
  25   2.0000      -0.442718       -12.0470
  26   2.0000      -0.424819       -11.5599
  27   2.0000      -0.402748       -10.9593
  28   2.0000      -0.386203       -10.5091
  29   2.0000      -0.384080       -10.4513
  30   2.0000      -0.363903        -9.9023
  31   2.0000      -0.348560        -9.4848
  32   2.0000      -0.337180        -9.1751
  33   2.0000      -0.325777        -8.8648
  34   2.0000      -0.312275        -8.4974
  35   2.0000      -0.307272        -8.3613
  36   2.0000      -0.301166        -8.1951
  37   2.0000      -0.289556        -7.8792
  38   2.0000      -0.273084        -7.4310
  39   2.0000      -0.264673        -7.2021
  40   2.0000      -0.258163        -7.0250
  41   2.0000      -0.245695        -6.6857
  42   2.0000      -0.198898        -5.4123
  43   2.0000      -0.109058        -2.9676
  44   0.0000       0.011716         0.3188
  45   0.0000       0.018919         0.5148
  46   0.0000       0.030660         0.8343
  47   0.0000       0.042718         1.1624
  48   0.0000       0.047005         1.2791

MULLIKEN ATOMIC CHARGES
-----------------------
   0 C :   -0.131291
   1 C :   -0.155639
   2 C :   -0.333078
   3 C :   -0.147401
   4 C :   -0.161191
   5 H :    0.126518
   6 C :   -0.163947
   7 H :    0.065493
   8 H :    0.091286
   9 H :    0.089176
  10 C :    0.025755
  11 H :    0.085899
  12 H :    0.090421
  13 F :   -0.215209
  14 H :    0.031906
  15 H :    0.057533
  16 C :    0.276637
  17 N :   -0.434918
  18 N :   -0.441569
  19 H :    0.214270
  20 H :    0.183986
  21 H :    0.162963
  22 H :    0.227948
  23 H :    0.181140
  24 H :    0.069289
  25 H :    0.067758
  26 H :    0.070839
  27 H :    0.065425
Sum of atomic charges:   -0.0000000

LOEWDIN ATOMIC CHARGES
----------------------
   0 C :   -0.279132
   1 C :   -0.256876
   2 C :   -0.283351
   3 C :   -0.260457
   4 C :   -0.264426
   5 H :    0.143211
   6 C :   -0.264331
   7 H :    0.128295
   8 H :    0.137481
   9 H :    0.138517
  10 C :   -0.345229
  11 H :    0.121742
  12 H :    0.120436
  13 F :    0.160231
  14 H :    0.124112
  15 H :    0.127767
  16 C :   -0.468461
  17 N :   -0.019775
  18 N :   -0.021131
  19 H :    0.166419
  20 H :    0.148859
  21 H :    0.116808
  22 H :    0.156706
  23 H :    0.148938
  24 H :    0.133324
  25 H :    0.131334
  26 H :    0.129513
  27 H :    0.129475

  Mayer bond orders larger than 0.100000
B(  0-C ,  1-C ) :   0.9845 B(  0-C ,  2-C ) :   0.9753 B(  0-C , 14-H ) :   0.9409
B(  0-C , 15-H ) :   0.9472 B(  1-C ,  3-C ) :   0.9942 B(  1-C , 26-H ) :   0.9719
B(  1-C , 27-H ) :   0.9669 B(  2-C , 16-C ) :   1.5976 B(  2-C , 21-H ) :   0.9959
B(  3-C ,  4-C ) :   0.9583 B(  3-C , 24-H ) :   0.9544 B(  3-C , 25-H ) :   0.9612
B(  4-C ,  5-H ) :   0.9813 B(  4-C ,  6-C ) :   0.9358 B(  4-C ,  7-H ) :   0.9588
B(  6-C ,  8-H ) :   0.9602 B(  6-C ,  9-H ) :   0.9441 B(  6-C , 10-C ) :   0.9727
B( 10-C , 11-H ) :   0.9680 B( 10-C , 12-H ) :   0.9587 B( 10-C , 13-F ) :   0.9380
B( 16-C , 17-N ) :   1.1899 B( 16-C , 18-N ) :   1.1364 B( 17-N , 22-H ) :   0.8843
B( 17-N , 23-H ) :   0.9304 B( 18-N , 19-H ) :   0.9297 B( 18-N , 20-H ) :   0.9273

Dispersion correction           -0.057987834
FINAL SINGLE POINT ENERGY      -524.383202972239

DIPOLE MOMENT
-------------
                                X             Y             Z
Electronic contribution:      7.94263       3.84491       1.10527
Nuclear contribution   :     -8.11591      -2.99033      -1.35383
                        -----------------------------------------
Total Dipole Moment    :     -0.17328       0.85458      -0.24857
                        -----------------------------------------
Magnitude (a.u.)       :      0.90671
Magnitude (Debye)      :      2.30466

Rotational constants in cm-1:     0.043530     0.028984     0.019589
Rotational constants in MHz :  1305.007140   868.923804   587.262638

                             ****ORCA TERMINATED NORMALLY****
TOTAL RUN TIME: 0 days 0 hours 0 minutes 16 seconds 870 msec
