                         Program Version 5.0.0 -  RELEASE  -
|  1> !BLYP D3BJ RIJCOSX def2-TZVP def2/J TightSCF xyzfile
|  2>
|  3> *xyzfile 0 1 D2.xyz
|  4>
|  5> %MaxCore 64000
|  6>
|  7> %pal nprocs 18
|  8> end
|  9>
| 10> %scf
| 11>   MaxIter 150
| 12> end
| 13>
| 14>
| 15>                          ****END OF INPUT****

CARTESIAN COORDINATES (ANGSTROEM)
---------------------------------
  C      1.635557   -1.670396   -5.292109
  C      0.338484   -1.500907   -4.505398
  N      2.484511   -0.507410   -5.140392
  C     -0.684873   -0.528026   -5.099889
  C     -0.290406    0.951335   -5.153423
  H      0.607991    1.070692   -5.764412
  C     -0.055168    1.619420   -3.788577
  H     -1.080912    1.483775   -5.689436
  H      0.045006    0.862302   -3.003015
  H     -0.922936    2.230329   -3.517028
  C      1.223022    2.469865   -3.756911
  H      1.114701    3.258074   -4.532999
  H      1.237732    3.011242   -2.792157
  F      2.353815    1.712032   -3.934477
  H      1.398337   -1.829239   -6.352591
  H      2.155864   -2.565398   -4.932091
  C      3.451149   -0.149530   -5.952589
  C      3.922667    1.089559   -5.850711
  N      3.966162   -1.006183   -6.867880
  H      3.521391   -1.906467   -6.995270
  H      4.444824   -0.623472   -7.670348
  H      2.251995    0.240804   -4.498792
  H      3.464277    1.640782   -5.136392
  H      4.834470    1.313745   -6.224653
  H     -0.937999   -0.869056   -6.110838
  H     -1.604638   -0.622496   -4.513132
  H      0.594887   -1.211578   -3.482312
  H     -0.126530   -2.487656   -4.434176

 Total Charge           Charge          ....    0
 Multiplicity           Mult            ....    1
 Number of Electrons    NEL             ....   88
 Basis Dimension        Dim             ....  443

ORBITAL ENERGIES
----------------

  NO   OCC          E(Eh)            E(eV)
   0   2.0000     -24.298991      -661.2092
   1   2.0000     -13.987095      -380.6082
   2   2.0000     -13.977537      -380.3481
   3   2.0000      -9.990891      -271.8660
   4   2.0000      -9.931526      -270.2506
   5   2.0000      -9.921748      -269.9845
   6   2.0000      -9.917688      -269.8740
   7   2.0000      -9.906795      -269.5776
   8   2.0000      -9.906528      -269.5703
   9   2.0000      -9.904582      -269.5174
  10   2.0000      -9.787482      -266.3309
  11   2.0000      -1.126985       -30.6668
  12   2.0000      -0.860573       -23.4174
  13   2.0000      -0.783480       -21.3196
  14   2.0000      -0.736720       -20.0472
  15   2.0000      -0.697936       -18.9918
  16   2.0000      -0.660716       -17.9790
  17   2.0000      -0.610871       -16.6226
  18   2.0000      -0.581364       -15.8197
  19   2.0000      -0.554846       -15.0981
  20   2.0000      -0.521029       -14.1779
  21   2.0000      -0.505604       -13.7582
  22   2.0000      -0.482982       -13.1426
  23   2.0000      -0.457868       -12.4592
  24   2.0000      -0.449935       -12.2434
  25   2.0000      -0.442492       -12.0408
  26   2.0000      -0.430789       -11.7224
  27   2.0000      -0.416095       -11.3225
  28   2.0000      -0.398291       -10.8380
  29   2.0000      -0.388822       -10.5804
  30   2.0000      -0.371213       -10.1012
  31   2.0000      -0.357503        -9.7282
  32   2.0000      -0.349520        -9.5109
  33   2.0000      -0.329672        -8.9708
  34   2.0000      -0.323943        -8.8149
  35   2.0000      -0.315601        -8.5879
  36   2.0000      -0.304148        -8.2763
  37   2.0000      -0.300331        -8.1724
  38   2.0000      -0.287798        -7.8314
  39   2.0000      -0.280631        -7.6364
  40   2.0000      -0.275835        -7.5059
  41   2.0000      -0.272781        -7.4228
  42   2.0000      -0.194178        -5.2839
  43   2.0000      -0.107548        -2.9265
  44   0.0000       0.006757         0.1839
  45   0.0000       0.016973         0.4619
  46   0.0000       0.027432         0.7465
  47   0.0000       0.032058         0.8724
  48   0.0000       0.044332         1.2063

MULLIKEN ATOMIC CHARGES
-----------------------
   0 C :   -0.059031
   1 C :   -0.189368
   2 N :   -0.244009
   3 C :   -0.137413
   4 C :   -0.209557
   5 H :    0.146721
   6 C :   -0.178328
   7 H :    0.078157
   8 H :    0.091149
   9 H :    0.092518
  10 C :    0.041117
  11 H :    0.091951
  12 H :    0.092776
  13 F :   -0.209172
  14 H :    0.061454
  15 H :    0.084703
  16 C :    0.335845
  17 C :   -0.573866
  18 N :   -0.450312
  19 H :    0.197055
  20 H :    0.215200
  21 H :    0.220240
  22 H :    0.109313
  23 H :    0.066383
  24 H :    0.077440
  25 H :    0.076909
  26 H :    0.088340
  27 H :    0.083784
Sum of atomic charges:   -0.0000000

LOEWDIN ATOMIC CHARGES
----------------------
   0 C :   -0.290706
   1 C :   -0.264592
   2 N :    0.128089
   3 C :   -0.262151
   4 C :   -0.266464
   5 H :    0.144666
   6 C :   -0.267398
   7 H :    0.132481
   8 H :    0.135431
   9 H :    0.140031
  10 C :   -0.342247
  11 H :    0.125190
  12 H :    0.121625
  13 F :    0.166533
  14 H :    0.121520
  15 H :    0.121291
  16 C :   -0.470369
  17 C :   -0.363024
  18 N :   -0.018103
  19 H :    0.152353
  20 H :    0.166715
  21 H :    0.169441
  22 H :    0.092216
  23 H :    0.088911
  24 H :    0.135213
  25 H :    0.134456
  26 H :    0.131139
  27 H :    0.137751

  Mayer bond orders larger than 0.100000
B(  0-C ,  1-C ) :   0.9798 B(  0-C ,  2-N ) :   0.9677 B(  0-C , 14-H ) :   0.9421
B(  0-C , 15-H ) :   0.9438 B(  1-C ,  3-C ) :   0.9833 B(  1-C , 26-H ) :   0.9700
B(  1-C , 27-H ) :   0.9643 B(  2-N , 16-C ) :   1.2349 B(  2-N , 21-H ) :   0.8882
B(  3-C ,  4-C ) :   0.9605 B(  3-C , 24-H ) :   0.9571 B(  3-C , 25-H ) :   0.9605
B(  4-C ,  5-H ) :   0.9751 B(  4-C ,  6-C ) :   0.9285 B(  4-C ,  7-H ) :   0.9607
B(  6-C ,  8-H ) :   0.9645 B(  6-C ,  9-H ) :   0.9442 B(  6-C , 10-C ) :   0.9722
B( 10-C , 11-H ) :   0.9705 B( 10-C , 12-H ) :   0.9575 B( 10-C , 13-F ) :   0.9306
B( 16-C , 17-C ) :   1.5725 B( 16-C , 18-N ) :   1.1040 B( 17-C , 22-H ) :   0.9947
B( 17-C , 23-H ) :   0.9922 B( 18-N , 19-H ) :   0.9345 B( 18-N , 20-H ) :   0.9285

Dispersion correction           -0.057460723
FINAL SINGLE POINT ENERGY      -524.376406734473

DIPOLE MOMENT
-------------
                                X             Y             Z
Electronic contribution:      6.41659       2.41528       1.68777
Nuclear contribution   :     -7.85451      -2.70006      -1.48294
                        -----------------------------------------
Total Dipole Moment    :     -1.43792      -0.28478       0.20483
                        -----------------------------------------
Magnitude (a.u.)       :      1.48009
Magnitude (Debye)      :      3.76209

Rotational constants in cm-1:     0.044065     0.029250     0.019826
Rotational constants in MHz :  1321.026981   876.903192   594.367265

                             ****ORCA TERMINATED NORMALLY****
TOTAL RUN TIME: 0 days 0 hours 0 minutes 17 seconds 968 msec
