                         Program Version 5.0.0 -  RELEASE  -
|  1> !PBE0 D3BJ RIJCOSX def2-SVPD def2/J TightSCF
|  2> *xyz -1 1
|  3> C          3.84189       -6.95161       -3.63283
|  4> S          4.31812       -6.91593       -5.36869
|  5> O          5.40615       -5.89948       -5.51297
|  6> O          3.11191       -6.44508       -6.04379
|  7> O          4.76340       -8.23942       -5.69863
|  8> H          3.06224       -7.67071       -3.49159
|  9> H          3.49217       -5.98401       -3.33897
| 10> H          4.68822       -7.22131       -3.03626
| 11> *
| 12>
| 13> %MaxCore 64000
| 14>
| 15> %pal nprocs 8
| 16> end
| 17>
| 18> %scf
| 19>   MaxIter 150
| 20> end
| 21>
| 22>
| 23>                          ****END OF INPUT****

CARTESIAN COORDINATES (ANGSTROEM)
---------------------------------
  C      3.841890   -6.951610   -3.632830
  S      4.318120   -6.915930   -5.368690
  O      5.406150   -5.899480   -5.512970
  O      3.111910   -6.445080   -6.043790
  O      4.763400   -8.239420   -5.698630
  H      3.062240   -7.670710   -3.491590
  H      3.492170   -5.984010   -3.338970
  H      4.688220   -7.221310   -3.036260

 Total Charge           Charge          ....   -1
 Multiplicity           Mult            ....    1
 Number of Electrons    NEL             ....   50
 Basis Dimension        Dim             ....  140

ORBITAL ENERGIES
----------------

  NO   OCC          E(Eh)            E(eV)
   0   2.0000     -89.038526     -2422.8615
   1   2.0000     -19.000956      -517.0423
   2   2.0000     -18.990786      -516.7655
   3   2.0000     -18.984486      -516.5941
   4   2.0000     -10.087880      -274.5052
   5   2.0000      -7.997730      -217.6293
   6   2.0000      -5.939956      -161.6344
   7   2.0000      -5.939824      -161.6308
   8   2.0000      -5.939520      -161.6225
   9   2.0000      -0.954758       -25.9803
  10   2.0000      -0.817140       -22.2355
  11   2.0000      -0.786528       -21.4025
  12   2.0000      -0.602147       -16.3852
  13   2.0000      -0.406267       -11.0551
  14   2.0000      -0.318203        -8.6587
  15   2.0000      -0.306449        -8.3389
  16   2.0000      -0.304359        -8.2820
  17   2.0000      -0.264100        -7.1865
  18   2.0000      -0.260893        -7.0993
  19   2.0000      -0.164870        -4.4863
  20   2.0000      -0.163244        -4.4421
  21   2.0000      -0.130012        -3.5378
  22   2.0000      -0.121071        -3.2945
  23   2.0000      -0.111889        -3.0447
  24   2.0000      -0.075181        -2.0458
  25   0.0000       0.156825         4.2674
  26   0.0000       0.189889         5.1671
  27   0.0000       0.190106         5.1731
  28   0.0000       0.194280         5.2866
  29   0.0000       0.218616         5.9489

MULLIKEN ATOMIC CHARGES
-----------------------
   0 C :    0.308709
   1 S :    1.174343
   2 O :   -0.836037
   3 O :   -0.807974
   4 O :   -0.778589
   5 H :   -0.013368
   6 H :   -0.016544
   7 H :   -0.030539
Sum of atomic charges:   -1.0000000

LOEWDIN ATOMIC CHARGES
----------------------
   0 C :    0.051818
   1 S :    0.847256
   2 O :   -0.609038
   3 O :   -0.598269
   4 O :   -0.580880
   5 H :   -0.036882
   6 H :   -0.035640
   7 H :   -0.038366

  Mayer bond orders larger than 0.100000
B(  0-C ,  1-S ) :   0.9496 B(  0-C ,  5-H ) :   0.9339 B(  0-C ,  6-H ) :   0.9403
B(  0-C ,  7-H ) :   0.9441 B(  1-S ,  2-O ) :   1.2670 B(  1-S ,  3-O ) :   1.3015
B(  1-S ,  4-O ) :   1.3172 B(  1-S ,  6-H ) :   0.1090 B(  1-S ,  7-H ) :   0.1038

Dispersion correction           -0.005331411
FINAL SINGLE POINT ENERGY      -663.076484301791

DIPOLE MOMENT
-------------
                                X             Y             Z
Electronic contribution:      1.08572      -0.06265      -4.11832
Nuclear contribution   :     -1.53523      -0.17928       5.57610
                        -----------------------------------------
Total Dipole Moment    :     -0.44951      -0.24194       1.45779
                        -----------------------------------------
Magnitude (a.u.)       :      1.54458
Magnitude (Debye)      :      3.92601

Rotational constants in cm-1:     0.172657     0.156250     0.152500
Rotational constants in MHz :  5176.120042  4684.252187  4571.835124

                             ****ORCA TERMINATED NORMALLY****
TOTAL RUN TIME: 0 days 0 hours 0 minutes 6 seconds 874 msec
