                         Program Version 5.0.0 -  RELEASE  -
|  1> !PBE0 D3BJ RIJCOSX def2-SVPD def2/J TightSCF
|  2> *xyz 1 1
|  3> C          5.55821       -1.99291       -6.21505
|  4> C          4.18188       -2.58967       -6.29891
|  5> N          3.14587       -1.76843       -6.48675
|  6> N          4.01910       -3.86431       -6.22743
|  7> H          4.76849       -4.59115       -5.99077
|  8> H          3.12241       -4.33339       -6.31462
|  9> H          3.28164       -0.77779       -6.56655
| 10> H          2.21255       -2.13419       -6.56225
| 11> H          5.49055       -0.92791       -6.29315
| 12> H          6.16046       -2.37160       -7.01429
| 13> H          6.00378       -2.25423       -5.27799
| 14> *
| 15>
| 16> %MaxCore 64000
| 17>
| 18> %pal nprocs 8
| 19> end
| 20>
| 21> %scf
| 22>   MaxIter 150
| 23> end
| 24>
| 25>
| 26>                          ****END OF INPUT****

CARTESIAN COORDINATES (ANGSTROEM)
---------------------------------
  C      5.558210   -1.992910   -6.215050
  C      4.181880   -2.589670   -6.298910
  N      3.145870   -1.768430   -6.486750
  N      4.019100   -3.864310   -6.227430
  H      4.768490   -4.591150   -5.990770
  H      3.122410   -4.333390   -6.314620
  H      3.281640   -0.777790   -6.566550
  H      2.212550   -2.134190   -6.562250
  H      5.490550   -0.927910   -6.293150
  H      6.160460   -2.371600   -7.014290
  H      6.003780   -2.254230   -5.277990

 Total Charge           Charge          ....    1
 Multiplicity           Mult            ....    1
 Number of Electrons    NEL             ....   32
 Basis Dimension        Dim             ....  136

ORBITAL ENERGIES
----------------

  NO   OCC          E(Eh)            E(eV)
   0   2.0000     -14.654498      -398.7692
   1   2.0000     -14.643963      -398.4825
   2   2.0000     -10.567148      -287.5467
   3   2.0000     -10.430489      -283.8280
   4   2.0000      -1.229774       -33.4639
   5   2.0000      -1.129818       -30.7439
   6   2.0000      -0.971109       -26.4252
   7   2.0000      -0.866314       -23.5736
   8   2.0000      -0.800885       -21.7932
   9   2.0000      -0.781049       -21.2534
  10   2.0000      -0.718064       -19.5395
  11   2.0000      -0.676400       -18.4058
  12   2.0000      -0.629199       -17.1214
  13   2.0000      -0.613617       -16.6974
  14   2.0000      -0.591138       -16.0857
  15   2.0000      -0.512257       -13.9392
  16   0.0000      -0.210327        -5.7233
  17   0.0000      -0.155909        -4.2425
  18   0.0000      -0.113295        -3.0829
  19   0.0000      -0.109593        -2.9822
  20   0.0000      -0.087125        -2.3708

MULLIKEN ATOMIC CHARGES
-----------------------
   0 C :    0.421801
   1 C :    0.630699
   2 N :   -0.123249
   3 N :   -0.055892
   4 H :    0.090429
   5 H :   -0.118842
   6 H :    0.036599
   7 H :   -0.097283
   8 H :    0.070600
   9 H :    0.065695
  10 H :    0.079444
Sum of atomic charges:    1.0000000

LOEWDIN ATOMIC CHARGES
----------------------
   0 C :    0.231876
   1 C :   -0.062624
   2 N :    0.280744
   3 N :    0.246316
   4 H :    0.113930
   5 H :    0.050471
   6 H :    0.042530
   7 H :    0.041956
   8 H :    0.007376
   9 H :    0.024482
  10 H :    0.022944

  Mayer bond orders larger than 0.100000
B(  0-C ,  1-C ) :   1.2694 B(  0-C ,  8-H ) :   0.8187 B(  0-C ,  9-H ) :   0.8068
B(  0-C , 10-H ) :   0.7888 B(  1-C ,  2-N ) :   0.8554 B(  1-C ,  3-N ) :   1.0506
B(  1-C ,  4-H ) :  -0.1021 B(  1-C ,  5-H ) :  -0.2092 B(  1-C ,  7-H ) :  -0.2408
B(  1-C ,  8-H ) :   0.1954 B(  1-C ,  9-H ) :   0.1401 B(  1-C , 10-H ) :   0.1466
B(  2-N ,  3-N ) :   0.1749 B(  2-N ,  6-H ) :   1.1034 B(  2-N ,  7-H ) :   1.3347
B(  3-N ,  4-H ) :   1.1288 B(  3-N ,  5-H ) :   1.2645 B(  4-H ,  5-H ) :  -0.1517
B(  6-H ,  7-H ) :  -0.1777 B(  8-H , 10-H ) :   0.1059

Dispersion correction           -0.005690370
FINAL SINGLE POINT ENERGY      -189.371975842764

DIPOLE MOMENT
-------------
                                X             Y             Z
Electronic contribution:     -1.91784      -0.89380      -0.11693
Nuclear contribution   :      1.48163       0.51565       0.12876
                        -----------------------------------------
Total Dipole Moment    :     -0.43621      -0.37815       0.01183
                        -----------------------------------------
Magnitude (a.u.)       :      0.57742
Magnitude (Debye)      :      1.46769

Rotational constants in cm-1:     0.329497     0.300036     0.161709
Rotational constants in MHz :  9878.065920  8994.849253  4847.907140

                             ****ORCA TERMINATED NORMALLY****
TOTAL RUN TIME: 0 days 0 hours 0 minutes 5 seconds 998 msec
