                         Program Version 5.0.0 -  RELEASE  -
|  1> !PBE0 D3BJ RIJCOSX def2-SVPD def2/J TightSCF xyzfile
|  2>
|  3> *xyzfile 0 1 B.xyz
|  4>
|  5> %MaxCore 64000
|  6>
|  7> %pal nprocs 4
|  8> end
|  9>
| 10> %scf
| 11>   MaxIter 150
| 12> end
| 13>
| 14>
| 15>                          ****END OF INPUT****

CARTESIAN COORDINATES (ANGSTROEM)
---------------------------------
  C      5.558206   -1.992914   -6.215054
  C      4.930199   -7.375319   -2.649623
  C      3.841892   -6.951611   -3.632829
  H      3.458144   -5.954425   -3.407121
  H      2.988484   -7.643606   -3.567078
  S      4.318115   -6.915930   -5.368692
  C      4.181880   -2.589671   -6.298911
  N      3.145873   -1.768431   -6.486753
  N      4.019102   -3.864307   -6.227427
  H      4.768490   -4.591153   -5.990773
  H      3.122405   -4.333392   -6.314620
  H      3.281635   -0.777786   -6.566549
  H      2.212549   -2.134193   -6.562246
  O      5.406154   -5.899480   -5.512972
  O      3.111910   -6.445079   -6.043792
  C      6.419260   -2.542944   -5.077630
  C      5.872267   -5.002756   -2.427819
  C      6.173994   -6.485522   -2.606315
  H      6.734852   -6.613767   -3.534015
  H      6.821463   -6.831018   -1.793617
  H      4.469612   -7.406168   -1.655876
  H      5.230134   -8.398678   -2.885906
  C      5.896512   -2.169314   -3.694552
  H      7.428880   -2.143665   -5.208078
  H      6.505894   -3.627541   -5.175502
  C      6.807804   -2.623428   -2.551019
  H      4.894708   -2.589732   -3.557501
  H      5.778823   -1.081255   -3.635790
  C      7.111544   -4.122463   -2.520363
  H      7.751615   -2.071393   -2.614406
  H      6.345837   -2.326401   -1.604086
  H      5.362882   -4.828697   -1.471335
  H      5.174429   -4.702577   -3.211298
  H      7.778329   -4.329347   -1.677651
  H      7.673189   -4.402845   -3.417586
  O      4.763396   -8.239424   -5.698629
  H      6.036826   -2.198189   -7.176852
  H      5.467610   -0.907371   -6.127968

 Total Charge           Charge          ....    0
 Multiplicity           Mult            ....    1
 Number of Electrons    NEL             ....  136
 Basis Dimension        Dim             ....  512

ORBITAL ENERGIES
----------------

  NO   OCC          E(Eh)            E(eV)
   0   2.0000     -89.194216     -2427.0980
   1   2.0000     -19.163578      -521.4675
   2   2.0000     -19.151499      -521.1388
   3   2.0000     -19.144967      -520.9610
   4   2.0000     -14.488218      -394.2444
   5   2.0000     -14.448696      -393.1690
   6   2.0000     -10.392203      -282.7862
   7   2.0000     -10.291866      -280.0559
   8   2.0000     -10.259568      -279.1770
   9   2.0000     -10.247653      -278.8528
  10   2.0000     -10.236030      -278.5365
  11   2.0000     -10.230197      -278.3778
  12   2.0000     -10.223864      -278.2055
  13   2.0000     -10.217758      -278.0393
  14   2.0000     -10.215800      -277.9861
  15   2.0000     -10.208523      -277.7880
  16   2.0000      -8.152559      -221.8424
  17   2.0000      -6.095660      -165.8713
  18   2.0000      -6.094582      -165.8420
  19   2.0000      -6.093609      -165.8155
  20   2.0000      -1.114844       -30.3364
  21   2.0000      -1.059002       -28.8169
  22   2.0000      -0.973262       -26.4838
  23   2.0000      -0.965006       -26.2592
  24   2.0000      -0.953148       -25.9365
  25   2.0000      -0.859975       -23.4011
  26   2.0000      -0.824656       -22.4400
  27   2.0000      -0.801303       -21.8046
  28   2.0000      -0.760916       -20.7056
  29   2.0000      -0.725959       -19.7543
  30   2.0000      -0.693462       -18.8701
  31   2.0000      -0.672323       -18.2948
  32   2.0000      -0.644343       -17.5335
  33   2.0000      -0.627242       -17.0681
  34   2.0000      -0.613360       -16.6904
  35   2.0000      -0.592915       -16.1340
  36   2.0000      -0.575322       -15.6553
  37   2.0000      -0.557511       -15.1706
  38   2.0000      -0.530762       -14.4428
  39   2.0000      -0.518752       -14.1160
  40   2.0000      -0.504110       -13.7175
  41   2.0000      -0.488151       -13.2833
  42   2.0000      -0.484399       -13.1812
  43   2.0000      -0.470190       -12.7945
  44   2.0000      -0.462757       -12.5923
  45   2.0000      -0.455115       -12.3843
  46   2.0000      -0.446175       -12.1410
  47   2.0000      -0.442149       -12.0315
  48   2.0000      -0.428865       -11.6700
  49   2.0000      -0.415883       -11.3167
  50   2.0000      -0.410914       -11.1815
  51   2.0000      -0.409196       -11.1348
  52   2.0000      -0.388111       -10.5610
  53   2.0000      -0.381513       -10.3815
  54   2.0000      -0.375944       -10.2300
  55   2.0000      -0.357641        -9.7319
  56   2.0000      -0.349566        -9.5122
  57   2.0000      -0.342785        -9.3276
  58   2.0000      -0.340504        -9.2656
  59   2.0000      -0.330781        -9.0010
  60   2.0000      -0.326060        -8.8725
  61   2.0000      -0.321864        -8.7584
  62   2.0000      -0.315412        -8.5828
  63   2.0000      -0.313854        -8.5404
  64   2.0000      -0.280640        -7.6366
  65   2.0000      -0.277802        -7.5594
  66   2.0000      -0.265448        -7.2232
  67   2.0000      -0.245316        -6.6754
  68   0.0000      -0.046399        -1.2626
  69   0.0000      -0.017752        -0.4831
  70   0.0000       0.016234         0.4418
  71   0.0000       0.025572         0.6958
  72   0.0000       0.032366         0.8807

MULLIKEN ATOMIC CHARGES
-----------------------
   0 C :    0.324700
   1 C :    0.367820
   2 C :   -0.155887
   3 H :    0.268907
   4 H :   -0.156273
   5 S :    1.528155
   6 C :    0.952033
   7 N :   -0.061938
   8 N :    0.340571
   9 H :    0.080753
  10 H :   -0.250182
  11 H :   -0.073486
  12 H :   -0.144268
  13 O :   -1.048722
  14 O :   -0.888770
  15 C :    0.147446
  16 C :   -0.187866
  17 C :    0.037491
  18 H :    0.167332
  19 H :   -0.271147
  20 H :    0.109492
  21 H :    0.070389
  22 C :   -0.217486
  23 H :   -0.070411
  24 H :   -0.399655
  25 C :    0.485771
  26 H :    0.225728
  27 H :   -0.271231
  28 C :   -0.042773
  29 H :    0.086100
  30 H :    0.015372
  31 H :    0.046534
  32 H :   -0.171291
  33 H :   -0.243005
  34 H :    0.160077
  35 O :   -0.894542
  36 H :   -0.018503
  37 H :    0.152762
Sum of atomic charges:   -0.0000000

LOEWDIN ATOMIC CHARGES
----------------------
   0 C :    0.040902
   1 C :   -0.035105
   2 C :   -0.073883
   3 H :    0.003337
   4 H :    0.027582
   5 S :    0.959286
   6 C :   -0.045496
   7 N :    0.246965
   8 N :    0.296934
   9 H :   -0.084905
  10 H :    0.002602
  11 H :    0.016720
  12 H :    0.025355
  13 O :   -0.521734
  14 O :   -0.545811
  15 C :   -0.011433
  16 C :   -0.040013
  17 C :   -0.032375
  18 H :    0.017260
  19 H :    0.026853
  20 H :    0.026586
  21 H :    0.030171
  22 C :   -0.038061
  23 H :    0.039617
  24 H :    0.005177
  25 C :   -0.032776
  26 H :    0.015572
  27 H :    0.022997
  28 C :   -0.034451
  29 H :    0.023986
  30 H :    0.025472
  31 H :    0.037006
  32 H :   -0.016352
  33 H :    0.027152
  34 H :    0.023209
  35 O :   -0.504950
  36 H :    0.049966
  37 H :    0.026638

  Mayer bond orders larger than 0.100000
B(  0-C ,  6-C ) :   0.9851 B(  0-C , 15-C ) :   1.2600 B(  0-C , 24-H ) :   0.1223
B(  0-C , 36-H ) :   0.6875 B(  0-C , 37-H ) :   0.7657 B(  1-C ,  2-C ) :   1.2403
B(  1-C ,  4-H ) :   0.1402 B(  1-C , 17-C ) :   1.2675 B(  1-C , 20-H ) :   0.7346
B(  1-C , 21-H ) :   0.7059 B(  2-C ,  3-H ) :   0.7848 B(  2-C ,  4-H ) :   0.9359
B(  2-C ,  5-S ) :   0.9795 B(  2-C , 20-H ) :   0.1565 B(  2-C , 21-H ) :   0.1174
B(  2-C , 35-O ) :   0.1615 B(  4-H ,  5-S ) :   0.1171 B(  5-S , 13-O ) :   0.9299
B(  5-S , 14-O ) :   1.2171 B(  5-S , 35-O ) :   1.2498 B(  6-C ,  7-N ) :   0.8278
B(  6-C ,  8-N ) :   1.1913 B(  6-C ,  9-H ) :  -0.1939 B(  6-C , 10-H ) :  -0.3638
B(  6-C , 11-H ) :  -0.1072 B(  6-C , 12-H ) :  -0.2107 B(  6-C , 36-H ) :   0.1796
B(  6-C , 37-H ) :   0.1199 B(  7-N ,  8-N ) :   0.1748 B(  7-N , 11-H ) :   1.2019
B(  7-N , 12-H ) :   1.3489 B(  8-N ,  9-H ) :   0.8900 B(  8-N , 10-H ) :   1.2500
B(  9-H , 10-H ) :  -0.2518 B(  9-H , 13-O ) :   0.1239 B( 10-H , 14-O ) :   0.1701
B( 11-H , 12-H ) :  -0.1773 B( 13-O , 14-O ) :   0.1174 B( 13-O , 18-H ) :   0.1014
B( 13-O , 24-H ) :   0.1832 B( 13-O , 35-O ) :   0.1260 B( 15-C , 22-C ) :   1.2298
B( 15-C , 23-H ) :   0.8169 B( 15-C , 24-H ) :   0.7939 B( 15-C , 26-H ) :   0.1077
B( 15-C , 27-H ) :   0.1653 B( 15-C , 36-H ) :   0.2484 B( 15-C , 37-H ) :   0.1473
B( 16-C , 17-C ) :   1.2277 B( 16-C , 18-H ) :   0.1071 B( 16-C , 19-H ) :   0.1606
B( 16-C , 28-C ) :   1.2283 B( 16-C , 31-H ) :   0.8189 B( 16-C , 32-H ) :   1.0347
B( 16-C , 33-H ) :   0.1955 B( 16-C , 34-H ) :   0.1181 B( 17-C , 18-H ) :   0.8350
B( 17-C , 19-H ) :   0.9408 B( 17-C , 20-H ) :   0.1075 B( 17-C , 21-H ) :   0.2093
B( 17-C , 28-C ) :   0.1037 B( 22-C , 23-H ) :   0.1511 B( 22-C , 24-H ) :   0.1561
B( 22-C , 25-C ) :   1.1161 B( 22-C , 26-H ) :   0.7988 B( 22-C , 27-H ) :   1.1037
B( 22-C , 29-H ) :   0.1358 B( 22-C , 30-H ) :   0.2015 B( 25-C , 28-C ) :   1.1580
B( 25-C , 29-H ) :   0.7126 B( 25-C , 30-H ) :   0.7461 B( 26-H , 32-H ) :   0.1272
B( 28-C , 29-H ) :   0.1839 B( 28-C , 30-H ) :   0.1340 B( 28-C , 31-H ) :   0.1029
B( 28-C , 33-H ) :   1.0233 B( 28-C , 34-H ) :   0.8275 B( 31-H , 32-H ) :   0.1247

Dispersion correction           -0.040705935
FINAL SINGLE POINT ENERGY     -1126.134364063354

DIPOLE MOMENT
-------------
                                X             Y             Z
Electronic contribution:     -9.20161     -11.42541     -14.14106
Nuclear contribution   :      8.53517      16.50844      14.36520
                        -----------------------------------------
Total Dipole Moment    :     -0.66644       5.08303       0.22414
                        -----------------------------------------
Magnitude (a.u.)       :      5.13143
Magnitude (Debye)      :     13.04305

Rotational constants in cm-1:     0.017951     0.012436     0.008288
Rotational constants in MHz :   538.163255   372.824050   248.467077

                             ****ORCA TERMINATED NORMALLY****
TOTAL RUN TIME: 0 days 0 hours 4 minutes 0 seconds 94 msec
