                         Program Version 5.0.0 -  RELEASE  -
|  1> !PBE0 D3BJ RIJCOSX def2-SVPD def2/J TightSCF
|  2> *xyz 0 1
|  3> C          3.84189       -6.95161       -3.63283
|  4> S          4.31812       -6.91593       -5.36869
|  5> F          5.40615       -5.89948       -5.51297
|  6> O          3.11191       -6.44508       -6.04379
|  7> O          4.76340       -8.23942       -5.69863
|  8> H          3.06224       -7.67071       -3.49159
|  9> H          3.49217       -5.98401       -3.33897
| 10> H          4.68822       -7.22131       -3.03626
| 11> *
| 12>
| 13> %MaxCore 64000
| 14>
| 15> %pal nprocs 8
| 16> end
| 17>
| 18> %scf
| 19>   MaxIter 150
| 20> end
| 21>
| 22>
| 23>                          ****END OF INPUT****

CARTESIAN COORDINATES (ANGSTROEM)
---------------------------------
  C      3.841890   -6.951610   -3.632830
  S      4.318120   -6.915930   -5.368690
  F      5.406150   -5.899480   -5.512970
  O      3.111910   -6.445080   -6.043790
  O      4.763400   -8.239420   -5.698630
  H      3.062240   -7.670710   -3.491590
  H      3.492170   -5.984010   -3.338970
  H      4.688220   -7.221310   -3.036260

 Total Charge           Charge          ....    0
 Multiplicity           Mult            ....    1
 Number of Electrons    NEL             ....   50
 Basis Dimension        Dim             ....  140

ORBITAL ENERGIES
----------------

  NO   OCC          E(Eh)            E(eV)
   0   2.0000     -89.302859     -2430.0543
   1   2.0000     -24.885973      -677.1818
   2   2.0000     -19.241057      -523.5758
   3   2.0000     -19.230448      -523.2871
   4   2.0000     -10.297256      -280.2026
   5   2.0000      -8.262689      -224.8392
   6   2.0000      -6.208634      -168.9455
   7   2.0000      -6.202702      -168.7841
   8   2.0000      -6.201890      -168.7620
   9   2.0000      -1.372372       -37.3441
  10   2.0000      -1.149681       -31.2844
  11   2.0000      -1.051894       -28.6235
  12   2.0000      -0.822588       -22.3838
  13   2.0000      -0.725149       -19.7323
  14   2.0000      -0.610262       -16.6061
  15   2.0000      -0.584984       -15.9182
  16   2.0000      -0.574641       -15.6368
  17   2.0000      -0.498592       -13.5674
  18   2.0000      -0.498161       -13.5557
  19   2.0000      -0.486228       -13.2309
  20   2.0000      -0.464106       -12.6290
  21   2.0000      -0.411178       -11.1887
  22   2.0000      -0.364400        -9.9158
  23   2.0000      -0.352742        -9.5986
  24   2.0000      -0.338844        -9.2204
  25   0.0000      -0.004689        -0.1276
  26   0.0000       0.028480         0.7750
  27   0.0000       0.039714         1.0807
  28   0.0000       0.051221         1.3938
  29   0.0000       0.051444         1.3999

MULLIKEN ATOMIC CHARGES
-----------------------
   0 C :    0.289332
   1 S :    1.338921
   2 F :   -0.412890
   3 O :   -0.680663
   4 O :   -0.654122
   5 H :    0.040208
   6 H :    0.046379
   7 H :    0.032833
Sum of atomic charges:   -0.0000000

LOEWDIN ATOMIC CHARGES
----------------------
   0 C :    0.121972
   1 S :    1.117588
   2 F :   -0.279041
   3 O :   -0.479262
   4 O :   -0.462549
   5 H :    0.003109
   6 H :   -0.009582
   7 H :   -0.012235

  Mayer bond orders larger than 0.100000
B(  0-C ,  1-S ) :   1.0092 B(  0-C ,  5-H ) :   0.9222 B(  0-C ,  6-H ) :   0.9271
B(  0-C ,  7-H ) :   0.9306 B(  1-S ,  2-F ) :   0.6191 B(  1-S ,  3-O ) :   1.5077
B(  1-S ,  4-O ) :   1.5221

Dispersion correction           -0.004998886
FINAL SINGLE POINT ENERGY      -687.565793861692

DIPOLE MOMENT
-------------
                                X             Y             Z
Electronic contribution:      2.89067       1.60199      -4.29377
Nuclear contribution   :     -2.64549      -1.17311       5.81218
                        -----------------------------------------
Total Dipole Moment    :      0.24518       0.42888       1.51841
                        -----------------------------------------
Magnitude (a.u.)       :      1.59675
Magnitude (Debye)      :      4.05862

Rotational constants in cm-1:     0.165958     0.149400     0.146699
Rotational constants in MHz :  4975.281722  4478.884828  4397.931002

                             ****ORCA TERMINATED NORMALLY****
TOTAL RUN TIME: 0 days 0 hours 0 minutes 7 seconds 433 msec
