                         Program Version 5.0.0 -  RELEASE  -
|  1> !PBE0 D3BJ RIJCOSX def2-SVPD def2/J TightSCF
|  2> *xyz 0 1
|  3> C          5.55821       -1.99291       -6.21505
|  4> C          4.18188       -2.58967       -6.29891
|  5> C          3.14587       -1.76843       -6.48675
|  6> N          4.01910       -3.86431       -6.22743
|  7> H          4.76849       -4.59115       -5.99077
|  8> H          3.12241       -4.33339       -6.31462
|  9> H          3.28164       -0.77779       -6.56655
| 10> H          2.21255       -2.13419       -6.56225
| 11> H          5.49055       -0.92791       -6.29315
| 12> H          6.16046       -2.37160       -7.01429
| 13> H          6.00378       -2.25423       -5.27799
| 14> *
| 15>
| 16> %MaxCore 64000
| 17>
| 18> %pal nprocs 8
| 19> end
| 20>
| 21> %scf
| 22>   MaxIter 150
| 23> end
| 24>
| 25>
| 26>                          ****END OF INPUT****

CARTESIAN COORDINATES (ANGSTROEM)
---------------------------------
  C      5.558210   -1.992910   -6.215050
  C      4.181880   -2.589670   -6.298910
  C      3.145870   -1.768430   -6.486750
  N      4.019100   -3.864310   -6.227430
  H      4.768490   -4.591150   -5.990770
  H      3.122410   -4.333390   -6.314620
  H      3.281640   -0.777790   -6.566550
  H      2.212550   -2.134190   -6.562250
  H      5.490550   -0.927910   -6.293150
  H      6.160460   -2.371600   -7.014290
  H      6.003780   -2.254230   -5.277990

 Total Charge           Charge          ....    0
 Multiplicity           Mult            ....    1
 Number of Electrons    NEL             ....   32
 Basis Dimension        Dim             ....  136

ORBITAL ENERGIES
----------------

  NO   OCC          E(Eh)            E(eV)
   0   2.0000     -14.405433      -391.9918
   1   2.0000     -10.257424      -279.1187
   2   2.0000     -10.221874      -278.1513
   3   2.0000     -10.161877      -276.5187
   4   2.0000      -0.952361       -25.9151
   5   2.0000      -0.770987       -20.9796
   6   2.0000      -0.699536       -19.0353
   7   2.0000      -0.602745       -16.4015
   8   2.0000      -0.527894       -14.3647
   9   2.0000      -0.487913       -13.2768
  10   2.0000      -0.445518       -12.1232
  11   2.0000      -0.410651       -11.1744
  12   2.0000      -0.403317       -10.9748
  13   2.0000      -0.361972        -9.8498
  14   2.0000      -0.352934        -9.6038
  15   2.0000      -0.196938        -5.3590
  16   0.0000       0.023733         0.6458
  17   0.0000       0.053853         1.4654
  18   0.0000       0.060008         1.6329
  19   0.0000       0.069296         1.8857
  20   0.0000       0.093546         2.5455

MULLIKEN ATOMIC CHARGES
-----------------------
   0 C :    0.636756
   1 C :   -0.376110
   2 C :    0.452723
   3 N :    0.043540
   4 H :   -0.060141
   5 H :   -0.195114
   6 H :   -0.151055
   7 H :   -0.413665
   8 H :    0.058129
   9 H :   -0.001493
  10 H :    0.006430
Sum of atomic charges:   -0.0000000

LOEWDIN ATOMIC CHARGES
----------------------
   0 C :    0.161804
   1 C :   -0.300038
   2 C :    0.171301
   3 N :    0.127359
   4 H :    0.052447
   5 H :    0.008803
   6 H :   -0.093037
   7 H :   -0.091850
   8 H :   -0.013077
   9 H :   -0.011002
  10 H :   -0.012710

  Mayer bond orders larger than 0.100000
B(  0-C ,  1-C ) :   1.3139 B(  0-C ,  8-H ) :   0.8323 B(  0-C ,  9-H ) :   0.7293
B(  0-C , 10-H ) :   0.7162 B(  1-C ,  2-C ) :   1.6826 B(  1-C ,  3-N ) :   1.1026
B(  1-C ,  5-H ) :  -0.1005 B(  1-C ,  7-H ) :   0.1374 B(  1-C ,  8-H ) :   0.1813
B(  1-C ,  9-H ) :   0.2411 B(  1-C , 10-H ) :   0.2417 B(  2-C ,  3-N ) :   0.2342
B(  2-C ,  6-H ) :   1.0053 B(  2-C ,  7-H ) :   0.8159 B(  3-N ,  4-H ) :   1.2158
B(  3-N ,  5-H ) :   1.2378 B(  4-H ,  5-H ) :  -0.1340 B(  8-H ,  9-H ) :   0.1020
B(  8-H , 10-H ) :   0.1055

Dispersion correction           -0.005981521
FINAL SINGLE POINT ENERGY      -172.922813604351

DIPOLE MOMENT
-------------
                                X             Y             Z
Electronic contribution:     -0.89286      -1.48344       0.04064
Nuclear contribution   :      1.24351       0.69391       0.08872
                        -----------------------------------------
Total Dipole Moment    :      0.35066      -0.78953       0.12935
                        -----------------------------------------
Magnitude (a.u.)       :      0.87353
Magnitude (Debye)      :      2.22032

Rotational constants in cm-1:     0.350694     0.303314     0.167659
Rotational constants in MHz : 10513.535482  9093.138449  5026.287342

                             ****ORCA TERMINATED NORMALLY****
TOTAL RUN TIME: 0 days 0 hours 0 minutes 6 seconds 729 msec
