                         Program Version 5.0.0 -  RELEASE  -
|  1> !PBE0 D3BJ RIJCOSX def2-SVPD def2/J TightSCF
|  2> *xyz 0 1
|  3> C          3.84189       -6.95161       -3.63283
|  4> S          4.31812       -6.91593       -5.36869
|  5> O          5.40615       -5.89948       -5.51297
|  6> F          3.11191       -6.44508       -6.04379
|  7> O          4.76340       -8.23942       -5.69863
|  8> H          3.06224       -7.67071       -3.49159
|  9> H          3.49217       -5.98401       -3.33897
| 10> H          4.68822       -7.22131       -3.03626
| 11> *
| 12>
| 13> %MaxCore 64000
| 14>
| 15> %pal nprocs 8
| 16> end
| 17>
| 18> %scf
| 19>   MaxIter 150
| 20> end
| 21>
| 22>
| 23>                          ****END OF INPUT****

CARTESIAN COORDINATES (ANGSTROEM)
---------------------------------
  C      3.841890   -6.951610   -3.632830
  S      4.318120   -6.915930   -5.368690
  O      5.406150   -5.899480   -5.512970
  F      3.111910   -6.445080   -6.043790
  O      4.763400   -8.239420   -5.698630
  H      3.062240   -7.670710   -3.491590
  H      3.492170   -5.984010   -3.338970
  H      4.688220   -7.221310   -3.036260

 Total Charge           Charge          ....    0
 Multiplicity           Mult            ....    1
 Number of Electrons    NEL             ....   50
 Basis Dimension        Dim             ....  140

ORBITAL ENERGIES
----------------

  NO   OCC          E(Eh)            E(eV)
   0   2.0000     -89.304721     -2430.1050
   1   2.0000     -24.899717      -677.5558
   2   2.0000     -19.240904      -523.5716
   3   2.0000     -19.223863      -523.1079
   4   2.0000     -10.298178      -280.2277
   5   2.0000      -8.264549      -224.8898
   6   2.0000      -6.210744      -169.0029
   7   2.0000      -6.204484      -168.8326
   8   2.0000      -6.203468      -168.8049
   9   2.0000      -1.399668       -38.0869
  10   2.0000      -1.143539       -31.1173
  11   2.0000      -1.033137       -28.1131
  12   2.0000      -0.827476       -22.5168
  13   2.0000      -0.737251       -20.0616
  14   2.0000      -0.621368       -16.9083
  15   2.0000      -0.603838       -16.4313
  16   2.0000      -0.578946       -15.7539
  17   2.0000      -0.500151       -13.6098
  18   2.0000      -0.498028       -13.5520
  19   2.0000      -0.484444       -13.1824
  20   2.0000      -0.460147       -12.5212
  21   2.0000      -0.408559       -11.1175
  22   2.0000      -0.362509        -9.8644
  23   2.0000      -0.345037        -9.3889
  24   2.0000      -0.326437        -8.8828
  25   0.0000      -0.002425        -0.0660
  26   0.0000       0.036916         1.0045
  27   0.0000       0.039080         1.0634
  28   0.0000       0.050407         1.3717
  29   0.0000       0.051484         1.4010

MULLIKEN ATOMIC CHARGES
-----------------------
   0 C :    0.286718
   1 S :    1.331151
   2 O :   -0.697229
   3 F :   -0.396594
   4 O :   -0.644253
   5 H :    0.052058
   6 H :    0.044376
   7 H :    0.023772
Sum of atomic charges:   -0.0000000

LOEWDIN ATOMIC CHARGES
----------------------
   0 C :    0.121572
   1 S :    1.118038
   2 O :   -0.488237
   3 F :   -0.270608
   4 O :   -0.462719
   5 H :   -0.010219
   6 H :   -0.009955
   7 H :    0.002128

  Mayer bond orders larger than 0.100000
B(  0-C ,  1-S ) :   1.0066 B(  0-C ,  5-H ) :   0.9194 B(  0-C ,  6-H ) :   0.9268
B(  0-C ,  7-H ) :   0.9340 B(  1-S ,  2-O ) :   1.4764 B(  1-S ,  3-F ) :   0.6649
B(  1-S ,  4-O ) :   1.5269 B(  1-S ,  7-H ) :   0.1045

Dispersion correction           -0.004994880
FINAL SINGLE POINT ENERGY      -687.555047842942

DIPOLE MOMENT
-------------
                                X             Y             Z
Electronic contribution:     -0.93544       0.68400      -5.18623
Nuclear contribution   :     -0.35339      -0.62802       6.34251
                        -----------------------------------------
Total Dipole Moment    :     -1.28884       0.05598       1.15628
                        -----------------------------------------
Magnitude (a.u.)       :      1.73240
Magnitude (Debye)      :      4.40342

Rotational constants in cm-1:     0.162638     0.154373     0.145390
Rotational constants in MHz :  4875.774584  4627.990015  4358.691210

                             ****ORCA TERMINATED NORMALLY****
TOTAL RUN TIME: 0 days 0 hours 0 minutes 7 seconds 622 msec
