                         Program Version 5.0.0 -  RELEASE  -
|  1> !PBE0 D3BJ RIJCOSX def2-SVPD def2/J TightSCF
|  2> *xyz 0 1
|  3> C          5.55821       -1.99291       -6.21505
|  4> C          4.18188       -2.58967       -6.29891
|  5> N          3.14587       -1.76843       -6.48675
|  6> C          4.01910       -3.86431       -6.22743
|  7> H          4.76849       -4.59115       -5.99077
|  8> H          3.12241       -4.33339       -6.31462
|  9> H          3.28164       -0.77779       -6.56655
| 10> H          2.21255       -2.13419       -6.56225
| 11> H          5.49055       -0.92791       -6.29315
| 12> H          6.16046       -2.37160       -7.01429
| 13> H          6.00378       -2.25423       -5.27799
| 14> *
| 15>
| 16> %MaxCore 64000
| 17>
| 18> %pal nprocs 8
| 19> end
| 20>
| 21> %scf
| 22>   MaxIter 150
| 23> end
| 24>
| 25>
| 26>                          ****END OF INPUT****

CARTESIAN COORDINATES (ANGSTROEM)
---------------------------------
  C      5.558210   -1.992910   -6.215050
  C      4.181880   -2.589670   -6.298910
  N      3.145870   -1.768430   -6.486750
  C      4.019100   -3.864310   -6.227430
  H      4.768490   -4.591150   -5.990770
  H      3.122410   -4.333390   -6.314620
  H      3.281640   -0.777790   -6.566550
  H      2.212550   -2.134190   -6.562250
  H      5.490550   -0.927910   -6.293150
  H      6.160460   -2.371600   -7.014290
  H      6.003780   -2.254230   -5.277990

 Total Charge           Charge          ....    0
 Multiplicity           Mult            ....    1
 Number of Electrons    NEL             ....   32
 Basis Dimension        Dim             ....  136

ORBITAL ENERGIES
----------------

  NO   OCC          E(Eh)            E(eV)
   0   2.0000     -14.394902      -391.7052
   1   2.0000     -10.254565      -279.0409
   2   2.0000     -10.222824      -278.1772
   3   2.0000     -10.167297      -276.6662
   4   2.0000      -0.942665       -25.6512
   5   2.0000      -0.774531       -21.0761
   6   2.0000      -0.705716       -19.2035
   7   2.0000      -0.584633       -15.9087
   8   2.0000      -0.541266       -14.7286
   9   2.0000      -0.493192       -13.4204
  10   2.0000      -0.443372       -12.0648
  11   2.0000      -0.409758       -11.1501
  12   2.0000      -0.406052       -11.0492
  13   2.0000      -0.357459        -9.7270
  14   2.0000      -0.347356        -9.4520
  15   2.0000      -0.203258        -5.5309
  16   0.0000       0.027864         0.7582
  17   0.0000       0.052483         1.4281
  18   0.0000       0.064192         1.7467
  19   0.0000       0.069555         1.8927
  20   0.0000       0.095844         2.6080

MULLIKEN ATOMIC CHARGES
-----------------------
   0 C :    0.621862
   1 C :   -0.026392
   2 N :    0.015056
   3 C :   -0.027781
   4 H :   -0.011141
   5 H :   -0.318470
   6 H :   -0.124633
   7 H :   -0.151261
   8 H :   -0.077690
   9 H :    0.033620
  10 H :    0.066830
Sum of atomic charges:    0.0000000

LOEWDIN ATOMIC CHARGES
----------------------
   0 C :    0.164398
   1 C :   -0.288644
   2 N :    0.164211
   3 C :    0.132610
   4 H :   -0.037159
   5 H :   -0.086718
   6 H :   -0.013465
   7 H :    0.001611
   8 H :   -0.026413
   9 H :   -0.004930
  10 H :   -0.005501

  Mayer bond orders larger than 0.100000
B(  0-C ,  1-C ) :   1.1166 B(  0-C ,  8-H ) :   0.7755 B(  0-C ,  9-H ) :   0.8117
B(  0-C , 10-H ) :   0.7645 B(  1-C ,  2-N ) :   0.9096 B(  1-C ,  3-C ) :   1.5922
B(  1-C ,  7-H ) :  -0.1529 B(  1-C ,  8-H ) :   0.2275 B(  1-C ,  9-H ) :   0.1394
B(  1-C , 10-H ) :   0.1621 B(  2-N ,  3-C ) :   0.2785 B(  2-N ,  6-H ) :   1.1545
B(  2-N ,  7-H ) :   1.2965 B(  3-C ,  4-H ) :   0.9362 B(  3-C ,  5-H ) :   0.9159
B(  6-H ,  7-H ) :  -0.1624

Dispersion correction           -0.005982763
FINAL SINGLE POINT ENERGY      -172.931435018126

DIPOLE MOMENT
-------------
                                X             Y             Z
Electronic contribution:     -1.63540       0.42484      -0.21066
Nuclear contribution   :      1.43935       0.22387       0.14687
                        -----------------------------------------
Total Dipole Moment    :     -0.19604       0.64871      -0.06379
                        -----------------------------------------
Magnitude (a.u.)       :      0.68068
Magnitude (Debye)      :      1.73015

Rotational constants in cm-1:     0.350137     0.303099     0.167465
Rotational constants in MHz : 10496.847516  9086.685989  5020.487860

                             ****ORCA TERMINATED NORMALLY****
TOTAL RUN TIME: 0 days 0 hours 0 minutes 6 seconds 719 msec
