                         Program Version 5.0.0 -  RELEASE  -
|  1> !PBE0 D3BJ RIJCOSX def2-SVPD def2/J TightSCF
|  2> *xyz 0 1
|  3> C          3.84189       -6.95161       -3.63283
|  4> S          4.31812       -6.91593       -5.36869
|  5> O          5.40615       -5.89948       -5.51297
|  6> O          3.11191       -6.44508       -6.04379
|  7> F          4.76340       -8.23942       -5.69863
|  8> H          3.06224       -7.67071       -3.49159
|  9> H          3.49217       -5.98401       -3.33897
| 10> H          4.68822       -7.22131       -3.03626
| 11> *
| 12>
| 13> %MaxCore 64000
| 14>
| 15> %pal nprocs 8
| 16> end
| 17>
| 18> %scf
| 19>   MaxIter 150
| 20> end
| 21>
| 22>
| 23>                          ****END OF INPUT****

CARTESIAN COORDINATES (ANGSTROEM)
---------------------------------
  C      3.841890   -6.951610   -3.632830
  S      4.318120   -6.915930   -5.368690
  O      5.406150   -5.899480   -5.512970
  O      3.111910   -6.445080   -6.043790
  F      4.763400   -8.239420   -5.698630
  H      3.062240   -7.670710   -3.491590
  H      3.492170   -5.984010   -3.338970
  H      4.688220   -7.221310   -3.036260

 Total Charge           Charge          ....    0
 Multiplicity           Mult            ....    1
 Number of Electrons    NEL             ....   50
 Basis Dimension        Dim             ....  140

ORBITAL ENERGIES
----------------

  NO   OCC          E(Eh)            E(eV)
   0   2.0000     -89.306037     -2430.1408
   1   2.0000     -24.914010      -677.9447
   2   2.0000     -19.230842      -523.2978
   3   2.0000     -19.224441      -523.1236
   4   2.0000     -10.298604      -280.2393
   5   2.0000      -8.265896      -224.9265
   6   2.0000      -6.212248      -169.0439
   7   2.0000      -6.205604      -168.8631
   8   2.0000      -6.204730      -168.8393
   9   2.0000      -1.422820       -38.7169
  10   2.0000      -1.131687       -30.7948
  11   2.0000      -1.025058       -27.8933
  12   2.0000      -0.827765       -22.5246
  13   2.0000      -0.749255       -20.3883
  14   2.0000      -0.633323       -17.2336
  15   2.0000      -0.619886       -16.8680
  16   2.0000      -0.580800       -15.8044
  17   2.0000      -0.498696       -13.5702
  18   2.0000      -0.494863       -13.4659
  19   2.0000      -0.486847       -13.2478
  20   2.0000      -0.455490       -12.3945
  21   2.0000      -0.401433       -10.9236
  22   2.0000      -0.351642        -9.5687
  23   2.0000      -0.343864        -9.3570
  24   2.0000      -0.319640        -8.6978
  25   0.0000      -0.004758        -0.1295
  26   0.0000       0.035645         0.9700
  27   0.0000       0.037213         1.0126
  28   0.0000       0.049019         1.3339
  29   0.0000       0.051484         1.4009

MULLIKEN ATOMIC CHARGES
-----------------------
   0 C :    0.290131
   1 S :    1.325062
   2 O :   -0.690404
   3 O :   -0.664017
   4 F :   -0.382567
   5 H :    0.052318
   6 H :    0.035344
   7 H :    0.034132
Sum of atomic charges:    0.0000000

LOEWDIN ATOMIC CHARGES
----------------------
   0 C :    0.121200
   1 S :    1.120085
   2 O :   -0.487613
   3 O :   -0.478952
   4 F :   -0.256334
   5 H :   -0.010393
   6 H :    0.003913
   7 H :   -0.011908

  Mayer bond orders larger than 0.100000
B(  0-C ,  1-S ) :   1.0083 B(  0-C ,  5-H ) :   0.9176 B(  0-C ,  6-H ) :   0.9306
B(  0-C ,  7-H ) :   0.9297 B(  1-S ,  2-O ) :   1.4768 B(  1-S ,  3-O ) :   1.5135
B(  1-S ,  4-F ) :   0.6872 B(  1-S ,  6-H ) :   0.1078

Dispersion correction           -0.004996534
FINAL SINGLE POINT ENERGY      -687.542303530782

DIPOLE MOMENT
-------------
                                X             Y             Z
Electronic contribution:      1.80634      -2.28179      -4.60880
Nuclear contribution   :     -2.00334       1.16464       5.99767
                        -----------------------------------------
Total Dipole Moment    :     -0.19700      -1.11715       1.38887
                        -----------------------------------------
Magnitude (a.u.)       :      1.79326
Magnitude (Debye)      :      4.55811

Rotational constants in cm-1:     0.163678     0.154408     0.144413
Rotational constants in MHz :  4906.945035  4629.020676  4329.393152

                             ****ORCA TERMINATED NORMALLY****
TOTAL RUN TIME: 0 days 0 hours 0 minutes 7 seconds 562 msec
