                         Program Version 5.0.0 -  RELEASE  -
|  1> !PBE0 D3BJ RIJCOSX def2-SVPD def2/J TightSCF xyzfile
|  2>
|  3> *xyzfile 0 1 D3.xyz
|  4>
|  5> %MaxCore 64000
|  6>
|  7> %pal nprocs 4
|  8> end
|  9>
| 10> %scf
| 11>   MaxIter 150
| 12> end
| 13>
| 14>
| 15>                          ****END OF INPUT****

CARTESIAN COORDINATES (ANGSTROEM)
---------------------------------
  C      5.558206   -1.992914   -6.215054
  C      4.930199   -7.375319   -2.649623
  C      3.841892   -6.951611   -3.632829
  H      3.458144   -5.954425   -3.407121
  H      2.988484   -7.643606   -3.567078
  S      4.318115   -6.915930   -5.368692
  C      4.181880   -2.589671   -6.298911
  C      3.145873   -1.768431   -6.486753
  N      4.019102   -3.864307   -6.227427
  H      4.768490   -4.591153   -5.990773
  H      3.122405   -4.333392   -6.314620
  H      3.281635   -0.777786   -6.566549
  H      2.212549   -2.134193   -6.562246
  O      5.406154   -5.899480   -5.512972
  F      3.111910   -6.445079   -6.043792
  C      6.419260   -2.542944   -5.077630
  C      5.872267   -5.002756   -2.427819
  C      6.173994   -6.485522   -2.606315
  H      6.734852   -6.613767   -3.534015
  H      6.821463   -6.831018   -1.793617
  H      4.469612   -7.406168   -1.655876
  H      5.230134   -8.398678   -2.885906
  C      5.896512   -2.169314   -3.694552
  H      7.428880   -2.143665   -5.208078
  H      6.505894   -3.627541   -5.175502
  C      6.807804   -2.623428   -2.551019
  H      4.894708   -2.589732   -3.557501
  H      5.778823   -1.081255   -3.635790
  C      7.111544   -4.122463   -2.520363
  H      7.751615   -2.071393   -2.614406
  H      6.345837   -2.326401   -1.604086
  H      5.362882   -4.828697   -1.471335
  H      5.174429   -4.702577   -3.211298
  H      7.778329   -4.329347   -1.677651
  H      7.673189   -4.402845   -3.417586
  O      4.763396   -8.239424   -5.698629
  H      6.036826   -2.198189   -7.176852
  H      5.467610   -0.907371   -6.127968

 Total Charge           Charge          ....    0
 Multiplicity           Mult            ....    1
 Number of Electrons    NEL             ....  136
 Basis Dimension        Dim             ....  512

ORBITAL ENERGIES
----------------

  NO   OCC          E(Eh)            E(eV)
   0   2.0000     -89.324764     -2430.6504
   1   2.0000     -24.921047      -678.1362
   2   2.0000     -19.259570      -524.0796
   3   2.0000     -19.252646      -523.8911
   4   2.0000     -14.368242      -390.9797
   5   2.0000     -10.314789      -280.6797
   6   2.0000     -10.274010      -279.5700
   7   2.0000     -10.243180      -278.7311
   8   2.0000     -10.237023      -278.5636
   9   2.0000     -10.233640      -278.4715
  10   2.0000     -10.227356      -278.3005
  11   2.0000     -10.223633      -278.1992
  12   2.0000     -10.218389      -278.0565
  13   2.0000     -10.217845      -278.0417
  14   2.0000     -10.216947      -278.0173
  15   2.0000     -10.145438      -276.0714
  16   2.0000      -8.283685      -225.4105
  17   2.0000      -6.229920      -169.5247
  18   2.0000      -6.224021      -169.3642
  19   2.0000      -6.222206      -169.3148
  20   2.0000      -1.420742       -38.6604
  21   2.0000      -1.165782       -31.7225
  22   2.0000      -1.065262       -28.9873
  23   2.0000      -0.930120       -25.3098
  24   2.0000      -0.872095       -23.7309
  25   2.0000      -0.831550       -22.6276
  26   2.0000      -0.807138       -21.9633
  27   2.0000      -0.779094       -21.2002
  28   2.0000      -0.756912       -20.5966
  29   2.0000      -0.728005       -19.8100
  30   2.0000      -0.706758       -19.2319
  31   2.0000      -0.671444       -18.2709
  32   2.0000      -0.639726       -17.4078
  33   2.0000      -0.632022       -17.1982
  34   2.0000      -0.617016       -16.7899
  35   2.0000      -0.612306       -16.6617
  36   2.0000      -0.594457       -16.1760
  37   2.0000      -0.576536       -15.6883
  38   2.0000      -0.565608       -15.3910
  39   2.0000      -0.538830       -14.6623
  40   2.0000      -0.523397       -14.2423
  41   2.0000      -0.513164       -13.9639
  42   2.0000      -0.499707       -13.5977
  43   2.0000      -0.484398       -13.1811
  44   2.0000      -0.476169       -12.9572
  45   2.0000      -0.471883       -12.8406
  46   2.0000      -0.461599       -12.5607
  47   2.0000      -0.446922       -12.1614
  48   2.0000      -0.437976       -11.9179
  49   2.0000      -0.433481       -11.7956
  50   2.0000      -0.427793       -11.6408
  51   2.0000      -0.417503       -11.3608
  52   2.0000      -0.405516       -11.0347
  53   2.0000      -0.398758       -10.8507
  54   2.0000      -0.386884       -10.5277
  55   2.0000      -0.377046       -10.2599
  56   2.0000      -0.374641       -10.1945
  57   2.0000      -0.371746       -10.1157
  58   2.0000      -0.364077        -9.9070
  59   2.0000      -0.351021        -9.5518
  60   2.0000      -0.345743        -9.4082
  61   2.0000      -0.343049        -9.3348
  62   2.0000      -0.338510        -9.2113
  63   2.0000      -0.329931        -8.9779
  64   2.0000      -0.321914        -8.7597
  65   2.0000      -0.315176        -8.5764
  66   2.0000      -0.311361        -8.4726
  67   2.0000      -0.178920        -4.8687
  68   0.0000      -0.009519        -0.2590
  69   0.0000       0.006316         0.1719
  70   0.0000       0.023040         0.6270
  71   0.0000       0.032460         0.8833
  72   0.0000       0.039496         1.0747

MULLIKEN ATOMIC CHARGES
-----------------------
   0 C :    0.598963
   1 C :    0.339054
   2 C :   -0.249741
   3 H :    0.331311
   4 H :   -0.093693
   5 S :    1.700389
   6 C :   -0.304067
   7 C :    0.373099
   8 N :    0.642354
   9 H :   -0.161241
  10 H :   -0.290445
  11 H :   -0.220632
  12 H :   -0.322099
  13 O :   -0.976185
  14 F :   -0.477759
  15 C :    0.141989
  16 C :   -0.200397
  17 C :    0.057816
  18 H :    0.148632
  19 H :   -0.260337
  20 H :    0.130622
  21 H :    0.078101
  22 C :   -0.209083
  23 H :   -0.082489
  24 H :   -0.451161
  25 C :    0.490520
  26 H :    0.220054
  27 H :   -0.250134
  28 C :   -0.054676
  29 H :    0.092938
  30 H :    0.001179
  31 H :    0.048239
  32 H :   -0.144371
  33 H :   -0.256983
  34 H :    0.170669
  35 O :   -0.788790
  36 H :   -0.081046
  37 H :    0.309398
Sum of atomic charges:   -0.0000000

LOEWDIN ATOMIC CHARGES
----------------------
   0 C :    0.015217
   1 C :   -0.018162
   2 C :   -0.047291
   3 H :    0.020298
   4 H :    0.034284
   5 S :    1.185505
   6 C :   -0.256201
   7 C :    0.169196
   8 N :    0.171497
   9 H :   -0.107940
  10 H :   -0.015182
  11 H :   -0.098587
  12 H :   -0.095675
  13 O :   -0.446351
  14 F :   -0.254494
  15 C :   -0.027977
  16 C :   -0.037303
  17 C :   -0.028908
  18 H :    0.018721
  19 H :    0.033755
  20 H :    0.042385
  21 H :    0.034772
  22 C :   -0.033934
  23 H :    0.029433
  24 H :   -0.007156
  25 C :   -0.035775
  26 H :    0.016428
  27 H :    0.027837
  28 C :   -0.034729
  29 H :    0.023906
  30 H :    0.022505
  31 H :    0.039560
  32 H :   -0.013043
  33 H :    0.025577
  34 H :    0.022204
  35 O :   -0.432760
  36 H :    0.031721
  37 H :    0.026667

  Mayer bond orders larger than 0.100000
B(  0-C ,  6-C ) :   1.0195 B(  0-C ,  8-N ) :   0.1463 B(  0-C , 15-C ) :   1.2034
B(  0-C , 23-H ) :   0.1007 B(  0-C , 24-H ) :   0.1471 B(  0-C , 36-H ) :   0.5828
B(  0-C , 37-H ) :   0.6794 B(  1-C ,  2-C ) :   1.3160 B(  1-C ,  4-H ) :   0.1639
B(  1-C , 17-C ) :   1.2572 B(  1-C , 20-H ) :   0.7297 B(  1-C , 21-H ) :   0.7053
B(  2-C ,  3-H ) :   0.7481 B(  2-C ,  4-H ) :   0.9025 B(  2-C ,  5-S ) :   1.0156
B(  2-C , 20-H ) :   0.1603 B(  2-C , 21-H ) :   0.1113 B(  2-C , 35-O ) :   0.1299
B(  5-S , 13-O ) :   1.1926 B(  5-S , 14-F ) :   0.5763 B(  5-S , 35-O ) :   1.4246
B(  6-C ,  7-C ) :   1.7308 B(  6-C ,  8-N ) :   1.3010 B(  6-C , 10-H ) :  -0.1939
B(  6-C , 11-H ) :   0.1478 B(  6-C , 12-H ) :   0.2940 B(  6-C , 24-H ) :  -0.1064
B(  6-C , 36-H ) :   0.2673 B(  7-C ,  8-N ) :   0.1832 B(  7-C , 11-H ) :   0.9073
B(  7-C , 12-H ) :   0.6726 B(  8-N ,  9-H ) :   0.7659 B(  8-N , 10-H ) :   1.0286
B(  8-N , 13-O ) :  -0.1279 B(  9-H , 10-H ) :  -0.1967 B( 10-H , 14-F ) :   0.1173
B( 13-O , 24-H ) :   0.1892 B( 13-O , 35-O ) :   0.1641 B( 15-C , 22-C ) :   1.2233
B( 15-C , 23-H ) :   0.8066 B( 15-C , 24-H ) :   0.7393 B( 15-C , 26-H ) :   0.1096
B( 15-C , 27-H ) :   0.1889 B( 15-C , 36-H ) :   0.2183 B( 15-C , 37-H ) :   0.1429
B( 16-C , 17-C ) :   1.2093 B( 16-C , 18-H ) :   0.1066 B( 16-C , 19-H ) :   0.1652
B( 16-C , 28-C ) :   1.2433 B( 16-C , 31-H ) :   0.8249 B( 16-C , 32-H ) :   1.0285
B( 16-C , 33-H ) :   0.1896 B( 16-C , 34-H ) :   0.1190 B( 17-C , 18-H ) :   0.8511
B( 17-C , 19-H ) :   0.9439 B( 17-C , 20-H ) :   0.1087 B( 17-C , 21-H ) :   0.2166
B( 17-C , 28-C ) :   0.1033 B( 22-C , 23-H ) :   0.1454 B( 22-C , 24-H ) :   0.1641
B( 22-C , 25-C ) :   1.1058 B( 22-C , 26-H ) :   0.8064 B( 22-C , 27-H ) :   1.0828
B( 22-C , 29-H ) :   0.1360 B( 22-C , 30-H ) :   0.1959 B( 25-C , 28-C ) :   1.1618
B( 25-C , 29-H ) :   0.7207 B( 25-C , 30-H ) :   0.7509 B( 26-H , 32-H ) :   0.1238
B( 28-C , 29-H ) :   0.1840 B( 28-C , 30-H ) :   0.1321 B( 28-C , 31-H ) :   0.1041
B( 28-C , 33-H ) :   1.0329 B( 28-C , 34-H ) :   0.8187 B( 31-H , 32-H ) :   0.1131

Dispersion correction           -0.040555848
FINAL SINGLE POINT ENERGY     -1133.987260796732

DIPOLE MOMENT
-------------
                                X             Y             Z
Electronic contribution:    -10.97194     -20.03401     -14.18320
Nuclear contribution   :     10.48431      18.81367      15.71750
                        -----------------------------------------
Total Dipole Moment    :     -0.48763      -1.22034       1.53430
                        -----------------------------------------
Magnitude (a.u.)       :      2.02017
Magnitude (Debye)      :      5.13486

Rotational constants in cm-1:     0.017977     0.012528     0.008321
Rotational constants in MHz :   538.924099   375.570730   249.458530

                             ****ORCA TERMINATED NORMALLY****
TOTAL RUN TIME: 0 days 0 hours 3 minutes 59 seconds 484 msec
