                         Program Version 5.0.0 -  RELEASE  -
|  1> !PBE0 D3BJ RIJCOSX def2-SVPD def2/J TightSCF xyzfile
|  2>
|  3> *xyzfile 0 1 D6.xyz
|  4>
|  5> %MaxCore 64000
|  6>
|  7> %pal nprocs 4
|  8> end
|  9>
| 10> %scf
| 11>   MaxIter 150
| 12> end
| 13>
| 14>
| 15>                          ****END OF INPUT****

CARTESIAN COORDINATES (ANGSTROEM)
---------------------------------
  C      5.558206   -1.992914   -6.215054
  C      4.930199   -7.375319   -2.649623
  C      3.841892   -6.951611   -3.632829
  H      3.458144   -5.954425   -3.407121
  H      2.988484   -7.643606   -3.567078
  S      4.318115   -6.915930   -5.368692
  C      4.181880   -2.589671   -6.298911
  N      3.145873   -1.768431   -6.486753
  C      4.019102   -3.864307   -6.227427
  H      4.768490   -4.591153   -5.990773
  H      3.122405   -4.333392   -6.314620
  H      3.281635   -0.777786   -6.566549
  H      2.212549   -2.134193   -6.562246
  O      5.406154   -5.899480   -5.512972
  O      3.111910   -6.445079   -6.043792
  C      6.419260   -2.542944   -5.077630
  C      5.872267   -5.002756   -2.427819
  C      6.173994   -6.485522   -2.606315
  H      6.734852   -6.613767   -3.534015
  H      6.821463   -6.831018   -1.793617
  H      4.469612   -7.406168   -1.655876
  H      5.230134   -8.398678   -2.885906
  C      5.896512   -2.169314   -3.694552
  H      7.428880   -2.143665   -5.208078
  H      6.505894   -3.627541   -5.175502
  C      6.807804   -2.623428   -2.551019
  H      4.894708   -2.589732   -3.557501
  H      5.778823   -1.081255   -3.635790
  C      7.111544   -4.122463   -2.520363
  H      7.751615   -2.071393   -2.614406
  H      6.345837   -2.326401   -1.604086
  H      5.362882   -4.828697   -1.471335
  H      5.174429   -4.702577   -3.211298
  H      7.778329   -4.329347   -1.677651
  H      7.673189   -4.402845   -3.417586
  F      4.763396   -8.239424   -5.698629
  H      6.036826   -2.198189   -7.176852
  H      5.467610   -0.907371   -6.127968

 Total Charge           Charge          ....    0
 Multiplicity           Mult            ....    1
 Number of Electrons    NEL             ....  136
 Basis Dimension        Dim             ....  512

ORBITAL ENERGIES
----------------

  NO   OCC          E(Eh)            E(eV)
   0   2.0000     -89.304085     -2430.0877
   1   2.0000     -24.911266      -677.8700
   2   2.0000     -19.229859      -523.2711
   3   2.0000     -19.226176      -523.1709
   4   2.0000     -14.371978      -391.0814
   5   2.0000     -10.299460      -280.2626
   6   2.0000     -10.264254      -279.3045
   7   2.0000     -10.236409      -278.5468
   8   2.0000     -10.225501      -278.2500
   9   2.0000     -10.222840      -278.1776
  10   2.0000     -10.221213      -278.1333
  11   2.0000     -10.218369      -278.0559
  12   2.0000     -10.212750      -277.9031
  13   2.0000     -10.211526      -277.8697
  14   2.0000     -10.210743      -277.8484
  15   2.0000     -10.120951      -275.4051
  16   2.0000      -8.262635      -224.8377
  17   2.0000      -6.209101      -168.9582
  18   2.0000      -6.202636      -168.7823
  19   2.0000      -6.201312      -168.7463
  20   2.0000      -1.418903       -38.6103
  21   2.0000      -1.134602       -30.8741
  22   2.0000      -1.030759       -28.0484
  23   2.0000      -0.918773       -25.0011
  24   2.0000      -0.861186       -23.4341
  25   2.0000      -0.824336       -22.4313
  26   2.0000      -0.796353       -21.6699
  27   2.0000      -0.773566       -21.0498
  28   2.0000      -0.745878       -20.2964
  29   2.0000      -0.721133       -19.6230
  30   2.0000      -0.695457       -18.9243
  31   2.0000      -0.664430       -18.0801
  32   2.0000      -0.635306       -17.2876
  33   2.0000      -0.620752       -16.8915
  34   2.0000      -0.618811       -16.8387
  35   2.0000      -0.599229       -16.3059
  36   2.0000      -0.573850       -15.6153
  37   2.0000      -0.563666       -15.3381
  38   2.0000      -0.544627       -14.8201
  39   2.0000      -0.519350       -14.1322
  40   2.0000      -0.513461       -13.9720
  41   2.0000      -0.505959       -13.7678
  42   2.0000      -0.488726       -13.2989
  43   2.0000      -0.484079       -13.1725
  44   2.0000      -0.477518       -12.9939
  45   2.0000      -0.464134       -12.6297
  46   2.0000      -0.459184       -12.4950
  47   2.0000      -0.435427       -11.8486
  48   2.0000      -0.431349       -11.7376
  49   2.0000      -0.425274       -11.5723
  50   2.0000      -0.424898       -11.5621
  51   2.0000      -0.405916       -11.0455
  52   2.0000      -0.387638       -10.5482
  53   2.0000      -0.380590       -10.3564
  54   2.0000      -0.369929       -10.0663
  55   2.0000      -0.362031        -9.8514
  56   2.0000      -0.359801        -9.7907
  57   2.0000      -0.352830        -9.6010
  58   2.0000      -0.344708        -9.3800
  59   2.0000      -0.340493        -9.2653
  60   2.0000      -0.333872        -9.0851
  61   2.0000      -0.330422        -8.9913
  62   2.0000      -0.328923        -8.9505
  63   2.0000      -0.317292        -8.6340
  64   2.0000      -0.311493        -8.4762
  65   2.0000      -0.305827        -8.3220
  66   2.0000      -0.280287        -7.6270
  67   2.0000      -0.175733        -4.7819
  68   0.0000      -0.000803        -0.0219
  69   0.0000       0.026129         0.7110
  70   0.0000       0.030427         0.8280
  71   0.0000       0.036714         0.9990
  72   0.0000       0.040816         1.1107

MULLIKEN ATOMIC CHARGES
-----------------------
   0 C :    0.658750
   1 C :    0.379114
   2 C :   -0.224737
   3 H :    0.326193
   4 H :   -0.112296
   5 S :    1.750396
   6 C :    0.310380
   7 N :   -0.016610
   8 C :    0.888192
   9 H :    0.044985
  10 H :   -1.028880
  11 H :   -0.144368
  12 H :   -0.193392
  13 O :   -0.917604
  14 O :   -0.772867
  15 C :    0.074283
  16 C :   -0.205040
  17 C :    0.090761
  18 H :    0.155883
  19 H :   -0.255987
  20 H :    0.108833
  21 H :    0.054696
  22 C :   -0.243231
  23 H :   -0.060960
  24 H :   -0.414658
  25 C :    0.507742
  26 H :    0.263143
  27 H :   -0.258538
  28 C :   -0.055263
  29 H :    0.084867
  30 H :    0.012540
  31 H :    0.056357
  32 H :   -0.176598
  33 H :   -0.242978
  34 H :    0.157813
  35 F :   -0.606477
  36 H :   -0.075176
  37 H :    0.080731
Sum of atomic charges:    0.0000000

LOEWDIN ATOMIC CHARGES
----------------------
   0 C :    0.010518
   1 C :   -0.036413
   2 C :   -0.039151
   3 H :    0.032953
   4 H :    0.032350
   5 S :    1.189667
   6 C :   -0.238439
   7 N :    0.165398
   8 C :    0.179545
   9 H :   -0.153827
  10 H :   -0.095069
  11 H :   -0.020254
  12 H :   -0.001518
  13 O :   -0.466240
  14 O :   -0.454880
  15 C :   -0.022853
  16 C :   -0.034654
  17 C :   -0.034635
  18 H :    0.013215
  19 H :    0.031067
  20 H :    0.037265
  21 H :    0.026574
  22 C :   -0.035465
  23 H :    0.028389
  24 H :   -0.000845
  25 C :   -0.036934
  26 H :    0.015733
  27 H :    0.023448
  28 C :   -0.035174
  29 H :    0.022595
  30 H :    0.021529
  31 H :    0.038914
  32 H :   -0.009078
  33 H :    0.024262
  34 H :    0.022256
  35 F :   -0.245273
  36 H :    0.032117
  37 H :    0.012907

  Mayer bond orders larger than 0.100000
B(  0-C ,  6-C ) :   0.9076 B(  0-C ,  8-C ) :   0.1436 B(  0-C , 15-C ) :   1.2544
B(  0-C , 24-H ) :   0.1103 B(  0-C , 36-H ) :   0.6229 B(  0-C , 37-H ) :   0.7293
B(  1-C ,  2-C ) :   1.2481 B(  1-C ,  4-H ) :   0.1457 B(  1-C , 17-C ) :   1.2516
B(  1-C , 20-H ) :   0.7412 B(  1-C , 21-H ) :   0.6971 B(  2-C ,  3-H ) :   0.7797
B(  2-C ,  4-H ) :   0.9075 B(  2-C ,  5-S ) :   1.0315 B(  2-C , 20-H ) :   0.1472
B(  2-C , 21-H ) :   0.1043 B(  2-C , 35-F ) :   0.1502 B(  4-H ,  5-S ) :   0.1013
B(  5-S , 13-O ) :   1.2150 B(  5-S , 14-O ) :   1.4311 B(  5-S , 35-F ) :   0.4391
B(  6-C ,  7-N ) :   0.7112 B(  6-C ,  8-C ) :   1.8765 B(  6-C ,  9-H ) :  -0.1218
B(  6-C , 12-H ) :  -0.1760 B(  6-C , 36-H ) :   0.2391 B(  7-N ,  8-C ) :   0.5019
B(  7-N , 10-H ) :  -0.1081 B(  7-N , 11-H ) :   1.1714 B(  7-N , 12-H ) :   1.3491
B(  8-C ,  9-H ) :   0.4903 B(  8-C , 13-O ) :   0.1199 B(  8-C , 14-O ) :  -0.2063
B(  8-C , 24-H ) :   0.1480 B(  9-H , 10-H ) :  -0.1514 B(  9-H , 13-O ) :  -0.1489
B(  9-H , 24-H ) :   0.1224 B( 10-H , 14-O ) :   0.3114 B( 10-H , 24-H ) :  -0.1120
B( 11-H , 12-H ) :  -0.1571 B( 13-O , 14-O ) :   0.1283 B( 13-O , 24-H ) :   0.1528
B( 13-O , 35-F ) :   0.1140 B( 15-C , 22-C ) :   1.2414 B( 15-C , 23-H ) :   0.8006
B( 15-C , 24-H ) :   0.8006 B( 15-C , 26-H ) :   0.1116 B( 15-C , 27-H ) :   0.1840
B( 15-C , 36-H ) :   0.2805 B( 15-C , 37-H ) :   0.1475 B( 16-C , 17-C ) :   1.2155
B( 16-C , 18-H ) :   0.1100 B( 16-C , 19-H ) :   0.1517 B( 16-C , 28-C ) :   1.2461
B( 16-C , 31-H ) :   0.8065 B( 16-C , 32-H ) :   1.0387 B( 16-C , 33-H ) :   0.1958
B( 16-C , 34-H ) :   0.1294 B( 17-C , 18-H ) :   0.8463 B( 17-C , 19-H ) :   0.9345
B( 17-C , 20-H ) :   0.1077 B( 17-C , 21-H ) :   0.2202 B( 17-C , 28-C ) :   0.1051
B( 22-C , 23-H ) :   0.1559 B( 22-C , 24-H ) :   0.1470 B( 22-C , 25-C ) :   1.1093
B( 22-C , 26-H ) :   0.7935 B( 22-C , 27-H ) :   1.1256 B( 22-C , 29-H ) :   0.1547
B( 22-C , 30-H ) :   0.2069 B( 25-C , 28-C ) :   1.1559 B( 25-C , 29-H ) :   0.6964
B( 25-C , 30-H ) :   0.7359 B( 26-H , 32-H ) :   0.1354 B( 28-C , 29-H ) :   0.1875
B( 28-C , 30-H ) :   0.1263 B( 28-C , 31-H ) :   0.1069 B( 28-C , 33-H ) :   1.0251
B( 28-C , 34-H ) :   0.8243 B( 31-H , 32-H ) :   0.1234 B( 36-H , 37-H ) :  -0.1012

Dispersion correction           -0.040891433
FINAL SINGLE POINT ENERGY     -1133.962002724797

DIPOLE MOMENT
-------------
                                X             Y             Z
Electronic contribution:     -8.84813     -21.47933     -14.01392
Nuclear contribution   :      8.67311      20.60825      15.35056
                        -----------------------------------------
Total Dipole Moment    :     -0.17502      -0.87108       1.33664
                        -----------------------------------------
Magnitude (a.u.)       :      1.60500
Magnitude (Debye)      :      4.07958

Rotational constants in cm-1:     0.017976     0.012151     0.008188
Rotational constants in MHz :   538.898457   364.286417   245.482451

                             ****ORCA TERMINATED NORMALLY****
TOTAL RUN TIME: 0 days 0 hours 4 minutes 15 seconds 542 msec
