                         Program Version 5.0.0 -  RELEASE  -
|  1> !PBE D3BJ RIJCOSX def2-TZVPD def2/J TightSCF
|  2> *xyz -1 1
|  3> C         -0.05517        1.61942       -3.78858
|  4> C          1.22302        2.46987       -3.75691
|  5> H          1.11470        3.25807       -4.53300
|  6> H          1.23773        3.01124       -2.79216
|  7> O          2.35381        1.71203       -3.93448
|  8> H         -0.10198        1.08015       -4.71156
|  9> H         -0.91014        2.25726       -3.70441
| 10> H         -0.04403        0.92826       -2.97183
| 11> *
| 12>
| 13> %MaxCore 64000
| 14>
| 15> %pal nprocs 4
| 16> end
| 17>
| 18> %scf
| 19>   MaxIter 150
| 20> end
| 21>
| 22>
| 23>                          ****END OF INPUT****

CARTESIAN COORDINATES (ANGSTROEM)
---------------------------------
  C     -0.055170    1.619420   -3.788580
  C      1.223020    2.469870   -3.756910
  H      1.114700    3.258070   -4.533000
  H      1.237730    3.011240   -2.792160
  O      2.353810    1.712030   -3.934480
  H     -0.101980    1.080150   -4.711560
  H     -0.910140    2.257260   -3.704410
  H     -0.044030    0.928260   -2.971830

 Total Charge           Charge          ....   -1
 Multiplicity           Mult            ....    1
 Number of Electrons    NEL             ....   26
 Basis Dimension        Dim             ....  159

ORBITAL ENERGIES
----------------

  NO   OCC          E(Eh)            E(eV)
   0   2.0000     -18.433571      -501.6030
   1   2.0000      -9.697709      -263.8881
   2   2.0000      -9.672690      -263.2073
   3   2.0000      -0.607099       -16.5200
   4   2.0000      -0.459576       -12.5057
   5   2.0000      -0.317511        -8.6399
   6   2.0000      -0.205258        -5.5853
   7   2.0000      -0.183218        -4.9856
   8   2.0000      -0.134220        -3.6523
   9   2.0000      -0.116520        -3.1707
  10   2.0000      -0.077080        -2.0975
  11   2.0000       0.060906         1.6573
  12   2.0000       0.064685         1.7602
  13   0.0000       0.140237         3.8160
  14   0.0000       0.163187         4.4405
  15   0.0000       0.187535         5.1031
  16   0.0000       0.191623         5.2143
  17   0.0000       0.212240         5.7754

MULLIKEN ATOMIC CHARGES
-----------------------
   0 C :   -0.994485
   1 C :   -0.158281
   2 H :    0.129092
   3 H :    0.127585
   4 O :   -0.873346
   5 H :    0.212374
   6 H :    0.342194
   7 H :    0.214867
Sum of atomic charges:   -1.0000000

LOEWDIN ATOMIC CHARGES
----------------------
   0 C :   -0.185232
   1 C :   -0.628668
   2 H :    0.050773
   3 H :    0.049807
   4 O :   -0.379017
   5 H :    0.036752
   6 H :    0.019899
   7 H :    0.035686

  Mayer bond orders larger than 0.100000
B(  0-C ,  1-C ) :   0.8849 B(  0-C ,  4-O ) :   0.6515 B(  0-C ,  5-H ) :   1.0143
B(  0-C ,  6-H ) :   0.9680 B(  0-C ,  7-H ) :   1.0084 B(  1-C ,  2-H ) :   1.0752
B(  1-C ,  3-H ) :   1.0783 B(  1-C ,  4-O ) :   0.8487 B(  2-H ,  3-H ) :   0.1215
B(  4-O ,  6-H ) :  -0.1280

Dispersion correction           -0.003764383
FINAL SINGLE POINT ENERGY      -154.301083639386

DIPOLE MOMENT
-------------
                                X             Y             Z
Electronic contribution:      3.03993      -0.55628      -0.27239
Nuclear contribution   :     -4.28298       0.81046       0.39340
                        -----------------------------------------
Total Dipole Moment    :     -1.24305       0.25419       0.12101
                        -----------------------------------------
Magnitude (a.u.)       :      1.27453
Magnitude (Debye)      :      3.23960

Rotational constants in cm-1:     1.266793     0.328147     0.288309
Rotational constants in MHz : 37977.512300  9837.594308  8643.275638

                             ****ORCA TERMINATED NORMALLY****
TOTAL RUN TIME: 0 days 0 hours 0 minutes 9 seconds 325 msec
