                         Program Version 5.0.0 -  RELEASE  -
|  1> !PBE D3BJ RIJCOSX def2-TZVPD def2/J TightSCF
|  2> *xyz 1 1
|  3> C          1.63556       -1.67040       -5.29211
|  4> C          0.33848       -1.50091       -4.50540
|  5> N          2.48451       -0.50741       -5.14039
|  6> H          1.39834       -1.82924       -6.35259
|  7> H          2.15586       -2.56540       -4.93209
|  8> C          3.45115       -0.14953       -5.95259
|  9> N          3.92267        1.08956       -5.85071
| 10> N          3.96616       -1.00618       -6.86788
| 11> H          3.52139       -1.90647       -6.99527
| 12> H          4.44482       -0.62347       -7.67035
| 13> H          2.25200        0.24080       -4.49879
| 14> H          3.46428        1.64078       -5.13639
| 15> H          4.83447        1.31375       -6.22465
| 16> H         -0.17658       -0.62881       -4.85045
| 17> H          0.56384       -1.39374       -3.46490
| 18> H         -0.28102       -2.36136       -4.64938
| 19> *
| 20>
| 21> %MaxCore 64000
| 22>
| 23> %pal nprocs 4
| 24> end
| 25>
| 26> %scf
| 27>   MaxIter 150
| 28> end
| 29>
| 30>
| 31>                          ****END OF INPUT****

CARTESIAN COORDINATES (ANGSTROEM)
---------------------------------
  C      1.635560   -1.670400   -5.292110
  C      0.338480   -1.500910   -4.505400
  N      2.484510   -0.507410   -5.140390
  H      1.398340   -1.829240   -6.352590
  H      2.155860   -2.565400   -4.932090
  C      3.451150   -0.149530   -5.952590
  N      3.922670    1.089560   -5.850710
  N      3.966160   -1.006180   -6.867880
  H      3.521390   -1.906470   -6.995270
  H      4.444820   -0.623470   -7.670350
  H      2.252000    0.240800   -4.498790
  H      3.464280    1.640780   -5.136390
  H      4.834470    1.313750   -6.224650
  H     -0.176580   -0.628810   -4.850450
  H      0.563840   -1.393740   -3.464900
  H     -0.281020   -2.361360   -4.649380

 Total Charge           Charge          ....    1
 Multiplicity           Mult            ....    1
 Number of Electrons    NEL             ....   48
 Basis Dimension        Dim             ....  312

ORBITAL ENERGIES
----------------

  NO   OCC          E(Eh)            E(eV)
   0   2.0000     -14.212500      -386.7418
   1   2.0000     -14.205987      -386.5645
   2   2.0000     -14.204598      -386.5268
   3   2.0000     -10.201303      -277.5916
   4   2.0000     -10.091414      -274.6013
   5   2.0000     -10.020356      -272.6677
   6   2.0000      -1.134085       -30.8600
   7   2.0000      -1.028555       -27.9884
   8   2.0000      -1.015771       -27.6405
   9   2.0000      -0.867789       -23.6138
  10   2.0000      -0.772624       -21.0242
  11   2.0000      -0.755445       -20.5567
  12   2.0000      -0.722469       -19.6594
  13   2.0000      -0.691973       -18.8295
  14   2.0000      -0.641111       -17.4455
  15   2.0000      -0.635533       -17.2937
  16   2.0000      -0.611871       -16.6499
  17   2.0000      -0.595466       -16.2035
  18   2.0000      -0.555328       -15.1112
  19   2.0000      -0.504694       -13.7334
  20   2.0000      -0.489468       -13.3191
  21   2.0000      -0.478507       -13.0208
  22   2.0000      -0.436875       -11.8880
  23   2.0000      -0.415685       -11.3114
  24   0.0000      -0.204290        -5.5590
  25   0.0000      -0.185160        -5.0385
  26   0.0000      -0.154203        -4.1961
  27   0.0000      -0.137778        -3.7491
  28   0.0000      -0.121636        -3.3099

MULLIKEN ATOMIC CHARGES
-----------------------
   0 C :   -0.312454
   1 C :   -1.127497
   2 N :    0.047451
   3 H :    0.295549
   4 H :    0.291499
   5 C :    0.430412
   6 N :   -0.177843
   7 N :   -0.229555
   8 H :    0.205263
   9 H :    0.194855
  10 H :    0.157706
  11 H :    0.167539
  12 H :    0.199759
  13 H :    0.322903
  14 H :    0.293630
  15 H :    0.240785
Sum of atomic charges:    1.0000000

LOEWDIN ATOMIC CHARGES
----------------------
   0 C :   -0.220456
   1 C :   -0.056640
   2 N :    0.092019
   3 H :    0.130331
   4 H :    0.133744
   5 C :   -0.457684
   6 N :    0.216068
   7 N :    0.227744
   8 H :    0.118456
   9 H :    0.133590
  10 H :    0.162857
  11 H :    0.134023
  12 H :    0.140178
  13 H :    0.080069
  14 H :    0.080336
  15 H :    0.085366

  Mayer bond orders larger than 0.100000
B(  0-C ,  1-C ) :   0.9121 B(  0-C ,  2-N ) :   1.0173 B(  0-C ,  3-H ) :   0.8112
B(  0-C ,  4-H ) :   0.8326 B(  1-C , 13-H ) :   0.9340 B(  1-C , 14-H ) :   0.9455
B(  1-C , 15-H ) :   1.0092 B(  2-N ,  5-C ) :   1.2305 B(  2-N ,  6-N ) :   0.1090
B(  2-N , 10-H ) :   0.9580 B(  5-C ,  6-N ) :   1.1823 B(  5-C ,  7-N ) :   1.2160
B(  6-N , 11-H ) :   0.9733 B(  6-N , 12-H ) :   0.9678 B(  7-N ,  8-H ) :   0.9436
B(  7-N ,  9-H ) :   0.9761

Dispersion correction           -0.012048894
FINAL SINGLE POINT ENERGY      -284.154769886055

DIPOLE MOMENT
-------------
                                X             Y             Z
Electronic contribution:      4.68187       2.45698      -1.69174
Nuclear contribution   :     -3.96322      -1.85512       1.24891
                        -----------------------------------------
Total Dipole Moment    :      0.71866       0.60186      -0.44284
                        -----------------------------------------
Magnitude (a.u.)       :      1.03673
Magnitude (Debye)      :      2.63515

Rotational constants in cm-1:     0.261404     0.067000     0.054949
Rotational constants in MHz :  7836.702504  2008.609425  1647.329138

                             ****ORCA TERMINATED NORMALLY****
TOTAL RUN TIME: 0 days 0 hours 0 minutes 18 seconds 563 msec
