                         Program Version 5.0.0 -  RELEASE  -
|  1> !PBE D3BJ RIJCOSX def2-TZVPD def2/J TightSCF xyzfile
|  2>
|  3> *xyzfile 0 1 B.xyz
|  4>
|  5> %MaxCore 64000
|  6>
|  7> %pal nprocs 4
|  8> end
|  9>
| 10> %scf
| 11>   MaxIter 150
| 12> end
| 13>
| 14>
| 15>                          ****END OF INPUT****

CARTESIAN COORDINATES (ANGSTROEM)
---------------------------------
  C      1.635557   -1.670396   -5.292109
  C      0.338484   -1.500907   -4.505398
  N      2.484511   -0.507410   -5.140392
  C     -0.684873   -0.528026   -5.099889
  C     -0.290406    0.951335   -5.153423
  H      0.607991    1.070692   -5.764412
  C     -0.055168    1.619420   -3.788577
  H     -1.080912    1.483775   -5.689436
  H      0.045006    0.862302   -3.003015
  H     -0.922936    2.230329   -3.517028
  C      1.223022    2.469865   -3.756911
  H      1.114701    3.258074   -4.532999
  H      1.237732    3.011242   -2.792157
  O      2.353815    1.712032   -3.934477
  H      1.398337   -1.829239   -6.352591
  H      2.155864   -2.565398   -4.932091
  C      3.451149   -0.149530   -5.952589
  N      3.922667    1.089559   -5.850711
  N      3.966162   -1.006183   -6.867880
  H      3.521391   -1.906467   -6.995270
  H      4.444824   -0.623472   -7.670348
  H      2.251995    0.240804   -4.498792
  H      3.464277    1.640782   -5.136392
  H      4.834470    1.313745   -6.224653
  H     -0.937999   -0.869056   -6.110838
  H     -1.604638   -0.622496   -4.513132
  H      0.594887   -1.211578   -3.482312
  H     -0.126530   -2.487656   -4.434176

 Total Charge           Charge          ....    0
 Multiplicity           Mult            ....    1
 Number of Electrons    NEL             ....   88
 Basis Dimension        Dim             ....  563

ORBITAL ENERGIES
----------------

  NO   OCC          E(Eh)            E(eV)
   0   2.0000     -18.627368      -506.8764
   1   2.0000     -14.040398      -382.0587
   2   2.0000     -14.002694      -381.0327
   3   2.0000     -13.998578      -380.9207
   4   2.0000     -10.013718      -272.4871
   5   2.0000      -9.932794      -270.2851
   6   2.0000      -9.885830      -269.0071
   7   2.0000      -9.873065      -268.6597
   8   2.0000      -9.860434      -268.3161
   9   2.0000      -9.855178      -268.1730
  10   2.0000      -9.837903      -267.7029
  11   2.0000      -0.946411       -25.7532
  12   2.0000      -0.848963       -23.1015
  13   2.0000      -0.829780       -22.5795
  14   2.0000      -0.804711       -21.8973
  15   2.0000      -0.727955       -19.8087
  16   2.0000      -0.677694       -18.4410
  17   2.0000      -0.625465       -17.0198
  18   2.0000      -0.592976       -16.1357
  19   2.0000      -0.566783       -15.4230
  20   2.0000      -0.542825       -14.7710
  21   2.0000      -0.523020       -14.2321
  22   2.0000      -0.507324       -13.8050
  23   2.0000      -0.471655       -12.8344
  24   2.0000      -0.459510       -12.5039
  25   2.0000      -0.446398       -12.1471
  26   2.0000      -0.438316       -11.9272
  27   2.0000      -0.429542       -11.6884
  28   2.0000      -0.392256       -10.6738
  29   2.0000      -0.379752       -10.3336
  30   2.0000      -0.370741       -10.0884
  31   2.0000      -0.365692        -9.9510
  32   2.0000      -0.340183        -9.2569
  33   2.0000      -0.324262        -8.8236
  34   2.0000      -0.316311        -8.6073
  35   2.0000      -0.296244        -8.0612
  36   2.0000      -0.280286        -7.6270
  37   2.0000      -0.270557        -7.3622
  38   2.0000      -0.264304        -7.1921
  39   2.0000      -0.257224        -6.9994
  40   2.0000      -0.251470        -6.8429
  41   2.0000      -0.226643        -6.1673
  42   2.0000      -0.141359        -3.8466
  43   2.0000      -0.132816        -3.6141
  44   0.0000      -0.040740        -1.1086
  45   0.0000      -0.024653        -0.6708
  46   0.0000      -0.011899        -0.3238
  47   0.0000       0.003127         0.0851
  48   0.0000       0.012082         0.3288

MULLIKEN ATOMIC CHARGES
-----------------------
   0 C :   -0.679322
   1 C :   -0.429078
   2 N :    0.068209
   3 C :   -0.287380
   4 C :   -0.322641
   5 H :    0.223004
   6 C :   -0.296550
   7 H :    0.160373
   8 H :    0.121856
   9 H :    0.178230
  10 C :   -0.281478
  11 H :    0.156763
  12 H :    0.126797
  13 O :   -0.987406
  14 H :    0.301434
  15 H :    0.285304
  16 C :    0.291786
  17 N :   -0.129969
  18 N :   -0.245974
  19 H :    0.187293
  20 H :    0.163074
  21 H :    0.388159
  22 H :    0.296276
  23 H :    0.132299
  24 H :    0.173919
  25 H :    0.077524
  26 H :    0.230579
  27 H :    0.096921
Sum of atomic charges:    0.0000000

LOEWDIN ATOMIC CHARGES
----------------------
   0 C :   -0.186256
   1 C :   -0.191118
   2 N :    0.095173
   3 C :   -0.209913
   4 C :   -0.214492
   5 H :    0.101267
   6 C :   -0.201560
   7 H :    0.106518
   8 H :    0.100166
   9 H :    0.103244
  10 C :   -0.413551
  11 H :    0.101594
  12 H :    0.094716
  13 O :   -0.289451
  14 H :    0.120064
  15 H :    0.120416
  16 C :   -0.476930
  17 N :    0.194113
  18 N :    0.183920
  19 H :    0.096641
  20 H :    0.109468
  21 H :    0.054017
  22 H :    0.045425
  23 H :    0.115957
  24 H :    0.106396
  25 H :    0.110936
  26 H :    0.112507
  27 H :    0.110734

  Mayer bond orders larger than 0.100000
B(  0-C ,  1-C ) :   1.1836 B(  0-C ,  2-N ) :   1.0640 B(  0-C ,  3-C ) :   0.1201
B(  0-C , 14-H ) :   0.8492 B(  0-C , 15-H ) :   0.8416 B(  0-C , 16-C ) :  -0.2058
B(  0-C , 18-N ) :   0.1168 B(  1-C ,  3-C ) :   0.9968 B(  1-C ,  6-C ) :   0.1118
B(  1-C , 26-H ) :   0.8898 B(  1-C , 27-H ) :   1.0278 B(  2-N , 16-C ) :   1.3019
B(  2-N , 21-H ) :   0.7273 B(  3-C ,  4-C ) :   0.9564 B(  3-C ,  6-C ) :   0.2117
B(  3-C , 24-H ) :   0.9169 B(  3-C , 25-H ) :   1.0240 B(  4-C ,  5-H ) :   1.0363
B(  4-C ,  6-C ) :   0.8334 B(  4-C ,  7-H ) :   0.9276 B(  4-C , 10-C ) :   0.2618
B(  6-C ,  8-H ) :   0.9640 B(  6-C ,  9-H ) :   1.0147 B(  6-C , 10-C ) :   0.8861
B( 10-C , 11-H ) :   1.0374 B( 10-C , 12-H ) :   0.9754 B( 10-C , 13-O ) :   1.0129
B( 13-O , 16-C ) :  -0.1164 B( 13-O , 22-H ) :   0.1870 B( 16-C , 17-N ) :   1.2954
B( 16-C , 18-N ) :   1.1758 B( 17-N , 22-H ) :   0.7640 B( 17-N , 23-H ) :   0.9982
B( 18-N , 19-H ) :   0.9531 B( 18-N , 20-H ) :   0.9927

Dispersion correction           -0.029107760
FINAL SINGLE POINT ENERGY      -516.019040273677

DIPOLE MOMENT
-------------
                                X             Y             Z
Electronic contribution:      8.35367      -0.86012      -2.15172
Nuclear contribution   :     -7.46499      -1.05836       0.01518
                        -----------------------------------------
Total Dipole Moment    :      0.88868      -1.91848      -2.13655
                        -----------------------------------------
Magnitude (a.u.)       :      3.00585
Magnitude (Debye)      :      7.64027

Rotational constants in cm-1:     0.044680     0.028958     0.019773
Rotational constants in MHz :  1339.486245   868.136755   592.791310

                             ****ORCA TERMINATED NORMALLY****
TOTAL RUN TIME: 0 days 0 hours 0 minutes 58 seconds 503 msec
