                         Program Version 5.0.0 -  RELEASE  -
|  1> !PBE D3BJ RIJCOSX def2-TZVPD def2/J TightSCF
|  2> *xyz 0 1
|  3> C         -0.05517        1.61942       -3.78858
|  4> C          1.22302        2.46987       -3.75691
|  5> H          1.11470        3.25807       -4.53300
|  6> H          1.23773        3.01124       -2.79216
|  7> F          2.35381        1.71203       -3.93448
|  8> H         -0.10198        1.08015       -4.71156
|  9> H         -0.91014        2.25726       -3.70441
| 10> H         -0.04403        0.92826       -2.97183
| 11> *
| 12>
| 13> %MaxCore 64000
| 14>
| 15> %pal nprocs 4
| 16> end
| 17>
| 18> %scf
| 19>   MaxIter 150
| 20> end
| 21>
| 22>
| 23>                          ****END OF INPUT****

CARTESIAN COORDINATES (ANGSTROEM)
---------------------------------
  C     -0.055170    1.619420   -3.788580
  C      1.223020    2.469870   -3.756910
  H      1.114700    3.258070   -4.533000
  H      1.237730    3.011240   -2.792160
  F      2.353810    1.712030   -3.934480
  H     -0.101980    1.080150   -4.711560
  H     -0.910140    2.257260   -3.704410
  H     -0.044030    0.928260   -2.971830

 Total Charge           Charge          ....    0
 Multiplicity           Mult            ....    1
 Number of Electrons    NEL             ....   26
 Basis Dimension        Dim             ....  159

ORBITAL ENERGIES
----------------

  NO   OCC          E(Eh)            E(eV)
   0   2.0000     -24.246472      -659.7800
   1   2.0000      -9.956660      -270.9345
   2   2.0000      -9.874895      -268.7096
   3   2.0000      -1.098547       -29.8930
   4   2.0000      -0.694417       -18.8961
   5   2.0000      -0.569387       -15.4938
   6   2.0000      -0.455849       -12.4043
   7   2.0000      -0.440313       -11.9815
   8   2.0000      -0.403019       -10.9667
   9   2.0000      -0.355573        -9.6756
  10   2.0000      -0.353989        -9.6325
  11   2.0000      -0.288255        -7.8438
  12   2.0000      -0.283589        -7.7169
  13   0.0000      -0.005469        -0.1488
  14   0.0000       0.022725         0.6184
  15   0.0000       0.034085         0.9275
  16   0.0000       0.041079         1.1178
  17   0.0000       0.065133         1.7724

MULLIKEN ATOMIC CHARGES
-----------------------
   0 C :   -0.683560
   1 C :   -0.004761
   2 H :    0.146220
   3 H :    0.144452
   4 F :   -0.246938
   5 H :    0.199942
   6 H :    0.245705
   7 H :    0.198941
Sum of atomic charges:   -0.0000000

LOEWDIN ATOMIC CHARGES
----------------------
   0 C :   -0.085057
   1 C :   -0.305179
   2 H :    0.111286
   3 H :    0.109342
   4 F :   -0.025690
   5 H :    0.064654
   6 H :    0.066814
   7 H :    0.063831

  Mayer bond orders larger than 0.100000
B(  0-C ,  1-C ) :   0.9128 B(  0-C ,  5-H ) :   0.9744 B(  0-C ,  6-H ) :   0.9466
B(  0-C ,  7-H ) :   0.9725 B(  1-C ,  2-H ) :   0.9808 B(  1-C ,  3-H ) :   0.9843
B(  1-C ,  4-F ) :   0.8789

Dispersion correction           -0.003482557
FINAL SINGLE POINT ENERGY      -178.925384367678

DIPOLE MOMENT
-------------
                                X             Y             Z
Electronic contribution:      5.05978      -0.76181      -0.43785
Nuclear contribution   :     -5.66833       1.07099       0.52006
                        -----------------------------------------
Total Dipole Moment    :     -0.60855       0.30918       0.08221
                        -----------------------------------------
Magnitude (a.u.)       :      0.68753
Magnitude (Debye)      :      1.74755

Rotational constants in cm-1:     1.245689     0.305293     0.269541
Rotational constants in MHz : 37344.801915  9152.442838  8080.640229

                             ****ORCA TERMINATED NORMALLY****
TOTAL RUN TIME: 0 days 0 hours 0 minutes 8 seconds 186 msec
