                         Program Version 5.0.0 -  RELEASE  -
|  1> !PBE D3BJ RIJCOSX def2-TZVPD def2/J TightSCF
|  2> *xyz 0 1
|  3> C          1.63556       -1.67040       -5.29211
|  4> C          0.33848       -1.50091       -4.50540
|  5> C          2.48451       -0.50741       -5.14039
|  6> H          1.39834       -1.82924       -6.35259
|  7> H          2.15586       -2.56540       -4.93209
|  8> C          3.45115       -0.14953       -5.95259
|  9> N          3.92267        1.08956       -5.85071
| 10> N          3.96616       -1.00618       -6.86788
| 11> H          3.52139       -1.90647       -6.99527
| 12> H          4.44482       -0.62347       -7.67035
| 13> H          2.25200        0.24080       -4.49879
| 14> H          3.46428        1.64078       -5.13639
| 15> H          4.83447        1.31375       -6.22465
| 16> H         -0.17658       -0.62881       -4.85045
| 17> H          0.56384       -1.39374       -3.46490
| 18> H         -0.28102       -2.36136       -4.64938
| 19> *
| 20>
| 21> %MaxCore 64000
| 22>
| 23> %pal nprocs 4
| 24> end
| 25>
| 26> %scf
| 27>   MaxIter 150
| 28> end
| 29>
| 30>
| 31>                          ****END OF INPUT****

CARTESIAN COORDINATES (ANGSTROEM)
---------------------------------
  C      1.635560   -1.670400   -5.292110
  C      0.338480   -1.500910   -4.505400
  C      2.484510   -0.507410   -5.140390
  H      1.398340   -1.829240   -6.352590
  H      2.155860   -2.565400   -4.932090
  C      3.451150   -0.149530   -5.952590
  N      3.922670    1.089560   -5.850710
  N      3.966160   -1.006180   -6.867880
  H      3.521390   -1.906470   -6.995270
  H      4.444820   -0.623470   -7.670350
  H      2.252000    0.240800   -4.498790
  H      3.464280    1.640780   -5.136390
  H      4.834470    1.313750   -6.224650
  H     -0.176580   -0.628810   -4.850450
  H      0.563840   -1.393740   -3.464900
  H     -0.281020   -2.361360   -4.649380

 Total Charge           Charge          ....    0
 Multiplicity           Mult            ....    1
 Number of Electrons    NEL             ....   48
 Basis Dimension        Dim             ....  312

ORBITAL ENERGIES
----------------

  NO   OCC          E(Eh)            E(eV)
   0   2.0000     -13.987007      -380.6058
   1   2.0000     -13.982085      -380.4719
   2   2.0000      -9.914747      -269.7940
   3   2.0000      -9.860147      -268.3082
   4   2.0000      -9.848787      -267.9991
   5   2.0000      -9.806960      -266.8610
   6   2.0000      -0.876922       -23.8623
   7   2.0000      -0.795461       -21.6456
   8   2.0000      -0.704378       -19.1671
   9   2.0000      -0.631165       -17.1749
  10   2.0000      -0.552095       -15.0233
  11   2.0000      -0.525554       -14.3011
  12   2.0000      -0.483373       -13.1532
  13   2.0000      -0.461595       -12.5606
  14   2.0000      -0.420620       -11.4456
  15   2.0000      -0.392833       -10.6895
  16   2.0000      -0.381351       -10.3771
  17   2.0000      -0.349649        -9.5144
  18   2.0000      -0.333069        -9.0633
  19   2.0000      -0.299507        -8.1500
  20   2.0000      -0.290295        -7.8993
  21   2.0000      -0.288431        -7.8486
  22   2.0000      -0.222775        -6.0620
  23   2.0000      -0.134875        -3.6701
  24   0.0000      -0.017713        -0.4820
  25   0.0000       0.006279         0.1709
  26   0.0000       0.013023         0.3544
  27   0.0000       0.031873         0.8673
  28   0.0000       0.034426         0.9368

MULLIKEN ATOMIC CHARGES
-----------------------
   0 C :    0.010637
   1 C :   -1.179754
   2 C :   -0.564812
   3 H :    0.189866
   4 H :    0.165094
   5 C :    0.231475
   6 N :   -0.249031
   7 N :   -0.287050
   8 H :    0.167397
   9 H :    0.139049
  10 H :    0.287120
  11 H :    0.147081
  12 H :    0.136195
  13 H :    0.302996
  14 H :    0.262034
  15 H :    0.241703
Sum of atomic charges:    0.0000000

LOEWDIN ATOMIC CHARGES
----------------------
   0 C :   -0.296123
   1 C :   -0.112833
   2 C :   -0.150707
   3 H :    0.107282
   4 H :    0.108288
   5 C :   -0.557829
   6 N :    0.114711
   7 N :    0.142539
   8 H :    0.090320
   9 H :    0.091390
  10 H :    0.069757
  11 H :    0.104625
  12 H :    0.095367
  13 H :    0.067261
  14 H :    0.066624
  15 H :    0.059328

  Mayer bond orders larger than 0.100000
B(  0-C ,  1-C ) :   0.7602 B(  0-C ,  2-C ) :   0.8613 B(  0-C ,  3-H ) :   0.8494
B(  0-C ,  4-H ) :   0.9002 B(  0-C ,  5-C ) :   0.2429 B(  1-C ,  2-C ) :   0.2684
B(  1-C , 13-H ) :   0.9601 B(  1-C , 14-H ) :   0.9870 B(  1-C , 15-H ) :   0.9948
B(  2-C ,  5-C ) :   1.2247 B(  2-C , 10-H ) :   0.9358 B(  5-C ,  6-N ) :   1.1501
B(  5-C ,  7-N ) :   1.0163 B(  5-C , 10-H ) :  -0.2131 B(  6-N , 11-H ) :   0.9774
B(  6-N , 12-H ) :   1.0374 B(  7-N ,  8-H ) :   0.9529 B(  7-N ,  9-H ) :   1.0278

Dispersion correction           -0.012504408
FINAL SINGLE POINT ENERGY      -267.677080235847

DIPOLE MOMENT
-------------
                                X             Y             Z
Electronic contribution:      4.52153       2.15713      -1.88806
Nuclear contribution   :     -3.99655      -1.83277       1.34879
                        -----------------------------------------
Total Dipole Moment    :      0.52498       0.32436      -0.53927
                        -----------------------------------------
Magnitude (a.u.)       :      0.81953
Magnitude (Debye)      :      2.08308

Rotational constants in cm-1:     0.262971     0.067064     0.055026
Rotational constants in MHz :  7883.664566  2010.513309  1649.636654

                             ****ORCA TERMINATED NORMALLY****
TOTAL RUN TIME: 0 days 0 hours 0 minutes 23 seconds 899 msec
