                         Program Version 5.0.0 -  RELEASE  -
|  1> !PBE D3BJ RIJCOSX def2-TZVPD def2/J TightSCF
|  2> *xyz 0 1
|  3> C          1.63556       -1.67040       -5.29211
|  4> C          0.33848       -1.50091       -4.50540
|  5> N          2.48451       -0.50741       -5.14039
|  6> H          1.39834       -1.82924       -6.35259
|  7> H          2.15586       -2.56540       -4.93209
|  8> C          3.45115       -0.14953       -5.95259
|  9> C          3.92267        1.08956       -5.85071
| 10> N          3.96616       -1.00618       -6.86788
| 11> H          3.52139       -1.90647       -6.99527
| 12> H          4.44482       -0.62347       -7.67035
| 13> H          2.25200        0.24080       -4.49879
| 14> H          3.46428        1.64078       -5.13639
| 15> H          4.83447        1.31375       -6.22465
| 16> H         -0.17658       -0.62881       -4.85045
| 17> H          0.56384       -1.39374       -3.46490
| 18> H         -0.28102       -2.36136       -4.64938
| 19> *
| 20>
| 21> %MaxCore 64000
| 22>
| 23> %pal nprocs 4
| 24> end
| 25>
| 26> %scf
| 27>   MaxIter 150
| 28> end
| 29>
| 30>
| 31>                          ****END OF INPUT****

CARTESIAN COORDINATES (ANGSTROEM)
---------------------------------
  C      1.635560   -1.670400   -5.292110
  C      0.338480   -1.500910   -4.505400
  N      2.484510   -0.507410   -5.140390
  H      1.398340   -1.829240   -6.352590
  H      2.155860   -2.565400   -4.932090
  C      3.451150   -0.149530   -5.952590
  C      3.922670    1.089560   -5.850710
  N      3.966160   -1.006180   -6.867880
  H      3.521390   -1.906470   -6.995270
  H      4.444820   -0.623470   -7.670350
  H      2.252000    0.240800   -4.498790
  H      3.464280    1.640780   -5.136390
  H      4.834470    1.313750   -6.224650
  H     -0.176580   -0.628810   -4.850450
  H      0.563840   -1.393740   -3.464900
  H     -0.281020   -2.361360   -4.649380

 Total Charge           Charge          ....    0
 Multiplicity           Mult            ....    1
 Number of Electrons    NEL             ....   48
 Basis Dimension        Dim             ....  312

ORBITAL ENERGIES
----------------

  NO   OCC          E(Eh)            E(eV)
   0   2.0000     -13.988362      -380.6427
   1   2.0000     -13.984848      -380.5471
   2   2.0000      -9.923577      -270.0343
   3   2.0000      -9.918140      -269.8863
   4   2.0000      -9.880746      -268.8688
   5   2.0000      -9.792023      -266.4545
   6   2.0000      -0.888715       -24.1832
   7   2.0000      -0.807458       -21.9720
   8   2.0000      -0.708878       -19.2895
   9   2.0000      -0.635569       -17.2947
  10   2.0000      -0.568781       -15.4773
  11   2.0000      -0.541106       -14.7242
  12   2.0000      -0.483904       -13.1677
  13   2.0000      -0.448326       -12.1996
  14   2.0000      -0.431704       -11.7473
  15   2.0000      -0.417424       -11.3587
  16   2.0000      -0.373108       -10.1528
  17   2.0000      -0.351112        -9.5542
  18   2.0000      -0.336410        -9.1542
  19   2.0000      -0.334475        -9.1015
  20   2.0000      -0.331814        -9.0291
  21   2.0000      -0.306031        -8.3275
  22   2.0000      -0.217955        -5.9308
  23   2.0000      -0.131845        -3.5877
  24   0.0000      -0.017611        -0.4792
  25   0.0000       0.001323         0.0360
  26   0.0000       0.008708         0.2370
  27   0.0000       0.029556         0.8043
  28   0.0000       0.037292         1.0148

MULLIKEN ATOMIC CHARGES
-----------------------
   0 C :   -0.230729
   1 C :   -1.090795
   2 N :    0.019131
   3 H :    0.263880
   4 H :    0.212579
   5 C :    0.560099
   6 C :   -1.167077
   7 N :   -0.281958
   8 H :    0.149706
   9 H :    0.179529
  10 H :    0.114622
  11 H :    0.241721
  12 H :    0.250286
  13 H :    0.288787
  14 H :    0.260217
  15 H :    0.230001
Sum of atomic charges:   -0.0000000

LOEWDIN ATOMIC CHARGES
----------------------
   0 C :   -0.260275
   1 C :   -0.087445
   2 N :    0.023267
   3 H :    0.113957
   4 H :    0.113186
   5 C :   -0.576513
   6 C :   -0.005244
   7 N :    0.135736
   8 H :    0.081667
   9 H :    0.104022
  10 H :    0.140081
  11 H :    0.005994
  12 H :    0.006868
  13 H :    0.070171
  14 H :    0.068016
  15 H :    0.066512

  Mayer bond orders larger than 0.100000
B(  0-C ,  1-C ) :   0.8565 B(  0-C ,  2-N ) :   0.9503 B(  0-C ,  3-H ) :   0.8506
B(  0-C ,  4-H ) :   0.8959 B(  1-C , 13-H ) :   0.9760 B(  1-C , 14-H ) :   0.9701
B(  1-C , 15-H ) :   1.0097 B(  2-N ,  5-C ) :   1.1194 B(  2-N , 10-H ) :   0.9295
B(  5-C ,  6-C ) :   1.1268 B(  5-C ,  7-N ) :   1.0978 B(  6-C ,  7-N ) :   0.1071
B(  6-C , 11-H ) :   0.9992 B(  6-C , 12-H ) :   1.0485 B(  7-N ,  8-H ) :   0.9914
B(  7-N ,  9-H ) :   0.9774

Dispersion correction           -0.012392279
FINAL SINGLE POINT ENERGY      -267.665213721515

DIPOLE MOMENT
-------------
                                X             Y             Z
Electronic contribution:      2.97301       0.56195      -1.27430
Nuclear contribution   :     -3.69145      -1.49398       1.19810
                        -----------------------------------------
Total Dipole Moment    :     -0.71844      -0.93203      -0.07621
                        -----------------------------------------
Magnitude (a.u.)       :      1.17926
Magnitude (Debye)      :      2.99743

Rotational constants in cm-1:     0.270790     0.068966     0.056679
Rotational constants in MHz :  8118.084803  2067.559423  1699.196934

                             ****ORCA TERMINATED NORMALLY****
TOTAL RUN TIME: 0 days 0 hours 0 minutes 25 seconds 861 msec
