                         Program Version 5.0.0 -  RELEASE  -
|  1> !PBE D3BJ RIJCOSX def2-TZVPD def2/J TightSCF
|  2> *xyz 0 1
|  3> C          1.63556       -1.67040       -5.29211
|  4> C          0.33848       -1.50091       -4.50540
|  5> N          2.48451       -0.50741       -5.14039
|  6> H          1.39834       -1.82924       -6.35259
|  7> H          2.15586       -2.56540       -4.93209
|  8> C          3.45115       -0.14953       -5.95259
|  9> N          3.92267        1.08956       -5.85071
| 10> C          3.96616       -1.00618       -6.86788
| 11> H          3.52139       -1.90647       -6.99527
| 12> H          4.44482       -0.62347       -7.67035
| 13> H          2.25200        0.24080       -4.49879
| 14> H          3.46428        1.64078       -5.13639
| 15> H          4.83447        1.31375       -6.22465
| 16> H         -0.17658       -0.62881       -4.85045
| 17> H          0.56384       -1.39374       -3.46490
| 18> H         -0.28102       -2.36136       -4.64938
| 19> *
| 20>
| 21> %MaxCore 64000
| 22>
| 23> %pal nprocs 4
| 24> end
| 25>
| 26> %scf
| 27>   MaxIter 150
| 28> end
| 29>
| 30>
| 31>                          ****END OF INPUT****

CARTESIAN COORDINATES (ANGSTROEM)
---------------------------------
  C      1.635560   -1.670400   -5.292110
  C      0.338480   -1.500910   -4.505400
  N      2.484510   -0.507410   -5.140390
  H      1.398340   -1.829240   -6.352590
  H      2.155860   -2.565400   -4.932090
  C      3.451150   -0.149530   -5.952590
  N      3.922670    1.089560   -5.850710
  C      3.966160   -1.006180   -6.867880
  H      3.521390   -1.906470   -6.995270
  H      4.444820   -0.623470   -7.670350
  H      2.252000    0.240800   -4.498790
  H      3.464280    1.640780   -5.136390
  H      4.834470    1.313750   -6.224650
  H     -0.176580   -0.628810   -4.850450
  H      0.563840   -1.393740   -3.464900
  H     -0.281020   -2.361360   -4.649380

 Total Charge           Charge          ....    0
 Multiplicity           Mult            ....    1
 Number of Electrons    NEL             ....   48
 Basis Dimension        Dim             ....  312

ORBITAL ENERGIES
----------------

  NO   OCC          E(Eh)            E(eV)
   0   2.0000     -13.994675      -380.8145
   1   2.0000     -13.987039      -380.6067
   2   2.0000      -9.919667      -269.9279
   3   2.0000      -9.917244      -269.8619
   4   2.0000      -9.877049      -268.7682
   5   2.0000      -9.794571      -266.5238
   6   2.0000      -0.896992       -24.4084
   7   2.0000      -0.812376       -22.1059
   8   2.0000      -0.695985       -18.9387
   9   2.0000      -0.636121       -17.3097
  10   2.0000      -0.585569       -15.9342
  11   2.0000      -0.514047       -13.9879
  12   2.0000      -0.485410       -13.2087
  13   2.0000      -0.474458       -12.9107
  14   2.0000      -0.426527       -11.6064
  15   2.0000      -0.420576       -11.4444
  16   2.0000      -0.356487        -9.7005
  17   2.0000      -0.351678        -9.5697
  18   2.0000      -0.348039        -9.4706
  19   2.0000      -0.327782        -8.9194
  20   2.0000      -0.319903        -8.7050
  21   2.0000      -0.307268        -8.3612
  22   2.0000      -0.212659        -5.7867
  23   2.0000      -0.137227        -3.7341
  24   0.0000      -0.020661        -0.5622
  25   0.0000      -0.002009        -0.0547
  26   0.0000       0.013575         0.3694
  27   0.0000       0.031311         0.8520
  28   0.0000       0.033131         0.9015

MULLIKEN ATOMIC CHARGES
-----------------------
   0 C :   -0.331487
   1 C :   -1.040697
   2 N :   -0.020098
   3 H :    0.258858
   4 H :    0.275440
   5 C :    0.554894
   6 N :   -0.242976
   7 C :   -1.167076
   8 H :    0.300737
   9 H :    0.227004
  10 H :    0.135311
  11 H :    0.106113
  12 H :    0.169216
  13 H :    0.287235
  14 H :    0.259039
  15 H :    0.228486
Sum of atomic charges:    0.0000000

LOEWDIN ATOMIC CHARGES
----------------------
   0 C :   -0.251402
   1 C :   -0.089392
   2 N :    0.022479
   3 H :    0.119309
   4 H :    0.119946
   5 C :   -0.586612
   6 N :    0.125688
   7 C :    0.009896
   8 H :   -0.009610
   9 H :    0.002197
  10 H :    0.133350
  11 H :    0.093860
  12 H :    0.110467
  13 H :    0.067415
  14 H :    0.065362
  15 H :    0.067048

  Mayer bond orders larger than 0.100000
B(  0-C ,  1-C ) :   0.8051 B(  0-C ,  2-N ) :   1.0074 B(  0-C ,  3-H ) :   0.8873
B(  0-C ,  4-H ) :   0.8670 B(  0-C ,  7-C ) :   0.1577 B(  1-C , 13-H ) :   0.9771
B(  1-C , 14-H ) :   0.9661 B(  1-C , 15-H ) :   1.0127 B(  2-N ,  5-C ) :   1.0599
B(  2-N , 10-H ) :   0.9824 B(  5-C ,  6-N ) :   1.0507 B(  5-C ,  7-C ) :   1.3155
B(  6-N ,  7-C ) :   0.1033 B(  6-N , 11-H ) :   1.0365 B(  6-N , 12-H ) :   0.9894
B(  7-C ,  8-H ) :   0.9171 B(  7-C ,  9-H ) :   1.0990

Dispersion correction           -0.012435794
FINAL SINGLE POINT ENERGY      -267.666129753447

DIPOLE MOMENT
-------------
                                X             Y             Z
Electronic contribution:      3.03423       2.60338      -0.22330
Nuclear contribution   :     -3.68222      -1.93858       0.98231
                        -----------------------------------------
Total Dipole Moment    :     -0.64800       0.66480       0.75901
                        -----------------------------------------
Magnitude (a.u.)       :      1.19915
Magnitude (Debye)      :      3.04799

Rotational constants in cm-1:     0.275407     0.068040     0.056255
Rotational constants in MHz :  8256.498401  2039.796466  1686.484500

                             ****ORCA TERMINATED NORMALLY****
TOTAL RUN TIME: 0 days 0 hours 0 minutes 24 seconds 678 msec
