                         Program Version 5.0.0 -  RELEASE  -
|  1> !PBE D3BJ RIJCOSX def2-TZVPD def2/J TightSCF xyzfile
|  2>
|  3> *xyzfile 0 1 D1.xyz
|  4>
|  5> %MaxCore 64000
|  6>
|  7> %pal nprocs 4
|  8> end
|  9>
| 10> %scf
| 11>   MaxIter 150
| 12> end
| 13>
| 14>
| 15>                          ****END OF INPUT****

CARTESIAN COORDINATES (ANGSTROEM)
---------------------------------
  C      1.635557   -1.670396   -5.292109
  C      0.338484   -1.500907   -4.505398
  C      2.484511   -0.507410   -5.140392
  C     -0.684873   -0.528026   -5.099889
  C     -0.290406    0.951335   -5.153423
  H      0.607991    1.070692   -5.764412
  C     -0.055168    1.619420   -3.788577
  H     -1.080912    1.483775   -5.689436
  H      0.045006    0.862302   -3.003015
  H     -0.922936    2.230329   -3.517028
  C      1.223022    2.469865   -3.756911
  H      1.114701    3.258074   -4.532999
  H      1.237732    3.011242   -2.792157
  F      2.353815    1.712032   -3.934477
  H      1.398337   -1.829239   -6.352591
  H      2.155864   -2.565398   -4.932091
  C      3.451149   -0.149530   -5.952589
  N      3.922667    1.089559   -5.850711
  N      3.966162   -1.006183   -6.867880
  H      3.521391   -1.906467   -6.995270
  H      4.444824   -0.623472   -7.670348
  H      2.251995    0.240804   -4.498792
  H      3.464277    1.640782   -5.136392
  H      4.834470    1.313745   -6.224653
  H     -0.937999   -0.869056   -6.110838
  H     -1.604638   -0.622496   -4.513132
  H      0.594887   -1.211578   -3.482312
  H     -0.126530   -2.487656   -4.434176

 Total Charge           Charge          ....    0
 Multiplicity           Mult            ....    1
 Number of Electrons    NEL             ....   88
 Basis Dimension        Dim             ....  563

ORBITAL ENERGIES
----------------

  NO   OCC          E(Eh)            E(eV)
   0   2.0000     -24.274380      -660.5395
   1   2.0000     -13.973170      -380.2293
   2   2.0000     -13.958228      -379.8227
   3   2.0000      -9.966400      -271.1995
   4   2.0000      -9.897460      -269.3236
   5   2.0000      -9.888231      -269.0724
   6   2.0000      -9.871478      -268.6166
   7   2.0000      -9.868850      -268.5451
   8   2.0000      -9.859550      -268.2920
   9   2.0000      -9.849815      -268.0271
  10   2.0000      -9.780868      -266.1510
  11   2.0000      -1.135593       -30.9011
  12   2.0000      -0.860141       -23.4056
  13   2.0000      -0.779514       -21.2117
  14   2.0000      -0.735462       -20.0130
  15   2.0000      -0.704287       -19.1646
  16   2.0000      -0.658070       -17.9070
  17   2.0000      -0.625583       -17.0230
  18   2.0000      -0.578680       -15.7467
  19   2.0000      -0.547451       -14.8969
  20   2.0000      -0.522649       -14.2220
  21   2.0000      -0.498204       -13.5568
  22   2.0000      -0.480946       -13.0872
  23   2.0000      -0.470660       -12.8073
  24   2.0000      -0.453256       -12.3337
  25   2.0000      -0.448507       -12.2045
  26   2.0000      -0.431730       -11.7480
  27   2.0000      -0.409186       -11.1345
  28   2.0000      -0.392723       -10.6865
  29   2.0000      -0.391002       -10.6397
  30   2.0000      -0.370475       -10.0811
  31   2.0000      -0.354830        -9.6554
  32   2.0000      -0.343266        -9.3407
  33   2.0000      -0.333321        -9.0701
  34   2.0000      -0.318262        -8.6603
  35   2.0000      -0.312693        -8.5088
  36   2.0000      -0.306577        -8.3424
  37   2.0000      -0.294016        -8.0006
  38   2.0000      -0.278157        -7.5690
  39   2.0000      -0.268967        -7.3190
  40   2.0000      -0.263403        -7.1676
  41   2.0000      -0.250624        -6.8198
  42   2.0000      -0.207141        -5.6366
  43   2.0000      -0.118261        -3.2180
  44   0.0000      -0.012365        -0.3365
  45   0.0000      -0.004996        -0.1360
  46   0.0000       0.003938         0.1072
  47   0.0000       0.011857         0.3227
  48   0.0000       0.019524         0.5313

MULLIKEN ATOMIC CHARGES
-----------------------
   0 C :   -0.090408
   1 C :   -0.495662
   2 C :   -0.828644
   3 C :   -0.389152
   4 C :   -0.324624
   5 H :    0.367324
   6 C :   -0.367071
   7 H :    0.170197
   8 H :    0.199659
   9 H :    0.165109
  10 C :   -0.119440
  11 H :    0.180208
  12 H :    0.140734
  13 F :   -0.385996
  14 H :    0.209971
  15 H :    0.213433
  16 C :   -0.832082
  17 N :   -0.249859
  18 N :   -0.268877
  19 H :    0.173764
  20 H :    0.137505
  21 H :    1.503973
  22 H :    0.319154
  23 H :    0.062703
  24 H :    0.173692
  25 H :    0.073853
  26 H :    0.139871
  27 H :    0.120667
Sum of atomic charges:    0.0000000

LOEWDIN ATOMIC CHARGES
----------------------
   0 C :   -0.230900
   1 C :   -0.214747
   2 C :   -0.142090
   3 C :   -0.204512
   4 C :   -0.208840
   5 H :    0.106111
   6 C :   -0.174089
   7 H :    0.107596
   8 H :    0.108865
   9 H :    0.116606
  10 C :   -0.208516
  11 H :    0.129598
  12 H :    0.119390
  13 F :   -0.055854
  14 H :    0.111563
  15 H :    0.109967
  16 C :   -0.542334
  17 N :    0.126104
  18 N :    0.141515
  19 H :    0.087497
  20 H :    0.087685
  21 H :    0.035309
  22 H :    0.068276
  23 H :    0.095847
  24 H :    0.111091
  25 H :    0.108052
  26 H :    0.105774
  27 H :    0.105035

  Mayer bond orders larger than 0.100000
B(  0-C ,  1-C ) :   1.1629 B(  0-C ,  2-C ) :   0.2803 B(  0-C ,  3-C ) :   0.1448
B(  0-C , 14-H ) :   0.8597 B(  0-C , 15-H ) :   1.0094 B(  0-C , 21-H ) :   0.1063
B(  1-C ,  2-C ) :   0.3761 B(  1-C ,  3-C ) :   1.0604 B(  1-C , 21-H ) :  -0.1112
B(  1-C , 26-H ) :   0.9181 B(  1-C , 27-H ) :   1.0312 B(  2-C ,  4-C ) :   0.2157
B(  2-C ,  6-C ) :   0.1007 B(  2-C , 13-F ) :   0.2975 B(  2-C , 14-H ) :  -0.2252
B(  2-C , 15-H ) :  -0.1182 B(  2-C , 16-C ) :   2.1335 B(  2-C , 17-N ) :  -0.1004
B(  2-C , 21-H ) :  -0.6417 B(  3-C ,  4-C ) :   0.9892 B(  3-C ,  6-C ) :   0.2715
B(  3-C , 24-H ) :   0.9230 B(  3-C , 25-H ) :   1.0301 B(  4-C ,  5-H ) :   0.9389
B(  4-C ,  6-C ) :   0.7602 B(  4-C ,  7-H ) :   0.8976 B(  4-C , 10-C ) :   0.2589
B(  4-C , 21-H ) :  -0.1447 B(  6-C ,  8-H ) :   0.9756 B(  6-C ,  9-H ) :   0.9765
B(  6-C , 10-C ) :   0.9287 B( 10-C , 11-H ) :   0.9861 B( 10-C , 12-H ) :   0.9560
B( 10-C , 13-F ) :   0.8541 B( 13-F , 16-C ) :   0.1131 B( 13-F , 21-H ) :  -0.4919
B( 14-H , 21-H ) :   0.1209 B( 16-C , 17-N ) :   1.2305 B( 16-C , 18-N ) :   1.0293
B( 16-C , 21-H ) :  -0.7840 B( 17-N , 22-H ) :   0.8214 B( 17-N , 23-H ) :   1.0916
B( 18-N , 19-H ) :   0.9575 B( 18-N , 20-H ) :   1.0211

Dispersion correction           -0.029029259
FINAL SINGLE POINT ENERGY      -523.930545745106

DIPOLE MOMENT
-------------
                                X             Y             Z
Electronic contribution:      7.86698       3.80614       1.15970
Nuclear contribution   :     -8.11591      -2.99033      -1.35383
                        -----------------------------------------
Total Dipole Moment    :     -0.24893       0.81581      -0.19413
                        -----------------------------------------
Magnitude (a.u.)       :      0.87475
Magnitude (Debye)      :      2.22345

Rotational constants in cm-1:     0.043530     0.028984     0.019589
Rotational constants in MHz :  1305.007140   868.923804   587.262638

                             ****ORCA TERMINATED NORMALLY****
TOTAL RUN TIME: 0 days 0 hours 1 minutes 1 seconds 586 msec
