                         Program Version 5.0.0 -  RELEASE  -
|  1> !PBE D3BJ RIJCOSX def2-TZVPD def2/J TightSCF xyzfile
|  2>
|  3> *xyzfile 0 1 D2.xyz
|  4>
|  5> %MaxCore 64000
|  6>
|  7> %pal nprocs 4
|  8> end
|  9>
| 10> %scf
| 11>   MaxIter 150
| 12> end
| 13>
| 14>
| 15>                          ****END OF INPUT****

CARTESIAN COORDINATES (ANGSTROEM)
---------------------------------
  C      1.635557   -1.670396   -5.292109
  C      0.338484   -1.500907   -4.505398
  N      2.484511   -0.507410   -5.140392
  C     -0.684873   -0.528026   -5.099889
  C     -0.290406    0.951335   -5.153423
  H      0.607991    1.070692   -5.764412
  C     -0.055168    1.619420   -3.788577
  H     -1.080912    1.483775   -5.689436
  H      0.045006    0.862302   -3.003015
  H     -0.922936    2.230329   -3.517028
  C      1.223022    2.469865   -3.756911
  H      1.114701    3.258074   -4.532999
  H      1.237732    3.011242   -2.792157
  F      2.353815    1.712032   -3.934477
  H      1.398337   -1.829239   -6.352591
  H      2.155864   -2.565398   -4.932091
  C      3.451149   -0.149530   -5.952589
  C      3.922667    1.089559   -5.850711
  N      3.966162   -1.006183   -6.867880
  H      3.521391   -1.906467   -6.995270
  H      4.444824   -0.623472   -7.670348
  H      2.251995    0.240804   -4.498792
  H      3.464277    1.640782   -5.136392
  H      4.834470    1.313745   -6.224653
  H     -0.937999   -0.869056   -6.110838
  H     -1.604638   -0.622496   -4.513132
  H      0.594887   -1.211578   -3.482312
  H     -0.126530   -2.487656   -4.434176

 Total Charge           Charge          ....    0
 Multiplicity           Mult            ....    1
 Number of Electrons    NEL             ....   88
 Basis Dimension        Dim             ....  563

ORBITAL ENERGIES
----------------

  NO   OCC          E(Eh)            E(eV)
   0   2.0000     -24.275730      -660.5762
   1   2.0000     -13.970843      -380.1660
   2   2.0000     -13.962255      -379.9323
   3   2.0000      -9.968005      -271.2432
   4   2.0000      -9.910431      -269.6765
   5   2.0000      -9.901222      -269.4260
   6   2.0000      -9.896760      -269.3045
   7   2.0000      -9.886534      -269.0263
   8   2.0000      -9.886035      -269.0127
   9   2.0000      -9.883956      -268.9561
  10   2.0000      -9.768456      -265.8132
  11   2.0000      -1.136405       -30.9232
  12   2.0000      -0.871946       -23.7269
  13   2.0000      -0.793599       -21.5949
  14   2.0000      -0.745822       -20.2948
  15   2.0000      -0.706944       -19.2369
  16   2.0000      -0.669678       -18.2229
  17   2.0000      -0.619662       -16.8619
  18   2.0000      -0.589195       -16.0328
  19   2.0000      -0.562138       -15.2966
  20   2.0000      -0.528388       -14.3782
  21   2.0000      -0.512189       -13.9374
  22   2.0000      -0.489752       -13.3268
  23   2.0000      -0.464747       -12.6464
  24   2.0000      -0.456285       -12.4161
  25   2.0000      -0.448398       -12.2015
  26   2.0000      -0.437170       -11.8960
  27   2.0000      -0.422299       -11.4913
  28   2.0000      -0.403801       -10.9880
  29   2.0000      -0.395406       -10.7595
  30   2.0000      -0.376348       -10.2409
  31   2.0000      -0.363155        -9.8820
  32   2.0000      -0.354231        -9.6391
  33   2.0000      -0.335462        -9.1284
  34   2.0000      -0.328442        -8.9374
  35   2.0000      -0.319576        -8.6961
  36   2.0000      -0.309240        -8.4148
  37   2.0000      -0.305529        -8.3139
  38   2.0000      -0.292166        -7.9502
  39   2.0000      -0.284312        -7.7365
  40   2.0000      -0.279675        -7.6104
  41   2.0000      -0.277488        -7.5508
  42   2.0000      -0.201127        -5.4730
  43   2.0000      -0.115879        -3.1532
  44   0.0000      -0.016407        -0.4465
  45   0.0000      -0.006773        -0.1843
  46   0.0000       0.001895         0.0516
  47   0.0000       0.005068         0.1379
  48   0.0000       0.019205         0.5226

MULLIKEN ATOMIC CHARGES
-----------------------
   0 C :   -0.566844
   1 C :   -0.496169
   2 N :   -0.064398
   3 C :   -0.240183
   4 C :   -0.464683
   5 H :    0.341496
   6 C :   -0.315064
   7 H :    0.151708
   8 H :    0.190510
   9 H :    0.160231
  10 C :   -0.147786
  11 H :    0.180657
  12 H :    0.146338
  13 F :   -0.415659
  14 H :    0.297583
  15 H :    0.259244
  16 C :    0.473485
  17 C :   -1.426385
  18 N :   -0.300965
  19 H :    0.158713
  20 H :    0.173877
  21 H :    0.389696
  22 H :    0.713723
  23 H :    0.249676
  24 H :    0.186483
  25 H :    0.074287
  26 H :    0.208628
  27 H :    0.081800
Sum of atomic charges:   -0.0000000

LOEWDIN ATOMIC CHARGES
----------------------
   0 C :   -0.202385
   1 C :   -0.196736
   2 N :    0.038805
   3 C :   -0.205271
   4 C :   -0.207060
   5 H :    0.106787
   6 C :   -0.175279
   7 H :    0.110777
   8 H :    0.107065
   9 H :    0.117638
  10 C :   -0.207086
  11 H :    0.132587
  12 H :    0.121029
  13 F :   -0.054184
  14 H :    0.117923
  15 H :    0.114559
  16 C :   -0.560777
  17 C :    0.005571
  18 N :    0.134854
  19 H :    0.079108
  20 H :    0.101004
  21 H :    0.085377
  22 H :   -0.013523
  23 H :    0.009872
  24 H :    0.112033
  25 H :    0.110409
  26 H :    0.106720
  27 H :    0.110184

  Mayer bond orders larger than 0.100000
B(  0-C ,  1-C ) :   1.1560 B(  0-C ,  2-N ) :   1.0774 B(  0-C ,  3-C ) :   0.1056
B(  0-C , 14-H ) :   0.8399 B(  0-C , 15-H ) :   0.8522 B(  0-C , 16-C ) :  -0.1710
B(  0-C , 18-N ) :   0.1037 B(  1-C ,  3-C ) :   0.9925 B(  1-C ,  6-C ) :   0.1095
B(  1-C , 26-H ) :   0.8971 B(  1-C , 27-H ) :   1.0479 B(  2-N ,  4-C ) :   0.1073
B(  2-N , 16-C ) :   1.0631 B(  2-N , 21-H ) :   0.7316 B(  3-C ,  4-C ) :   0.9841
B(  3-C ,  6-C ) :   0.2126 B(  3-C , 24-H ) :   0.9097 B(  3-C , 25-H ) :   1.0258
B(  4-C ,  5-H ) :   0.9417 B(  4-C ,  6-C ) :   0.7963 B(  4-C ,  7-H ) :   0.9408
B(  4-C , 10-C ) :   0.2772 B(  6-C ,  8-H ) :   0.9843 B(  6-C ,  9-H ) :   0.9802
B(  6-C , 10-C ) :   0.9284 B( 10-C , 11-H ) :   0.9870 B( 10-C , 12-H ) :   0.9545
B( 10-C , 13-F ) :   0.8407 B( 13-F , 17-C ) :   0.1490 B( 13-F , 22-H ) :  -0.1275
B( 16-C , 17-C ) :   1.3513 B( 16-C , 18-N ) :   1.0731 B( 16-C , 23-H ) :  -0.1112
B( 17-C , 18-N ) :   0.1347 B( 17-C , 22-H ) :   0.5286 B( 17-C , 23-H ) :   1.1022
B( 18-N , 19-H ) :   0.9891 B( 18-N , 20-H ) :   0.9804 B( 22-H , 23-H ) :   0.1096

Dispersion correction           -0.028834865
FINAL SINGLE POINT ENERGY      -523.921051730972

DIPOLE MOMENT
-------------
                                X             Y             Z
Electronic contribution:      6.39889       2.42764       1.72279
Nuclear contribution   :     -7.85451      -2.70006      -1.48294
                        -----------------------------------------
Total Dipole Moment    :     -1.45562      -0.27243       0.23985
                        -----------------------------------------
Magnitude (a.u.)       :      1.50019
Magnitude (Debye)      :      3.81318

Rotational constants in cm-1:     0.044065     0.029250     0.019826
Rotational constants in MHz :  1321.026981   876.903192   594.367265

                             ****ORCA TERMINATED NORMALLY****
TOTAL RUN TIME: 0 days 0 hours 1 minutes 1 seconds 6 msec
