                         Program Version 5.0.0 -  RELEASE  -
|  1> !PBE D3BJ RIJCOSX def2-TZVPD def2/J TightSCF xyzfile
|  2>
|  3> *xyzfile 0 1 D3.xyz
|  4>
|  5> %MaxCore 64000
|  6>
|  7> %pal nprocs 4
|  8> end
|  9>
| 10> %scf
| 11>   MaxIter 150
| 12> end
| 13>
| 14>
| 15>                          ****END OF INPUT****

CARTESIAN COORDINATES (ANGSTROEM)
---------------------------------
  C      1.635557   -1.670396   -5.292109
  C      0.338484   -1.500907   -4.505398
  N      2.484511   -0.507410   -5.140392
  C     -0.684873   -0.528026   -5.099889
  C     -0.290406    0.951335   -5.153423
  H      0.607991    1.070692   -5.764412
  C     -0.055168    1.619420   -3.788577
  H     -1.080912    1.483775   -5.689436
  H      0.045006    0.862302   -3.003015
  H     -0.922936    2.230329   -3.517028
  C      1.223022    2.469865   -3.756911
  H      1.114701    3.258074   -4.532999
  H      1.237732    3.011242   -2.792157
  F      2.353815    1.712032   -3.934477
  H      1.398337   -1.829239   -6.352591
  H      2.155864   -2.565398   -4.932091
  C      3.451149   -0.149530   -5.952589
  N      3.922667    1.089559   -5.850711
  C      3.966162   -1.006183   -6.867880
  H      3.521391   -1.906467   -6.995270
  H      4.444824   -0.623472   -7.670348
  H      2.251995    0.240804   -4.498792
  H      3.464277    1.640782   -5.136392
  H      4.834470    1.313745   -6.224653
  H     -0.937999   -0.869056   -6.110838
  H     -1.604638   -0.622496   -4.513132
  H      0.594887   -1.211578   -3.482312
  H     -0.126530   -2.487656   -4.434176

 Total Charge           Charge          ....    0
 Multiplicity           Mult            ....    1
 Number of Electrons    NEL             ....   88
 Basis Dimension        Dim             ....  563

ORBITAL ENERGIES
----------------

  NO   OCC          E(Eh)            E(eV)
   0   2.0000     -24.303085      -661.3206
   1   2.0000     -13.965579      -380.0227
   2   2.0000     -13.959954      -379.8697
   3   2.0000      -9.985015      -271.7061
   4   2.0000      -9.906462      -269.5685
   5   2.0000      -9.903501      -269.4880
   6   2.0000      -9.901168      -269.4245
   7   2.0000      -9.889926      -269.1186
   8   2.0000      -9.887071      -269.0409
   9   2.0000      -9.884189      -268.9624
  10   2.0000      -9.778076      -266.0750
  11   2.0000      -1.162797       -31.6413
  12   2.0000      -0.876514       -23.8512
  13   2.0000      -0.793760       -21.5993
  14   2.0000      -0.750858       -20.4319
  15   2.0000      -0.710436       -19.3319
  16   2.0000      -0.663159       -18.0455
  17   2.0000      -0.627413       -17.0728
  18   2.0000      -0.597781       -16.2664
  19   2.0000      -0.574672       -15.6376
  20   2.0000      -0.522912       -14.2292
  21   2.0000      -0.514604       -14.0031
  22   2.0000      -0.503100       -13.6901
  23   2.0000      -0.476264       -12.9598
  24   2.0000      -0.474431       -12.9099
  25   2.0000      -0.446418       -12.1477
  26   2.0000      -0.440544       -11.9878
  27   2.0000      -0.425766       -11.5857
  28   2.0000      -0.414788       -11.2870
  29   2.0000      -0.391147       -10.6436
  30   2.0000      -0.381270       -10.3749
  31   2.0000      -0.370629       -10.0853
  32   2.0000      -0.355917        -9.6850
  33   2.0000      -0.335059        -9.1174
  34   2.0000      -0.332189        -9.0393
  35   2.0000      -0.320314        -8.7162
  36   2.0000      -0.316367        -8.6088
  37   2.0000      -0.310783        -8.4568
  38   2.0000      -0.300388        -8.1740
  39   2.0000      -0.293734        -7.9929
  40   2.0000      -0.285137        -7.7590
  41   2.0000      -0.280764        -7.6400
  42   2.0000      -0.191833        -5.2200
  43   2.0000      -0.120313        -3.2739
  44   0.0000      -0.021169        -0.5760
  45   0.0000      -0.005886        -0.1602
  46   0.0000      -0.001328        -0.0361
  47   0.0000       0.001244         0.0338
  48   0.0000       0.012029         0.3273

MULLIKEN ATOMIC CHARGES
-----------------------
   0 C :   -0.705569
   1 C :   -0.474800
   2 N :   -0.021122
   3 C :   -0.251712
   4 C :   -0.423787
   5 H :    0.308234
   6 C :   -0.310873
   7 H :    0.146852
   8 H :    0.190461
   9 H :    0.165547
  10 C :   -0.122441
  11 H :    0.187365
  12 H :    0.139867
  13 F :   -0.432006
  14 H :    0.303326
  15 H :    0.326868
  16 C :    0.336611
  17 N :   -0.206740
  18 C :   -1.233695
  19 H :    0.363314
  20 H :    0.245062
  21 H :    0.470081
  22 H :    0.305548
  23 H :    0.119625
  24 H :    0.196777
  25 H :    0.075803
  26 H :    0.220974
  27 H :    0.080428
Sum of atomic charges:   -0.0000000

LOEWDIN ATOMIC CHARGES
----------------------
   0 C :   -0.194637
   1 C :   -0.196370
   2 N :    0.037786
   3 C :   -0.204061
   4 C :   -0.207768
   5 H :    0.106925
   6 C :   -0.173881
   7 H :    0.111021
   8 H :    0.108479
   9 H :    0.119546
  10 C :   -0.203668
  11 H :    0.133063
  12 H :    0.123010
  13 F :   -0.045602
  14 H :    0.122454
  15 H :    0.120970
  16 C :   -0.576783
  17 N :    0.133425
  18 C :    0.007710
  19 H :   -0.013276
  20 H :   -0.002134
  21 H :    0.081871
  22 H :    0.061019
  23 H :    0.110599
  24 H :    0.113844
  25 H :    0.110408
  26 H :    0.104795
  27 H :    0.111255

  Mayer bond orders larger than 0.100000
B(  0-C ,  1-C ) :   1.0986 B(  0-C ,  2-N ) :   1.1461 B(  0-C ,  3-C ) :   0.1181
B(  0-C , 14-H ) :   0.8869 B(  0-C , 15-H ) :   0.8178 B(  0-C , 18-C ) :   0.2698
B(  1-C ,  3-C ) :   0.9796 B(  1-C ,  6-C ) :   0.1110 B(  1-C , 26-H ) :   0.8884
B(  1-C , 27-H ) :   1.0632 B(  2-N , 16-C ) :   1.1212 B(  2-N , 21-H ) :   0.6826
B(  3-C ,  4-C ) :   0.9901 B(  3-C ,  6-C ) :   0.2106 B(  3-C , 24-H ) :   0.9037
B(  3-C , 25-H ) :   1.0273 B(  4-C ,  5-H ) :   0.9791 B(  4-C ,  6-C ) :   0.7887
B(  4-C ,  7-H ) :   0.9421 B(  4-C , 10-C ) :   0.2861 B(  6-C ,  8-H ) :   0.9892
B(  6-C ,  9-H ) :   0.9771 B(  6-C , 10-C ) :   0.9294 B( 10-C , 11-H ) :   0.9822
B( 10-C , 12-H ) :   0.9541 B( 10-C , 13-F ) :   0.8250 B( 16-C , 17-N ) :   1.1350
B( 16-C , 18-C ) :   1.3258 B( 16-C , 20-H ) :  -0.1211 B( 17-N , 22-H ) :   0.8439
B( 17-N , 23-H ) :   1.0128 B( 18-C , 19-H ) :   0.8615 B( 18-C , 20-H ) :   1.1207

Dispersion correction           -0.028790475
FINAL SINGLE POINT ENERGY      -523.932054972178

DIPOLE MOMENT
-------------
                                X             Y             Z
Electronic contribution:      6.29591       4.41733       2.79869
Nuclear contribution   :     -7.84660      -3.08098      -1.66782
                        -----------------------------------------
Total Dipole Moment    :     -1.55069       1.33635       1.13086
                        -----------------------------------------
Magnitude (a.u.)       :      2.33866
Magnitude (Debye)      :      5.94439

Rotational constants in cm-1:     0.043547     0.029898     0.020008
Rotational constants in MHz :  1305.520367   896.323854   599.829375

                             ****ORCA TERMINATED NORMALLY****
TOTAL RUN TIME: 0 days 0 hours 0 minutes 58 seconds 857 msec
