                         Program Version 5.0.0 -  RELEASE  -
|  1> !PBE D3BJ RIJCOSX def2-SVP def2/J TightSCF
|  2> *xyz -1 1
|  3> C          4.93020       -7.37532       -2.64962
|  4> C          3.84189       -6.95161       -3.63283
|  5> H          3.45814       -5.95442       -3.40712
|  6> H          2.98848       -7.64361       -3.56708
|  7> S          4.31812       -6.91593       -5.36869
|  8> O          5.40615       -5.89948       -5.51297
|  9> O          3.11191       -6.44508       -6.04379
| 10> O          4.76340       -8.23942       -5.69863
| 11> H          5.27901       -8.35440       -2.90385
| 12> H          4.53000       -7.38577       -1.65734
| 13> H          5.74437       -6.68276       -2.69856
| 14> *
| 15>
| 16> %MaxCore 64000
| 17>
| 18> %pal nprocs 4
| 19> end
| 20>
| 21> %scf
| 22>   MaxIter 150
| 23> end
| 24>
| 25>
| 26>                          ****END OF INPUT****

CARTESIAN COORDINATES (ANGSTROEM)
---------------------------------
  C      4.930200   -7.375320   -2.649620
  C      3.841890   -6.951610   -3.632830
  H      3.458140   -5.954420   -3.407120
  H      2.988480   -7.643610   -3.567080
  S      4.318120   -6.915930   -5.368690
  O      5.406150   -5.899480   -5.512970
  O      3.111910   -6.445080   -6.043790
  O      4.763400   -8.239420   -5.698630
  H      5.279010   -8.354400   -2.903850
  H      4.530000   -7.385770   -1.657340
  H      5.744370   -6.682760   -2.698560

 Total Charge           Charge          ....   -1
 Multiplicity           Mult            ....    1
 Number of Electrons    NEL             ....   58
 Basis Dimension        Dim             ....  113

ORBITAL ENERGIES
----------------

  NO   OCC          E(Eh)            E(eV)
   0   2.0000     -88.008990     -2394.8464
   1   2.0000     -18.508742      -503.6485
   2   2.0000     -18.498418      -503.3675
   3   2.0000     -18.490100      -503.1412
   4   2.0000      -9.743881      -265.1445
   5   2.0000      -9.738991      -265.0114
   6   2.0000      -7.620372      -207.3609
   7   2.0000      -5.646929      -153.6608
   8   2.0000      -5.646631      -153.6526
   9   2.0000      -5.646490      -153.6488
  10   2.0000      -0.804007       -21.8782
  11   2.0000      -0.670636       -18.2489
  12   2.0000      -0.640087       -17.4177
  13   2.0000      -0.542267       -14.7558
  14   2.0000      -0.423922       -11.5355
  15   2.0000      -0.301666        -8.2087
  16   2.0000      -0.255334        -6.9480
  17   2.0000      -0.237784        -6.4704
  18   2.0000      -0.207473        -5.6456
  19   2.0000      -0.184447        -5.0191
  20   2.0000      -0.183867        -5.0033
  21   2.0000      -0.162620        -4.4251
  22   2.0000      -0.149759        -4.0752
  23   2.0000      -0.065756        -1.7893
  24   2.0000      -0.064810        -1.7636
  25   2.0000      -0.038522        -1.0482
  26   2.0000      -0.031532        -0.8580
  27   2.0000      -0.017378        -0.4729
  28   2.0000       0.019460         0.5295
  29   0.0000       0.182078         4.9546
  30   0.0000       0.232820         6.3354
  31   0.0000       0.237161         6.4535
  32   0.0000       0.244228         6.6458
  33   0.0000       0.269220         7.3258

MULLIKEN ATOMIC CHARGES
-----------------------
   0 C :    0.025394
   1 C :   -0.110170
   2 H :   -0.000152
   3 H :   -0.004222
   4 S :    0.738084
   5 O :   -0.570906
   6 O :   -0.539991
   7 O :   -0.511796
   8 H :    0.002985
   9 H :   -0.031203
  10 H :    0.001975
Sum of atomic charges:   -1.0000000

LOEWDIN ATOMIC CHARGES
----------------------
   0 C :   -0.083335
   1 C :   -0.199260
   2 H :    0.007842
   3 H :    0.006605
   4 S :    1.033345
   5 O :   -0.630322
   6 O :   -0.596698
   7 O :   -0.570080
   8 H :    0.014894
   9 H :    0.002593
  10 H :    0.014416

  Mayer bond orders larger than 0.100000
B(  0-C ,  1-C ) :   1.0631 B(  0-C ,  8-H ) :   0.9603 B(  0-C ,  9-H ) :   0.9541
B(  0-C , 10-H ) :   0.9596 B(  1-C ,  2-H ) :   0.9343 B(  1-C ,  3-H ) :   0.9293
B(  1-C ,  4-S ) :   0.8549 B(  4-S ,  5-O ) :   1.5858 B(  4-S ,  6-O ) :   1.6255
B(  4-S ,  7-O ) :   1.6461

Dispersion correction           -0.009597890
FINAL SINGLE POINT ENERGY      -702.223733978580

DIPOLE MOMENT
-------------
                                X             Y             Z
Electronic contribution:     -0.32879       0.84429      -8.12398
Nuclear contribution   :      0.07504      -1.14369       9.75001
                        -----------------------------------------
Total Dipole Moment    :     -0.25375      -0.29940       1.62602
                        -----------------------------------------
Magnitude (a.u.)       :      1.67272
Magnitude (Debye)      :      4.25171

Rotational constants in cm-1:     0.160553     0.082191     0.080550
Rotational constants in MHz :  4813.250478  2464.013016  2414.833054

                             ****ORCA TERMINATED NORMALLY****
TOTAL RUN TIME: 0 days 0 hours 0 minutes 8 seconds 618 msec
