                         Program Version 5.0.0 -  RELEASE  -
|  1> !PBE D3BJ RIJCOSX def2-SVP def2/J TightSCF
|  2> *xyz 1 1
|  3> C          5.55821       -1.99291       -6.21505
|  4> C          4.18188       -2.58967       -6.29891
|  5> N          3.14587       -1.76843       -6.48675
|  6> N          4.01910       -3.86431       -6.22743
|  7> H          4.76849       -4.59115       -5.99077
|  8> H          3.12241       -4.33339       -6.31462
|  9> H          3.28164       -0.77779       -6.56655
| 10> H          2.21255       -2.13419       -6.56225
| 11> C          6.41926       -2.54294       -5.07763
| 12> H          6.03683       -2.19819       -7.17685
| 13> H          5.46761       -0.90737       -6.12797
| 14> H          6.50056       -3.60553       -5.17358
| 15> H          5.96544       -2.30329       -4.13874
| 16> H          7.39438       -2.10494       -5.12457
| 17> *
| 18>
| 19> %MaxCore 64000
| 20>
| 21> %pal nprocs 4
| 22> end
| 23>
| 24> %scf
| 25>   MaxIter 150
| 26> end
| 27>
| 28>
| 29>                          ****END OF INPUT****

CARTESIAN COORDINATES (ANGSTROEM)
---------------------------------
  C      5.558210   -1.992910   -6.215050
  C      4.181880   -2.589670   -6.298910
  N      3.145870   -1.768430   -6.486750
  N      4.019100   -3.864310   -6.227430
  H      4.768490   -4.591150   -5.990770
  H      3.122410   -4.333390   -6.314620
  H      3.281640   -0.777790   -6.566550
  H      2.212550   -2.134190   -6.562250
  C      6.419260   -2.542940   -5.077630
  H      6.036830   -2.198190   -7.176850
  H      5.467610   -0.907370   -6.127970
  H      6.500560   -3.605530   -5.173580
  H      5.965440   -2.303290   -4.138740
  H      7.394380   -2.104940   -5.124570

 Total Charge           Charge          ....    1
 Multiplicity           Mult            ....    1
 Number of Electrons    NEL             ....   40
 Basis Dimension        Dim             ....  115

ORBITAL ENERGIES
----------------

  NO   OCC          E(Eh)            E(eV)
   0   2.0000     -14.248509      -387.7216
   1   2.0000     -14.237995      -387.4355
   2   2.0000     -10.206930      -277.7447
   3   2.0000     -10.091512      -274.6040
   4   2.0000     -10.050477      -273.4874
   5   2.0000      -1.110992       -30.2316
   6   2.0000      -1.019102       -27.7312
   7   2.0000      -0.889976       -24.2175
   8   2.0000      -0.799010       -21.7422
   9   2.0000      -0.752571       -20.4785
  10   2.0000      -0.720516       -19.6062
  11   2.0000      -0.688759       -18.7421
  12   2.0000      -0.648291       -17.6409
  13   2.0000      -0.603225       -16.4146
  14   2.0000      -0.575482       -15.6596
  15   2.0000      -0.554259       -15.0821
  16   2.0000      -0.505945       -13.7675
  17   2.0000      -0.493667       -13.4334
  18   2.0000      -0.478614       -13.0237
  19   2.0000      -0.451033       -12.2732
  20   0.0000      -0.234081        -6.3697
  21   0.0000      -0.168501        -4.5851
  22   0.0000      -0.135563        -3.6889
  23   0.0000      -0.123350        -3.3565
  24   0.0000      -0.101736        -2.7684

MULLIKEN ATOMIC CHARGES
-----------------------
   0 C :   -0.005424
   1 C :   -0.108731
   2 N :    0.049121
   3 N :    0.037431
   4 H :    0.202969
   5 H :    0.167411
   6 H :    0.172023
   7 H :    0.158786
   8 C :   -0.014714
   9 H :    0.106395
  10 H :    0.055298
  11 H :    0.036946
  12 H :    0.063140
  13 H :    0.079349
Sum of atomic charges:    1.0000000

LOEWDIN ATOMIC CHARGES
----------------------
   0 C :   -0.035137
   1 C :    0.115624
   2 N :    0.111850
   3 N :    0.106270
   4 H :    0.147086
   5 H :    0.112263
   6 H :    0.113520
   7 H :    0.104692
   8 C :   -0.033591
   9 H :    0.074606
  10 H :    0.054540
  11 H :    0.028115
  12 H :    0.043373
  13 H :    0.056789

  Mayer bond orders larger than 0.100000
B(  0-C ,  1-C ) :   1.0342 B(  0-C ,  8-C ) :   1.1026 B(  0-C ,  9-H ) :   0.8995
B(  0-C , 10-H ) :   0.9121 B(  1-C ,  2-N ) :   1.5031 B(  1-C ,  3-N ) :   1.5304
B(  2-N ,  6-H ) :   0.9185 B(  2-N ,  7-H ) :   0.9310 B(  3-N ,  4-H ) :   0.9069
B(  3-N ,  5-H ) :   0.9274 B(  8-C , 11-H ) :   0.9629 B(  8-C , 12-H ) :   0.9705
B(  8-C , 13-H ) :   0.9500

Dispersion correction           -0.010065932
FINAL SINGLE POINT ENERGY      -228.572855831366

DIPOLE MOMENT
-------------
                                X             Y             Z
Electronic contribution:     -3.84010      -0.49294      -1.58471
Nuclear contribution   :      2.76041       0.12669       1.26265
                        -----------------------------------------
Total Dipole Moment    :     -1.07969      -0.36624      -0.32206
                        -----------------------------------------
Magnitude (a.u.)       :      1.18473
Magnitude (Debye)      :      3.01133

Rotational constants in cm-1:     0.280918     0.124524     0.094121
Rotational constants in MHz :  8421.697738  3733.133254  2821.684112

                             ****ORCA TERMINATED NORMALLY****
TOTAL RUN TIME: 0 days 0 hours 0 minutes 9 seconds 22 msec
