                         Program Version 5.0.0 -  RELEASE  -
|  1> !PBE D3BJ RIJCOSX def2-SVP def2/J TightSCF
|  2> *xyz 0 1
|  3> C          4.93020       -7.37532       -2.64962
|  4> C          3.84189       -6.95161       -3.63283
|  5> H          3.45814       -5.95442       -3.40712
|  6> H          2.98848       -7.64361       -3.56708
|  7> S          4.31812       -6.91593       -5.36869
|  8> F          5.40615       -5.89948       -5.51297
|  9> O          3.11191       -6.44508       -6.04379
| 10> O          4.76340       -8.23942       -5.69863
| 11> H          5.27901       -8.35440       -2.90385
| 12> H          4.53000       -7.38577       -1.65734
| 13> H          5.74437       -6.68276       -2.69856
| 14> *
| 15>
| 16> %MaxCore 64000
| 17>
| 18> %pal nprocs 4
| 19> end
| 20>
| 21> %scf
| 22>   MaxIter 150
| 23> end
| 24>
| 25>
| 26>                          ****END OF INPUT****

CARTESIAN COORDINATES (ANGSTROEM)
---------------------------------
  C      4.930200   -7.375320   -2.649620
  C      3.841890   -6.951610   -3.632830
  H      3.458140   -5.954420   -3.407120
  H      2.988480   -7.643610   -3.567080
  S      4.318120   -6.915930   -5.368690
  F      5.406150   -5.899480   -5.512970
  O      3.111910   -6.445080   -6.043790
  O      4.763400   -8.239420   -5.698630
  H      5.279010   -8.354400   -2.903850
  H      4.530000   -7.385770   -1.657340
  H      5.744370   -6.682760   -2.698560

 Total Charge           Charge          ....    0
 Multiplicity           Mult            ....    1
 Number of Electrons    NEL             ....   58
 Basis Dimension        Dim             ....  113

ORBITAL ENERGIES
----------------

  NO   OCC          E(Eh)            E(eV)
   0   2.0000     -88.278551     -2402.1815
   1   2.0000     -24.344572      -662.4495
   2   2.0000     -18.760777      -510.5067
   3   2.0000     -18.750240      -510.2200
   4   2.0000      -9.949941      -270.7517
   5   2.0000      -9.915421      -269.8123
   6   2.0000      -7.892510      -214.7661
   7   2.0000      -5.922904      -161.1704
   8   2.0000      -5.916865      -161.0061
   9   2.0000      -5.915572      -160.9709
  10   2.0000      -1.215877       -33.0857
  11   2.0000      -1.011560       -27.5259
  12   2.0000      -0.918197       -24.9854
  13   2.0000      -0.741840       -20.1865
  14   2.0000      -0.641289       -17.4504
  15   2.0000      -0.598051       -16.2738
  16   2.0000      -0.509548       -13.8655
  17   2.0000      -0.480409       -13.0726
  18   2.0000      -0.472660       -12.8617
  19   2.0000      -0.437475       -11.9043
  20   2.0000      -0.416396       -11.3307
  21   2.0000      -0.394850       -10.7444
  22   2.0000      -0.376580       -10.2473
  23   2.0000      -0.358736        -9.7617
  24   2.0000      -0.351288        -9.5590
  25   2.0000      -0.322881        -8.7860
  26   2.0000      -0.281730        -7.6663
  27   2.0000      -0.271678        -7.3927
  28   2.0000      -0.256704        -6.9853
  29   0.0000      -0.009984        -0.2717
  30   0.0000       0.032282         0.8784
  31   0.0000       0.049311         1.3418
  32   0.0000       0.064883         1.7656
  33   0.0000       0.072722         1.9789

MULLIKEN ATOMIC CHARGES
-----------------------
   0 C :   -0.004133
   1 C :   -0.154708
   2 H :    0.068756
   3 H :    0.096747
   4 S :    0.833967
   5 F :   -0.181575
   6 O :   -0.406431
   7 O :   -0.380747
   8 H :    0.050410
   9 H :    0.043516
  10 H :    0.034196
Sum of atomic charges:    0.0000000

LOEWDIN ATOMIC CHARGES
----------------------
   0 C :   -0.069236
   1 C :   -0.161192
   2 H :    0.036474
   3 H :    0.056395
   4 S :    1.097675
   5 F :   -0.149648
   6 O :   -0.468667
   7 O :   -0.442641
   8 H :    0.033973
   9 H :    0.038530
  10 H :    0.028338

  Mayer bond orders larger than 0.100000
B(  0-C ,  1-C ) :   1.0629 B(  0-C ,  8-H ) :   0.9645 B(  0-C ,  9-H ) :   0.9553
B(  0-C , 10-H ) :   0.9696 B(  1-C ,  2-H ) :   0.9269 B(  1-C ,  3-H ) :   0.9276
B(  1-C ,  4-S ) :   0.8970 B(  4-S ,  5-F ) :   0.9850 B(  4-S ,  6-O ) :   1.7796
B(  4-S ,  7-O ) :   1.8010

Dispersion correction           -0.009153799
FINAL SINGLE POINT ENERGY      -726.736439275185

DIPOLE MOMENT
-------------
                                X             Y             Z
Electronic contribution:      1.29168       2.61672      -8.92922
Nuclear contribution   :     -0.98922      -2.24849      10.35711
                        -----------------------------------------
Total Dipole Moment    :      0.30246       0.36823       1.42789
                        -----------------------------------------
Magnitude (a.u.)       :      1.50530
Magnitude (Debye)      :      3.82618

Rotational constants in cm-1:     0.151436     0.080885     0.078670
Rotational constants in MHz :  4539.936009  2424.868817  2358.476812

                             ****ORCA TERMINATED NORMALLY****
TOTAL RUN TIME: 0 days 0 hours 0 minutes 7 seconds 714 msec
