                         Program Version 5.0.0 -  RELEASE  -
|  1> !PBE D3BJ RIJCOSX def2-SVP def2/J TightSCF
|  2> *xyz 0 1
|  3> C          5.55821       -1.99291       -6.21505
|  4> C          4.18188       -2.58967       -6.29891
|  5> C          3.14587       -1.76843       -6.48675
|  6> N          4.01910       -3.86431       -6.22743
|  7> H          4.76849       -4.59115       -5.99077
|  8> H          3.12241       -4.33339       -6.31462
|  9> H          3.28164       -0.77779       -6.56655
| 10> H          2.21255       -2.13419       -6.56225
| 11> C          6.41926       -2.54294       -5.07763
| 12> H          6.03683       -2.19819       -7.17685
| 13> H          5.46761       -0.90737       -6.12797
| 14> H          6.50056       -3.60553       -5.17358
| 15> H          5.96544       -2.30329       -4.13874
| 16> H          7.39438       -2.10494       -5.12457
| 17> *
| 18>
| 19> %MaxCore 64000
| 20>
| 21> %pal nprocs 4
| 22> end
| 23>
| 24> %scf
| 25>   MaxIter 150
| 26> end
| 27>
| 28>
| 29>                          ****END OF INPUT****

CARTESIAN COORDINATES (ANGSTROEM)
---------------------------------
  C      5.558210   -1.992910   -6.215050
  C      4.181880   -2.589670   -6.298910
  C      3.145870   -1.768430   -6.486750
  N      4.019100   -3.864310   -6.227430
  H      4.768490   -4.591150   -5.990770
  H      3.122410   -4.333390   -6.314620
  H      3.281640   -0.777790   -6.566550
  H      2.212550   -2.134190   -6.562250
  C      6.419260   -2.542940   -5.077630
  H      6.036830   -2.198190   -7.176850
  H      5.467610   -0.907370   -6.127970
  H      6.500560   -3.605530   -5.173580
  H      5.965440   -2.303290   -4.138740
  H      7.394380   -2.104940   -5.124570

 Total Charge           Charge          ....    0
 Multiplicity           Mult            ....    1
 Number of Electrons    NEL             ....   40
 Basis Dimension        Dim             ....  115

ORBITAL ENERGIES
----------------

  NO   OCC          E(Eh)            E(eV)
   0   2.0000     -14.000715      -380.9788
   1   2.0000      -9.905301      -269.5370
   2   2.0000      -9.889867      -269.1170
   3   2.0000      -9.882955      -268.9289
   4   2.0000      -9.818243      -267.1680
   5   2.0000      -0.838001       -22.8032
   6   2.0000      -0.694859       -18.9081
   7   2.0000      -0.635373       -17.2894
   8   2.0000      -0.557516       -15.1708
   9   2.0000      -0.518817       -14.1177
  10   2.0000      -0.459667       -12.5082
  11   2.0000      -0.414953       -11.2915
  12   2.0000      -0.389893       -10.6095
  13   2.0000      -0.370940       -10.0938
  14   2.0000      -0.338970        -9.2239
  15   2.0000      -0.330507        -8.9935
  16   2.0000      -0.310971        -8.4620
  17   2.0000      -0.286171        -7.7871
  18   2.0000      -0.279441        -7.6040
  19   2.0000      -0.144038        -3.9195
  20   0.0000       0.018165         0.4943
  21   0.0000       0.035066         0.9542
  22   0.0000       0.065957         1.7948
  23   0.0000       0.072028         1.9600
  24   0.0000       0.098937         2.6922

MULLIKEN ATOMIC CHARGES
-----------------------
   0 C :    0.040755
   1 C :   -0.160968
   2 C :   -0.019195
   3 N :   -0.037506
   4 H :    0.114409
   5 H :    0.106798
   6 H :   -0.051189
   7 H :   -0.062358
   8 C :   -0.006614
   9 H :    0.022895
  10 H :    0.007842
  11 H :    0.001716
  12 H :    0.025597
  13 H :    0.017817
Sum of atomic charges:    0.0000000

LOEWDIN ATOMIC CHARGES
----------------------
   0 C :   -0.032547
   1 C :   -0.020476
   2 C :   -0.178558
   3 N :    0.009212
   4 H :    0.086849
   5 H :    0.075410
   6 H :   -0.004449
   7 H :   -0.011577
   8 C :   -0.058261
   9 H :    0.031392
  10 H :    0.035550
  11 H :    0.013681
  12 H :    0.027063
  13 H :    0.026711

  Mayer bond orders larger than 0.100000
B(  0-C ,  1-C ) :   1.0441 B(  0-C ,  8-C ) :   1.1033 B(  0-C ,  9-H ) :   0.9185
B(  0-C , 10-H ) :   0.9189 B(  1-C ,  2-C ) :   1.8249 B(  1-C ,  3-N ) :   1.2984
B(  2-C ,  6-H ) :   0.9256 B(  2-C ,  7-H ) :   0.9369 B(  3-N ,  4-H ) :   0.9388
B(  3-N ,  5-H ) :   0.9428 B(  8-C , 11-H ) :   0.9640 B(  8-C , 12-H ) :   0.9690
B(  8-C , 13-H ) :   0.9582

Dispersion correction           -0.010422149
FINAL SINGLE POINT ENERGY      -212.111425419508

DIPOLE MOMENT
-------------
                                X             Y             Z
Electronic contribution:     -2.03797      -1.15791      -1.02645
Nuclear contribution   :      2.41345       0.31141       1.16343
                        -----------------------------------------
Total Dipole Moment    :      0.37549      -0.84650       0.13699
                        -----------------------------------------
Magnitude (a.u.)       :      0.93612
Magnitude (Debye)      :      2.37942

Rotational constants in cm-1:     0.287957     0.129204     0.097498
Rotational constants in MHz :  8632.737925  3873.424745  2922.919500

                             ****ORCA TERMINATED NORMALLY****
TOTAL RUN TIME: 0 days 0 hours 0 minutes 8 seconds 539 msec
