                         Program Version 5.0.0 -  RELEASE  -
|  1> !PBE D3BJ RIJCOSX def2-SVP def2/J TightSCF
|  2> *xyz 0 1
|  3> C          5.55821       -1.99291       -6.21505
|  4> C          4.18188       -2.58967       -6.29891
|  5> N          3.14587       -1.76843       -6.48675
|  6> C          4.01910       -3.86431       -6.22743
|  7> H          4.76849       -4.59115       -5.99077
|  8> H          3.12241       -4.33339       -6.31462
|  9> H          3.28164       -0.77779       -6.56655
| 10> H          2.21255       -2.13419       -6.56225
| 11> C          6.41926       -2.54294       -5.07763
| 12> H          6.03683       -2.19819       -7.17685
| 13> H          5.46761       -0.90737       -6.12797
| 14> H          6.50056       -3.60553       -5.17358
| 15> H          5.96544       -2.30329       -4.13874
| 16> H          7.39438       -2.10494       -5.12457
| 17> *
| 18>
| 19> %MaxCore 64000
| 20>
| 21> %pal nprocs 4
| 22> end
| 23>
| 24> %scf
| 25>   MaxIter 150
| 26> end
| 27>
| 28>
| 29>                          ****END OF INPUT****

CARTESIAN COORDINATES (ANGSTROEM)
---------------------------------
  C      5.558210   -1.992910   -6.215050
  C      4.181880   -2.589670   -6.298910
  N      3.145870   -1.768430   -6.486750
  C      4.019100   -3.864310   -6.227430
  H      4.768490   -4.591150   -5.990770
  H      3.122410   -4.333390   -6.314620
  H      3.281640   -0.777790   -6.566550
  H      2.212550   -2.134190   -6.562250
  C      6.419260   -2.542940   -5.077630
  H      6.036830   -2.198190   -7.176850
  H      5.467610   -0.907370   -6.127970
  H      6.500560   -3.605530   -5.173580
  H      5.965440   -2.303290   -4.138740
  H      7.394380   -2.104940   -5.124570

 Total Charge           Charge          ....    0
 Multiplicity           Mult            ....    1
 Number of Electrons    NEL             ....   40
 Basis Dimension        Dim             ....  115

ORBITAL ENERGIES
----------------

  NO   OCC          E(Eh)            E(eV)
   0   2.0000     -13.989800      -380.6818
   1   2.0000      -9.903254      -269.4813
   2   2.0000      -9.891202      -269.1533
   3   2.0000      -9.876137      -268.7434
   4   2.0000      -9.824754      -267.3452
   5   2.0000      -0.827904       -22.5284
   6   2.0000      -0.697252       -18.9732
   7   2.0000      -0.630919       -17.1682
   8   2.0000      -0.567899       -15.4533
   9   2.0000      -0.493836       -13.4379
  10   2.0000      -0.464610       -12.6427
  11   2.0000      -0.427773       -11.6403
  12   2.0000      -0.393947       -10.7198
  13   2.0000      -0.364430        -9.9166
  14   2.0000      -0.335751        -9.1363
  15   2.0000      -0.320732        -8.7276
  16   2.0000      -0.303126        -8.2485
  17   2.0000      -0.287618        -7.8265
  18   2.0000      -0.275324        -7.4919
  19   2.0000      -0.150217        -4.0876
  20   0.0000       0.031493         0.8570
  21   0.0000       0.037207         1.0125
  22   0.0000       0.070629         1.9219
  23   0.0000       0.077551         2.1103
  24   0.0000       0.097802         2.6613

MULLIKEN ATOMIC CHARGES
-----------------------
   0 C :    0.034945
   1 C :   -0.100805
   2 N :   -0.041878
   3 C :   -0.095020
   4 H :   -0.017642
   5 H :   -0.052459
   6 H :    0.094595
   7 H :    0.099483
   8 C :   -0.000333
   9 H :    0.035299
  10 H :   -0.015750
  11 H :    0.028452
  12 H :    0.021071
  13 H :    0.010041
Sum of atomic charges:   -0.0000000

LOEWDIN ATOMIC CHARGES
----------------------
   0 C :   -0.034703
   1 C :   -0.013231
   2 N :    0.007222
   3 C :   -0.180406
   4 H :    0.013195
   5 H :   -0.006041
   6 H :    0.062182
   7 H :    0.070726
   8 C :   -0.048401
   9 H :    0.039004
  10 H :    0.017228
  11 H :    0.025333
  12 H :    0.025780
  13 H :    0.022111

  Mayer bond orders larger than 0.100000
B(  0-C ,  1-C ) :   1.0113 B(  0-C ,  8-C ) :   1.1229 B(  0-C ,  9-H ) :   0.9225
B(  0-C , 10-H ) :   0.9183 B(  1-C ,  2-N ) :   1.2790 B(  1-C ,  3-C ) :   1.8642
B(  2-N ,  6-H ) :   0.9472 B(  2-N ,  7-H ) :   0.9462 B(  3-C ,  4-H ) :   0.9433
B(  3-C ,  5-H ) :   0.9351 B(  8-C , 11-H ) :   0.9659 B(  8-C , 12-H ) :   0.9703
B(  8-C , 13-H ) :   0.9569

Dispersion correction           -0.010456189
FINAL SINGLE POINT ENERGY      -212.120087562886

DIPOLE MOMENT
-------------
                                X             Y             Z
Electronic contribution:     -2.87053       0.87399      -1.31335
Nuclear contribution   :      2.61570      -0.17401       1.22349
                        -----------------------------------------
Total Dipole Moment    :     -0.25483       0.69998      -0.08986
                        -----------------------------------------
Magnitude (a.u.)       :      0.75032
Magnitude (Debye)      :      1.90717

Rotational constants in cm-1:     0.298189     0.125314     0.096441
Rotational constants in MHz :  8939.495008  3756.825352  2891.223400

                             ****ORCA TERMINATED NORMALLY****
TOTAL RUN TIME: 0 days 0 hours 0 minutes 7 seconds 924 msec
