                         Program Version 5.0.0 -  RELEASE  -
|  1> !PBE D3BJ RIJCOSX def2-SVP def2/J TightSCF
|  2> *xyz 0 1
|  3> C          4.93020       -7.37532       -2.64962
|  4> C          3.84189       -6.95161       -3.63283
|  5> H          3.45814       -5.95442       -3.40712
|  6> H          2.98848       -7.64361       -3.56708
|  7> S          4.31812       -6.91593       -5.36869
|  8> O          5.40615       -5.89948       -5.51297
|  9> O          3.11191       -6.44508       -6.04379
| 10> F          4.76340       -8.23942       -5.69863
| 11> H          5.27901       -8.35440       -2.90385
| 12> H          4.53000       -7.38577       -1.65734
| 13> H          5.74437       -6.68276       -2.69856
| 14> *
| 15>
| 16> %MaxCore 64000
| 17>
| 18> %pal nprocs 4
| 19> end
| 20>
| 21> %scf
| 22>   MaxIter 150
| 23> end
| 24>
| 25>
| 26>                          ****END OF INPUT****

CARTESIAN COORDINATES (ANGSTROEM)
---------------------------------
  C      4.930200   -7.375320   -2.649620
  C      3.841890   -6.951610   -3.632830
  H      3.458140   -5.954420   -3.407120
  H      2.988480   -7.643610   -3.567080
  S      4.318120   -6.915930   -5.368690
  O      5.406150   -5.899480   -5.512970
  O      3.111910   -6.445080   -6.043790
  F      4.763400   -8.239420   -5.698630
  H      5.279010   -8.354400   -2.903850
  H      4.530000   -7.385770   -1.657340
  H      5.744370   -6.682760   -2.698560

 Total Charge           Charge          ....    0
 Multiplicity           Mult            ....    1
 Number of Electrons    NEL             ....   58
 Basis Dimension        Dim             ....  113

ORBITAL ENERGIES
----------------

  NO   OCC          E(Eh)            E(eV)
   0   2.0000     -88.281182     -2402.2531
   1   2.0000     -24.372898      -663.2203
   2   2.0000     -18.749689      -510.2050
   3   2.0000     -18.742714      -510.0152
   4   2.0000      -9.950868      -270.7769
   5   2.0000      -9.916252      -269.8349
   6   2.0000      -7.895067      -214.8357
   7   2.0000      -5.925943      -161.2531
   8   2.0000      -5.919034      -161.0651
   9   2.0000      -5.917781      -161.0310
  10   2.0000      -1.265369       -34.4324
  11   2.0000      -0.993922       -27.0460
  12   2.0000      -0.891366       -24.2553
  13   2.0000      -0.743876       -20.2419
  14   2.0000      -0.657162       -17.8823
  15   2.0000      -0.608927       -16.5697
  16   2.0000      -0.528881       -14.3916
  17   2.0000      -0.513758       -13.9801
  18   2.0000      -0.479686       -13.0529
  19   2.0000      -0.438636       -11.9359
  20   2.0000      -0.417004       -11.3472
  21   2.0000      -0.393734       -10.7140
  22   2.0000      -0.371408       -10.1065
  23   2.0000      -0.359183        -9.7739
  24   2.0000      -0.347133        -9.4460
  25   2.0000      -0.314230        -8.5506
  26   2.0000      -0.270227        -7.3533
  27   2.0000      -0.260313        -7.0835
  28   2.0000      -0.236296        -6.4299
  29   0.0000      -0.002708        -0.0737
  30   0.0000       0.027369         0.7447
  31   0.0000       0.045260         1.2316
  32   0.0000       0.059301         1.6137
  33   0.0000       0.067050         1.8245

MULLIKEN ATOMIC CHARGES
-----------------------
   0 C :   -0.003846
   1 C :   -0.151413
   2 H :    0.095692
   3 H :    0.068711
   4 S :    0.819170
   5 O :   -0.431333
   6 O :   -0.399916
   7 F :   -0.124066
   8 H :    0.030797
   9 H :    0.044104
  10 H :    0.052101
Sum of atomic charges:    0.0000000

LOEWDIN ATOMIC CHARGES
----------------------
   0 C :   -0.069543
   1 C :   -0.160921
   2 H :    0.054598
   3 H :    0.037570
   4 S :    1.088711
   5 O :   -0.496490
   6 O :   -0.463743
   7 F :   -0.090477
   8 H :    0.026922
   9 H :    0.038730
  10 H :    0.034643

  Mayer bond orders larger than 0.100000
B(  0-C ,  1-C ) :   1.0616 B(  0-C ,  8-H ) :   0.9685 B(  0-C ,  9-H ) :   0.9551
B(  0-C , 10-H ) :   0.9650 B(  1-C ,  2-H ) :   0.9294 B(  1-C ,  3-H ) :   0.9230
B(  1-C ,  4-S ) :   0.8931 B(  4-S ,  5-O ) :   1.7402 B(  4-S ,  6-O ) :   1.7733
B(  4-S ,  7-F ) :   1.0493

Dispersion correction           -0.009145551
FINAL SINGLE POINT ENERGY      -726.712525121959

DIPOLE MOMENT
-------------
                                X             Y             Z
Electronic contribution:      0.22072      -1.26125      -9.24848
Nuclear contribution   :     -0.31946       0.18980      10.55057
                        -----------------------------------------
Total Dipole Moment    :     -0.09874      -1.07145       1.30209
                        -----------------------------------------
Magnitude (a.u.)       :      1.68914
Magnitude (Debye)      :      4.29345

Rotational constants in cm-1:     0.151421     0.081183     0.078684
Rotational constants in MHz :  4539.489207  2433.790160  2358.892966

                             ****ORCA TERMINATED NORMALLY****
TOTAL RUN TIME: 0 days 0 hours 0 minutes 8 seconds 962 msec
