                         Program Version 5.0.0 -  RELEASE  -
|  1> !PBE D3BJ RIJCOSX def2-TZVP def2/J TightSCF xyzfile
|  2>
|  3> *xyzfile 0 1 D2.xyz
|  4>
|  5> %MaxCore 64000
|  6>
|  7> %pal nprocs 18
|  8> end
|  9>
| 10> %scf
| 11>   MaxIter 150
| 12> end
| 13>
| 14>
| 15>                          ****END OF INPUT****

CARTESIAN COORDINATES (ANGSTROEM)
---------------------------------
  C      5.558206   -1.992914   -6.215054
  C      4.930199   -7.375319   -2.649623
  C      3.841892   -6.951611   -3.632829
  H      3.458144   -5.954425   -3.407121
  H      2.988484   -7.643606   -3.567078
  S      4.318115   -6.915930   -5.368692
  C      4.181880   -2.589671   -6.298911
  N      3.145873   -1.768431   -6.486753
  C      4.019102   -3.864307   -6.227427
  H      4.768490   -4.591153   -5.990773
  H      3.122405   -4.333392   -6.314620
  H      3.281635   -0.777786   -6.566549
  H      2.212549   -2.134193   -6.562246
  F      5.406154   -5.899480   -5.512972
  O      3.111910   -6.445079   -6.043792
  C      6.419260   -2.542944   -5.077630
  C      5.872267   -5.002756   -2.427819
  C      6.173994   -6.485522   -2.606315
  H      6.734852   -6.613767   -3.534015
  H      6.821463   -6.831018   -1.793617
  H      4.469612   -7.406168   -1.655876
  H      5.230134   -8.398678   -2.885906
  C      5.896512   -2.169314   -3.694552
  H      7.428880   -2.143665   -5.208078
  H      6.505894   -3.627541   -5.175502
  C      6.807804   -2.623428   -2.551019
  H      4.894708   -2.589732   -3.557501
  H      5.778823   -1.081255   -3.635790
  C      7.111544   -4.122463   -2.520363
  H      7.751615   -2.071393   -2.614406
  H      6.345837   -2.326401   -1.604086
  H      5.362882   -4.828697   -1.471335
  H      5.174429   -4.702577   -3.211298
  H      7.778329   -4.329347   -1.677651
  H      7.673189   -4.402845   -3.417586
  O      4.763396   -8.239424   -5.698629
  H      6.036826   -2.198189   -7.176852
  H      5.467610   -0.907371   -6.127968

 Total Charge           Charge          ....    0
 Multiplicity           Mult            ....    1
 Number of Electrons    NEL             ....  136
 Basis Dimension        Dim             ....  634

ORBITAL ENERGIES
----------------

  NO   OCC          E(Eh)            E(eV)
   0   2.0000     -88.261218     -2401.7098
   1   2.0000     -24.348545      -662.5576
   2   2.0000     -18.760732      -510.5055
   3   2.0000     -18.749373      -510.1964
   4   2.0000     -13.974771      -380.2729
   5   2.0000      -9.933798      -270.3124
   6   2.0000      -9.903795      -269.4960
   7   2.0000      -9.889915      -269.1183
   8   2.0000      -9.886749      -269.0321
   9   2.0000      -9.882268      -268.9102
  10   2.0000      -9.878740      -268.8142
  11   2.0000      -9.876320      -268.7483
  12   2.0000      -9.876164      -268.7441
  13   2.0000      -9.875209      -268.7181
  14   2.0000      -9.871697      -268.6225
  15   2.0000      -9.792626      -266.4709
  16   2.0000      -7.857039      -213.8009
  17   2.0000      -5.881624      -160.0471
  18   2.0000      -5.874908      -159.8644
  19   2.0000      -5.874353      -159.8493
  20   2.0000      -1.241403       -33.7803
  21   2.0000      -1.018123       -27.7045
  22   2.0000      -0.929215       -25.2852
  23   2.0000      -0.836890       -22.7729
  24   2.0000      -0.763793       -20.7839
  25   2.0000      -0.740255       -20.1434
  26   2.0000      -0.713299       -19.4099
  27   2.0000      -0.686719       -18.6866
  28   2.0000      -0.652622       -17.7588
  29   2.0000      -0.642303       -17.4780
  30   2.0000      -0.617166       -16.7939
  31   2.0000      -0.593784       -16.1577
  32   2.0000      -0.559921       -15.2362
  33   2.0000      -0.543208       -14.7814
  34   2.0000      -0.524670       -14.2770
  35   2.0000      -0.504051       -13.7159
  36   2.0000      -0.501595       -13.6491
  37   2.0000      -0.485963       -13.2237
  38   2.0000      -0.482909       -13.1406
  39   2.0000      -0.462068       -12.5735
  40   2.0000      -0.442701       -12.0465
  41   2.0000      -0.437329       -11.9003
  42   2.0000      -0.432637       -11.7727
  43   2.0000      -0.417426       -11.3587
  44   2.0000      -0.407118       -11.0782
  45   2.0000      -0.403667       -10.9843
  46   2.0000      -0.397230       -10.8092
  47   2.0000      -0.387045       -10.5320
  48   2.0000      -0.370632       -10.0854
  49   2.0000      -0.366344        -9.9687
  50   2.0000      -0.359143        -9.7728
  51   2.0000      -0.355074        -9.6620
  52   2.0000      -0.330990        -9.0067
  53   2.0000      -0.328484        -8.9385
  54   2.0000      -0.322878        -8.7859
  55   2.0000      -0.317543        -8.6408
  56   2.0000      -0.308032        -8.3820
  57   2.0000      -0.304736        -8.2923
  58   2.0000      -0.296235        -8.0610
  59   2.0000      -0.292968        -7.9721
  60   2.0000      -0.288027        -7.8376
  61   2.0000      -0.283213        -7.7066
  62   2.0000      -0.277745        -7.5578
  63   2.0000      -0.276335        -7.5195
  64   2.0000      -0.272631        -7.4187
  65   2.0000      -0.266774        -7.2593
  66   2.0000      -0.257750        -7.0137
  67   2.0000      -0.151969        -4.1353
  68   0.0000      -0.020200        -0.5497
  69   0.0000       0.008709         0.2370
  70   0.0000       0.012426         0.3381
  71   0.0000       0.015113         0.4112
  72   0.0000       0.021598         0.5877

MULLIKEN ATOMIC CHARGES
-----------------------
   0 C :   -0.117276
   1 C :   -0.141674
   2 C :   -0.291197
   3 H :    0.163703
   4 H :    0.160298
   5 S :    0.732467
   6 C :    0.174615
   7 N :   -0.402051
   8 C :   -0.497097
   9 H :    0.133463
  10 H :    0.108487
  11 H :    0.207813
  12 H :    0.211618
  13 F :   -0.081979
  14 O :   -0.369331
  15 C :   -0.235839
  16 C :   -0.274684
  17 C :   -0.198323
  18 H :    0.109359
  19 H :    0.100137
  20 H :    0.100540
  21 H :    0.127148
  22 C :   -0.208959
  23 H :    0.083358
  24 H :    0.099106
  25 C :   -0.108594
  26 H :    0.124873
  27 H :    0.081150
  28 C :   -0.167024
  29 H :    0.089705
  30 H :    0.083885
  31 H :    0.087277
  32 H :    0.097278
  33 H :    0.090129
  34 H :    0.101114
  35 O :   -0.351516
  36 H :    0.109805
  37 H :    0.068217
Sum of atomic charges:    0.0000000

LOEWDIN ATOMIC CHARGES
----------------------
   0 C :   -0.216437
   1 C :   -0.289670
   2 C :   -0.376044
   3 H :    0.143452
   4 H :    0.156428
   5 S :    0.509453
   6 C :   -0.381420
   7 N :    0.006634
   8 C :   -0.311539
   9 H :    0.097296
  10 H :    0.103277
  11 H :    0.156585
  12 H :    0.165272
  13 F :    0.083479
  14 O :   -0.229970
  15 C :   -0.260742
  16 C :   -0.275847
  17 C :   -0.277490
  18 H :    0.136604
  19 H :    0.141895
  20 H :    0.146972
  21 H :    0.146632
  22 C :   -0.270960
  23 H :    0.137660
  24 H :    0.135888
  25 C :   -0.270927
  26 H :    0.140426
  27 H :    0.137162
  28 C :   -0.272093
  29 H :    0.137744
  30 H :    0.137065
  31 H :    0.137887
  32 H :    0.135569
  33 H :    0.137393
  34 H :    0.138166
  35 O :   -0.224113
  36 H :    0.152358
  37 H :    0.135954

  Mayer bond orders larger than 0.100000
B(  0-C ,  6-C ) :   0.9767 B(  0-C , 15-C ) :   1.0034 B(  0-C , 36-H ) :   0.9357
B(  0-C , 37-H ) :   0.9432 B(  1-C ,  2-C ) :   0.9749 B(  1-C , 17-C ) :   1.0167
B(  1-C , 20-H ) :   0.9287 B(  1-C , 21-H ) :   0.9456 B(  2-C ,  3-H ) :   0.9296
B(  2-C ,  4-H ) :   0.9287 B(  2-C ,  5-S ) :   0.8970 B(  5-S , 13-F ) :   1.0718
B(  5-S , 14-O ) :   1.9136 B(  5-S , 35-O ) :   1.9969 B(  6-C ,  7-N ) :   1.1872
B(  6-C ,  8-C ) :   1.7653 B(  7-N , 11-H ) :   0.9190 B(  7-N , 12-H ) :   0.9130
B(  8-C ,  9-H ) :   0.9923 B(  8-C , 10-H ) :   0.9532 B( 15-C , 22-C ) :   1.0053
B( 15-C , 23-H ) :   0.9378 B( 15-C , 24-H ) :   0.9634 B( 16-C , 17-C ) :   0.9756
B( 16-C , 28-C ) :   1.0157 B( 16-C , 31-H ) :   0.9429 B( 16-C , 32-H ) :   0.9631
B( 17-C , 18-H ) :   0.9605 B( 17-C , 19-H ) :   0.9486 B( 22-C , 25-C ) :   1.0052
B( 22-C , 26-H ) :   0.9620 B( 22-C , 27-H ) :   0.9420 B( 25-C , 28-C ) :   0.9982
B( 25-C , 29-H ) :   0.9478 B( 25-C , 30-H ) :   0.9497 B( 28-C , 33-H ) :   0.9448
B( 28-C , 34-H ) :   0.9566

Dispersion correction           -0.046115131
FINAL SINGLE POINT ENERGY     -1134.842167476408

DIPOLE MOMENT
-------------
                                X             Y             Z
Electronic contribution:     -7.81049     -16.94059     -13.76064
Nuclear contribution   :      7.91684      17.85507      15.13212
                        -----------------------------------------
Total Dipole Moment    :      0.10635       0.91448       1.37147
                        -----------------------------------------
Magnitude (a.u.)       :      1.65182
Magnitude (Debye)      :      4.19860

Rotational constants in cm-1:     0.018015     0.012410     0.008313
Rotational constants in MHz :   540.084467   372.038374   249.228144

                             ****ORCA TERMINATED NORMALLY****
TOTAL RUN TIME: 0 days 0 hours 0 minutes 30 seconds 976 msec
