                         Program Version 5.0.0 -  RELEASE  -
|  1> !PBE D3BJ RIJCOSX def2-TZVP def2/J TightSCF xyzfile
|  2>
|  3> *xyzfile 0 1 D3.xyz
|  4>
|  5> %MaxCore 64000
|  6>
|  7> %pal nprocs 18
|  8> end
|  9>
| 10> %scf
| 11>   MaxIter 150
| 12> end
| 13>
| 14>
| 15>                          ****END OF INPUT****

CARTESIAN COORDINATES (ANGSTROEM)
---------------------------------
  C      5.558206   -1.992914   -6.215054
  C      4.930199   -7.375319   -2.649623
  C      3.841892   -6.951611   -3.632829
  H      3.458144   -5.954425   -3.407121
  H      2.988484   -7.643606   -3.567078
  S      4.318115   -6.915930   -5.368692
  C      4.181880   -2.589671   -6.298911
  C      3.145873   -1.768431   -6.486753
  N      4.019102   -3.864307   -6.227427
  H      4.768490   -4.591153   -5.990773
  H      3.122405   -4.333392   -6.314620
  H      3.281635   -0.777786   -6.566549
  H      2.212549   -2.134193   -6.562246
  O      5.406154   -5.899480   -5.512972
  F      3.111910   -6.445079   -6.043792
  C      6.419260   -2.542944   -5.077630
  C      5.872267   -5.002756   -2.427819
  C      6.173994   -6.485522   -2.606315
  H      6.734852   -6.613767   -3.534015
  H      6.821463   -6.831018   -1.793617
  H      4.469612   -7.406168   -1.655876
  H      5.230134   -8.398678   -2.885906
  C      5.896512   -2.169314   -3.694552
  H      7.428880   -2.143665   -5.208078
  H      6.505894   -3.627541   -5.175502
  C      6.807804   -2.623428   -2.551019
  H      4.894708   -2.589732   -3.557501
  H      5.778823   -1.081255   -3.635790
  C      7.111544   -4.122463   -2.520363
  H      7.751615   -2.071393   -2.614406
  H      6.345837   -2.326401   -1.604086
  H      5.362882   -4.828697   -1.471335
  H      5.174429   -4.702577   -3.211298
  H      7.778329   -4.329347   -1.677651
  H      7.673189   -4.402845   -3.417586
  O      4.763396   -8.239424   -5.698629
  H      6.036826   -2.198189   -7.176852
  H      5.467610   -0.907371   -6.127968

 Total Charge           Charge          ....    0
 Multiplicity           Mult            ....    1
 Number of Electrons    NEL             ....  136
 Basis Dimension        Dim             ....  634

ORBITAL ENERGIES
----------------

  NO   OCC          E(Eh)            E(eV)
   0   2.0000     -88.293553     -2402.5897
   1   2.0000     -24.388838      -663.6540
   2   2.0000     -18.786971      -511.2195
   3   2.0000     -18.781264      -511.0642
   4   2.0000     -13.955899      -379.7593
   5   2.0000      -9.955273      -270.8967
   6   2.0000      -9.918567      -269.8979
   7   2.0000      -9.889589      -269.1094
   8   2.0000      -9.880229      -268.8547
   9   2.0000      -9.880150      -268.8526
  10   2.0000      -9.874646      -268.7028
  11   2.0000      -9.871083      -268.6058
  12   2.0000      -9.865584      -268.4562
  13   2.0000      -9.865206      -268.4459
  14   2.0000      -9.864484      -268.4263
  15   2.0000      -9.791953      -266.4526
  16   2.0000      -7.889308      -214.6790
  17   2.0000      -5.913657      -160.9188
  18   2.0000      -5.907298      -160.7458
  19   2.0000      -5.906713      -160.7298
  20   2.0000      -1.287860       -35.0444
  21   2.0000      -1.042562       -28.3696
  22   2.0000      -0.952243       -25.9118
  23   2.0000      -0.830806       -22.6074
  24   2.0000      -0.775421       -21.1003
  25   2.0000      -0.738444       -20.0941
  26   2.0000      -0.715270       -19.4635
  27   2.0000      -0.689160       -18.7530
  28   2.0000      -0.668391       -18.1878
  29   2.0000      -0.641172       -17.4472
  30   2.0000      -0.622138       -16.9292
  31   2.0000      -0.589837       -16.0503
  32   2.0000      -0.559008       -15.2114
  33   2.0000      -0.544605       -14.8194
  34   2.0000      -0.539846       -14.6900
  35   2.0000      -0.529835       -14.4175
  36   2.0000      -0.517942       -14.0939
  37   2.0000      -0.502862       -13.6836
  38   2.0000      -0.494270       -13.4498
  39   2.0000      -0.466398       -12.6913
  40   2.0000      -0.454242       -12.3606
  41   2.0000      -0.444853       -12.1051
  42   2.0000      -0.429687       -11.6924
  43   2.0000      -0.416481       -11.3330
  44   2.0000      -0.410804       -11.1785
  45   2.0000      -0.406914       -11.0727
  46   2.0000      -0.397149       -10.8070
  47   2.0000      -0.384969       -10.4755
  48   2.0000      -0.376256       -10.2385
  49   2.0000      -0.370395       -10.0790
  50   2.0000      -0.365027        -9.9329
  51   2.0000      -0.358132        -9.7453
  52   2.0000      -0.346576        -9.4308
  53   2.0000      -0.335772        -9.1368
  54   2.0000      -0.328436        -8.9372
  55   2.0000      -0.319939        -8.7060
  56   2.0000      -0.316663        -8.6168
  57   2.0000      -0.311800        -8.4845
  58   2.0000      -0.307377        -8.3642
  59   2.0000      -0.295870        -8.0510
  60   2.0000      -0.291473        -7.9314
  61   2.0000      -0.286282        -7.7901
  62   2.0000      -0.283502        -7.7145
  63   2.0000      -0.274570        -7.4714
  64   2.0000      -0.269698        -7.3389
  65   2.0000      -0.262239        -7.1359
  66   2.0000      -0.258394        -7.0313
  67   2.0000      -0.137266        -3.7352
  68   0.0000      -0.035821        -0.9747
  69   0.0000      -0.012478        -0.3395
  70   0.0000       0.009032         0.2458
  71   0.0000       0.013633         0.3710
  72   0.0000       0.019110         0.5200

MULLIKEN ATOMIC CHARGES
-----------------------
   0 C :   -0.112402
   1 C :   -0.158237
   2 C :   -0.285925
   3 H :    0.162243
   4 H :    0.153498
   5 S :    0.745318
   6 C :    0.143303
   7 C :   -0.447906
   8 N :   -0.417455
   9 H :    0.265407
  10 H :    0.187758
  11 H :    0.088425
  12 H :    0.071291
  13 O :   -0.399048
  14 F :   -0.070098
  15 C :   -0.261834
  16 C :   -0.252644
  17 C :   -0.182751
  18 H :    0.127635
  19 H :    0.097829
  20 H :    0.112277
  21 H :    0.129953
  22 C :   -0.203165
  23 H :    0.083656
  24 H :    0.127609
  25 C :   -0.110481
  26 H :    0.115112
  27 H :    0.085083
  28 C :   -0.177027
  29 H :    0.088787
  30 H :    0.081713
  31 H :    0.083844
  32 H :    0.084551
  33 H :    0.086969
  34 H :    0.106400
  35 O :   -0.330737
  36 H :    0.094299
  37 H :    0.086754
Sum of atomic charges:   -0.0000000

LOEWDIN ATOMIC CHARGES
----------------------
   0 C :   -0.214195
   1 C :   -0.277333
   2 C :   -0.380172
   3 H :    0.143157
   4 H :    0.147348
   5 S :    0.515762
   6 C :   -0.391384
   7 C :   -0.297698
   8 N :   -0.005912
   9 H :    0.143684
  10 H :    0.152133
  11 H :    0.096673
  12 H :    0.089927
  13 O :   -0.247373
  14 F :    0.106012
  15 C :   -0.270108
  16 C :   -0.274897
  17 C :   -0.273700
  18 H :    0.143605
  19 H :    0.141334
  20 H :    0.152105
  21 H :    0.148652
  22 C :   -0.269635
  23 H :    0.137749
  24 H :    0.137228
  25 C :   -0.271159
  26 H :    0.139147
  27 H :    0.139455
  28 C :   -0.270899
  29 H :    0.137777
  30 H :    0.136164
  31 H :    0.135701
  32 H :    0.134430
  33 H :    0.136370
  34 H :    0.140468
  35 O :   -0.206374
  36 H :    0.146606
  37 H :    0.149351

  Mayer bond orders larger than 0.100000
B(  0-C ,  6-C ) :   1.0159 B(  0-C , 15-C ) :   0.9822 B(  0-C , 36-H ) :   0.9305
B(  0-C , 37-H ) :   0.9534 B(  1-C ,  2-C ) :   0.9900 B(  1-C , 17-C ) :   1.0238
B(  1-C , 20-H ) :   0.9290 B(  1-C , 21-H ) :   0.9444 B(  2-C ,  3-H ) :   0.9206
B(  2-C ,  4-H ) :   0.9208 B(  2-C ,  5-S ) :   0.9088 B(  5-S , 13-O ) :   1.7358
B(  5-S , 14-F ) :   1.1409 B(  5-S , 35-O ) :   2.0178 B(  6-C ,  7-C ) :   1.7109
B(  6-C ,  8-N ) :   1.2838 B(  7-C , 11-H ) :   0.9815 B(  7-C , 12-H ) :   0.9760
B(  8-N ,  9-H ) :   0.7992 B(  8-N , 10-H ) :   0.9082 B(  9-H , 13-O ) :   0.1273
B( 15-C , 22-C ) :   0.9962 B( 15-C , 23-H ) :   0.9382 B( 15-C , 24-H ) :   0.9679
B( 16-C , 17-C ) :   0.9845 B( 16-C , 28-C ) :   1.0271 B( 16-C , 31-H ) :   0.9445
B( 16-C , 32-H ) :   0.9517 B( 17-C , 18-H ) :   0.9503 B( 17-C , 19-H ) :   0.9499
B( 22-C , 25-C ) :   1.0027 B( 22-C , 26-H ) :   0.9661 B( 22-C , 27-H ) :   0.9428
B( 25-C , 28-C ) :   0.9965 B( 25-C , 29-H ) :   0.9472 B( 25-C , 30-H ) :   0.9496
B( 28-C , 33-H ) :   0.9442 B( 28-C , 34-H ) :   0.9572

Dispersion correction           -0.046164624
FINAL SINGLE POINT ENERGY     -1134.847802284047

DIPOLE MOMENT
-------------
                                X             Y             Z
Electronic contribution:    -10.94452     -20.09504     -14.31051
Nuclear contribution   :     10.48431      18.81367      15.71750
                        -----------------------------------------
Total Dipole Moment    :     -0.46021      -1.28137       1.40699
                        -----------------------------------------
Magnitude (a.u.)       :      1.95789
Magnitude (Debye)      :      4.97657

Rotational constants in cm-1:     0.017977     0.012528     0.008321
Rotational constants in MHz :   538.924099   375.570730   249.458530

                             ****ORCA TERMINATED NORMALLY****
TOTAL RUN TIME: 0 days 0 hours 0 minutes 35 seconds 998 msec
