                         Program Version 5.0.0 -  RELEASE  -
|  1> !PBE D3BJ RIJCOSX def2-TZVP def2/J TightSCF xyzfile
|  2>
|  3> *xyzfile 0 1 D5.xyz
|  4>
|  5> %MaxCore 64000
|  6>
|  7> %pal nprocs 18
|  8> end
|  9>
| 10> %scf
| 11>   MaxIter 150
| 12> end
| 13>
| 14>
| 15>                          ****END OF INPUT****

CARTESIAN COORDINATES (ANGSTROEM)
---------------------------------
  C      5.558206   -1.992914   -6.215054
  C      4.930199   -7.375319   -2.649623
  C      3.841892   -6.951611   -3.632829
  H      3.458144   -5.954425   -3.407121
  H      2.988484   -7.643606   -3.567078
  S      4.318115   -6.915930   -5.368692
  C      4.181880   -2.589671   -6.298911
  C      3.145873   -1.768431   -6.486753
  N      4.019102   -3.864307   -6.227427
  H      4.768490   -4.591153   -5.990773
  H      3.122405   -4.333392   -6.314620
  H      3.281635   -0.777786   -6.566549
  H      2.212549   -2.134193   -6.562246
  O      5.406154   -5.899480   -5.512972
  O      3.111910   -6.445079   -6.043792
  C      6.419260   -2.542944   -5.077630
  C      5.872267   -5.002756   -2.427819
  C      6.173994   -6.485522   -2.606315
  H      6.734852   -6.613767   -3.534015
  H      6.821463   -6.831018   -1.793617
  H      4.469612   -7.406168   -1.655876
  H      5.230134   -8.398678   -2.885906
  C      5.896512   -2.169314   -3.694552
  H      7.428880   -2.143665   -5.208078
  H      6.505894   -3.627541   -5.175502
  C      6.807804   -2.623428   -2.551019
  H      4.894708   -2.589732   -3.557501
  H      5.778823   -1.081255   -3.635790
  C      7.111544   -4.122463   -2.520363
  H      7.751615   -2.071393   -2.614406
  H      6.345837   -2.326401   -1.604086
  H      5.362882   -4.828697   -1.471335
  H      5.174429   -4.702577   -3.211298
  H      7.778329   -4.329347   -1.677651
  H      7.673189   -4.402845   -3.417586
  F      4.763396   -8.239424   -5.698629
  H      6.036826   -2.198189   -7.176852
  H      5.467610   -0.907371   -6.127968

 Total Charge           Charge          ....    0
 Multiplicity           Mult            ....    1
 Number of Electrons    NEL             ....  136
 Basis Dimension        Dim             ....  634

ORBITAL ENERGIES
----------------

  NO   OCC          E(Eh)            E(eV)
   0   2.0000     -88.297469     -2402.6963
   1   2.0000     -24.400506      -663.9715
   2   2.0000     -18.782960      -511.1103
   3   2.0000     -18.782022      -511.0848
   4   2.0000     -13.940344      -379.3360
   5   2.0000      -9.956602      -270.9329
   6   2.0000      -9.920396      -269.9477
   7   2.0000      -9.892910      -269.1998
   8   2.0000      -9.881137      -268.8794
   9   2.0000      -9.874669      -268.7034
  10   2.0000      -9.869533      -268.5637
  11   2.0000      -9.869015      -268.5496
  12   2.0000      -9.861836      -268.3542
  13   2.0000      -9.861464      -268.3441
  14   2.0000      -9.857397      -268.2334
  15   2.0000      -9.781096      -266.1571
  16   2.0000      -7.892967      -214.7785
  17   2.0000      -5.917285      -161.0175
  18   2.0000      -5.911110      -160.8495
  19   2.0000      -5.910259      -160.8263
  20   2.0000      -1.306158       -35.5424
  21   2.0000      -1.037643       -28.2357
  22   2.0000      -0.944788       -25.7090
  23   2.0000      -0.816612       -22.2211
  24   2.0000      -0.778828       -21.1930
  25   2.0000      -0.737687       -20.0735
  26   2.0000      -0.713652       -19.4195
  27   2.0000      -0.687612       -18.7109
  28   2.0000      -0.669792       -18.2260
  29   2.0000      -0.640198       -17.4207
  30   2.0000      -0.618261       -16.8237
  31   2.0000      -0.587599       -15.9894
  32   2.0000      -0.563379       -15.3303
  33   2.0000      -0.551096       -14.9961
  34   2.0000      -0.543581       -14.7916
  35   2.0000      -0.531954       -14.4752
  36   2.0000      -0.514508       -14.0005
  37   2.0000      -0.498763       -13.5720
  38   2.0000      -0.489197       -13.3117
  39   2.0000      -0.458834       -12.4855
  40   2.0000      -0.455902       -12.4057
  41   2.0000      -0.450448       -12.2573
  42   2.0000      -0.430287       -11.7087
  43   2.0000      -0.414402       -11.2764
  44   2.0000      -0.412329       -11.2200
  45   2.0000      -0.402880       -10.9629
  46   2.0000      -0.391034       -10.6406
  47   2.0000      -0.384429       -10.4608
  48   2.0000      -0.374991       -10.2040
  49   2.0000      -0.372172       -10.1273
  50   2.0000      -0.357354        -9.7241
  51   2.0000      -0.352998        -9.6056
  52   2.0000      -0.346925        -9.4403
  53   2.0000      -0.331778        -9.0282
  54   2.0000      -0.322101        -8.7648
  55   2.0000      -0.315909        -8.5963
  56   2.0000      -0.313105        -8.5200
  57   2.0000      -0.306077        -8.3288
  58   2.0000      -0.303059        -8.2467
  59   2.0000      -0.296461        -8.0671
  60   2.0000      -0.288385        -7.8474
  61   2.0000      -0.282719        -7.6932
  62   2.0000      -0.280009        -7.6194
  63   2.0000      -0.272580        -7.4173
  64   2.0000      -0.266713        -7.2576
  65   2.0000      -0.256069        -6.9680
  66   2.0000      -0.251475        -6.8430
  67   2.0000      -0.125238        -3.4079
  68   0.0000      -0.041393        -1.1264
  69   0.0000      -0.011887        -0.3235
  70   0.0000      -0.000271        -0.0074
  71   0.0000       0.009497         0.2584
  72   0.0000       0.019156         0.5213

MULLIKEN ATOMIC CHARGES
-----------------------
   0 C :   -0.112789
   1 C :   -0.175398
   2 C :   -0.290433
   3 H :    0.180543
   4 H :    0.157561
   5 S :    0.751717
   6 C :    0.141782
   7 C :   -0.457608
   8 N :   -0.395629
   9 H :    0.252626
  10 H :    0.215739
  11 H :    0.084341
  12 H :    0.073929
  13 O :   -0.401321
  14 O :   -0.370201
  15 C :   -0.260980
  16 C :   -0.249272
  17 C :   -0.170419
  18 H :    0.113022
  19 H :    0.098987
  20 H :    0.112839
  21 H :    0.118663
  22 C :   -0.203519
  23 H :    0.080940
  24 H :    0.122516
  25 C :   -0.110181
  26 H :    0.117912
  27 H :    0.084765
  28 C :   -0.178088
  29 H :    0.087916
  30 H :    0.081428
  31 H :    0.085878
  32 H :    0.088900
  33 H :    0.086329
  34 H :    0.105496
  35 F :   -0.042773
  36 H :    0.090624
  37 H :    0.084158
Sum of atomic charges:   -0.0000000

LOEWDIN ATOMIC CHARGES
----------------------
   0 C :   -0.215755
   1 C :   -0.290612
   2 C :   -0.373706
   3 H :    0.155890
   4 H :    0.148806
   5 S :    0.514884
   6 C :   -0.393605
   7 C :   -0.304393
   8 N :    0.007091
   9 H :    0.147735
  10 H :    0.163606
  11 H :    0.095121
  12 H :    0.090496
  13 O :   -0.252385
  14 O :   -0.235582
  15 C :   -0.271123
  16 C :   -0.273883
  17 C :   -0.277762
  18 H :    0.138925
  19 H :    0.140872
  20 H :    0.150822
  21 H :    0.140777
  22 C :   -0.269349
  23 H :    0.136651
  24 H :    0.135990
  25 C :   -0.271397
  26 H :    0.140097
  27 H :    0.139599
  28 C :   -0.271167
  29 H :    0.137589
  30 H :    0.136004
  31 H :    0.136389
  32 H :    0.136130
  33 H :    0.135878
  34 H :    0.140115
  35 F :    0.137495
  36 H :    0.145354
  37 H :    0.148405

  Mayer bond orders larger than 0.100000
B(  0-C ,  6-C ) :   1.0160 B(  0-C , 15-C ) :   0.9824 B(  0-C , 36-H ) :   0.9309
B(  0-C , 37-H ) :   0.9529 B(  1-C ,  2-C ) :   0.9750 B(  1-C , 17-C ) :   0.9990
B(  1-C , 20-H ) :   0.9299 B(  1-C , 21-H ) :   0.9548 B(  2-C ,  3-H ) :   0.9252
B(  2-C ,  4-H ) :   0.9289 B(  2-C ,  5-S ) :   0.9068 B(  5-S , 13-O ) :   1.7536
B(  5-S , 14-O ) :   1.9159 B(  5-S , 35-F ) :   1.1986 B(  6-C ,  7-C ) :   1.6986
B(  6-C ,  8-N ) :   1.2954 B(  7-C , 11-H ) :   0.9807 B(  7-C , 12-H ) :   0.9750
B(  8-N ,  9-H ) :   0.8223 B(  8-N , 10-H ) :   0.8990 B(  9-H , 13-O ) :   0.1183
B( 15-C , 22-C ) :   0.9969 B( 15-C , 23-H ) :   0.9382 B( 15-C , 24-H ) :   0.9681
B( 16-C , 17-C ) :   0.9791 B( 16-C , 28-C ) :   1.0259 B( 16-C , 31-H ) :   0.9453
B( 16-C , 32-H ) :   0.9521 B( 17-C , 18-H ) :   0.9531 B( 17-C , 19-H ) :   0.9490
B( 22-C , 25-C ) :   1.0010 B( 22-C , 26-H ) :   0.9667 B( 22-C , 27-H ) :   0.9429
B( 25-C , 28-C ) :   0.9983 B( 25-C , 29-H ) :   0.9469 B( 25-C , 30-H ) :   0.9498
B( 28-C , 33-H ) :   0.9443 B( 28-C , 34-H ) :   0.9567

Dispersion correction           -0.046251104
FINAL SINGLE POINT ENERGY     -1134.839607481099

DIPOLE MOMENT
-------------
                                X             Y             Z
Electronic contribution:     -8.11875     -23.35268     -13.72042
Nuclear contribution   :      8.54118      20.92489      15.31138
                        -----------------------------------------
Total Dipole Moment    :      0.42243      -2.42779       1.59096
                        -----------------------------------------
Magnitude (a.u.)       :      2.93322
Magnitude (Debye)      :      7.45564

Rotational constants in cm-1:     0.018156     0.012306     0.008278
Rotational constants in MHz :   544.309022   368.914527   248.178402

                             ****ORCA TERMINATED NORMALLY****
TOTAL RUN TIME: 0 days 0 hours 0 minutes 25 seconds 530 msec
