                         Program Version 5.0.0 -  RELEASE  -
|  1> !PBE D3BJ RIJCOSX def2-TZVP def2/J TightSCF xyzfile
|  2>
|  3> *xyzfile 0 1 D6.xyz
|  4>
|  5> %MaxCore 64000
|  6>
|  7> %pal nprocs 18
|  8> end
|  9>
| 10> %scf
| 11>   MaxIter 150
| 12> end
| 13>
| 14>
| 15>                          ****END OF INPUT****

CARTESIAN COORDINATES (ANGSTROEM)
---------------------------------
  C      5.558206   -1.992914   -6.215054
  C      4.930199   -7.375319   -2.649623
  C      3.841892   -6.951611   -3.632829
  H      3.458144   -5.954425   -3.407121
  H      2.988484   -7.643606   -3.567078
  S      4.318115   -6.915930   -5.368692
  C      4.181880   -2.589671   -6.298911
  N      3.145873   -1.768431   -6.486753
  C      4.019102   -3.864307   -6.227427
  H      4.768490   -4.591153   -5.990773
  H      3.122405   -4.333392   -6.314620
  H      3.281635   -0.777786   -6.566549
  H      2.212549   -2.134193   -6.562246
  O      5.406154   -5.899480   -5.512972
  O      3.111910   -6.445079   -6.043792
  C      6.419260   -2.542944   -5.077630
  C      5.872267   -5.002756   -2.427819
  C      6.173994   -6.485522   -2.606315
  H      6.734852   -6.613767   -3.534015
  H      6.821463   -6.831018   -1.793617
  H      4.469612   -7.406168   -1.655876
  H      5.230134   -8.398678   -2.885906
  C      5.896512   -2.169314   -3.694552
  H      7.428880   -2.143665   -5.208078
  H      6.505894   -3.627541   -5.175502
  C      6.807804   -2.623428   -2.551019
  H      4.894708   -2.589732   -3.557501
  H      5.778823   -1.081255   -3.635790
  C      7.111544   -4.122463   -2.520363
  H      7.751615   -2.071393   -2.614406
  H      6.345837   -2.326401   -1.604086
  H      5.362882   -4.828697   -1.471335
  H      5.174429   -4.702577   -3.211298
  H      7.778329   -4.329347   -1.677651
  H      7.673189   -4.402845   -3.417586
  F      4.763396   -8.239424   -5.698629
  H      6.036826   -2.198189   -7.176852
  H      5.467610   -0.907371   -6.127968

 Total Charge           Charge          ....    0
 Multiplicity           Mult            ....    1
 Number of Electrons    NEL             ....  136
 Basis Dimension        Dim             ....  634

ORBITAL ENERGIES
----------------

  NO   OCC          E(Eh)            E(eV)
   0   2.0000     -88.271240     -2401.9826
   1   2.0000     -24.377439      -663.3438
   2   2.0000     -18.756509      -510.3906
   3   2.0000     -18.753921      -510.3201
   4   2.0000     -13.959274      -379.8512
   5   2.0000      -9.938437      -270.4386
   6   2.0000      -9.907103      -269.5860
   7   2.0000      -9.881537      -268.8903
   8   2.0000      -9.871382      -268.6140
   9   2.0000      -9.868102      -268.5247
  10   2.0000      -9.867996      -268.5218
  11   2.0000      -9.865745      -268.4606
  12   2.0000      -9.861143      -268.3353
  13   2.0000      -9.859097      -268.2797
  14   2.0000      -9.858508      -268.2637
  15   2.0000      -9.769130      -265.8315
  16   2.0000      -7.866730      -214.0646
  17   2.0000      -5.891147      -160.3063
  18   2.0000      -5.884598      -160.1281
  19   2.0000      -5.884202      -160.1173
  20   2.0000      -1.283450       -34.9245
  21   2.0000      -1.010658       -27.5014
  22   2.0000      -0.917371       -24.9629
  23   2.0000      -0.821154       -22.3447
  24   2.0000      -0.763243       -20.7689
  25   2.0000      -0.730921       -19.8894
  26   2.0000      -0.704556       -19.1719
  27   2.0000      -0.682518       -18.5723
  28   2.0000      -0.655838       -17.8462
  29   2.0000      -0.634562       -17.2673
  30   2.0000      -0.610838       -16.6218
  31   2.0000      -0.583001       -15.8643
  32   2.0000      -0.553279       -15.0555
  33   2.0000      -0.540124       -14.6975
  34   2.0000      -0.528037       -14.3686
  35   2.0000      -0.519692       -14.1415
  36   2.0000      -0.499091       -13.5809
  37   2.0000      -0.489383       -13.3168
  38   2.0000      -0.473997       -12.8981
  39   2.0000      -0.452443       -12.3116
  40   2.0000      -0.443168       -12.0592
  41   2.0000      -0.436146       -11.8681
  42   2.0000      -0.421376       -11.4662
  43   2.0000      -0.413001       -11.2383
  44   2.0000      -0.408020       -11.1028
  45   2.0000      -0.398302       -10.8384
  46   2.0000      -0.393465       -10.7067
  47   2.0000      -0.374013       -10.1774
  48   2.0000      -0.368237       -10.0202
  49   2.0000      -0.363384        -9.8882
  50   2.0000      -0.361744        -9.8436
  51   2.0000      -0.346380        -9.4255
  52   2.0000      -0.327959        -8.9242
  53   2.0000      -0.321793        -8.7564
  54   2.0000      -0.312380        -8.5003
  55   2.0000      -0.303229        -8.2513
  56   2.0000      -0.300356        -8.1731
  57   2.0000      -0.296777        -8.0757
  58   2.0000      -0.287163        -7.8141
  59   2.0000      -0.281048        -7.6477
  60   2.0000      -0.275917        -7.5081
  61   2.0000      -0.274766        -7.4768
  62   2.0000      -0.272689        -7.4202
  63   2.0000      -0.265363        -7.2209
  64   2.0000      -0.259343        -7.0571
  65   2.0000      -0.252893        -6.8816
  66   2.0000      -0.225055        -6.1241
  67   2.0000      -0.133716        -3.6386
  68   0.0000      -0.018926        -0.5150
  69   0.0000       0.005635         0.1533
  70   0.0000       0.018623         0.5068
  71   0.0000       0.023223         0.6319
  72   0.0000       0.025095         0.6829

MULLIKEN ATOMIC CHARGES
-----------------------
   0 C :   -0.108590
   1 C :   -0.168878
   2 C :   -0.286580
   3 H :    0.175047
   4 H :    0.148056
   5 S :    0.731194
   6 C :    0.161972
   7 N :   -0.407403
   8 C :   -0.494695
   9 H :    0.168330
  10 H :    0.088390
  11 H :    0.201999
  12 H :    0.205328
  13 O :   -0.385664
  14 O :   -0.357038
  15 C :   -0.234892
  16 C :   -0.250595
  17 C :   -0.169848
  18 H :    0.112030
  19 H :    0.092245
  20 H :    0.106077
  21 H :    0.113214
  22 C :   -0.211901
  23 H :    0.073371
  24 H :    0.131536
  25 C :   -0.105597
  26 H :    0.120271
  27 H :    0.075096
  28 C :   -0.177862
  29 H :    0.085433
  30 H :    0.078389
  31 H :    0.078881
  32 H :    0.109991
  33 H :    0.082739
  34 H :    0.105839
  35 F :   -0.048714
  36 H :    0.102067
  37 H :    0.060760
Sum of atomic charges:   -0.0000000

LOEWDIN ATOMIC CHARGES
----------------------
   0 C :   -0.218038
   1 C :   -0.292154
   2 C :   -0.376646
   3 H :    0.154334
   4 H :    0.145403
   5 S :    0.504758
   6 C :   -0.388648
   7 N :   -0.002398
   8 C :   -0.301513
   9 H :    0.101383
  10 H :    0.098689
  11 H :    0.153206
  12 H :    0.161917
  13 O :   -0.243154
  14 O :   -0.225268
  15 C :   -0.259934
  16 C :   -0.273660
  17 C :   -0.278386
  18 H :    0.139187
  19 H :    0.138697
  20 H :    0.148120
  21 H :    0.139619
  22 C :   -0.271152
  23 H :    0.134938
  24 H :    0.144102
  25 C :   -0.271954
  26 H :    0.139856
  27 H :    0.135195
  28 C :   -0.271114
  29 H :    0.136568
  30 H :    0.135246
  31 H :    0.134629
  32 H :    0.140503
  33 H :    0.135021
  34 H :    0.140568
  35 F :    0.128067
  36 H :    0.150776
  37 H :    0.133240

  Mayer bond orders larger than 0.100000
B(  0-C ,  6-C ) :   0.9839 B(  0-C , 15-C ) :   1.0039 B(  0-C , 36-H ) :   0.9344
B(  0-C , 37-H ) :   0.9427 B(  1-C ,  2-C ) :   0.9757 B(  1-C , 17-C ) :   1.0009
B(  1-C , 20-H ) :   0.9313 B(  1-C , 21-H ) :   0.9542 B(  2-C ,  3-H ) :   0.9286
B(  2-C ,  4-H ) :   0.9311 B(  2-C ,  5-S ) :   0.9017 B(  5-S , 13-O ) :   1.7913
B(  5-S , 14-O ) :   1.9346 B(  5-S , 35-F ) :   1.1791 B(  6-C ,  7-N ) :   1.1668
B(  6-C ,  8-C ) :   1.7874 B(  7-N , 11-H ) :   0.9204 B(  7-N , 12-H ) :   0.9148
B(  8-C ,  9-H ) :   0.9633 B(  8-C , 10-H ) :   0.9560 B( 15-C , 22-C ) :   1.0108
B( 15-C , 23-H ) :   0.9366 B( 15-C , 24-H ) :   0.9580 B( 16-C , 17-C ) :   0.9853
B( 16-C , 28-C ) :   1.0269 B( 16-C , 31-H ) :   0.9448 B( 16-C , 32-H ) :   0.9510
B( 17-C , 18-H ) :   0.9510 B( 17-C , 19-H ) :   0.9479 B( 22-C , 25-C ) :   1.0077
B( 22-C , 26-H ) :   0.9621 B( 22-C , 27-H ) :   0.9422 B( 25-C , 28-C ) :   0.9996
B( 25-C , 29-H ) :   0.9469 B( 25-C , 30-H ) :   0.9490 B( 28-C , 33-H ) :   0.9443
B( 28-C , 34-H ) :   0.9567

Dispersion correction           -0.046524292
FINAL SINGLE POINT ENERGY     -1134.822975364066

DIPOLE MOMENT
-------------
                                X             Y             Z
Electronic contribution:     -8.89788     -21.38829     -14.19493
Nuclear contribution   :      8.67311      20.60825      15.35056
                        -----------------------------------------
Total Dipole Moment    :     -0.22477      -0.78004       1.15563
                        -----------------------------------------
Magnitude (a.u.)       :      1.41226
Magnitude (Debye)      :      3.58967

Rotational constants in cm-1:     0.017976     0.012151     0.008188
Rotational constants in MHz :   538.898457   364.286417   245.482451

                             ****ORCA TERMINATED NORMALLY****
TOTAL RUN TIME: 0 days 0 hours 0 minutes 32 seconds 554 msec
