                         Program Version 5.0.0 -  RELEASE  -
|  1> !DLPNO-CCSD(T) aug-cc-pVTZ aug-cc-pVTZ/C TightSCF TightPNO RIJCOSX def2/J
|  2> *xyz -1 1
|  3> C         -1.78916       -0.63923        4.55750
|  4> C         -2.79070       -0.78527        5.70281
|  5> H         -2.86731       -1.83565        6.00167
|  6> H         -3.77455       -0.48658        5.33481
|  7> C         -2.45380        0.05510        6.94145
|  8> C         -2.07842        1.48042        6.56410
|  9> H         -1.62558       -0.38216        7.49891
| 10> H         -3.32527        0.08775        7.59917
| 11> O         -0.90125        1.85816        6.82810
| 12> O         -2.93658        2.17731        5.96415
| 13> H         -2.09421       -1.25377        3.73641
| 14> H         -0.81933       -0.94475        4.89064
| 15> H         -1.75281        0.38306        4.24366
| 16> *
| 17> %MaxCore 64000
| 18>
| 19> %pal nprocs 8
| 20> end
| 21>
| 22> %scf
| 23>   MaxIter 150
| 24> end
| 25>
| 26>
| 27>                          ****END OF INPUT****

CARTESIAN COORDINATES (ANGSTROEM)
---------------------------------
  C     -1.789160   -0.639230    4.557500
  C     -2.790700   -0.785270    5.702810
  H     -2.867310   -1.835650    6.001670
  H     -3.774550   -0.486580    5.334810
  C     -2.453800    0.055100    6.941450
  C     -2.078420    1.480420    6.564100
  H     -1.625580   -0.382160    7.498910
  H     -3.325270    0.087750    7.599170
  O     -0.901250    1.858160    6.828100
  O     -2.936580    2.177310    5.964150
  H     -2.094210   -1.253770    3.736410
  H     -0.819330   -0.944750    4.890640
  H     -1.752810    0.383060    4.243660

 Total Charge           Charge          ....   -1
 Multiplicity           Mult            ....    1
 Number of Electrons    NEL             ....   48
 Basis Dimension        Dim             ....  437

ORBITAL ENERGIES
----------------

  NO   OCC          E(Eh)            E(eV)
   0   2.0000     -20.285298      -551.9910
   1   2.0000     -20.284861      -551.9791
   2   2.0000     -11.127241      -302.7876
   3   2.0000     -11.078451      -301.4600
   4   2.0000     -11.065123      -301.0973
   5   2.0000     -11.053810      -300.7895
   6   2.0000      -1.162440       -31.6316
   7   2.0000      -1.054463       -28.6934
   8   2.0000      -0.913615       -24.8607
   9   2.0000      -0.795199       -21.6385
  10   2.0000      -0.670196       -18.2370
  11   2.0000      -0.519215       -14.1285
  12   2.0000      -0.475833       -12.9481
  13   2.0000      -0.466215       -12.6864
  14   2.0000      -0.424440       -11.5496
  15   2.0000      -0.412087       -11.2134
  16   2.0000      -0.376809       -10.2535
  17   2.0000      -0.356745        -9.7075
  18   2.0000      -0.350876        -9.5478
  19   2.0000      -0.322142        -8.7659
  20   2.0000      -0.308125        -8.3845
  21   2.0000      -0.199223        -5.4211
  22   2.0000      -0.197469        -5.3734
  23   2.0000      -0.186211        -5.0671
  24   0.0000       0.113001         3.0749
  25   0.0000       0.123151         3.3511
  26   0.0000       0.132732         3.6118
  27   0.0000       0.141993         3.8638
  28   0.0000       0.148938         4.0528

MULLIKEN ATOMIC CHARGES
-----------------------
   0 C :   -1.009232
   1 C :   -0.392275
   2 H :    0.283769
   3 H :    0.251815
   4 C :   -0.268657
   5 C :    0.713816
   6 H :    0.218161
   7 H :    0.248985
   8 O :   -0.966353
   9 O :   -0.945455
  10 H :    0.232780
  11 H :    0.282014
  12 H :    0.350631
Sum of atomic charges:   -1.0000000

LOEWDIN ATOMIC CHARGES
----------------------
   0 C :    0.574047
   1 C :    0.228370
   2 H :   -0.165642
   3 H :   -0.163321
   4 C :    0.189196
   5 C :   -1.216086
   6 H :   -0.193343
   7 H :   -0.176687
   8 O :    0.246932
   9 O :    0.260059
  10 H :   -0.198428
  11 H :   -0.185659
  12 H :   -0.199438

  Mayer bond orders larger than 0.100000
B(  0-C ,  1-C ) :   0.7955 B(  0-C , 10-H ) :   1.0232 B(  0-C , 11-H ) :   0.9507
B(  0-C , 12-H ) :   0.8636 B(  1-C ,  2-H ) :   0.9166 B(  1-C ,  3-H ) :   0.9571
B(  1-C ,  4-C ) :   0.8631 B(  1-C ,  5-C ) :   0.1106 B(  4-C ,  5-C ) :   0.6763
B(  4-C ,  6-H ) :   0.9854 B(  4-C ,  7-H ) :   0.9870 B(  5-C ,  8-O ) :   1.2496
B(  5-C ,  9-O ) :   1.3243

E(0)                                       ...   -305.421575362
E(0)                                       ...   -305.421575362
E(CORR)(strong-pairs)                      ...     -1.212273869
E(CORR)(weak-pairs)                        ...     -0.001181977
E(CORR)(corrected)                         ...     -1.213455846
E(TOT)                                     ...   -306.635031208
E(CCSD(T))                                 ...   -306.686689465
FINAL SINGLE POINT ENERGY      -306.686689465113

DIPOLE MOMENT
-------------
                                X             Y             Z
Electronic contribution:      0.58645       6.23167       2.69484
Nuclear contribution   :     -1.12936      -8.75108      -3.05770
                        -----------------------------------------
Total Dipole Moment    :     -0.54291      -2.51941      -0.36287
                        -----------------------------------------
Magnitude (a.u.)       :      2.60267
Magnitude (Debye)      :      6.61545

Rotational constants in cm-1:     0.189092     0.083831     0.082013
Rotational constants in MHz :  5668.846461  2513.177001  2458.689996

                             ****ORCA TERMINATED NORMALLY****
TOTAL RUN TIME: 0 days 0 hours 12 minutes 48 seconds 983 msec
