                         Program Version 5.0.0 -  RELEASE  -
|  1> !DLPNO-CCSD(T) aug-cc-pVTZ aug-cc-pVTZ/C TightSCF TightPNO RIJCOSX def2/J
|  2> *xyz 1 1
|  3> C         -0.69912        3.48945        3.75516
|  4> H         -0.96672        4.34901        3.14049
|  5> N         -1.08067        3.79296        5.15686
|  6> C          0.77696        3.13839        3.61741
|  7> H         -1.33146        2.65651        3.44632
|  8> H          1.37140        3.88834        4.14974
|  9> H          1.04693        3.23206        2.56133
| 10> C          1.11892        1.73117        4.11516
| 11> H         -0.87449        4.76274        5.42734
| 12> H         -0.68079        3.13476        5.83900
| 13> H         -2.05755        3.53169        5.34620
| 14> H          0.52974        1.01235        3.58499
| 15> H          0.90870        1.66226        5.16204
| 16> H          2.15725        1.53562        3.94624
| 17> *
| 18> %MaxCore 64000
| 19>
| 20> %pal nprocs 8
| 21> end
| 22>
| 23> %scf
| 24>   MaxIter 150
| 25> end
| 26>
| 27>
| 28>                          ****END OF INPUT****

CARTESIAN COORDINATES (ANGSTROEM)
---------------------------------
  C     -0.699120    3.489450    3.755160
  H     -0.966720    4.349010    3.140490
  N     -1.080670    3.792960    5.156860
  C      0.776960    3.138390    3.617410
  H     -1.331460    2.656510    3.446320
  H      1.371400    3.888340    4.149740
  H      1.046930    3.232060    2.561330
  C      1.118920    1.731170    4.115160
  H     -0.874490    4.762740    5.427340
  H     -0.680790    3.134760    5.839000
  H     -2.057550    3.531690    5.346200
  H      0.529740    1.012350    3.584990
  H      0.908700    1.662260    5.162040
  H      2.157250    1.535620    3.946240

 Total Charge           Charge          ....    1
 Multiplicity           Mult            ....    1
 Number of Electrons    NEL             ....   34
 Basis Dimension        Dim             ....  414

ORBITAL ENERGIES
----------------

  NO   OCC          E(Eh)            E(eV)
   0   2.0000     -15.896575      -432.5678
   1   2.0000     -11.473715      -312.2157
   2   2.0000     -11.399728      -310.2024
   3   2.0000     -11.364530      -309.2446
   4   2.0000      -1.517748       -41.3000
   5   2.0000      -1.240736       -33.7622
   6   2.0000      -1.125180       -30.6177
   7   2.0000      -1.006190       -27.3798
   8   2.0000      -0.986664       -26.8485
   9   2.0000      -0.938860       -25.5477
  10   2.0000      -0.858519       -23.3615
  11   2.0000      -0.791514       -21.5382
  12   2.0000      -0.765478       -20.8297
  13   2.0000      -0.737233       -20.0611
  14   2.0000      -0.667800       -18.1718
  15   2.0000      -0.658090       -17.9075
  16   2.0000      -0.657367       -17.8879
  17   0.0000      -0.116305        -3.1648
  18   0.0000      -0.082594        -2.2475
  19   0.0000      -0.079428        -2.1613
  20   0.0000      -0.067364        -1.8331
  21   0.0000      -0.045231        -1.2308

MULLIKEN ATOMIC CHARGES
-----------------------
   0 C :   -0.354190
   1 H :    0.364565
   2 N :    0.096345
   3 C :   -0.477211
   4 H :    0.373097
   5 H :    0.278827
   6 H :    0.327555
   7 C :   -0.941436
   8 H :    0.148253
   9 H :    0.156027
  10 H :    0.123622
  11 H :    0.302720
  12 H :    0.306319
  13 H :    0.295509
Sum of atomic charges:    1.0000000

LOEWDIN ATOMIC CHARGES
----------------------
   0 C :    0.334646
   1 H :   -0.107716
   2 N :    1.102382
   3 C :    0.316035
   4 H :   -0.114564
   5 H :   -0.134798
   6 H :   -0.125898
   7 C :    0.631974
   8 H :   -0.111806
   9 H :   -0.148044
  10 H :   -0.127067
  11 H :   -0.170370
  12 H :   -0.185215
  13 H :   -0.159561

  Mayer bond orders larger than 0.100000
B(  0-C ,  1-H ) :   0.8872 B(  0-C ,  2-N ) :   0.7975 B(  0-C ,  3-C ) :   0.8829
B(  0-C ,  4-H ) :   0.8625 B(  2-N ,  8-H ) :   1.0042 B(  2-N ,  9-H ) :   0.9757
B(  2-N , 10-H ) :   1.0313 B(  3-C ,  5-H ) :   0.9504 B(  3-C ,  6-H ) :   0.9064
B(  3-C ,  7-C ) :   0.8364 B(  7-C , 11-H ) :   0.9314 B(  7-C , 12-H ) :   0.9151
B(  7-C , 13-H ) :   0.9864

E(0)                                       ...   -173.715198208
E(0)                                       ...   -173.715198208
E(CORR)(strong-pairs)                      ...     -0.802902447
E(CORR)(weak-pairs)                        ...     -0.000697076
E(CORR)(corrected)                         ...     -0.803599523
E(TOT)                                     ...   -174.518797732
E(CCSD(T))                                 ...   -174.547306402
FINAL SINGLE POINT ENERGY      -174.547306401960

DIPOLE MOMENT
-------------
                                X             Y             Z
Electronic contribution:     -1.69514       1.68309       0.73887
Nuclear contribution   :      0.19356      -0.71099       0.46987
                        -----------------------------------------
Total Dipole Moment    :     -1.50158       0.97210       1.20874
                        -----------------------------------------
Magnitude (a.u.)       :      2.15888
Magnitude (Debye)      :      5.48743

Rotational constants in cm-1:     0.465349     0.150671     0.132807
Rotational constants in MHz : 13950.800968  4516.999758  3981.442177

                             ****ORCA TERMINATED NORMALLY****
TOTAL RUN TIME: 0 days 0 hours 6 minutes 7 seconds 665 msec
