                         Program Version 5.0.0 -  RELEASE  -
|  1> !DLPNO-CCSD(T) aug-cc-pVTZ aug-cc-pVTZ/C TightSCF TightPNO RIJCOSX def2/J
|  2> *xyz 0 1
|  3> C         -1.78916       -0.63923        4.55750
|  4> C         -2.79070       -0.78527        5.70281
|  5> H         -2.86731       -1.83565        6.00167
|  6> H         -3.77455       -0.48658        5.33481
|  7> C         -2.45380        0.05510        6.94145
|  8> C         -2.07842        1.48042        6.56410
|  9> H         -1.62558       -0.38216        7.49891
| 10> H         -3.32527        0.08775        7.59917
| 11> F         -0.90125        1.85816        6.82810
| 12> O         -2.93658        2.17731        5.96415
| 13> H         -2.09421       -1.25377        3.73641
| 14> H         -0.81933       -0.94475        4.89064
| 15> H         -1.75281        0.38306        4.24366
| 16> *
| 17> %MaxCore 64000
| 18>
| 19> %pal nprocs 8
| 20> end
| 21>
| 22> %scf
| 23>   MaxIter 150
| 24> end
| 25>
| 26>
| 27>                          ****END OF INPUT****

CARTESIAN COORDINATES (ANGSTROEM)
---------------------------------
  C     -1.789160   -0.639230    4.557500
  C     -2.790700   -0.785270    5.702810
  H     -2.867310   -1.835650    6.001670
  H     -3.774550   -0.486580    5.334810
  C     -2.453800    0.055100    6.941450
  C     -2.078420    1.480420    6.564100
  H     -1.625580   -0.382160    7.498910
  H     -3.325270    0.087750    7.599170
  F     -0.901250    1.858160    6.828100
  O     -2.936580    2.177310    5.964150
  H     -2.094210   -1.253770    3.736410
  H     -0.819330   -0.944750    4.890640
  H     -1.752810    0.383060    4.243660

 Total Charge           Charge          ....    0
 Multiplicity           Mult            ....    1
 Number of Electrons    NEL             ....   48
 Basis Dimension        Dim             ....  437

ORBITAL ENERGIES
----------------

  NO   OCC          E(Eh)            E(eV)
   0   2.0000     -26.372846      -717.6416
   1   2.0000     -20.561875      -559.5171
   2   2.0000     -11.430129      -311.0296
   3   2.0000     -11.259822      -306.3953
   4   2.0000     -11.242112      -305.9134
   5   2.0000     -11.217040      -305.2312
   6   2.0000      -1.723102       -46.8880
   7   2.0000      -1.372867       -37.3576
   8   2.0000      -1.095403       -29.8074
   9   2.0000      -0.989765       -26.9329
  10   2.0000      -0.902754       -24.5652
  11   2.0000      -0.835994       -22.7486
  12   2.0000      -0.765870       -20.8404
  13   2.0000      -0.759308       -20.6618
  14   2.0000      -0.711358       -19.3570
  15   2.0000      -0.640214       -17.4211
  16   2.0000      -0.629700       -17.1350
  17   2.0000      -0.583808       -15.8862
  18   2.0000      -0.577572       -15.7165
  19   2.0000      -0.519266       -14.1299
  20   2.0000      -0.510608       -13.8943
  21   2.0000      -0.493516       -13.4293
  22   2.0000      -0.483120       -13.1464
  23   2.0000      -0.463639       -12.6162
  24   0.0000       0.026663         0.7255
  25   0.0000       0.036847         1.0027
  26   0.0000       0.038721         1.0536
  27   0.0000       0.045536         1.2391
  28   0.0000       0.058833         1.6009

MULLIKEN ATOMIC CHARGES
-----------------------
   0 C :   -0.990983
   1 C :   -0.375976
   2 H :    0.314806
   3 H :    0.265935
   4 C :   -0.327766
   5 C :    0.792101
   6 H :    0.239774
   7 H :    0.292849
   8 F :   -0.350462
   9 O :   -0.735060
  10 H :    0.264325
  11 H :    0.278082
  12 H :    0.332376
Sum of atomic charges:   -0.0000000

LOEWDIN ATOMIC CHARGES
----------------------
   0 C :    0.597240
   1 C :    0.260784
   2 H :   -0.142082
   3 H :   -0.148920
   4 C :    0.260589
   5 C :   -0.928071
   6 H :   -0.170489
   7 H :   -0.152435
   8 F :    0.579777
   9 O :    0.396808
  10 H :   -0.175698
  11 H :   -0.179749
  12 H :   -0.197752

  Mayer bond orders larger than 0.100000
B(  0-C ,  1-C ) :   0.8074 B(  0-C , 10-H ) :   1.0024 B(  0-C , 11-H ) :   0.9483
B(  0-C , 12-H ) :   0.8808 B(  1-C ,  2-H ) :   0.8893 B(  1-C ,  3-H ) :   0.9517
B(  1-C ,  4-C ) :   0.8852 B(  1-C ,  5-C ) :   0.1013 B(  4-C ,  5-C ) :   0.7515
B(  4-C ,  6-H ) :   0.9720 B(  4-C ,  7-H ) :   0.9374 B(  5-C ,  8-F ) :   0.6767
B(  5-C ,  9-O ) :   1.6184

E(0)                                       ...   -329.974682316
E(0)                                       ...   -329.974682316
E(CORR)(strong-pairs)                      ...     -1.212714465
E(CORR)(weak-pairs)                        ...     -0.001157832
E(CORR)(corrected)                         ...     -1.213872297
E(TOT)                                     ...   -331.188554613
E(CCSD(T))                                 ...   -331.236566443
FINAL SINGLE POINT ENERGY      -331.236566443210

DIPOLE MOMENT
-------------
                                X             Y             Z
Electronic contribution:      2.84293       8.84122       4.33094
Nuclear contribution   :     -2.53960     -10.05333      -3.90042
                        -----------------------------------------
Total Dipole Moment    :      0.30334      -1.21211       0.43052
                        -----------------------------------------
Magnitude (a.u.)       :      1.32158
Magnitude (Debye)      :      3.35919

Rotational constants in cm-1:     0.183043     0.080991     0.078218
Rotational constants in MHz :  5487.486217  2428.040459  2344.904824

                             ****ORCA TERMINATED NORMALLY****
TOTAL RUN TIME: 0 days 0 hours 13 minutes 5 seconds 19 msec
