                         Program Version 5.0.0 -  RELEASE  -
|  1> !DLPNO-CCSD(T) aug-cc-pVTZ aug-cc-pVTZ/C TightSCF TightPNO RIJCOSX def2/J
|  2> *xyz 0 1
|  3> C         -0.69912        3.48945        3.75516
|  4> H         -0.96672        4.34901        3.14049
|  5> C         -1.08067        3.79296        5.15686
|  6> C          0.77696        3.13839        3.61741
|  7> H         -1.33146        2.65651        3.44632
|  8> H          1.37140        3.88834        4.14974
|  9> H          1.04693        3.23206        2.56133
| 10> C          1.11892        1.73117        4.11516
| 11> H         -0.87449        4.76274        5.42734
| 12> H         -0.68079        3.13476        5.83900
| 13> H         -2.05755        3.53169        5.34620
| 14> H          0.52974        1.01235        3.58499
| 15> H          0.90870        1.66226        5.16204
| 16> H          2.15725        1.53562        3.94624
| 17> *
| 18> %MaxCore 64000
| 19>
| 20> %pal nprocs 8
| 21> end
| 22>
| 23> %scf
| 24>   MaxIter 150
| 25> end
| 26>
| 27>
| 28>                          ****END OF INPUT****

CARTESIAN COORDINATES (ANGSTROEM)
---------------------------------
  C     -0.699120    3.489450    3.755160
  H     -0.966720    4.349010    3.140490
  C     -1.080670    3.792960    5.156860
  C      0.776960    3.138390    3.617410
  H     -1.331460    2.656510    3.446320
  H      1.371400    3.888340    4.149740
  H      1.046930    3.232060    2.561330
  C      1.118920    1.731170    4.115160
  H     -0.874490    4.762740    5.427340
  H     -0.680790    3.134760    5.839000
  H     -2.057550    3.531690    5.346200
  H      0.529740    1.012350    3.584990
  H      0.908700    1.662260    5.162040
  H      2.157250    1.535620    3.946240

 Total Charge           Charge          ....    0
 Multiplicity           Mult            ....    1
 Number of Electrons    NEL             ....   34
 Basis Dimension        Dim             ....  414

ORBITAL ENERGIES
----------------

  NO   OCC          E(Eh)            E(eV)
   0   2.0000     -11.211235      -305.0732
   1   2.0000     -11.206108      -304.9337
   2   2.0000     -11.200730      -304.7874
   3   2.0000     -11.177676      -304.1600
   4   2.0000      -1.079205       -29.3667
   5   2.0000      -0.989617       -26.9288
   6   2.0000      -0.880095       -23.9486
   7   2.0000      -0.782260       -21.2864
   8   2.0000      -0.637193       -17.3389
   9   2.0000      -0.624948       -17.0057
  10   2.0000      -0.588455       -16.0127
  11   2.0000      -0.538023       -14.6404
  12   2.0000      -0.530024       -14.4227
  13   2.0000      -0.511887       -13.9291
  14   2.0000      -0.463279       -12.6065
  15   2.0000      -0.459575       -12.5057
  16   2.0000      -0.452123       -12.3029
  17   0.0000       0.032898         0.8952
  18   0.0000       0.039083         1.0635
  19   0.0000       0.040140         1.0923
  20   0.0000       0.041565         1.1311
  21   0.0000       0.058827         1.6008

MULLIKEN ATOMIC CHARGES
-----------------------
   0 C :   -0.349408
   1 H :    0.262625
   2 C :   -1.105713
   3 C :   -0.470078
   4 H :    0.268742
   5 H :    0.250152
   6 H :    0.291122
   7 C :   -0.969860
   8 H :    0.266251
   9 H :    0.410652
  10 H :    0.262044
  11 H :    0.278727
  12 H :    0.346067
  13 H :    0.258678
Sum of atomic charges:    0.0000000

LOEWDIN ATOMIC CHARGES
----------------------
   0 C :    0.270659
   1 H :   -0.139504
   2 C :    0.611437
   3 C :    0.272510
   4 H :   -0.145798
   5 H :   -0.142522
   6 H :   -0.151512
   7 C :    0.603415
   8 H :   -0.190389
   9 H :   -0.222051
  10 H :   -0.208809
  11 H :   -0.181985
  12 H :   -0.192086
  13 H :   -0.183365

  Mayer bond orders larger than 0.100000
B(  0-C ,  1-H ) :   0.9776 B(  0-C ,  2-C ) :   0.7440 B(  0-C ,  3-C ) :   0.8640
B(  0-C ,  4-H ) :   0.9530 B(  2-C ,  8-H ) :   1.0092 B(  2-C ,  9-H ) :   0.8121
B(  2-C , 10-H ) :   1.0213 B(  3-C ,  5-H ) :   0.9566 B(  3-C ,  6-H ) :   0.9362
B(  3-C ,  7-C ) :   0.8131 B(  7-C , 11-H ) :   0.9580 B(  7-C , 12-H ) :   0.8898
B(  7-C , 13-H ) :   1.0113

E(0)                                       ...   -157.337742502
E(0)                                       ...   -157.337742502
E(CORR)(strong-pairs)                      ...     -0.778052893
E(CORR)(weak-pairs)                        ...     -0.000690910
E(CORR)(corrected)                         ...     -0.778743803
E(TOT)                                     ...   -158.116486305
E(CCSD(T))                                 ...   -158.144656816
FINAL SINGLE POINT ENERGY      -158.144656816125

DIPOLE MOMENT
-------------
                                X             Y             Z
Electronic contribution:      0.12746       0.46921      -0.75404
Nuclear contribution   :     -0.14518      -0.47660       0.76944
                        -----------------------------------------
Total Dipole Moment    :     -0.01772      -0.00738       0.01540
                        -----------------------------------------
Magnitude (a.u.)       :      0.02461
Magnitude (Debye)      :      0.06256

Rotational constants in cm-1:     0.472466     0.157481     0.138592
Rotational constants in MHz : 14164.171374  4721.163669  4154.874787

                             ****ORCA TERMINATED NORMALLY****
TOTAL RUN TIME: 0 days 0 hours 6 minutes 33 seconds 754 msec
