                         Program Version 5.0.0 -  RELEASE  -
|  1> !DLPNO-CCSD(T) aug-cc-pVTZ aug-cc-pVTZ/C TightSCF TightPNO RIJCOSX def2/J
|  2> *xyz 0 1
|  3> C         -1.78916       -0.63923        4.55750
|  4> C         -2.79070       -0.78527        5.70281
|  5> H         -2.86731       -1.83565        6.00167
|  6> H         -3.77455       -0.48658        5.33481
|  7> C         -2.45380        0.05510        6.94145
|  8> C         -2.07842        1.48042        6.56410
|  9> H         -1.62558       -0.38216        7.49891
| 10> H         -3.32527        0.08775        7.59917
| 11> O         -0.90125        1.85816        6.82810
| 12> F         -2.93658        2.17731        5.96415
| 13> H         -2.09421       -1.25377        3.73641
| 14> H         -0.81933       -0.94475        4.89064
| 15> H         -1.75281        0.38306        4.24366
| 16> *
| 17> %MaxCore 64000
| 18>
| 19> %pal nprocs 8
| 20> end
| 21>
| 22> %scf
| 23>   MaxIter 150
| 24> end
| 25>
| 26>
| 27>                          ****END OF INPUT****

CARTESIAN COORDINATES (ANGSTROEM)
---------------------------------
  C     -1.789160   -0.639230    4.557500
  C     -2.790700   -0.785270    5.702810
  H     -2.867310   -1.835650    6.001670
  H     -3.774550   -0.486580    5.334810
  C     -2.453800    0.055100    6.941450
  C     -2.078420    1.480420    6.564100
  H     -1.625580   -0.382160    7.498910
  H     -3.325270    0.087750    7.599170
  O     -0.901250    1.858160    6.828100
  F     -2.936580    2.177310    5.964150
  H     -2.094210   -1.253770    3.736410
  H     -0.819330   -0.944750    4.890640
  H     -1.752810    0.383060    4.243660

 Total Charge           Charge          ....    0
 Multiplicity           Mult            ....    1
 Number of Electrons    NEL             ....   48
 Basis Dimension        Dim             ....  437

ORBITAL ENERGIES
----------------

  NO   OCC          E(Eh)            E(eV)
   0   2.0000     -26.376141      -717.7313
   1   2.0000     -20.560935      -559.4915
   2   2.0000     -11.429284      -311.0066
   3   2.0000     -11.259160      -306.3773
   4   2.0000     -11.245792      -306.0136
   5   2.0000     -11.219728      -305.3043
   6   2.0000      -1.728893       -47.0456
   7   2.0000      -1.367268       -37.2053
   8   2.0000      -1.098983       -29.9048
   9   2.0000      -0.989550       -26.9270
  10   2.0000      -0.904289       -24.6070
  11   2.0000      -0.840568       -22.8730
  12   2.0000      -0.773972       -21.0609
  13   2.0000      -0.767941       -20.8967
  14   2.0000      -0.696916       -18.9640
  15   2.0000      -0.648088       -17.6354
  16   2.0000      -0.628948       -17.1146
  17   2.0000      -0.587771       -15.9940
  18   2.0000      -0.570867       -15.5341
  19   2.0000      -0.522514       -14.2183
  20   2.0000      -0.517678       -14.0867
  21   2.0000      -0.498238       -13.5577
  22   2.0000      -0.483498       -13.1567
  23   2.0000      -0.455590       -12.3972
  24   0.0000       0.025780         0.7015
  25   0.0000       0.035554         0.9675
  26   0.0000       0.039032         1.0621
  27   0.0000       0.045199         1.2299
  28   0.0000       0.058369         1.5883

MULLIKEN ATOMIC CHARGES
-----------------------
   0 C :   -0.972087
   1 C :   -0.408502
   2 H :    0.296809
   3 H :    0.254571
   4 C :   -0.309609
   5 C :    0.818696
   6 H :    0.272868
   7 H :    0.293430
   8 O :   -0.756777
   9 F :   -0.358068
  10 H :    0.264187
  11 H :    0.299542
  12 H :    0.304938
Sum of atomic charges:   -0.0000000

LOEWDIN ATOMIC CHARGES
----------------------
   0 C :    0.598221
   1 C :    0.259017
   2 H :   -0.140850
   3 H :   -0.152892
   4 C :    0.258559
   5 C :   -0.932432
   6 H :   -0.161789
   7 H :   -0.157646
   8 O :    0.385312
   9 F :    0.589852
  10 H :   -0.176787
  11 H :   -0.174344
  12 H :   -0.194221

  Mayer bond orders larger than 0.100000
B(  0-C ,  1-C ) :   0.8013 B(  0-C , 10-H ) :   0.9982 B(  0-C , 11-H ) :   0.9356
B(  0-C , 12-H ) :   0.9029 B(  1-C ,  2-H ) :   0.9061 B(  1-C ,  3-H ) :   0.9627
B(  1-C ,  4-C ) :   0.8749 B(  1-C ,  5-C ) :   0.1170 B(  4-C ,  5-C ) :   0.7725
B(  4-C ,  6-H ) :   0.9546 B(  4-C ,  7-H ) :   0.9500 B(  4-C ,  9-F ) :   0.1278
B(  5-C ,  8-O ) :   1.5490 B(  5-C ,  9-F ) :   0.7169

E(0)                                       ...   -329.972485633
E(0)                                       ...   -329.972485633
E(CORR)(strong-pairs)                      ...     -1.212679906
E(CORR)(weak-pairs)                        ...     -0.001158030
E(CORR)(corrected)                         ...     -1.213837937
E(TOT)                                     ...   -331.186323570
E(CCSD(T))                                 ...   -331.234299206
FINAL SINGLE POINT ENERGY      -331.234299206327

DIPOLE MOMENT
-------------
                                X             Y             Z
Electronic contribution:     -0.72576       9.37471       2.80846
Nuclear contribution   :     -0.24054     -10.41383      -2.92452
                        -----------------------------------------
Total Dipole Moment    :     -0.96630      -1.03912      -0.11606
                        -----------------------------------------
Magnitude (a.u.)       :      1.42372
Magnitude (Debye)      :      3.61881

Rotational constants in cm-1:     0.180403     0.081943     0.079197
Rotational constants in MHz :  5408.335479  2456.587956  2374.272438

                             ****ORCA TERMINATED NORMALLY****
TOTAL RUN TIME: 0 days 0 hours 13 minutes 52 seconds 512 msec
