                         Program Version 5.0.0 -  RELEASE  -
|  1> !DLPNO-CCSD(T) aug-cc-pVTZ aug-cc-pVTZ/C TightSCF TightPNO RIJCOSX def2/J
|  2>
|  3> *xyzfile 0 1 D2.xyz
|  4>
|  5> %MaxCore 64000
|  6>
|  7> %pal nprocs 18
|  8> end
|  9>
| 10> %scf
| 11>   MaxIter 150
| 12> end
| 13>
| 14>
| 15>                          ****END OF INPUT****

CARTESIAN COORDINATES (ANGSTROEM)
---------------------------------
  C     -0.699123    3.489451    3.755163
  H     -0.966716    4.349013    3.140491
  C     -1.080669    3.792957    5.156857
  C      0.776956    3.138391    3.617408
  H     -1.331455    2.656510    3.446323
  H      1.371398    3.888342    4.149744
  H      1.046926    3.232057    2.561331
  C      1.118917    1.731170    4.115155
  H      2.200573    1.654226    4.254882
  C      0.659466    0.635182    3.153306
  H      0.677024    1.576674    5.103150
  H      1.312288    0.638870    2.274207
  H     -0.339563    0.868049    2.772876
  C      0.639957   -0.771175    3.755619
  C     -0.341821   -0.965537    4.915046
  H      1.648266   -1.028665    4.097015
  H      0.398568   -1.482386    2.958453
  H     -0.279892   -2.005646    5.252547
  C     -1.789164   -0.639231    4.557496
  H     -0.032380   -0.352918    5.765118
  H     -2.107151   -1.270102    3.719619
  H     -1.856352    0.391636    4.197604
  C     -2.790700   -0.785275    5.702812
  H     -2.867308   -1.835651    6.001675
  H     -3.774554   -0.486577    5.334807
  C     -2.453797    0.055101    6.941445
  C     -2.078419    1.480421    6.564098
  H     -1.625584   -0.382163    7.498914
  H     -3.325274    0.087746    7.599175
  H     -0.874488    4.762737    5.427344
  H     -0.680793    3.134762    5.839000
  H     -2.057550    3.531691    5.346197
  O     -0.901252    1.858156    6.828104
  F     -2.936582    2.177309    5.964151

 Total Charge           Charge          ....    0
 Multiplicity           Mult            ....    1
 Number of Electrons    NEL             ....  104
 Basis Dimension        Dim             .... 1081

ORBITAL ENERGIES
----------------

  NO   OCC          E(Eh)            E(eV)
   0   2.0000     -26.385273      -717.9798
   1   2.0000     -20.566632      -559.6465
   2   2.0000     -11.442325      -311.3615
   3   2.0000     -11.264437      -306.5209
   4   2.0000     -11.246934      -306.0446
   5   2.0000     -11.229366      -305.5666
   6   2.0000     -11.217245      -305.2367
   7   2.0000     -11.213117      -305.1244
   8   2.0000     -11.204892      -304.9006
   9   2.0000     -11.196867      -304.6822
  10   2.0000     -11.195169      -304.6360
  11   2.0000     -11.187109      -304.4167
  12   2.0000     -11.126199      -302.7593
  13   2.0000      -1.744373       -47.4668
  14   2.0000      -1.387464       -37.7548
  15   2.0000      -1.116188       -30.3730
  16   2.0000      -1.083699       -29.4889
  17   2.0000      -1.048579       -28.5333
  18   2.0000      -1.012855       -27.5612
  19   2.0000      -0.959183       -26.1007
  20   2.0000      -0.928167       -25.2567
  21   2.0000      -0.898826       -24.4583
  22   2.0000      -0.852090       -23.1866
  23   2.0000      -0.831967       -22.6390
  24   2.0000      -0.790741       -21.5172
  25   2.0000      -0.783450       -21.3188
  26   2.0000      -0.774084       -21.0639
  27   2.0000      -0.744495       -20.2587
  28   2.0000      -0.714224       -19.4350
  29   2.0000      -0.657512       -17.8918
  30   2.0000      -0.648570       -17.6485
  31   2.0000      -0.627891       -17.0858
  32   2.0000      -0.619958       -16.8699
  33   2.0000      -0.596880       -16.2419
  34   2.0000      -0.590466       -16.0674
  35   2.0000      -0.583767       -15.8851
  36   2.0000      -0.563751       -15.3405
  37   2.0000      -0.557579       -15.1725
  38   2.0000      -0.540910       -14.7189
  39   2.0000      -0.527189       -14.3455
  40   2.0000      -0.519671       -14.1410
  41   2.0000      -0.514854       -14.0099
  42   2.0000      -0.498747       -13.5716
  43   2.0000      -0.481841       -13.1116
  44   2.0000      -0.479952       -13.0602
  45   2.0000      -0.469053       -12.7636
  46   2.0000      -0.458442       -12.4749
  47   2.0000      -0.446870       -12.1599
  48   2.0000      -0.440501       -11.9866
  49   2.0000      -0.429051       -11.6751
  50   2.0000      -0.427640       -11.6367
  51   2.0000      -0.402453       -10.9513
  52   0.0000       0.022245         0.6053
  53   0.0000       0.031090         0.8460
  54   0.0000       0.032667         0.8889
  55   0.0000       0.036551         0.9946
  56   0.0000       0.044001         1.1973

MULLIKEN ATOMIC CHARGES
-----------------------
   0 C :   -0.321122
   1 H :    0.356215
   2 C :   -1.339812
   3 C :   -0.642739
   4 H :    0.089185
   5 H :    0.145925
   6 H :    0.215390
   7 C :   -0.514099
   8 H :    0.258415
   9 C :   -0.281568
  10 H :    0.461203
  11 H :    0.486101
  12 H :   -0.041600
  13 C :   -0.728262
  14 C :   -0.397266
  15 H :    0.248535
  16 H :    0.026008
  17 H :    0.365857
  18 C :   -0.547828
  19 H :    0.202736
  20 H :    0.435031
  21 H :    0.385598
  22 C :   -0.576906
  23 H :    0.256989
  24 H :    0.172101
  25 C :   -0.260050
  26 C :    0.929486
  27 H :    0.199808
  28 H :    0.402131
  29 H :    0.158948
  30 H :    0.652647
  31 H :    0.542238
  32 O :   -0.848228
  33 F :   -0.491067
Sum of atomic charges:   -0.0000000

LOEWDIN ATOMIC CHARGES
----------------------
   0 C :    0.291677
   1 H :   -0.134346
   2 C :    0.580750
   3 C :    0.307479
   4 H :   -0.163790
   5 H :   -0.135163
   6 H :   -0.147090
   7 C :    0.302877
   8 H :   -0.131808
   9 C :    0.289853
  10 H :   -0.205985
  11 H :   -0.133284
  12 H :   -0.176294
  13 C :    0.307083
  14 C :    0.292237
  15 H :   -0.137325
  16 H :   -0.142578
  17 H :   -0.131146
  18 C :    0.285079
  19 H :   -0.182757
  20 H :   -0.121152
  21 H :   -0.178455
  22 C :    0.294936
  23 H :   -0.132973
  24 H :   -0.144479
  25 C :    0.297082
  26 C :   -0.767987
  27 H :   -0.157683
  28 H :   -0.147839
  29 H :   -0.173899
  30 H :   -0.524427
  31 H :   -0.386875
  32 O :    0.590029
  33 F :    0.718254

  Mayer bond orders larger than 0.100000
B(  0-C ,  1-H ) :   0.8853 B(  0-C ,  2-C ) :   0.7134 B(  0-C ,  3-C ) :   0.8103
B(  0-C ,  4-H ) :   1.1330 B(  2-C ,  3-C ) :   0.1348 B(  2-C , 29-H ) :   1.2041
B(  2-C , 30-H ) :   0.5501 B(  2-C , 31-H ) :   0.8205 B(  2-C , 33-F ) :  -0.1293
B(  3-C ,  5-H ) :   1.1116 B(  3-C ,  6-H ) :   1.0059 B(  3-C ,  7-C ) :   0.9113
B(  7-C ,  8-H ) :   0.9929 B(  7-C ,  9-C ) :   0.7594 B(  7-C , 10-H ) :   0.8873
B(  7-C , 12-H ) :   0.1199 B(  9-C , 11-H ) :   0.7587 B(  9-C , 12-H ) :   1.2809
B(  9-C , 13-C ) :   0.8894 B( 13-C , 14-C ) :   0.8884 B( 13-C , 15-H ) :   0.9848
B( 13-C , 16-H ) :   1.2260 B( 14-C , 17-H ) :   0.8767 B( 14-C , 18-C ) :   0.8672
B( 14-C , 19-H ) :   1.0200 B( 14-C , 21-H ) :   0.1435 B( 18-C , 20-H ) :   0.8041
B( 18-C , 21-H ) :   0.9676 B( 18-C , 22-C ) :   0.8826 B( 22-C , 23-H ) :   0.9640
B( 22-C , 24-H ) :   1.0390 B( 22-C , 25-C ) :   0.9324 B( 22-C , 26-C ) :   0.1261
B( 25-C , 26-C ) :   0.7244 B( 25-C , 27-H ) :   1.0402 B( 25-C , 28-H ) :   0.8798
B( 26-C , 28-H ) :  -0.1012 B( 26-C , 32-O ) :   1.5049 B( 26-C , 33-F ) :   0.5644
B( 30-H , 33-F ) :   0.1205 B( 31-H , 33-F ) :  -0.1590

E(0)                                       ...   -603.226575444
E(0)                                       ...   -603.226575444
E(CORR)(strong-pairs)                      ...     -2.539882740
E(CORR)(weak-pairs)                        ...     -0.004184082
E(CORR)(corrected)                         ...     -2.544066822
E(TOT)                                     ...   -605.770642265
E(CCSD(T))                                 ...   -605.874157273
FINAL SINGLE POINT ENERGY      -605.874157272553

DIPOLE MOMENT
-------------
                                X             Y             Z
Electronic contribution:     -9.04319       2.91159       9.48421
Nuclear contribution   :      8.07181      -4.09641      -9.21610
                        -----------------------------------------
Total Dipole Moment    :     -0.97138      -1.18482       0.26810
                        -----------------------------------------
Magnitude (a.u.)       :      1.55540
Magnitude (Debye)      :      3.95350

Rotational constants in cm-1:     0.028400     0.023377     0.015073
Rotational constants in MHz :   851.414727   700.831775   451.871218

                             ****ORCA TERMINATED NORMALLY****
TOTAL RUN TIME: 0 days 5 hours 29 minutes 33 seconds 273 msec
