                         Program Version 5.0.0 -  RELEASE  -
|  1> !M062X D3Zero RIJCOSX def2-SVPD def2/J TightSCF
|  2> *xyz -1 1
|  3> C         -0.15102        0.25496       -4.09426
|  4> C         -0.72184       -0.99951       -3.43931
|  5> H         -1.08340       -1.69755       -4.20566
|  6> H         -1.58106       -0.72385       -2.82049
|  7> C          0.28725       -1.71177       -2.52740
|  8> H          1.13178       -2.06738       -3.15940
|  9> H         -0.20414       -2.63733       -2.17048
| 10> O          0.71050       -0.92751       -1.48177
| 11> H         -0.89787        0.70479       -4.71455
| 12> H          0.69695       -0.00870       -4.69119
| 13> H          0.14812        0.94842       -3.33628
| 14> *
| 15> %MaxCore 64000
| 16>
| 17> %pal nprocs 4
| 18> end
| 19>
| 20> %scf
| 21>   MaxIter 150
| 22> end
| 23>
| 24>
| 25>                          ****END OF INPUT****

CARTESIAN COORDINATES (ANGSTROEM)
---------------------------------
  C     -0.151020    0.254960   -4.094260
  C     -0.721840   -0.999510   -3.439310
  H     -1.083400   -1.697550   -4.205660
  H     -1.581060   -0.723850   -2.820490
  C      0.287250   -1.711770   -2.527400
  H      1.131780   -2.067380   -3.159400
  H     -0.204140   -2.637330   -2.170480
  O      0.710500   -0.927510   -1.481770
  H     -0.897870    0.704790   -4.714550
  H      0.696950   -0.008700   -4.691190
  H      0.148120    0.948420   -3.336280

 Total Charge           Charge          ....   -1
 Multiplicity           Mult            ....    1
 Number of Electrons    NEL             ....   34
 Basis Dimension        Dim             ....  139

ORBITAL ENERGIES
----------------

  NO   OCC          E(Eh)            E(eV)
   0   2.0000     -19.302531      -525.2486
   1   2.0000     -10.367433      -282.1122
   2   2.0000     -10.365238      -282.0525
   3   2.0000     -10.357613      -281.8450
   4   2.0000      -0.781611       -21.2687
   5   2.0000      -0.672201       -18.2915
   6   2.0000      -0.548866       -14.9354
   7   2.0000      -0.440417       -11.9844
   8   2.0000      -0.343590        -9.3496
   9   2.0000      -0.334603        -9.1050
  10   2.0000      -0.284693        -7.7469
  11   2.0000      -0.250893        -6.8271
  12   2.0000      -0.222857        -6.0642
  13   2.0000      -0.213618        -5.8128
  14   2.0000      -0.175863        -4.7855
  15   2.0000      -0.036518        -0.9937
  16   2.0000      -0.033747        -0.9183
  17   0.0000       0.184438         5.0188
  18   0.0000       0.211197         5.7470
  19   0.0000       0.228061         6.2058
  20   0.0000       0.262592         7.1455
  21   0.0000       0.277635         7.5548

MULLIKEN ATOMIC CHARGES
-----------------------
   0 C :    0.607235
   1 C :   -0.477201
   2 H :   -0.111928
   3 H :   -0.094125
   4 C :    0.456480
   5 H :   -0.108148
   6 H :   -0.169807
   7 O :   -0.907807
   8 H :   -0.093052
   9 H :   -0.068965
  10 H :   -0.032683
Sum of atomic charges:   -1.0000000

LOEWDIN ATOMIC CHARGES
----------------------
   0 C :    0.087870
   1 C :   -0.119799
   2 H :   -0.009870
   3 H :    0.003309
   4 C :   -0.214674
   5 H :   -0.024268
   6 H :   -0.031339
   7 O :   -0.578987
   8 H :   -0.048388
   9 H :   -0.033451
  10 H :   -0.030404

  Mayer bond orders larger than 0.100000
B(  0-C ,  1-C ) :   1.2692 B(  0-C ,  8-H ) :   0.7996 B(  0-C ,  9-H ) :   0.8236
B(  0-C , 10-H ) :   0.8366 B(  1-C ,  2-H ) :   1.0075 B(  1-C ,  3-H ) :   0.9695
B(  1-C ,  4-C ) :   1.0462 B(  1-C ,  5-H ) :   0.1100 B(  1-C ,  6-H ) :   0.1429
B(  1-C ,  8-H ) :   0.1941 B(  1-C ,  9-H ) :   0.1862 B(  1-C , 10-H ) :   0.2084
B(  3-H ,  4-C ) :   0.1353 B(  4-C ,  5-H ) :   0.9517 B(  4-C ,  6-H ) :   0.9520
B(  4-C ,  7-O ) :   1.1402

Dispersion correction           -0.000079673
FINAL SINGLE POINT ENERGY      -193.502098671093

DIPOLE MOMENT
-------------
                                X             Y             Z
Electronic contribution:      1.02365      -0.20605       2.75502
Nuclear contribution   :     -1.95025       0.39850      -4.64834
                        -----------------------------------------
Total Dipole Moment    :     -0.92660       0.19245      -1.89332
                        -----------------------------------------
Magnitude (a.u.)       :      2.11667
Magnitude (Debye)      :      5.38014

Rotational constants in cm-1:     0.507767     0.175836     0.148827
Rotational constants in MHz : 15222.471408  5271.439482  4461.706759

                             ****ORCA TERMINATED NORMALLY****
TOTAL RUN TIME: 0 days 0 hours 0 minutes 11 seconds 456 msec
