                         Program Version 5.0.0 -  RELEASE  -
|  1> !M062X D3Zero RIJCOSX def2-SVPD def2/J TightSCF
|  2> *xyz 1 1
|  3> C          3.48828        1.60092       -1.52204
|  4> C          4.34297        1.31342       -2.75683
|  5> N          2.81029        0.42878       -1.01420
|  6> H          5.13203        0.60499       -2.48447
|  7> C          3.53590        0.74925       -3.92460
|  8> H          4.84125        2.24214       -3.05408
|  9> H          2.71455        2.33145       -1.76030
| 10> H          4.09099        2.06315       -0.73338
| 11> C          3.29098       -0.41802       -0.12908
| 12> N          2.51754       -1.43202        0.23936
| 13> N          4.53549       -0.28441        0.39580
| 14> H          5.04363        0.57189        0.22290
| 15> H          4.72335       -0.73327        1.28180
| 16> H          1.93479        0.10230       -1.40379
| 17> H          1.67464       -1.50562       -0.31610
| 18> H          2.92850       -2.21850        0.72549
| 19> H          4.18704        0.56990       -4.75451
| 20> H          2.78096        1.45217       -4.20898
| 21> H          3.07436       -0.16949       -3.62832
| 22> *
| 23> %MaxCore 64000
| 24>
| 25> %pal nprocs 4
| 26> end
| 27>
| 28> %scf
| 29>   MaxIter 150
| 30> end
| 31>
| 32>
| 33>                          ****END OF INPUT****

CARTESIAN COORDINATES (ANGSTROEM)
---------------------------------
  C      3.488280    1.600920   -1.522040
  C      4.342970    1.313420   -2.756830
  N      2.810290    0.428780   -1.014200
  H      5.132030    0.604990   -2.484470
  C      3.535900    0.749250   -3.924600
  H      4.841250    2.242140   -3.054080
  H      2.714550    2.331450   -1.760300
  H      4.090990    2.063150   -0.733380
  C      3.290980   -0.418020   -0.129080
  N      2.517540   -1.432020    0.239360
  N      4.535490   -0.284410    0.395800
  H      5.043630    0.571890    0.222900
  H      4.723350   -0.733270    1.281800
  H      1.934790    0.102300   -1.403790
  H      1.674640   -1.505620   -0.316100
  H      2.928500   -2.218500    0.725490
  H      4.187040    0.569900   -4.754510
  H      2.780960    1.452170   -4.208980
  H      3.074360   -0.169490   -3.628320

 Total Charge           Charge          ....    1
 Multiplicity           Mult            ....    1
 Number of Electrons    NEL             ....   56
 Basis Dimension        Dim             ....  236

ORBITAL ENERGIES
----------------

  NO   OCC          E(Eh)            E(eV)
   0   2.0000     -14.990163      -407.9031
   1   2.0000     -14.985554      -407.7777
   2   2.0000     -14.983126      -407.7116
   3   2.0000     -10.889826      -296.3272
   4   2.0000     -10.757620      -292.7297
   5   2.0000     -10.693844      -290.9943
   6   2.0000     -10.665963      -290.2356
   7   2.0000      -1.322410       -35.9846
   8   2.0000      -1.201598       -32.6971
   9   2.0000      -1.186482       -32.2858
  10   2.0000      -1.032690       -28.1009
  11   2.0000      -0.948379       -25.8067
  12   2.0000      -0.905441       -24.6383
  13   2.0000      -0.860015       -23.4022
  14   2.0000      -0.845611       -23.0103
  15   2.0000      -0.806779       -21.9536
  16   2.0000      -0.762061       -20.7367
  17   2.0000      -0.752838       -20.4858
  18   2.0000      -0.726221       -19.7615
  19   2.0000      -0.711958       -19.3734
  20   2.0000      -0.667399       -18.1609
  21   2.0000      -0.650796       -17.7091
  22   2.0000      -0.618013       -16.8170
  23   2.0000      -0.568620       -15.4729
  24   2.0000      -0.552013       -15.0210
  25   2.0000      -0.547366       -14.8946
  26   2.0000      -0.538536       -14.6543
  27   2.0000      -0.507486       -13.8094
  28   0.0000      -0.135786        -3.6949
  29   0.0000      -0.129236        -3.5167
  30   0.0000      -0.101947        -2.7741
  31   0.0000      -0.086756        -2.3607
  32   0.0000      -0.061206        -1.6655

MULLIKEN ATOMIC CHARGES
-----------------------
   0 C :    0.764322
   1 C :   -0.352347
   2 N :   -0.609613
   3 H :    0.005224
   4 C :    0.677853
   5 H :   -0.073238
   6 H :   -0.240471
   7 H :   -0.059980
   8 C :    1.416850
   9 N :   -0.064473
  10 N :   -0.023100
  11 H :   -0.023427
  12 H :   -0.132665
  13 H :   -0.186651
  14 H :    0.025900
  15 H :   -0.061735
  16 H :   -0.033951
  17 H :    0.057039
  18 H :   -0.085537
Sum of atomic charges:    1.0000000

LOEWDIN ATOMIC CHARGES
----------------------
   0 C :    0.076321
   1 C :   -0.052500
   2 N :    0.036223
   3 H :    0.022614
   4 C :    0.137990
   5 H :    0.038723
   6 H :    0.045142
   7 H :    0.029045
   8 C :   -0.020765
   9 N :    0.257155
  10 N :    0.277268
  11 H :    0.009991
  12 H :    0.036546
  13 H :    0.056657
  14 H :    0.035121
  15 H :    0.047389
  16 H :   -0.001324
  17 H :   -0.005445
  18 H :   -0.026150

  Mayer bond orders larger than 0.100000
B(  0-C ,  1-C ) :   1.0743 B(  0-C ,  2-N ) :   0.8986 B(  0-C ,  3-H ) :   0.1050
B(  0-C ,  6-H ) :   0.8204 B(  0-C ,  7-H ) :   0.8652 B(  0-C , 13-H ) :  -0.2413
B(  1-C ,  3-H ) :   0.9281 B(  1-C ,  4-C ) :   1.3126 B(  1-C ,  5-H ) :   1.0216
B(  1-C ,  6-H ) :   0.1236 B(  1-C , 16-H ) :   0.2044 B(  1-C , 17-H ) :   0.1978
B(  1-C , 18-H ) :   0.1927 B(  2-N ,  6-H ) :   0.2313 B(  2-N ,  7-H ) :   0.1106
B(  2-N ,  8-C ) :   0.9714 B(  2-N ,  9-N ) :   0.2583 B(  2-N , 10-N ) :   0.2114
B(  2-N , 13-H ) :   1.3459 B(  4-C , 16-H ) :   0.8291 B(  4-C , 17-H ) :   0.7744
B(  4-C , 18-H ) :   0.8339 B(  6-H ,  7-H ) :  -0.1361 B(  8-C ,  9-N ) :   0.8724
B(  8-C , 10-N ) :   0.9026 B(  8-C , 11-H ) :  -0.1046 B(  8-C , 12-H ) :  -0.1230
B(  8-C , 13-H ) :  -0.2656 B(  8-C , 14-H ) :  -0.1009 B(  9-N , 10-N ) :   0.1143
B(  9-N , 14-H ) :   1.0596 B(  9-N , 15-H ) :   1.1950 B( 10-N , 11-H ) :   1.0289
B( 10-N , 12-H ) :   1.2511 B( 11-H , 12-H ) :  -0.1702 B( 14-H , 15-H ) :  -0.1487

Dispersion correction           -0.000499785
FINAL SINGLE POINT ENERGY      -323.330215963107

DIPOLE MOMENT
-------------
                                X             Y             Z
Electronic contribution:     -1.34149      -2.87738       6.35476
Nuclear contribution   :      1.03951       2.07316      -5.00363
                        -----------------------------------------
Total Dipole Moment    :     -0.30198      -0.80422       1.35113
                        -----------------------------------------
Magnitude (a.u.)       :      1.60110
Magnitude (Debye)      :      4.06967

Rotational constants in cm-1:     0.160664     0.048801     0.043832
Rotational constants in MHz :  4816.589604  1463.007061  1314.037102

                             ****ORCA TERMINATED NORMALLY****
TOTAL RUN TIME: 0 days 0 hours 0 minutes 33 seconds 943 msec
