                         Program Version 5.0.0 -  RELEASE  -
|  1> !M062X D3Zero RIJCOSX def2-SVPD def2/J TightSCF xyzfile
|  2>
|  3> *xyzfile 0 1 B.xyz
|  4>
|  5> %MaxCore 64000
|  6>
|  7> %pal nprocs 4
|  8> end
|  9>
| 10> %scf
| 11>   MaxIter 150
| 12> end
| 13>
| 14>
| 15>                          ****END OF INPUT****

CARTESIAN COORDINATES (ANGSTROEM)
---------------------------------
  C      3.488276    1.600919   -1.522040
  C      4.342970    1.313419   -2.756826
  N      2.810285    0.428783   -1.014196
  H      5.132033    0.604994   -2.484466
  C      3.535896    0.749253   -3.924604
  H      4.841247    2.242136   -3.054083
  H      2.991617   -0.132199   -3.574137
  H      4.225505    0.392784   -4.695962
  C      2.564776    1.750890   -4.544523
  H      1.918749    2.171679   -3.769419
  C      1.686235    1.161657   -5.650111
  H      3.132494    2.594775   -4.951604
  C      0.839616   -0.037582   -5.220473
  H      2.323886    0.866395   -6.490796
  H      1.029518    1.951850   -6.029329
  C     -0.151019    0.254955   -4.094256
  H      1.499442   -0.857141   -4.922958
  H      0.290097   -0.410143   -6.091131
  H      0.328265    0.833022   -3.299125
  C     -0.721843   -0.999513   -3.439309
  H     -0.957367    0.884951   -4.485450
  H     -1.083403   -1.697555   -4.205656
  H     -1.581056   -0.723848   -2.820490
  C      0.287250   -1.711771   -2.527405
  H      1.131780   -2.067380   -3.159396
  H     -0.204137   -2.637326   -2.170480
  O      0.710505   -0.927506   -1.481767
  H      2.714548    2.331455   -1.760302
  H      4.090991    2.063151   -0.733382
  C      3.290978   -0.418021   -0.129083
  N      2.517536   -1.432017    0.239360
  N      4.535490   -0.284410    0.395800
  H      5.043627    0.571888    0.222899
  H      4.723346   -0.733273    1.281800
  H      1.934787    0.102305   -1.403788
  H      1.674638   -1.505616   -0.316095
  H      2.928503   -2.218502    0.725494

 Total Charge           Charge          ....    0
 Multiplicity           Mult            ....    1
 Number of Electrons    NEL             ....  112
 Basis Dimension        Dim             ....  467

ORBITAL ENERGIES
----------------

  NO   OCC          E(Eh)            E(eV)
   0   2.0000     -19.507257      -530.8194
   1   2.0000     -14.822454      -403.3395
   2   2.0000     -14.783218      -402.2718
   3   2.0000     -14.776090      -402.0779
   4   2.0000     -10.704633      -291.2879
   5   2.0000     -10.605839      -288.5995
   6   2.0000     -10.560247      -287.3589
   7   2.0000     -10.543177      -286.8944
   8   2.0000     -10.537421      -286.7378
   9   2.0000     -10.530532      -286.5503
  10   2.0000     -10.529677      -286.5271
  11   2.0000     -10.518746      -286.2296
  12   2.0000     -10.508226      -285.9434
  13   2.0000     -10.495696      -285.6024
  14   2.0000      -1.136895       -30.9365
  15   2.0000      -1.024654       -27.8823
  16   2.0000      -1.004934       -27.3457
  17   2.0000      -0.983604       -26.7652
  18   2.0000      -0.903919       -24.5969
  19   2.0000      -0.868161       -23.6238
  20   2.0000      -0.827972       -22.5303
  21   2.0000      -0.787697       -21.4343
  22   2.0000      -0.744127       -20.2487
  23   2.0000      -0.730829       -19.8869
  24   2.0000      -0.691189       -18.8082
  25   2.0000      -0.678726       -18.4691
  26   2.0000      -0.674283       -18.3482
  27   2.0000      -0.640743       -17.4355
  28   2.0000      -0.619960       -16.8700
  29   2.0000      -0.594709       -16.1829
  30   2.0000      -0.584810       -15.9135
  31   2.0000      -0.568145       -15.4600
  32   2.0000      -0.555332       -15.1114
  33   2.0000      -0.542643       -14.7661
  34   2.0000      -0.532215       -14.4823
  35   2.0000      -0.526269       -14.3205
  36   2.0000      -0.503996       -13.7144
  37   2.0000      -0.489411       -13.3176
  38   2.0000      -0.481612       -13.1053
  39   2.0000      -0.461016       -12.5449
  40   2.0000      -0.455332       -12.3902
  41   2.0000      -0.444161       -12.0862
  42   2.0000      -0.424502       -11.5513
  43   2.0000      -0.416407       -11.3310
  44   2.0000      -0.409625       -11.1465
  45   2.0000      -0.396706       -10.7949
  46   2.0000      -0.383506       -10.4357
  47   2.0000      -0.374445       -10.1892
  48   2.0000      -0.372855       -10.1459
  49   2.0000      -0.369385       -10.0515
  50   2.0000      -0.349593        -9.5129
  51   2.0000      -0.345880        -9.4119
  52   2.0000      -0.339704        -9.2438
  53   2.0000      -0.325620        -8.8606
  54   2.0000      -0.244946        -6.6653
  55   2.0000      -0.239312        -6.5120
  56   0.0000       0.009359         0.2547
  57   0.0000       0.035162         0.9568
  58   0.0000       0.042681         1.1614
  59   0.0000       0.054719         1.4890
  60   0.0000       0.056605         1.5403

MULLIKEN ATOMIC CHARGES
-----------------------
   0 C :    1.277522
   1 C :    0.325961
   2 N :    0.117562
   3 H :   -0.076419
   4 C :    0.408472
   5 H :   -0.125207
   6 H :   -0.378750
   7 H :   -0.182525
   8 C :   -0.070273
   9 H :    0.069993
  10 C :    0.675729
  11 H :   -0.261055
  12 C :    0.032974
  13 H :   -0.043233
  14 H :   -0.150393
  15 C :    0.268359
  16 H :   -0.048325
  17 H :   -0.251435
  18 H :   -0.367207
  19 C :    0.314782
  20 H :   -0.147336
  21 H :   -0.077326
  22 H :   -0.045137
  23 C :    0.754315
  24 H :   -0.142003
  25 H :   -0.307213
  26 O :   -0.948972
  27 H :   -0.289812
  28 H :   -0.298899
  29 C :    1.295955
  30 N :    0.289905
  31 N :    0.067027
  32 H :   -0.064776
  33 H :   -0.162024
  34 H :   -1.052329
  35 H :   -0.226856
  36 H :   -0.181049
Sum of atomic charges:    0.0000000

LOEWDIN ATOMIC CHARGES
----------------------
   0 C :    0.078458
   1 C :   -0.016779
   2 N :    0.065675
   3 H :    0.017065
   4 C :   -0.023223
   5 H :    0.025885
   6 H :    0.004390
   7 H :    0.029861
   8 C :   -0.035621
   9 H :   -0.001605
  10 C :   -0.032656
  11 H :    0.023464
  12 C :   -0.035369
  13 H :    0.020584
  14 H :    0.022387
  15 C :   -0.030483
  16 H :   -0.003887
  17 H :    0.022705
  18 H :   -0.004653
  19 C :   -0.032202
  20 H :    0.021499
  21 H :    0.019603
  22 H :    0.021698
  23 C :   -0.060209
  24 H :   -0.000700
  25 H :    0.008546
  26 O :   -0.445787
  27 H :    0.023999
  28 H :    0.011542
  29 C :   -0.025638
  30 N :    0.263523
  31 N :    0.238725
  32 H :   -0.013349
  33 H :    0.012267
  34 H :   -0.090161
  35 H :   -0.099110
  36 H :    0.019553

  Mayer bond orders larger than 0.100000
B(  0-C ,  1-C ) :   1.0259 B(  0-C ,  2-N ) :   0.8583 B(  0-C ,  4-C ) :   0.1362
B(  0-C , 27-H ) :   0.6638 B(  0-C , 28-H ) :   0.7703 B(  0-C , 34-H ) :  -0.6960
B(  1-C ,  3-H ) :   0.7606 B(  1-C ,  4-C ) :   1.2224 B(  1-C ,  5-H ) :   0.9500
B(  1-C , 27-H ) :   0.1024 B(  1-C , 28-H ) :   0.1310 B(  2-N , 27-H ) :   0.2138
B(  2-N , 29-C ) :   1.2230 B(  2-N , 31-N ) :   0.1864 B(  2-N , 34-H ) :   1.1625
B(  3-H ,  4-C ) :   0.1954 B(  4-C ,  6-H ) :   0.8189 B(  4-C ,  7-H ) :   0.7985
B(  4-C ,  8-C ) :   1.1675 B(  4-C , 11-H ) :   0.1681 B(  6-H ,  8-C ) :   0.1751
B(  6-H , 16-H ) :   0.1004 B(  7-H ,  8-C ) :   0.1316 B(  8-C ,  9-H ) :   0.8364
B(  8-C , 10-C ) :   1.1688 B(  8-C , 11-H ) :   0.9562 B(  8-C , 12-C ) :   0.1168
B(  8-C , 13-H ) :   0.1043 B(  8-C , 14-H ) :   0.3081 B(  9-H , 18-H ) :   0.1005
B( 10-C , 12-C ) :   1.1801 B( 10-C , 13-H ) :   0.7115 B( 10-C , 14-H ) :   0.6764
B( 12-C , 13-H ) :   0.2382 B( 12-C , 14-H ) :   0.1009 B( 12-C , 15-C ) :   1.1834
B( 12-C , 16-H ) :   0.8970 B( 12-C , 17-H ) :   0.8746 B( 12-C , 18-H ) :   0.1542
B( 12-C , 20-H ) :   0.1977 B( 13-H , 14-H ) :  -0.1701 B( 15-C , 17-H ) :   0.2643
B( 15-C , 18-H ) :   0.8589 B( 15-C , 19-C ) :   1.1910 B( 15-C , 20-H ) :   0.7984
B( 15-C , 22-H ) :   0.2351 B( 18-H , 19-C ) :   0.1390 B( 19-C , 21-H ) :   0.8113
B( 19-C , 22-H ) :   0.7163 B( 19-C , 23-C ) :   1.1186 B( 19-C , 24-H ) :   0.1150
B( 19-C , 25-H ) :   0.1158 B( 21-H , 23-C ) :   0.1540 B( 22-H , 23-C ) :   0.1557
B( 23-C , 24-H ) :   0.8318 B( 23-C , 25-H ) :   0.9437 B( 23-C , 26-O ) :   0.9095
B( 24-H , 26-O ) :   0.1185 B( 26-O , 34-H ) :   0.2249 B( 26-O , 35-H ) :   0.2694
B( 27-H , 28-H ) :  -0.1473 B( 27-H , 34-H ) :   0.1821 B( 29-C , 30-N ) :   0.8822
B( 29-C , 31-N ) :   0.8594 B( 29-C , 32-H ) :  -0.1131 B( 29-C , 34-H ) :  -0.7712
B( 29-C , 35-H ) :  -0.1496 B( 29-C , 36-H ) :  -0.1147 B( 30-N , 31-N ) :   0.1007
B( 30-N , 35-H ) :   1.0336 B( 30-N , 36-H ) :   1.2183 B( 31-N , 32-H ) :   1.0482
B( 31-N , 33-H ) :   1.2043 B( 32-H , 33-H ) :  -0.1620 B( 35-H , 36-H ) :  -0.1691

Dispersion correction           -0.002354121
FINAL SINGLE POINT ENERGY      -633.661228266836

DIPOLE MOMENT
-------------
                                X             Y             Z
Electronic contribution:      3.61982      -2.05165      11.34557
Nuclear contribution   :     -0.74583       2.62534      -9.91488
                        -----------------------------------------
Total Dipole Moment    :      2.87399       0.57369       1.43069
                        -----------------------------------------
Magnitude (a.u.)       :      3.26126
Magnitude (Debye)      :      8.28947

Rotational constants in cm-1:     0.027028     0.016098     0.010898
Rotational constants in MHz :   810.278072   482.590922   326.703462

                             ****ORCA TERMINATED NORMALLY****
TOTAL RUN TIME: 0 days 0 hours 3 minutes 35 seconds 818 msec
