                         Program Version 5.0.0 -  RELEASE  -
|  1> !M062X D3Zero RIJCOSX def2-SVPD def2/J TightSCF
|  2> *xyz 0 1
|  3> C         -0.15102        0.25496       -4.09426
|  4> C         -0.72184       -0.99951       -3.43931
|  5> H         -1.08340       -1.69755       -4.20566
|  6> H         -1.58106       -0.72385       -2.82049
|  7> C          0.28725       -1.71177       -2.52740
|  8> H          1.13178       -2.06738       -3.15940
|  9> H         -0.20414       -2.63733       -2.17048
| 10> F          0.71050       -0.92751       -1.48177
| 11> H         -0.89787        0.70479       -4.71455
| 12> H          0.69695       -0.00870       -4.69119
| 13> H          0.14812        0.94842       -3.33628
| 14> *
| 15> %MaxCore 64000
| 16>
| 17> %pal nprocs 4
| 18> end
| 19>
| 20> %scf
| 21>   MaxIter 150
| 22> end
| 23>
| 24>
| 25>                          ****END OF INPUT****

CARTESIAN COORDINATES (ANGSTROEM)
---------------------------------
  C     -0.151020    0.254960   -4.094260
  C     -0.721840   -0.999510   -3.439310
  H     -1.083400   -1.697550   -4.205660
  H     -1.581060   -0.723850   -2.820490
  C      0.287250   -1.711770   -2.527400
  H      1.131780   -2.067380   -3.159400
  H     -0.204140   -2.637330   -2.170480
  F      0.710500   -0.927510   -1.481770
  H     -0.897870    0.704790   -4.714550
  H      0.696950   -0.008700   -4.691190
  H      0.148120    0.948420   -3.336280

 Total Charge           Charge          ....    0
 Multiplicity           Mult            ....    1
 Number of Electrons    NEL             ....   34
 Basis Dimension        Dim             ....  139

ORBITAL ENERGIES
----------------

  NO   OCC          E(Eh)            E(eV)
   0   2.0000     -25.245017      -686.9518
   1   2.0000     -10.629937      -289.2553
   2   2.0000     -10.556867      -287.2669
   3   2.0000     -10.537393      -286.7371
   4   2.0000      -1.318767       -35.8855
   5   2.0000      -0.881516       -23.9873
   6   2.0000      -0.776721       -21.1356
   7   2.0000      -0.678293       -18.4573
   8   2.0000      -0.591879       -16.1059
   9   2.0000      -0.578161       -15.7326
  10   2.0000      -0.551202       -14.9990
  11   2.0000      -0.509486       -13.8638
  12   2.0000      -0.477713       -12.9992
  13   2.0000      -0.446427       -12.1479
  14   2.0000      -0.416843       -11.3429
  15   2.0000      -0.392550       -10.6818
  16   2.0000      -0.391802       -10.6615
  17   0.0000       0.039624         1.0782
  18   0.0000       0.064299         1.7497
  19   0.0000       0.072976         1.9858
  20   0.0000       0.092433         2.5152
  21   0.0000       0.117965         3.2100

MULLIKEN ATOMIC CHARGES
-----------------------
   0 C :    0.575152
   1 C :   -0.541601
   2 H :   -0.053400
   3 H :   -0.057839
   4 C :    0.709183
   5 H :   -0.008122
   6 H :   -0.059913
   7 F :   -0.469661
   8 H :   -0.046073
   9 H :   -0.037717
  10 H :   -0.010009
Sum of atomic charges:    0.0000000

LOEWDIN ATOMIC CHARGES
----------------------
   0 C :    0.121499
   1 C :   -0.071151
   2 H :    0.028186
   3 H :    0.024054
   4 C :    0.107840
   5 H :    0.036625
   6 H :    0.029675
   7 F :   -0.227445
   8 H :   -0.018365
   9 H :   -0.016515
  10 H :   -0.014403

  Mayer bond orders larger than 0.100000
B(  0-C ,  1-C ) :   1.3036 B(  0-C ,  8-H ) :   0.8302 B(  0-C ,  9-H ) :   0.8305
B(  0-C , 10-H ) :   0.8354 B(  1-C ,  2-H ) :   0.9896 B(  1-C ,  3-H ) :   0.9779
B(  1-C ,  4-C ) :   1.1811 B(  1-C ,  6-H ) :   0.1093 B(  1-C ,  8-H ) :   0.1805
B(  1-C ,  9-H ) :   0.1712 B(  1-C , 10-H ) :   0.1831 B(  4-C ,  5-H ) :   0.9267
B(  4-C ,  6-H ) :   0.9307 B(  4-C ,  7-F ) :   0.6646

Dispersion correction           -0.000086272
FINAL SINGLE POINT ENERGY      -218.113863907799

DIPOLE MOMENT
-------------
                                X             Y             Z
Electronic contribution:      2.46717      -0.82895       5.74235
Nuclear contribution   :     -2.76068       0.49992      -6.33880
                        -----------------------------------------
Total Dipole Moment    :     -0.29352      -0.32903      -0.59646
                        -----------------------------------------
Magnitude (a.u.)       :      0.74174
Magnitude (Debye)      :      1.88535

Rotational constants in cm-1:     0.493380     0.165620     0.140427
Rotational constants in MHz : 14791.174622  4965.163858  4209.902284

                             ****ORCA TERMINATED NORMALLY****
TOTAL RUN TIME: 0 days 0 hours 0 minutes 9 seconds 922 msec
