                         Program Version 5.0.0 -  RELEASE  -
|  1> !M062X D3Zero RIJCOSX def2-SVPD def2/J TightSCF
|  2> *xyz 0 1
|  3> C          3.48828        1.60092       -1.52204
|  4> C          4.34297        1.31342       -2.75683
|  5> C          2.81029        0.42878       -1.01420
|  6> H          5.13203        0.60499       -2.48447
|  7> C          3.53590        0.74925       -3.92460
|  8> H          4.84125        2.24214       -3.05408
|  9> H          2.71455        2.33145       -1.76030
| 10> H          4.09099        2.06315       -0.73338
| 11> C          3.29098       -0.41802       -0.12908
| 12> N          2.51754       -1.43202        0.23936
| 13> N          4.53549       -0.28441        0.39580
| 14> H          5.04363        0.57189        0.22290
| 15> H          4.72335       -0.73327        1.28180
| 16> H          1.93479        0.10230       -1.40379
| 17> H          1.67464       -1.50562       -0.31610
| 18> H          2.92850       -2.21850        0.72549
| 19> H          4.18704        0.56990       -4.75451
| 20> H          2.78096        1.45217       -4.20898
| 21> H          3.07436       -0.16949       -3.62832
| 22> *
| 23> %MaxCore 64000
| 24>
| 25> %pal nprocs 4
| 26> end
| 27>
| 28> %scf
| 29>   MaxIter 150
| 30> end
| 31>
| 32>
| 33>                          ****END OF INPUT****

CARTESIAN COORDINATES (ANGSTROEM)
---------------------------------
  C      3.488280    1.600920   -1.522040
  C      4.342970    1.313420   -2.756830
  C      2.810290    0.428780   -1.014200
  H      5.132030    0.604990   -2.484470
  C      3.535900    0.749250   -3.924600
  H      4.841250    2.242140   -3.054080
  H      2.714550    2.331450   -1.760300
  H      4.090990    2.063150   -0.733380
  C      3.290980   -0.418020   -0.129080
  N      2.517540   -1.432020    0.239360
  N      4.535490   -0.284410    0.395800
  H      5.043630    0.571890    0.222900
  H      4.723350   -0.733270    1.281800
  H      1.934790    0.102300   -1.403790
  H      1.674640   -1.505620   -0.316100
  H      2.928500   -2.218500    0.725490
  H      4.187040    0.569900   -4.754510
  H      2.780960    1.452170   -4.208980
  H      3.074360   -0.169490   -3.628320

 Total Charge           Charge          ....    0
 Multiplicity           Mult            ....    1
 Number of Electrons    NEL             ....   56
 Basis Dimension        Dim             ....  236

ORBITAL ENERGIES
----------------

  NO   OCC          E(Eh)            E(eV)
   0   2.0000     -14.763235      -401.7280
   1   2.0000     -14.758691      -401.6044
   2   2.0000     -10.593907      -288.2749
   3   2.0000     -10.528170      -286.4861
   4   2.0000     -10.526734      -286.4470
   5   2.0000     -10.518076      -286.2114
   6   2.0000     -10.476498      -285.0800
   7   2.0000      -1.060081       -28.8463
   8   2.0000      -0.963877       -26.2284
   9   2.0000      -0.879579       -23.9346
  10   2.0000      -0.809908       -22.0387
  11   2.0000      -0.741632       -20.1808
  12   2.0000      -0.671928       -18.2841
  13   2.0000      -0.648365       -17.6429
  14   2.0000      -0.613375       -16.6908
  15   2.0000      -0.579783       -15.7767
  16   2.0000      -0.535279       -14.5657
  17   2.0000      -0.512479       -13.9453
  18   2.0000      -0.509290       -13.8585
  19   2.0000      -0.474393       -12.9089
  20   2.0000      -0.464919       -12.6511
  21   2.0000      -0.439818       -11.9681
  22   2.0000      -0.424543       -11.5524
  23   2.0000      -0.391169       -10.6443
  24   2.0000      -0.375823       -10.2267
  25   2.0000      -0.373389       -10.1604
  26   2.0000      -0.332056        -9.0357
  27   2.0000      -0.216481        -5.8908
  28   0.0000       0.035181         0.9573
  29   0.0000       0.060271         1.6400
  30   0.0000       0.061683         1.6785
  31   0.0000       0.077574         2.1109
  32   0.0000       0.087903         2.3920

MULLIKEN ATOMIC CHARGES
-----------------------
   0 C :    0.272235
   1 C :   -0.292607
   2 C :   -0.265920
   3 H :   -0.083357
   4 C :    0.688932
   5 H :   -0.079603
   6 H :   -0.027901
   7 H :   -0.060337
   8 C :    0.706960
   9 N :   -0.095027
  10 N :   -0.089816
  11 H :   -0.004110
  12 H :   -0.226006
  13 H :   -0.276589
  14 H :    0.099632
  15 H :   -0.176809
  16 H :   -0.043232
  17 H :    0.031257
  18 H :   -0.077703
Sum of atomic charges:   -0.0000000

LOEWDIN ATOMIC CHARGES
----------------------
   0 C :   -0.063772
   1 C :   -0.079641
   2 C :   -0.035179
   3 H :    0.016505
   4 C :    0.119110
   5 H :    0.014026
   6 H :    0.018528
   7 H :    0.007141
   8 C :   -0.217017
   9 N :    0.165786
  10 N :    0.196808
  11 H :   -0.019418
  12 H :   -0.011052
  13 H :   -0.048239
  14 H :    0.003861
  15 H :   -0.002500
  16 H :   -0.021899
  17 H :   -0.016904
  18 H :   -0.026145

  Mayer bond orders larger than 0.100000
B(  0-C ,  1-C ) :   1.0859 B(  0-C ,  2-C ) :   1.1689 B(  0-C ,  3-H ) :   0.1398
B(  0-C ,  5-H ) :   0.1106 B(  0-C ,  6-H ) :   0.8026 B(  0-C ,  7-H ) :   0.8538
B(  0-C , 13-H ) :   0.2116 B(  1-C ,  3-H ) :   0.9717 B(  1-C ,  4-C ) :   1.3245
B(  1-C ,  5-H ) :   0.9489 B(  1-C , 16-H ) :   0.2283 B(  1-C , 17-H ) :   0.2173
B(  1-C , 18-H ) :   0.2264 B(  2-C ,  6-H ) :   0.2360 B(  2-C ,  7-H ) :   0.2757
B(  2-C ,  8-C ) :   1.7164 B(  2-C ,  9-N ) :   0.3046 B(  2-C , 10-N ) :   0.1671
B(  2-C , 13-H ) :   0.8762 B(  4-C , 16-H ) :   0.7694 B(  4-C , 17-H ) :   0.7747
B(  4-C , 18-H ) :   0.8196 B(  8-C ,  9-N ) :   0.8293 B(  8-C , 10-N ) :   0.8648
B(  8-C , 13-H ) :   0.2335 B(  9-N , 10-N ) :   0.1003 B(  9-N , 14-H ) :   1.0062
B(  9-N , 15-H ) :   1.2125 B( 10-N , 11-H ) :   0.9926 B( 10-N , 12-H ) :   1.2581
B( 11-H , 12-H ) :  -0.1474 B( 14-H , 15-H ) :  -0.1475

Dispersion correction           -0.000496072
FINAL SINGLE POINT ENERGY      -306.866900294950

DIPOLE MOMENT
-------------
                                X             Y             Z
Electronic contribution:     -0.68730      -2.65179       5.54712
Nuclear contribution   :      0.88816       2.11069      -4.95634
                        -----------------------------------------
Total Dipole Moment    :      0.20087      -0.54110       0.59078
                        -----------------------------------------
Magnitude (a.u.)       :      0.82593
Magnitude (Debye)      :      2.09935

Rotational constants in cm-1:     0.162296     0.048922     0.043870
Rotational constants in MHz :  4865.524396  1466.649652  1315.198467

                             ****ORCA TERMINATED NORMALLY****
TOTAL RUN TIME: 0 days 0 hours 0 minutes 34 seconds 606 msec
