                         Program Version 5.0.0 -  RELEASE  -
|  1> !M062X D3Zero RIJCOSX def2-SVPD def2/J TightSCF
|  2> *xyz 0 1
|  3> C          3.48828        1.60092       -1.52204
|  4> C          4.34297        1.31342       -2.75683
|  5> N          2.81029        0.42878       -1.01420
|  6> H          5.13203        0.60499       -2.48447
|  7> C          3.53590        0.74925       -3.92460
|  8> H          4.84125        2.24214       -3.05408
|  9> H          2.71455        2.33145       -1.76030
| 10> H          4.09099        2.06315       -0.73338
| 11> C          3.29098       -0.41802       -0.12908
| 12> C          2.51754       -1.43202        0.23936
| 13> N          4.53549       -0.28441        0.39580
| 14> H          5.04363        0.57189        0.22290
| 15> H          4.72335       -0.73327        1.28180
| 16> H          1.93479        0.10230       -1.40379
| 17> H          1.67464       -1.50562       -0.31610
| 18> H          2.92850       -2.21850        0.72549
| 19> H          4.18704        0.56990       -4.75451
| 20> H          2.78096        1.45217       -4.20898
| 21> H          3.07436       -0.16949       -3.62832
| 22> *
| 23> %MaxCore 64000
| 24>
| 25> %pal nprocs 4
| 26> end
| 27>
| 28> %scf
| 29>   MaxIter 150
| 30> end
| 31>
| 32>
| 33>                          ****END OF INPUT****

CARTESIAN COORDINATES (ANGSTROEM)
---------------------------------
  C      3.488280    1.600920   -1.522040
  C      4.342970    1.313420   -2.756830
  N      2.810290    0.428780   -1.014200
  H      5.132030    0.604990   -2.484470
  C      3.535900    0.749250   -3.924600
  H      4.841250    2.242140   -3.054080
  H      2.714550    2.331450   -1.760300
  H      4.090990    2.063150   -0.733380
  C      3.290980   -0.418020   -0.129080
  C      2.517540   -1.432020    0.239360
  N      4.535490   -0.284410    0.395800
  H      5.043630    0.571890    0.222900
  H      4.723350   -0.733270    1.281800
  H      1.934790    0.102300   -1.403790
  H      1.674640   -1.505620   -0.316100
  H      2.928500   -2.218500    0.725490
  H      4.187040    0.569900   -4.754510
  H      2.780960    1.452170   -4.208980
  H      3.074360   -0.169490   -3.628320

 Total Charge           Charge          ....    0
 Multiplicity           Mult            ....    1
 Number of Electrons    NEL             ....   56
 Basis Dimension        Dim             ....  236

ORBITAL ENERGIES
----------------

  NO   OCC          E(Eh)            E(eV)
   0   2.0000     -14.762596      -401.7107
   1   2.0000     -14.761976      -401.6938
   2   2.0000     -10.597026      -288.3597
   3   2.0000     -10.592359      -288.2327
   4   2.0000     -10.551657      -287.1252
   5   2.0000     -10.538741      -286.7737
   6   2.0000     -10.460680      -284.6496
   7   2.0000      -1.070959       -29.1423
   8   2.0000      -0.977796       -26.6072
   9   2.0000      -0.883030       -24.0285
  10   2.0000      -0.814961       -22.1762
  11   2.0000      -0.753622       -20.5071
  12   2.0000      -0.687152       -18.6984
  13   2.0000      -0.667464       -18.1626
  14   2.0000      -0.608099       -16.5472
  15   2.0000      -0.574848       -15.6424
  16   2.0000      -0.550216       -14.9722
  17   2.0000      -0.526129       -14.3167
  18   2.0000      -0.511722       -13.9247
  19   2.0000      -0.480266       -13.0687
  20   2.0000      -0.458149       -12.4669
  21   2.0000      -0.450105       -12.2480
  22   2.0000      -0.444066       -12.0836
  23   2.0000      -0.413666       -11.2564
  24   2.0000      -0.411641       -11.2013
  25   2.0000      -0.402806       -10.9609
  26   2.0000      -0.321465        -8.7475
  27   2.0000      -0.214419        -5.8346
  28   0.0000       0.031359         0.8533
  29   0.0000       0.050057         1.3621
  30   0.0000       0.060331         1.6417
  31   0.0000       0.066218         1.8019
  32   0.0000       0.090311         2.4575

MULLIKEN ATOMIC CHARGES
-----------------------
   0 C :    0.797291
   1 C :   -0.353214
   2 N :   -0.449218
   3 H :   -0.010770
   4 C :    0.689580
   5 H :   -0.129508
   6 H :   -0.316731
   7 H :   -0.105384
   8 C :    0.645898
   9 C :    0.428934
  10 N :    0.029485
  11 H :   -0.149792
  12 H :   -0.132196
  13 H :   -0.256681
  14 H :   -0.182150
  15 H :   -0.406452
  16 H :   -0.064129
  17 H :    0.042026
  18 H :   -0.076987
Sum of atomic charges:    0.0000000

LOEWDIN ATOMIC CHARGES
----------------------
   0 C :    0.048047
   1 C :   -0.070661
   2 N :   -0.028206
   3 H :    0.018143
   4 C :    0.121806
   5 H :    0.019096
   6 H :    0.022491
   7 H :    0.012425
   8 C :   -0.227534
   9 C :    0.141485
  10 N :    0.195205
  11 H :   -0.032710
  12 H :    0.005679
  13 H :    0.032491
  14 H :   -0.103695
  15 H :   -0.096148
  16 H :   -0.017762
  17 H :   -0.016860
  18 H :   -0.023292

  Mayer bond orders larger than 0.100000
B(  0-C ,  1-C ) :   1.0643 B(  0-C ,  2-N ) :   0.9177 B(  0-C ,  3-H ) :   0.1109
B(  0-C ,  6-H ) :   0.8024 B(  0-C ,  7-H ) :   0.8722 B(  0-C , 13-H ) :  -0.2736
B(  1-C ,  3-H ) :   0.9324 B(  1-C ,  4-C ) :   1.2941 B(  1-C ,  5-H ) :   1.0290
B(  1-C ,  6-H ) :   0.1331 B(  1-C , 16-H ) :   0.2123 B(  1-C , 17-H ) :   0.2056
B(  1-C , 18-H ) :   0.2086 B(  2-N ,  6-H ) :   0.2435 B(  2-N ,  7-H ) :   0.1208
B(  2-N ,  8-C ) :   1.0300 B(  2-N ,  9-C ) :   0.2547 B(  2-N , 10-N ) :   0.1239
B(  2-N , 13-H ) :   1.2940 B(  4-C , 16-H ) :   0.8140 B(  4-C , 17-H ) :   0.7689
B(  4-C , 18-H ) :   0.8362 B(  6-H ,  7-H ) :  -0.1506 B(  8-C ,  9-C ) :   1.7212
B(  8-C , 10-N ) :   0.8306 B(  8-C , 12-H ) :  -0.1038 B(  8-C , 13-H ) :  -0.2150
B(  8-C , 14-H ) :   0.2454 B(  8-C , 15-H ) :   0.2213 B(  9-C , 10-N ) :   0.1950
B(  9-C , 14-H ) :   0.7811 B(  9-C , 15-H ) :   0.7358 B( 10-N , 11-H ) :   1.0295
B( 10-N , 12-H ) :   1.2041 B( 11-H , 12-H ) :  -0.1576

Dispersion correction           -0.000490832
FINAL SINGLE POINT ENERGY      -306.854620131580

DIPOLE MOMENT
-------------
                                X             Y             Z
Electronic contribution:     -0.29282      -0.79963       4.27786
Nuclear contribution   :      0.82404       1.70307      -4.68174
                        -----------------------------------------
Total Dipole Moment    :      0.53122       0.90344      -0.40388
                        -----------------------------------------
Magnitude (a.u.)       :      1.12317
Magnitude (Debye)      :      2.85488

Rotational constants in cm-1:     0.164049     0.050262     0.045260
Rotational constants in MHz :  4918.051182  1506.829450  1356.872102

                             ****ORCA TERMINATED NORMALLY****
TOTAL RUN TIME: 0 days 0 hours 0 minutes 36 seconds 407 msec
