                         Program Version 5.0.0 -  RELEASE  -
|  1> !M062X D3Zero RIJCOSX def2-SVPD def2/J TightSCF
|  2> *xyz 0 1
|  3> C          3.48828        1.60092       -1.52204
|  4> C          4.34297        1.31342       -2.75683
|  5> N          2.81029        0.42878       -1.01420
|  6> H          5.13203        0.60499       -2.48447
|  7> C          3.53590        0.74925       -3.92460
|  8> H          4.84125        2.24214       -3.05408
|  9> H          2.71455        2.33145       -1.76030
| 10> H          4.09099        2.06315       -0.73338
| 11> C          3.29098       -0.41802       -0.12908
| 12> N          2.51754       -1.43202        0.23936
| 13> C          4.53549       -0.28441        0.39580
| 14> H          5.04363        0.57189        0.22290
| 15> H          4.72335       -0.73327        1.28180
| 16> H          1.93479        0.10230       -1.40379
| 17> H          1.67464       -1.50562       -0.31610
| 18> H          2.92850       -2.21850        0.72549
| 19> H          4.18704        0.56990       -4.75451
| 20> H          2.78096        1.45217       -4.20898
| 21> H          3.07436       -0.16949       -3.62832
| 22> *
| 23> %MaxCore 64000
| 24>
| 25> %pal nprocs 4
| 26> end
| 27>
| 28> %scf
| 29>   MaxIter 150
| 30> end
| 31>
| 32>
| 33>                          ****END OF INPUT****

CARTESIAN COORDINATES (ANGSTROEM)
---------------------------------
  C      3.488280    1.600920   -1.522040
  C      4.342970    1.313420   -2.756830
  N      2.810290    0.428780   -1.014200
  H      5.132030    0.604990   -2.484470
  C      3.535900    0.749250   -3.924600
  H      4.841250    2.242140   -3.054080
  H      2.714550    2.331450   -1.760300
  H      4.090990    2.063150   -0.733380
  C      3.290980   -0.418020   -0.129080
  N      2.517540   -1.432020    0.239360
  C      4.535490   -0.284410    0.395800
  H      5.043630    0.571890    0.222900
  H      4.723350   -0.733270    1.281800
  H      1.934790    0.102300   -1.403790
  H      1.674640   -1.505620   -0.316100
  H      2.928500   -2.218500    0.725490
  H      4.187040    0.569900   -4.754510
  H      2.780960    1.452170   -4.208980
  H      3.074360   -0.169490   -3.628320

 Total Charge           Charge          ....    0
 Multiplicity           Mult            ....    1
 Number of Electrons    NEL             ....   56
 Basis Dimension        Dim             ....  236

ORBITAL ENERGIES
----------------

  NO   OCC          E(Eh)            E(eV)
   0   2.0000     -14.769112      -401.8880
   1   2.0000     -14.764470      -401.7617
   2   2.0000     -10.600151      -288.4448
   3   2.0000     -10.585152      -288.0366
   4   2.0000     -10.544577      -286.9325
   5   2.0000     -10.535550      -286.6869
   6   2.0000     -10.462779      -284.7067
   7   2.0000      -1.080650       -29.4060
   8   2.0000      -0.984203       -26.7815
   9   2.0000      -0.870198       -23.6793
  10   2.0000      -0.795514       -21.6470
  11   2.0000      -0.778703       -21.1896
  12   2.0000      -0.687846       -18.7173
  13   2.0000      -0.632081       -17.1998
  14   2.0000      -0.619701       -16.8629
  15   2.0000      -0.603333       -16.4175
  16   2.0000      -0.544429       -14.8147
  17   2.0000      -0.522435       -14.2162
  18   2.0000      -0.507913       -13.8210
  19   2.0000      -0.471502       -12.8302
  20   2.0000      -0.469608       -12.7787
  21   2.0000      -0.445388       -12.1196
  22   2.0000      -0.435380       -11.8473
  23   2.0000      -0.412203       -11.2166
  24   2.0000      -0.405247       -11.0273
  25   2.0000      -0.396062       -10.7774
  26   2.0000      -0.315084        -8.5739
  27   2.0000      -0.217471        -5.9177
  28   0.0000       0.027963         0.7609
  29   0.0000       0.054467         1.4821
  30   0.0000       0.061627         1.6770
  31   0.0000       0.066588         1.8120
  32   0.0000       0.087618         2.3842

MULLIKEN ATOMIC CHARGES
-----------------------
   0 C :    0.743636
   1 C :   -0.313923
   2 N :   -0.615355
   3 H :   -0.033129
   4 C :    0.679441
   5 H :   -0.123442
   6 H :   -0.319779
   7 H :    0.033515
   8 C :    0.699565
   9 N :   -0.007836
  10 C :    0.467616
  11 H :   -0.067168
  12 H :   -0.569287
  13 H :   -0.294763
  14 H :   -0.102130
  15 H :   -0.063962
  16 H :   -0.065076
  17 H :    0.036720
  18 H :   -0.084643
Sum of atomic charges:    0.0000000

LOEWDIN ATOMIC CHARGES
----------------------
   0 C :    0.056620
   1 C :   -0.062294
   2 N :   -0.029731
   3 H :    0.020108
   4 C :    0.117773
   5 H :    0.021162
   6 H :    0.022255
   7 H :    0.020087
   8 C :   -0.234330
   9 N :    0.177845
  10 C :    0.163779
  11 H :   -0.127067
  12 H :   -0.107834
  13 H :    0.021050
  14 H :   -0.010379
  15 H :    0.016411
  16 H :   -0.018464
  17 H :   -0.018816
  18 H :   -0.028174

  Mayer bond orders larger than 0.100000
B(  0-C ,  1-C ) :   1.0549 B(  0-C ,  2-N ) :   0.8982 B(  0-C ,  3-H ) :   0.1365
B(  0-C ,  6-H ) :   0.8620 B(  0-C ,  7-H ) :   0.8446 B(  0-C , 13-H ) :  -0.2423
B(  1-C ,  3-H ) :   0.9365 B(  1-C ,  4-C ) :   1.2874 B(  1-C ,  5-H ) :   1.0340
B(  1-C ,  6-H ) :   0.1165 B(  1-C , 16-H ) :   0.2095 B(  1-C , 17-H ) :   0.2024
B(  1-C , 18-H ) :   0.2030 B(  2-N ,  6-H ) :   0.1974 B(  2-N ,  7-H ) :   0.1015
B(  2-N ,  8-C ) :   0.7807 B(  2-N ,  9-N ) :   0.1750 B(  2-N , 10-C ) :   0.3761
B(  2-N , 13-H ) :   1.4117 B(  4-C , 16-H ) :   0.8173 B(  4-C , 17-H ) :   0.7717
B(  4-C , 18-H ) :   0.8408 B(  6-H ,  7-H ) :  -0.1783 B(  8-C ,  9-N ) :   0.8162
B(  8-C , 10-C ) :   1.7788 B(  8-C , 11-H ) :   0.3162 B(  8-C , 12-H ) :   0.2042
B(  8-C , 13-H ) :  -0.2879 B(  9-N , 10-C ) :   0.2403 B(  9-N , 14-H ) :   1.0566
B(  9-N , 15-H ) :   1.1837 B( 10-C , 11-H ) :   0.6229 B( 10-C , 12-H ) :   0.7710
B( 14-H , 15-H ) :  -0.1424

Dispersion correction           -0.000494557
FINAL SINGLE POINT ENERGY      -306.854894461518

DIPOLE MOMENT
-------------
                                X             Y             Z
Electronic contribution:     -2.19699      -2.02465       4.06450
Nuclear contribution   :      1.26608       1.95446      -4.64747
                        -----------------------------------------
Total Dipole Moment    :     -0.93091      -0.07019      -0.58297
                        -----------------------------------------
Magnitude (a.u.)       :      1.10063
Magnitude (Debye)      :      2.79757

Rotational constants in cm-1:     0.166109     0.049557     0.044716
Rotational constants in MHz :  4979.835529  1485.675017  1340.540851

                             ****ORCA TERMINATED NORMALLY****
TOTAL RUN TIME: 0 days 0 hours 0 minutes 34 seconds 460 msec
