                         Program Version 5.0.0 -  RELEASE  -
|  1> !M062X D3Zero RIJCOSX def2-SVPD def2/J TightSCF xyzfile
|  2>
|  3> *xyzfile 0 1 D2.xyz
|  4>
|  5> %MaxCore 64000
|  6>
|  7> %pal nprocs 4
|  8> end
|  9>
| 10> %scf
| 11>   MaxIter 150
| 12> end
| 13>
| 14>
| 15>                          ****END OF INPUT****

CARTESIAN COORDINATES (ANGSTROEM)
---------------------------------
  C      3.488276    1.600919   -1.522040
  C      4.342970    1.313419   -2.756826
  N      2.810285    0.428783   -1.014196
  H      5.132033    0.604994   -2.484466
  C      3.535896    0.749253   -3.924604
  H      4.841247    2.242136   -3.054083
  H      2.991617   -0.132199   -3.574137
  H      4.225505    0.392784   -4.695962
  C      2.564776    1.750890   -4.544523
  H      1.918749    2.171679   -3.769419
  C      1.686235    1.161657   -5.650111
  H      3.132494    2.594775   -4.951604
  C      0.839616   -0.037582   -5.220473
  H      2.323886    0.866395   -6.490796
  H      1.029518    1.951850   -6.029329
  C     -0.151019    0.254955   -4.094256
  H      1.499442   -0.857141   -4.922958
  H      0.290097   -0.410143   -6.091131
  H      0.328265    0.833022   -3.299125
  C     -0.721843   -0.999513   -3.439309
  H     -0.957367    0.884951   -4.485450
  H     -1.083403   -1.697555   -4.205656
  H     -1.581056   -0.723848   -2.820490
  C      0.287250   -1.711771   -2.527405
  H      1.131780   -2.067380   -3.159396
  H     -0.204137   -2.637326   -2.170480
  F      0.710505   -0.927506   -1.481767
  H      2.714548    2.331455   -1.760302
  H      4.090991    2.063151   -0.733382
  C      3.290978   -0.418021   -0.129083
  C      2.517536   -1.432017    0.239360
  N      4.535490   -0.284410    0.395800
  H      5.043627    0.571888    0.222899
  H      4.723346   -0.733273    1.281800
  H      1.934787    0.102305   -1.403788
  H      1.674638   -1.505616   -0.316095
  H      2.928503   -2.218502    0.725494

 Total Charge           Charge          ....    0
 Multiplicity           Mult            ....    1
 Number of Electrons    NEL             ....  112
 Basis Dimension        Dim             ....  467

ORBITAL ENERGIES
----------------

  NO   OCC          E(Eh)            E(eV)
   0   2.0000     -25.272129      -687.6896
   1   2.0000     -14.746445      -401.2712
   2   2.0000     -14.735146      -400.9637
   3   2.0000     -10.642479      -289.5966
   4   2.0000     -10.578519      -287.8561
   5   2.0000     -10.577477      -287.8278
   6   2.0000     -10.564615      -287.4778
   7   2.0000     -10.555051      -287.2175
   8   2.0000     -10.551227      -287.1135
   9   2.0000     -10.548925      -287.0509
  10   2.0000     -10.545859      -286.9674
  11   2.0000     -10.543834      -286.9123
  12   2.0000     -10.542577      -286.8781
  13   2.0000     -10.432944      -283.8949
  14   2.0000      -1.354953       -36.8701
  15   2.0000      -1.052013       -28.6267
  16   2.0000      -0.961596       -26.1664
  17   2.0000      -0.920257       -25.0415
  18   2.0000      -0.891254       -24.2523
  19   2.0000      -0.863346       -23.4928
  20   2.0000      -0.815198       -22.1827
  21   2.0000      -0.791022       -21.5248
  22   2.0000      -0.754312       -20.5259
  23   2.0000      -0.725665       -19.7463
  24   2.0000      -0.691953       -18.8290
  25   2.0000      -0.676964       -18.4211
  26   2.0000      -0.655508       -17.8373
  27   2.0000      -0.636467       -17.3191
  28   2.0000      -0.619979       -16.8705
  29   2.0000      -0.604943       -16.4613
  30   2.0000      -0.587320       -15.9818
  31   2.0000      -0.577498       -15.7145
  32   2.0000      -0.557165       -15.1612
  33   2.0000      -0.546407       -14.8685
  34   2.0000      -0.541085       -14.7237
  35   2.0000      -0.524999       -14.2859
  36   2.0000      -0.509224       -13.8567
  37   2.0000      -0.500930       -13.6310
  38   2.0000      -0.498600       -13.5676
  39   2.0000      -0.481243       -13.0953
  40   2.0000      -0.464118       -12.6293
  41   2.0000      -0.448781       -12.2120
  42   2.0000      -0.439857       -11.9691
  43   2.0000      -0.436400       -11.8750
  44   2.0000      -0.431748       -11.7485
  45   2.0000      -0.424615       -11.5544
  46   2.0000      -0.410770       -11.1776
  47   2.0000      -0.404741       -11.0136
  48   2.0000      -0.400343       -10.8939
  49   2.0000      -0.391109       -10.6426
  50   2.0000      -0.385566       -10.4918
  51   2.0000      -0.375857       -10.2276
  52   2.0000      -0.373021       -10.1504
  53   2.0000      -0.369439       -10.0529
  54   2.0000      -0.304225        -8.2784
  55   2.0000      -0.194783        -5.3003
  56   0.0000       0.035701         0.9715
  57   0.0000       0.040187         1.0936
  58   0.0000       0.046703         1.2709
  59   0.0000       0.049454         1.3457
  60   0.0000       0.065387         1.7793

MULLIKEN ATOMIC CHARGES
-----------------------
   0 C :    1.232283
   1 C :    0.351449
   2 N :    0.290385
   3 H :   -0.069128
   4 C :    0.421877
   5 H :   -0.166077
   6 H :   -0.365334
   7 H :   -0.194731
   8 C :   -0.052651
   9 H :    0.054510
  10 C :    0.668495
  11 H :   -0.257265
  12 C :    0.049473
  13 H :   -0.030048
  14 H :   -0.153118
  15 C :    0.285855
  16 H :   -0.049634
  17 H :   -0.257106
  18 H :   -0.370321
  19 C :    0.286185
  20 H :   -0.128022
  21 H :   -0.068098
  22 H :   -0.045456
  23 C :    0.897587
  24 H :   -0.084189
  25 H :   -0.235810
  26 F :   -0.664277
  27 H :   -0.335355
  28 H :   -0.308647
  29 C :    0.616411
  30 C :    0.803435
  31 N :    0.077628
  32 H :   -0.127563
  33 H :   -0.151466
  34 H :   -1.043934
  35 H :   -0.585427
  36 H :   -0.291916
Sum of atomic charges:    0.0000000

LOEWDIN ATOMIC CHARGES
----------------------
   0 C :    0.064326
   1 C :   -0.019471
   2 N :   -0.001827
   3 H :    0.020137
   4 C :   -0.028578
   5 H :    0.021628
   6 H :   -0.002543
   7 H :    0.028525
   8 C :   -0.035355
   9 H :   -0.003070
  10 C :   -0.029182
  11 H :    0.026859
  12 C :   -0.033818
  13 H :    0.024594
  14 H :    0.023896
  15 C :   -0.024090
  16 H :   -0.002745
  17 H :    0.025594
  18 H :    0.003564
  19 C :   -0.010481
  20 H :    0.030746
  21 H :    0.036792
  22 H :    0.029861
  23 C :    0.174824
  24 H :    0.035873
  25 H :    0.042871
  26 F :   -0.237950
  27 H :    0.010839
  28 H :    0.011232
  29 C :   -0.205988
  30 C :    0.167443
  31 N :    0.191628
  32 H :   -0.036077
  33 H :    0.002453
  34 H :   -0.048437
  35 H :   -0.156653
  36 H :   -0.097422

  Mayer bond orders larger than 0.100000
B(  0-C ,  1-C ) :   1.0251 B(  0-C ,  2-N ) :   1.0265 B(  0-C ,  4-C ) :   0.1552
B(  0-C ,  5-H ) :   0.1005 B(  0-C , 27-H ) :   0.6351 B(  0-C , 28-H ) :   0.7759
B(  0-C , 34-H ) :  -0.7440 B(  1-C ,  3-H ) :   0.7566 B(  1-C ,  4-C ) :   1.2216
B(  1-C ,  5-H ) :   0.9393 B(  1-C , 27-H ) :   0.1026 B(  1-C , 28-H ) :   0.1260
B(  2-N , 27-H ) :   0.1466 B(  2-N , 29-C ) :   1.0733 B(  2-N , 30-C ) :   0.2016
B(  2-N , 31-N ) :   0.1720 B(  2-N , 34-H ) :   0.9032 B(  3-H ,  4-C ) :   0.2018
B(  3-H ,  5-H ) :  -0.1151 B(  3-H , 34-H ) :   0.1185 B(  4-C ,  6-H ) :   0.8434
B(  4-C ,  7-H ) :   0.7879 B(  4-C ,  8-C ) :   1.1574 B(  4-C , 11-H ) :   0.1657
B(  6-H ,  8-C ) :   0.1661 B(  6-H , 34-H ) :   0.1025 B(  7-H ,  8-C ) :   0.1348
B(  8-C ,  9-H ) :   0.8438 B(  8-C , 10-C ) :   1.1641 B(  8-C , 11-H ) :   0.9569
B(  8-C , 12-C ) :   0.1200 B(  8-C , 13-H ) :   0.1047 B(  8-C , 14-H ) :   0.2995
B(  9-H , 18-H ) :   0.1096 B( 10-C , 12-C ) :   1.1957 B( 10-C , 13-H ) :   0.7100
B( 10-C , 14-H ) :   0.6833 B( 12-C , 13-H ) :   0.2417 B( 12-C , 14-H ) :   0.1029
B( 12-C , 15-C ) :   1.1769 B( 12-C , 16-H ) :   0.8858 B( 12-C , 17-H ) :   0.8874
B( 12-C , 18-H ) :   0.1555 B( 12-C , 20-H ) :   0.1945 B( 13-H , 14-H ) :  -0.1732
B( 15-C , 17-H ) :   0.2509 B( 15-C , 18-H ) :   0.8538 B( 15-C , 19-C ) :   1.1594
B( 15-C , 20-H ) :   0.8426 B( 15-C , 22-H ) :   0.2226 B( 18-H , 19-C ) :   0.1159
B( 19-C , 21-H ) :   0.8163 B( 19-C , 22-H ) :   0.7365 B( 19-C , 23-C ) :   1.2105
B( 19-C , 24-H ) :   0.1211 B( 19-C , 25-H ) :   0.1342 B( 21-H , 23-C ) :   0.1505
B( 22-H , 23-C ) :   0.1618 B( 23-C , 24-H ) :   0.8154 B( 23-C , 25-H ) :   0.9374
B( 23-C , 26-F ) :   0.5510 B( 24-H , 26-F ) :   0.1429 B( 26-F , 34-H ) :   0.1273
B( 26-F , 35-H ) :   0.1289 B( 27-H , 28-H ) :  -0.1513 B( 27-H , 34-H ) :   0.2469
B( 29-C , 30-C ) :   1.7660 B( 29-C , 31-N ) :   0.8030 B( 29-C , 34-H ) :  -0.7232
B( 29-C , 35-H ) :   0.2719 B( 29-C , 36-H ) :   0.4258 B( 30-C , 31-N ) :   0.2513
B( 30-C , 35-H ) :   0.3916 B( 30-C , 36-H ) :   0.4177 B( 31-N , 32-H ) :   0.9824
B( 31-N , 33-H ) :   1.1970 B( 32-H , 33-H ) :  -0.1569 B( 35-H , 36-H ) :   0.2029

Dispersion correction           -0.002338839
FINAL SINGLE POINT ENERGY      -641.562337583261

DIPOLE MOMENT
-------------
                                X             Y             Z
Electronic contribution:     -1.28088      -3.14664       9.43299
Nuclear contribution   :      1.09892       3.58083     -10.64472
                        -----------------------------------------
Total Dipole Moment    :     -0.18196       0.43419      -1.21172
                        -----------------------------------------
Magnitude (a.u.)       :      1.29996
Magnitude (Debye)      :      3.30425

Rotational constants in cm-1:     0.026768     0.016312     0.010954
Rotational constants in MHz :   802.489946   489.033275   328.388904

                             ****ORCA TERMINATED NORMALLY****
TOTAL RUN TIME: 0 days 0 hours 3 minutes 30 seconds 225 msec
