                         Program Version 5.0.0 -  RELEASE  -
|  1> !LC-BLYP RIJCOSX def2-TZVPD def2/J TightSCF
|  2> *xyz -1 1
|  3> C          0.96805        1.63064       -3.71575
|  4> C         -0.50835        1.72268       -4.12430
|  5> S         -1.32861        0.14674       -4.43578
|  6> H         -0.59151        2.29496       -5.04722
|  7> H         -1.11411        2.23561       -3.37436
|  8> O         -2.57135        0.47573       -5.06834
|  9> O         -1.51496       -0.40051       -3.06342
| 10> O         -0.37793       -0.62756       -5.20114
| 11> H          1.51840        1.12197       -4.47946
| 12> H          1.05062        1.08971       -2.79625
| 13> H          1.36450        2.61606       -3.58668
| 14> *
| 15> %MaxCore 64000
| 16>
| 17> %pal nprocs 4
| 18> end
| 19>
| 20> %scf
| 21>   MaxIter 150
| 22> end
| 23>
| 24>
| 25>                          ****END OF INPUT****

CARTESIAN COORDINATES (ANGSTROEM)
---------------------------------
  C      0.968050    1.630640   -3.715750
  C     -0.508350    1.722680   -4.124300
  S     -1.328610    0.146740   -4.435780
  H     -0.591510    2.294960   -5.047220
  H     -1.114110    2.235610   -3.374360
  O     -2.571350    0.475730   -5.068340
  O     -1.514960   -0.400510   -3.063420
  O     -0.377930   -0.627560   -5.201140
  H      1.518400    1.121970   -4.479460
  H      1.050620    1.089710   -2.796250
  H      1.364500    2.616060   -3.586680

 Total Charge           Charge          ....   -1
 Multiplicity           Mult            ....    1
 Number of Electrons    NEL             ....   58
 Basis Dimension        Dim             ....  285

ORBITAL ENERGIES
----------------

  NO   OCC          E(Eh)            E(eV)
   0   2.0000     -88.260056     -2401.6782
   1   2.0000     -18.725674      -509.5515
   2   2.0000     -18.722305      -509.4598
   3   2.0000     -18.706742      -509.0363
   4   2.0000      -9.929071      -270.1838
   5   2.0000      -9.922551      -270.0063
   6   2.0000      -7.802341      -212.3125
   7   2.0000      -5.830545      -158.6572
   8   2.0000      -5.829337      -158.6243
   9   2.0000      -5.829024      -158.6158
  10   2.0000      -1.026016       -27.9193
  11   2.0000      -0.894511       -24.3409
  12   2.0000      -0.864821       -23.5330
  13   2.0000      -0.739870       -20.1329
  14   2.0000      -0.614513       -16.7218
  15   2.0000      -0.486341       -13.2340
  16   2.0000      -0.423117       -11.5136
  17   2.0000      -0.422446       -11.4954
  18   2.0000      -0.380682       -10.3589
  19   2.0000      -0.367589       -10.0026
  20   2.0000      -0.358315        -9.7502
  21   2.0000      -0.329292        -8.9605
  22   2.0000      -0.312332        -8.4990
  23   2.0000      -0.258985        -7.0473
  24   2.0000      -0.258280        -7.0282
  25   2.0000      -0.222791        -6.0624
  26   2.0000      -0.210755        -5.7349
  27   2.0000      -0.198544        -5.4027
  28   2.0000      -0.165772        -4.5109
  29   0.0000       0.162968         4.4346
  30   0.0000       0.175372         4.7721
  31   0.0000       0.176043         4.7904
  32   0.0000       0.183205         4.9853
  33   0.0000       0.207739         5.6529

MULLIKEN ATOMIC CHARGES
-----------------------
   0 C :   -1.267561
   1 C :   -0.708899
   2 S :    1.065664
   3 H :    0.393546
   4 H :    0.380804
   5 O :   -0.634400
   6 O :   -0.709333
   7 O :   -0.657687
   8 H :    0.366560
   9 H :    0.353377
  10 H :    0.417929
Sum of atomic charges:   -1.0000000

LOEWDIN ATOMIC CHARGES
----------------------
   0 C :   -0.156483
   1 C :   -0.342508
   2 S :    0.302222
   3 H :    0.083714
   4 H :    0.088702
   5 O :   -0.368680
   6 O :   -0.412588
   7 O :   -0.372522
   8 H :    0.059503
   9 H :    0.065611
  10 H :    0.053029

  Mayer bond orders larger than 0.100000
B(  0-C ,  1-C ) :   0.4699 B(  0-C ,  8-H ) :   0.9421 B(  0-C ,  9-H ) :   0.9554
B(  0-C , 10-H ) :   0.8656 B(  1-C ,  2-S ) :   0.9565 B(  1-C ,  3-H ) :   0.8930
B(  1-C ,  4-H ) :   0.9105 B(  1-C ,  5-O ) :   0.1104 B(  1-C ,  6-O ) :   0.1031
B(  2-S ,  5-O ) :   1.5352 B(  2-S ,  6-O ) :   1.4735 B(  2-S ,  7-O ) :   1.5098

FINAL SINGLE POINT ENERGY      -702.484712384073

DIPOLE MOMENT
-------------
                                X             Y             Z
Electronic contribution:     -5.56576      -5.25405      -1.93167
Nuclear contribution   :      6.64523       6.80157       2.07300
                        -----------------------------------------
Total Dipole Moment    :      1.07947       1.54753       0.14133
                        -----------------------------------------
Magnitude (a.u.)       :      1.89211
Magnitude (Debye)      :      4.80935

Rotational constants in cm-1:     0.163070     0.082807     0.081541
Rotational constants in MHz :  4888.719902  2482.497026  2444.541148

                             ****ORCA TERMINATED NORMALLY****
TOTAL RUN TIME: 0 days 0 hours 0 minutes 56 seconds 913 msec
