                         Program Version 5.0.0 -  RELEASE  -
|  1> !LC-BLYP RIJCOSX def2-TZVPD def2/J TightSCF
|  2> *xyz 1 1
|  3> C          1.36401        0.46874       -2.81376
|  4> N          0.42884        0.32140       -1.65531
|  5> C          0.96805        1.63064       -3.71575
|  6> H          0.74858       -0.40054       -1.00134
|  7> H         -0.46105        0.02333       -2.07773
|  8> H          0.31026        1.20137       -1.13495
|  9> H          1.29485       -0.46874       -3.36468
| 10> H          2.37622        0.59740       -2.43149
| 11> H          1.65923        1.70213       -4.52942
| 12> H          0.98421        2.54058       -3.15304
| 13> H         -0.01744        1.46536       -4.09838
| 14> *
| 15> %MaxCore 64000
| 16>
| 17> %pal nprocs 4
| 18> end
| 19>
| 20> %scf
| 21>   MaxIter 150
| 22> end
| 23>
| 24>
| 25>                          ****END OF INPUT****

CARTESIAN COORDINATES (ANGSTROEM)
---------------------------------
  C      1.364010    0.468740   -2.813760
  N      0.428840    0.321400   -1.655310
  C      0.968050    1.630640   -3.715750
  H      0.748580   -0.400540   -1.001340
  H     -0.461050    0.023330   -2.077730
  H      0.310260    1.201370   -1.134950
  H      1.294850   -0.468740   -3.364680
  H      2.376220    0.597400   -2.431490
  H      1.659230    1.702130   -4.529420
  H      0.984210    2.540580   -3.153040
  H     -0.017440    1.465360   -4.098380

 Total Charge           Charge          ....    1
 Multiplicity           Mult            ....    1
 Number of Electrons    NEL             ....   26
 Basis Dimension        Dim             ....  183

ORBITAL ENERGIES
----------------

  NO   OCC          E(Eh)            E(eV)
   0   2.0000     -14.502811      -394.6416
   1   2.0000     -10.322888      -280.9001
   2   2.0000     -10.242934      -278.7244
   3   2.0000      -1.316182       -35.8151
   4   2.0000      -1.074594       -29.2412
   5   2.0000      -0.951546       -25.8929
   6   2.0000      -0.908798       -24.7297
   7   2.0000      -0.891563       -24.2607
   8   2.0000      -0.796804       -21.6821
   9   2.0000      -0.748167       -20.3587
  10   2.0000      -0.685082       -18.6420
  11   2.0000      -0.667934       -18.1754
  12   2.0000      -0.651413       -17.7258
  13   0.0000      -0.141469        -3.8496
  14   0.0000      -0.083641        -2.2760
  15   0.0000      -0.083260        -2.2656
  16   0.0000      -0.077093        -2.0978
  17   0.0000      -0.045016        -1.2250

MULLIKEN ATOMIC CHARGES
-----------------------
   0 C :   -0.507890
   1 N :   -0.392497
   2 C :   -1.356698
   3 H :    0.370841
   4 H :    0.374008
   5 H :    0.356813
   6 H :    0.409213
   7 H :    0.425637
   8 H :    0.415139
   9 H :    0.450748
  10 H :    0.454687
Sum of atomic charges:    1.0000000

LOEWDIN ATOMIC CHARGES
----------------------
   0 C :   -0.215413
   1 N :    0.182140
   2 C :   -0.067794
   3 H :    0.181496
   4 H :    0.181966
   5 H :    0.183730
   6 H :    0.140158
   7 H :    0.140252
   8 H :    0.098281
   9 H :    0.087656
  10 H :    0.087528

  Mayer bond orders larger than 0.100000
B(  0-C ,  1-N ) :   0.8017 B(  0-C ,  2-C ) :   0.4635 B(  0-C ,  6-H ) :   0.8836
B(  0-C ,  7-H ) :   0.8693 B(  1-N ,  3-H ) :   0.8677 B(  1-N ,  4-H ) :   0.8603
B(  1-N ,  5-H ) :   0.8681 B(  2-C ,  8-H ) :   0.9322 B(  2-C ,  9-H ) :   0.8409
B(  2-C , 10-H ) :   0.8404

FINAL SINGLE POINT ENERGY      -135.191659628420

DIPOLE MOMENT
-------------
                                X             Y             Z
Electronic contribution:     -0.34132      -0.94504       1.56354
Nuclear contribution   :     -0.20470       0.31427      -0.31587
                        -----------------------------------------
Total Dipole Moment    :     -0.54602      -0.63077       1.24767
                        -----------------------------------------
Magnitude (a.u.)       :      1.50090
Magnitude (Debye)      :      3.81498

Rotational constants in cm-1:     1.011480     0.279280     0.248378
Rotational constants in MHz : 30323.408050  8372.602834  7446.185305

                             ****ORCA TERMINATED NORMALLY****
TOTAL RUN TIME: 0 days 0 hours 0 minutes 21 seconds 29 msec
