                         Program Version 5.0.0 -  RELEASE  -
|  1> !LC-BLYP RIJCOSX def2-TZVPD def2/J TightSCF xyzfile
|  2>
|  3> *xyzfile 0 1 B.xyz
|  4>
|  5> %MaxCore 64000
|  6>
|  7> %pal nprocs 4
|  8> end
|  9>
| 10> %scf
| 11>   MaxIter 150
| 12> end
| 13>
| 14>
| 15>                          ****END OF INPUT****

CARTESIAN COORDINATES (ANGSTROEM)
---------------------------------
  C      1.364014    0.468742   -2.813764
  N      0.428844    0.321402   -1.655312
  C      0.968045    1.630639   -3.715749
  C     -0.508347    1.722679   -4.124300
  S     -1.328608    0.146737   -4.435781
  H     -0.591511    2.294958   -5.047219
  H     -1.114114    2.235610   -3.374362
  H      0.748578   -0.400542   -1.001345
  H     -0.461053    0.023332   -2.077731
  H      0.310258    1.201375   -1.134948
  O     -2.571347    0.475733   -5.068341
  O     -1.514963   -0.400512   -3.063420
  H      1.294847   -0.468742   -3.364684
  H      2.376216    0.597400   -2.431495
  H      1.578688    1.520652   -4.612733
  H      1.266653    2.575988   -3.250448
  O     -0.377928   -0.627558   -5.201141

 Total Charge           Charge          ....    0
 Multiplicity           Mult            ....    1
 Number of Electrons    NEL             ....   74
 Basis Dimension        Dim             ....  395

ORBITAL ENERGIES
----------------

  NO   OCC          E(Eh)            E(eV)
   0   2.0000     -88.426958     -2406.2199
   1   2.0000     -18.896063      -514.1880
   2   2.0000     -18.880873      -513.7747
   3   2.0000     -18.878453      -513.7088
   4   2.0000     -14.303483      -389.2175
   5   2.0000     -10.161489      -276.5082
   6   2.0000     -10.112655      -275.1793
   7   2.0000     -10.092073      -274.6193
   8   2.0000      -7.969417      -216.8589
   9   2.0000      -5.997989      -163.2136
  10   2.0000      -5.996803      -163.1813
  11   2.0000      -5.995283      -163.1399
  12   2.0000      -1.194220       -32.4964
  13   2.0000      -1.133536       -30.8451
  14   2.0000      -1.051642       -28.6166
  15   2.0000      -1.050094       -28.5745
  16   2.0000      -0.937178       -25.5019
  17   2.0000      -0.850152       -23.1338
  18   2.0000      -0.764048       -20.7908
  19   2.0000      -0.733121       -19.9492
  20   2.0000      -0.718604       -19.5542
  21   2.0000      -0.652982       -17.7686
  22   2.0000      -0.630220       -17.1491
  23   2.0000      -0.595189       -16.1959
  24   2.0000      -0.578083       -15.7304
  25   2.0000      -0.566262       -15.4088
  26   2.0000      -0.534789       -14.5524
  27   2.0000      -0.524922       -14.2838
  28   2.0000      -0.503422       -13.6988
  29   2.0000      -0.494425       -13.4540
  30   2.0000      -0.476404       -12.9636
  31   2.0000      -0.428611       -11.6631
  32   2.0000      -0.420612       -11.4454
  33   2.0000      -0.387477       -10.5438
  34   2.0000      -0.377738       -10.2788
  35   2.0000      -0.368119       -10.0170
  36   2.0000      -0.336443        -9.1551
  37   0.0000       0.001033         0.0281
  38   0.0000       0.038155         1.0382
  39   0.0000       0.041464         1.1283
  40   0.0000       0.067123         1.8265
  41   0.0000       0.077321         2.1040

MULLIKEN ATOMIC CHARGES
-----------------------
   0 C :   -0.938556
   1 N :   -0.270617
   2 C :   -0.631675
   3 C :   -0.978782
   4 S :    1.195697
   5 H :    0.443524
   6 H :    0.424857
   7 H :    0.360873
   8 H :    0.325878
   9 H :    0.326674
  10 O :   -0.592935
  11 O :   -0.806545
  12 H :    0.502012
  13 H :    0.467004
  14 H :    0.386989
  15 H :    0.410246
  16 O :   -0.624643
Sum of atomic charges:   -0.0000000

LOEWDIN ATOMIC CHARGES
----------------------
   0 C :   -0.182637
   1 N :    0.154254
   2 C :   -0.217328
   3 C :   -0.254824
   4 S :    0.391847
   5 H :    0.108690
   6 H :    0.104085
   7 H :    0.170807
   8 H :    0.023128
   9 H :    0.173597
  10 O :   -0.300756
  11 O :   -0.356723
  12 H :    0.126004
  13 H :    0.130308
  14 H :    0.127559
  15 H :    0.119178
  16 O :   -0.317187

  Mayer bond orders larger than 0.100000
B(  0-C ,  1-N ) :   0.7928 B(  0-C ,  2-C ) :   0.5710 B(  0-C , 12-H ) :   0.8581
B(  0-C , 13-H ) :   0.8276 B(  1-N ,  7-H ) :   0.8675 B(  1-N ,  8-H ) :   0.7603
B(  1-N ,  9-H ) :   0.8778 B(  1-N , 11-O ) :  -0.1220 B(  2-C ,  3-C ) :   0.6057
B(  2-C , 14-H ) :   0.9349 B(  2-C , 15-H ) :   0.9058 B(  3-C ,  4-S ) :   0.9470
B(  3-C ,  5-H ) :   0.8929 B(  3-C ,  6-H ) :   0.8948 B(  3-C , 10-O ) :   0.1421
B(  3-C , 11-O ) :   0.1031 B(  4-S , 10-O ) :   1.5739 B(  4-S , 11-O ) :   1.2586
B(  4-S , 16-O ) :   1.5236 B(  8-H , 11-O ) :   0.1746

FINAL SINGLE POINT ENERGY      -797.459562811616

DIPOLE MOMENT
-------------
                                X             Y             Z
Electronic contribution:     -6.88488      -4.11296      -4.27775
Nuclear contribution   :      9.95459       5.57517       7.68169
                        -----------------------------------------
Total Dipole Moment    :      3.06971       1.46222       3.40393
                        -----------------------------------------
Magnitude (a.u.)       :      4.81123
Magnitude (Debye)      :     12.22918

Rotational constants in cm-1:     0.102119     0.045768     0.041299
Rotational constants in MHz :  3061.441288  1372.093000  1238.124534

                             ****ORCA TERMINATED NORMALLY****
TOTAL RUN TIME: 0 days 0 hours 1 minutes 48 seconds 98 msec
