                         Program Version 5.0.0 -  RELEASE  -
|  1> !LC-BLYP RIJCOSX def2-TZVPD def2/J TightSCF
|  2> *xyz 0 1
|  3> C          0.96805        1.63064       -3.71575
|  4> C         -0.50835        1.72268       -4.12430
|  5> S         -1.32861        0.14674       -4.43578
|  6> H         -0.59151        2.29496       -5.04722
|  7> H         -1.11411        2.23561       -3.37436
|  8> F         -2.57135        0.47573       -5.06834
|  9> O         -1.51496       -0.40051       -3.06342
| 10> O         -0.37793       -0.62756       -5.20114
| 11> H          1.51840        1.12197       -4.47946
| 12> H          1.05062        1.08971       -2.79625
| 13> H          1.36450        2.61606       -3.58668
| 14> *
| 15> %MaxCore 64000
| 16>
| 17> %pal nprocs 4
| 18> end
| 19>
| 20> %scf
| 21>   MaxIter 150
| 22> end
| 23>
| 24>
| 25>                          ****END OF INPUT****

CARTESIAN COORDINATES (ANGSTROEM)
---------------------------------
  C      0.968050    1.630640   -3.715750
  C     -0.508350    1.722680   -4.124300
  S     -1.328610    0.146740   -4.435780
  H     -0.591510    2.294960   -5.047220
  H     -1.114110    2.235610   -3.374360
  F     -2.571350    0.475730   -5.068340
  O     -1.514960   -0.400510   -3.063420
  O     -0.377930   -0.627560   -5.201140
  H      1.518400    1.121970   -4.479460
  H      1.050620    1.089710   -2.796250
  H      1.364500    2.616060   -3.586680

 Total Charge           Charge          ....    0
 Multiplicity           Mult            ....    1
 Number of Electrons    NEL             ....   58
 Basis Dimension        Dim             ....  285

ORBITAL ENERGIES
----------------

  NO   OCC          E(Eh)            E(eV)
   0   2.0000     -88.521394     -2408.7896
   1   2.0000     -24.583908      -668.9622
   2   2.0000     -18.955799      -515.8135
   3   2.0000     -18.940104      -515.3864
   4   2.0000     -10.130149      -275.6554
   5   2.0000     -10.085242      -274.4334
   6   2.0000      -8.064154      -219.4368
   7   2.0000      -6.095784      -165.8747
   8   2.0000      -6.089024      -165.6908
   9   2.0000      -6.088754      -165.6834
  10   2.0000      -1.476420       -40.1754
  11   2.0000      -1.201337       -32.6901
  12   2.0000      -1.098281       -29.8857
  13   2.0000      -0.929505       -25.2931
  14   2.0000      -0.846509       -23.0347
  15   2.0000      -0.785725       -21.3807
  16   2.0000      -0.699992       -19.0478
  17   2.0000      -0.698635       -19.0108
  18   2.0000      -0.661452       -17.9990
  19   2.0000      -0.599612       -16.3163
  20   2.0000      -0.588508       -16.0141
  21   2.0000      -0.544708       -14.8223
  22   2.0000      -0.533739       -14.5238
  23   2.0000      -0.509526       -13.8649
  24   2.0000      -0.489630       -13.3235
  25   2.0000      -0.487145       -13.2559
  26   2.0000      -0.436686       -11.8828
  27   2.0000      -0.420228       -11.4350
  28   2.0000      -0.406917       -11.0728
  29   0.0000       0.032467         0.8835
  30   0.0000       0.050619         1.3774
  31   0.0000       0.056534         1.5384
  32   0.0000       0.059884         1.6295
  33   0.0000       0.086577         2.3559

MULLIKEN ATOMIC CHARGES
-----------------------
   0 C :   -1.293884
   1 C :   -0.732701
   2 S :    1.056562
   3 H :    0.450603
   4 H :    0.444877
   5 F :   -0.078989
   6 O :   -0.555364
   7 O :   -0.517163
   8 H :    0.408574
   9 H :    0.392330
  10 H :    0.425155
Sum of atomic charges:   -0.0000000

LOEWDIN ATOMIC CHARGES
----------------------
   0 C :   -0.111537
   1 C :   -0.299271
   2 S :    0.550353
   3 H :    0.100585
   4 H :    0.106409
   5 F :   -0.027786
   6 O :   -0.294671
   7 O :   -0.260017
   8 H :    0.075440
   9 H :    0.081660
  10 H :    0.078836

  Mayer bond orders larger than 0.100000
B(  0-C ,  1-C ) :   0.5386 B(  0-C ,  8-H ) :   0.8964 B(  0-C ,  9-H ) :   0.9143
B(  0-C , 10-H ) :   0.8666 B(  1-C ,  2-S ) :   0.9312 B(  1-C ,  3-H ) :   0.8147
B(  1-C ,  4-H ) :   0.8401 B(  2-S ,  5-F ) :   1.0365 B(  2-S ,  6-O ) :   1.6696
B(  2-S ,  7-O ) :   1.7089

FINAL SINGLE POINT ENERGY      -726.981256027381

DIPOLE MOMENT
-------------
                                X             Y             Z
Electronic contribution:     -8.31925      -5.11608      -3.23729
Nuclear contribution   :      8.31000       6.74109       2.87442
                        -----------------------------------------
Total Dipole Moment    :     -0.00924       1.62501      -0.36287
                        -----------------------------------------
Magnitude (a.u.)       :      1.66505
Magnitude (Debye)      :      4.23223

Rotational constants in cm-1:     0.158705     0.080192     0.078179
Rotational constants in MHz :  4757.865601  2404.095079  2343.752507

                             ****ORCA TERMINATED NORMALLY****
TOTAL RUN TIME: 0 days 0 hours 0 minutes 55 seconds 565 msec
