                         Program Version 5.0.0 -  RELEASE  -
|  1> !LC-BLYP RIJCOSX def2-TZVPD def2/J TightSCF
|  2> *xyz 0 1
|  3> C          1.36401        0.46874       -2.81376
|  4> C          0.42884        0.32140       -1.65531
|  5> C          0.96805        1.63064       -3.71575
|  6> H          0.74858       -0.40054       -1.00134
|  7> H         -0.46105        0.02333       -2.07773
|  8> H          0.31026        1.20137       -1.13495
|  9> H          1.29485       -0.46874       -3.36468
| 10> H          2.37622        0.59740       -2.43149
| 11> H          1.65923        1.70213       -4.52942
| 12> H          0.98421        2.54058       -3.15304
| 13> H         -0.01744        1.46536       -4.09838
| 14> *
| 15> %MaxCore 64000
| 16>
| 17> %pal nprocs 4
| 18> end
| 19>
| 20> %scf
| 21>   MaxIter 150
| 22> end
| 23>
| 24>
| 25>                          ****END OF INPUT****

CARTESIAN COORDINATES (ANGSTROEM)
---------------------------------
  C      1.364010    0.468740   -2.813760
  C      0.428840    0.321400   -1.655310
  C      0.968050    1.630640   -3.715750
  H      0.748580   -0.400540   -1.001340
  H     -0.461050    0.023330   -2.077730
  H      0.310260    1.201370   -1.134950
  H      1.294850   -0.468740   -3.364680
  H      2.376220    0.597400   -2.431490
  H      1.659230    1.702130   -4.529420
  H      0.984210    2.540580   -3.153040
  H     -0.017440    1.465360   -4.098380

 Total Charge           Charge          ....    0
 Multiplicity           Mult            ....    1
 Number of Electrons    NEL             ....   26
 Basis Dimension        Dim             ....  183

ORBITAL ENERGIES
----------------

  NO   OCC          E(Eh)            E(eV)
   0   2.0000     -10.054254      -273.5902
   1   2.0000     -10.044712      -273.3305
   2   2.0000     -10.027889      -272.8727
   3   2.0000      -0.901333       -24.5265
   4   2.0000      -0.798244       -21.7213
   5   2.0000      -0.691664       -18.8211
   6   2.0000      -0.578759       -15.7488
   7   2.0000      -0.550896       -14.9906
   8   2.0000      -0.504509       -13.7284
   9   2.0000      -0.491284       -13.3685
  10   2.0000      -0.435251       -11.8438
  11   2.0000      -0.430529       -11.7153
  12   2.0000      -0.425587       -11.5808
  13   0.0000       0.060608         1.6492
  14   0.0000       0.080136         2.1806
  15   0.0000       0.082776         2.2525
  16   0.0000       0.109849         2.9891
  17   0.0000       0.130951         3.5634

MULLIKEN ATOMIC CHARGES
-----------------------
   0 C :   -0.393902
   1 C :   -1.448942
   2 C :   -1.265986
   3 H :    0.409046
   4 H :    0.425357
   5 H :    0.432136
   6 H :    0.326082
   7 H :    0.379470
   8 H :    0.367053
   9 H :    0.382284
  10 H :    0.387404
Sum of atomic charges:    0.0000000

LOEWDIN ATOMIC CHARGES
----------------------
   0 C :   -0.333594
   1 C :   -0.136316
   2 C :   -0.130012
   3 H :    0.055006
   4 H :    0.060330
   5 H :    0.060197
   6 H :    0.108205
   7 H :    0.107413
   8 H :    0.066195
   9 H :    0.071024
  10 H :    0.071550

  Mayer bond orders larger than 0.100000
B(  0-C ,  1-C ) :   0.4351 B(  0-C ,  2-C ) :   0.5084 B(  0-C ,  6-H ) :   0.9588
B(  0-C ,  7-H ) :   0.8952 B(  1-C ,  3-H ) :   0.9321 B(  1-C ,  4-H ) :   0.8908
B(  1-C ,  5-H ) :   0.8575 B(  2-C ,  8-H ) :   0.9552 B(  2-C ,  9-H ) :   0.9220
B(  2-C , 10-H ) :   0.9122

FINAL SINGLE POINT ENERGY      -118.785275241742

DIPOLE MOMENT
-------------
                                X             Y             Z
Electronic contribution:      0.36894      -0.18579      -0.01832
Nuclear contribution   :     -0.35842       0.15752       0.02695
                        -----------------------------------------
Total Dipole Moment    :      0.01052      -0.02827       0.00863
                        -----------------------------------------
Magnitude (a.u.)       :      0.03138
Magnitude (Debye)      :      0.07975

Rotational constants in cm-1:     1.019891     0.293671     0.260247
Rotational constants in MHz : 30575.551403  8804.039097  7802.009261

                             ****ORCA TERMINATED NORMALLY****
TOTAL RUN TIME: 0 days 0 hours 0 minutes 19 seconds 614 msec
