                         Program Version 5.0.0 -  RELEASE  -
|  1> !LC-BLYP RIJCOSX def2-TZVPD def2/J TightSCF
|  2> *xyz 0 1
|  3> C          0.96805        1.63064       -3.71575
|  4> C         -0.50835        1.72268       -4.12430
|  5> S         -1.32861        0.14674       -4.43578
|  6> H         -0.59151        2.29496       -5.04722
|  7> H         -1.11411        2.23561       -3.37436
|  8> O         -2.57135        0.47573       -5.06834
|  9> F         -1.51496       -0.40051       -3.06342
| 10> O         -0.37793       -0.62756       -5.20114
| 11> H          1.51840        1.12197       -4.47946
| 12> H          1.05062        1.08971       -2.79625
| 13> H          1.36450        2.61606       -3.58668
| 14> *
| 15> %MaxCore 64000
| 16>
| 17> %pal nprocs 4
| 18> end
| 19>
| 20> %scf
| 21>   MaxIter 150
| 22> end
| 23>
| 24>
| 25>                          ****END OF INPUT****

CARTESIAN COORDINATES (ANGSTROEM)
---------------------------------
  C      0.968050    1.630640   -3.715750
  C     -0.508350    1.722680   -4.124300
  S     -1.328610    0.146740   -4.435780
  H     -0.591510    2.294960   -5.047220
  H     -1.114110    2.235610   -3.374360
  O     -2.571350    0.475730   -5.068340
  F     -1.514960   -0.400510   -3.063420
  O     -0.377930   -0.627560   -5.201140
  H      1.518400    1.121970   -4.479460
  H      1.050620    1.089710   -2.796250
  H      1.364500    2.616060   -3.586680

 Total Charge           Charge          ....    0
 Multiplicity           Mult            ....    1
 Number of Electrons    NEL             ....   58
 Basis Dimension        Dim             ....  285

ORBITAL ENERGIES
----------------

  NO   OCC          E(Eh)            E(eV)
   0   2.0000     -88.518130     -2408.7008
   1   2.0000     -24.554839      -668.1711
   2   2.0000     -18.958738      -515.8935
   3   2.0000     -18.955295      -515.7998
   4   2.0000     -10.129186      -275.6292
   5   2.0000     -10.086909      -274.4787
   6   2.0000      -8.060934      -219.3492
   7   2.0000      -6.092803      -165.7936
   8   2.0000      -6.085940      -165.6068
   9   2.0000      -6.085356      -165.5909
  10   2.0000      -1.430270       -38.9196
  11   2.0000      -1.215577       -33.0775
  12   2.0000      -1.123470       -30.5712
  13   2.0000      -0.931302       -25.3420
  14   2.0000      -0.827860       -22.5272
  15   2.0000      -0.778067       -21.1723
  16   2.0000      -0.684727       -18.6324
  17   2.0000      -0.666630       -18.1399
  18   2.0000      -0.652427       -17.7534
  19   2.0000      -0.600788       -16.3483
  20   2.0000      -0.582169       -15.8416
  21   2.0000      -0.561029       -15.2664
  22   2.0000      -0.538392       -14.6504
  23   2.0000      -0.511436       -13.9169
  24   2.0000      -0.504915       -13.7394
  25   2.0000      -0.483510       -13.1570
  26   2.0000      -0.446383       -12.1467
  27   2.0000      -0.434107       -11.8127
  28   2.0000      -0.426350       -11.6016
  29   0.0000       0.035849         0.9755
  30   0.0000       0.052299         1.4231
  31   0.0000       0.056784         1.5452
  32   0.0000       0.058968         1.6046
  33   0.0000       0.087558         2.3826

MULLIKEN ATOMIC CHARGES
-----------------------
   0 C :   -1.264811
   1 C :   -0.727963
   2 S :    1.059479
   3 H :    0.433523
   4 H :    0.449189
   5 O :   -0.502013
   6 F :   -0.150213
   7 O :   -0.518833
   8 H :    0.404292
   9 H :    0.390186
  10 H :    0.427164
Sum of atomic charges:    0.0000000

LOEWDIN ATOMIC CHARGES
----------------------
   0 C :   -0.121528
   1 C :   -0.290137
   2 S :    0.549848
   3 H :    0.111672
   4 H :    0.106099
   5 O :   -0.253535
   6 F :   -0.071966
   7 O :   -0.258148
   8 H :    0.074254
   9 H :    0.076155
  10 H :    0.077288

  Mayer bond orders larger than 0.100000
B(  0-C ,  1-C ) :   0.4819 B(  0-C ,  8-H ) :   0.9247 B(  0-C ,  9-H ) :   0.8985
B(  0-C , 10-H ) :   0.8782 B(  1-C ,  2-S ) :   0.9369 B(  1-C ,  3-H ) :   0.8530
B(  1-C ,  4-H ) :   0.8347 B(  2-S ,  5-O ) :   1.7266 B(  2-S ,  6-F ) :   0.9797
B(  2-S ,  7-O ) :   1.7076

FINAL SINGLE POINT ENERGY      -727.005256508137

DIPOLE MOMENT
-------------
                                X             Y             Z
Electronic contribution:     -6.53218      -6.60653       0.18626
Nuclear contribution   :      7.20921       7.65416       0.78523
                        -----------------------------------------
Total Dipole Moment    :      0.67704       1.04763       0.97149
                        -----------------------------------------
Magnitude (a.u.)       :      1.58104
Magnitude (Debye)      :      4.01869

Rotational constants in cm-1:     0.153780     0.081282     0.079816
Rotational constants in MHz :  4610.199589  2436.778679  2392.820729

                             ****ORCA TERMINATED NORMALLY****
TOTAL RUN TIME: 0 days 0 hours 0 minutes 55 seconds 332 msec
