                         Program Version 5.0.0 -  RELEASE  -
|  1> !LC-BLYP RIJCOSX def2-TZVPD def2/J TightSCF
|  2> *xyz 0 1
|  3> C          0.96805        1.63064       -3.71575
|  4> C         -0.50835        1.72268       -4.12430
|  5> S         -1.32861        0.14674       -4.43578
|  6> H         -0.59151        2.29496       -5.04722
|  7> H         -1.11411        2.23561       -3.37436
|  8> O         -2.57135        0.47573       -5.06834
|  9> O         -1.51496       -0.40051       -3.06342
| 10> F         -0.37793       -0.62756       -5.20114
| 11> H          1.51840        1.12197       -4.47946
| 12> H          1.05062        1.08971       -2.79625
| 13> H          1.36450        2.61606       -3.58668
| 14> *
| 15> %MaxCore 64000
| 16>
| 17> %pal nprocs 4
| 18> end
| 19>
| 20> %scf
| 21>   MaxIter 150
| 22> end
| 23>
| 24>
| 25>                          ****END OF INPUT****

CARTESIAN COORDINATES (ANGSTROEM)
---------------------------------
  C      0.968050    1.630640   -3.715750
  C     -0.508350    1.722680   -4.124300
  S     -1.328610    0.146740   -4.435780
  H     -0.591510    2.294960   -5.047220
  H     -1.114110    2.235610   -3.374360
  O     -2.571350    0.475730   -5.068340
  O     -1.514960   -0.400510   -3.063420
  F     -0.377930   -0.627560   -5.201140
  H      1.518400    1.121970   -4.479460
  H      1.050620    1.089710   -2.796250
  H      1.364500    2.616060   -3.586680

 Total Charge           Charge          ....    0
 Multiplicity           Mult            ....    1
 Number of Electrons    NEL             ....   58
 Basis Dimension        Dim             ....  285

ORBITAL ENERGIES
----------------

  NO   OCC          E(Eh)            E(eV)
   0   2.0000     -88.520519     -2408.7658
   1   2.0000     -24.577656      -668.7920
   2   2.0000     -18.959331      -515.9096
   3   2.0000     -18.940096      -515.3862
   4   2.0000     -10.129902      -275.6487
   5   2.0000     -10.090581      -274.5787
   6   2.0000      -8.063299      -219.4135
   7   2.0000      -6.095124      -165.8568
   8   2.0000      -6.088106      -165.6658
   9   2.0000      -6.087825      -165.6581
  10   2.0000      -1.466000       -39.8919
  11   2.0000      -1.206851       -32.8401
  12   2.0000      -1.101041       -29.9608
  13   2.0000      -0.933480       -25.4013
  14   2.0000      -0.839209       -22.8360
  15   2.0000      -0.788436       -21.4544
  16   2.0000      -0.705634       -19.2013
  17   2.0000      -0.691837       -18.8259
  18   2.0000      -0.651679       -17.7331
  19   2.0000      -0.601079       -16.3562
  20   2.0000      -0.581629       -15.8269
  21   2.0000      -0.556498       -15.1431
  22   2.0000      -0.541433       -14.7331
  23   2.0000      -0.514636       -14.0039
  24   2.0000      -0.498848       -13.5743
  25   2.0000      -0.485263       -13.2047
  26   2.0000      -0.438882       -11.9426
  27   2.0000      -0.420825       -11.4512
  28   2.0000      -0.409951       -11.1553
  29   0.0000       0.033443         0.9100
  30   0.0000       0.050454         1.3729
  31   0.0000       0.056502         1.5375
  32   0.0000       0.059698         1.6245
  33   0.0000       0.086269         2.3475

MULLIKEN ATOMIC CHARGES
-----------------------
   0 C :   -1.308651
   1 C :   -0.686718
   2 S :    1.048432
   3 H :    0.449991
   4 H :    0.423868
   5 O :   -0.495407
   6 O :   -0.557305
   7 F :   -0.108541
   8 H :    0.415429
   9 H :    0.396943
  10 H :    0.421959
Sum of atomic charges:    0.0000000

LOEWDIN ATOMIC CHARGES
----------------------
   0 C :   -0.121967
   1 C :   -0.290433
   2 S :    0.548048
   3 H :    0.103198
   4 H :    0.116231
   5 O :   -0.252582
   6 O :   -0.293663
   7 F :   -0.036302
   8 H :    0.071016
   9 H :    0.078573
  10 H :    0.077883

  Mayer bond orders larger than 0.100000
B(  0-C ,  1-C ) :   0.4532 B(  0-C ,  8-H ) :   0.8712 B(  0-C ,  9-H ) :   0.9354
B(  0-C , 10-H ) :   0.8857 B(  1-C ,  2-S ) :   0.9402 B(  1-C ,  3-H ) :   0.8442
B(  1-C ,  4-H ) :   0.8627 B(  2-S ,  5-O ) :   1.7327 B(  2-S ,  6-O ) :   1.6739
B(  2-S ,  7-F ) :   1.0263

FINAL SINGLE POINT ENERGY      -726.986037236089

DIPOLE MOMENT
-------------
                                X             Y             Z
Electronic contribution:     -4.60119      -6.96455      -3.44762
Nuclear contribution   :      6.02439       7.89075       3.01280
                        -----------------------------------------
Total Dipole Moment    :      1.42321       0.92621      -0.43482
                        -----------------------------------------
Magnitude (a.u.)       :      1.75284
Magnitude (Debye)      :      4.45536

Rotational constants in cm-1:     0.153652     0.082400     0.079295
Rotational constants in MHz :  4606.361242  2470.285703  2377.214112

                             ****ORCA TERMINATED NORMALLY****
TOTAL RUN TIME: 0 days 0 hours 0 minutes 55 seconds 907 msec
