                         Program Version 5.0.0 -  RELEASE  -
|  1> !LC-BLYP RIJCOSX def2-TZVPD def2/J TightSCF xyzfile
|  2>
|  3> *xyzfile 0 1 D1.xyz
|  4>
|  5> %MaxCore 64000
|  6>
|  7> %pal nprocs 4
|  8> end
|  9>
| 10> %scf
| 11>   MaxIter 150
| 12> end
| 13>
| 14>
| 15>                          ****END OF INPUT****

CARTESIAN COORDINATES (ANGSTROEM)
---------------------------------
  C      1.364014    0.468742   -2.813764
  C      0.428844    0.321402   -1.655312
  C      0.968045    1.630639   -3.715749
  C     -0.508347    1.722679   -4.124300
  S     -1.328608    0.146737   -4.435781
  H     -0.591511    2.294958   -5.047219
  H     -1.114114    2.235610   -3.374362
  H      0.748578   -0.400542   -1.001345
  H     -0.461053    0.023332   -2.077731
  H      0.310258    1.201375   -1.134948
  F     -2.571347    0.475733   -5.068341
  O     -1.514963   -0.400512   -3.063420
  H      1.294847   -0.468742   -3.364684
  H      2.376216    0.597400   -2.431495
  H      1.578688    1.520652   -4.612733
  H      1.266653    2.575988   -3.250448
  O     -0.377928   -0.627558   -5.201141

 Total Charge           Charge          ....    0
 Multiplicity           Mult            ....    1
 Number of Electrons    NEL             ....   74
 Basis Dimension        Dim             ....  395

ORBITAL ENERGIES
----------------

  NO   OCC          E(Eh)            E(eV)
   0   2.0000     -88.527355     -2408.9518
   1   2.0000     -24.587259      -669.0533
   2   2.0000     -18.960654      -515.9456
   3   2.0000     -18.947131      -515.5776
   4   2.0000     -10.130517      -275.6654
   5   2.0000     -10.089782      -274.5569
   6   2.0000     -10.053634      -273.5733
   7   2.0000      -9.996224      -272.0111
   8   2.0000      -8.070347      -219.6053
   9   2.0000      -6.101963      -166.0429
  10   2.0000      -6.095186      -165.8584
  11   2.0000      -6.094986      -165.8530
  12   2.0000      -1.480176       -40.2776
  13   2.0000      -1.210411       -32.9370
  14   2.0000      -1.111803       -30.2537
  15   2.0000      -0.942416       -25.6444
  16   2.0000      -0.884577       -24.0706
  17   2.0000      -0.830463       -22.5981
  18   2.0000      -0.787909       -21.4401
  19   2.0000      -0.718662       -19.5558
  20   2.0000      -0.705611       -19.2006
  21   2.0000      -0.684353       -18.6222
  22   2.0000      -0.653637       -17.7864
  23   2.0000      -0.616341       -16.7715
  24   2.0000      -0.603552       -16.4235
  25   2.0000      -0.567484       -15.4420
  26   2.0000      -0.561102       -15.2684
  27   2.0000      -0.527589       -14.3564
  28   2.0000      -0.507633       -13.8134
  29   2.0000      -0.503649       -13.7050
  30   2.0000      -0.489575       -13.3220
  31   2.0000      -0.457783       -12.4569
  32   2.0000      -0.448782       -12.2120
  33   2.0000      -0.421691       -11.4748
  34   2.0000      -0.420363       -11.4387
  35   2.0000      -0.414718       -11.2851
  36   2.0000      -0.375355       -10.2139
  37   0.0000       0.029922         0.8142
  38   0.0000       0.048486         1.3194
  39   0.0000       0.052788         1.4364
  40   0.0000       0.063130         1.7179
  41   0.0000       0.081313         2.2126

MULLIKEN ATOMIC CHARGES
-----------------------
   0 C :   -0.705722
   1 C :   -1.331129
   2 C :   -0.632713
   3 C :   -0.985984
   4 S :    1.102934
   5 H :    0.481603
   6 H :    0.459956
   7 H :    0.510028
   8 H :    0.349634
   9 H :    0.399819
  10 F :   -0.064888
  11 O :   -0.608536
  12 H :    0.378255
  13 H :    0.406218
  14 H :    0.356814
  15 H :    0.427634
  16 O :   -0.543922
Sum of atomic charges:    0.0000000

LOEWDIN ATOMIC CHARGES
----------------------
   0 C :   -0.263468
   1 C :   -0.126735
   2 C :   -0.225810
   3 C :   -0.227327
   4 S :    0.600171
   5 H :    0.106635
   6 H :    0.115805
   7 H :    0.067824
   8 H :   -0.035723
   9 H :    0.070545
  10 F :   -0.019978
  11 O :   -0.288865
  12 H :    0.107992
  13 H :    0.116926
  14 H :    0.117426
  15 H :    0.127563
  16 O :   -0.242979

  Mayer bond orders larger than 0.100000
B(  0-C ,  1-C ) :   0.3508 B(  0-C ,  2-C ) :   0.6434 B(  0-C , 12-H ) :   0.9578
B(  0-C , 13-H ) :   0.8693 B(  1-C ,  7-H ) :   0.8837 B(  1-C ,  8-H ) :   0.9710
B(  1-C ,  9-H ) :   1.0111 B(  2-C ,  3-C ) :   0.6870 B(  2-C , 14-H ) :   0.9243
B(  2-C , 15-H ) :   0.8816 B(  3-C ,  4-S ) :   0.9368 B(  3-C ,  5-H ) :   0.8059
B(  3-C ,  6-H ) :   0.8327 B(  3-C , 11-O ) :   0.1164 B(  4-S , 10-F ) :   1.0324
B(  4-S , 11-O ) :   1.6252 B(  4-S , 16-O ) :   1.7030 B(  8-H , 11-O ) :  -0.2235

FINAL SINGLE POINT ENERGY      -805.355510522667

DIPOLE MOMENT
-------------
                                X             Y             Z
Electronic contribution:    -12.47177      -4.05605      -9.72927
Nuclear contribution   :     12.25227       5.48563       9.26621
                        -----------------------------------------
Total Dipole Moment    :     -0.21950       1.42958      -0.46306
                        -----------------------------------------
Magnitude (a.u.)       :      1.51865
Magnitude (Debye)      :      3.86011

Rotational constants in cm-1:     0.103176     0.044975     0.040960
Rotational constants in MHz :  3093.138469  1348.317425  1227.945122

                             ****ORCA TERMINATED NORMALLY****
TOTAL RUN TIME: 0 days 0 hours 1 minutes 52 seconds 844 msec
