                         Program Version 5.0.0 -  RELEASE  -
|  1> !LC-BLYP RIJCOSX def2-TZVPD def2/J TightSCF xyzfile
|  2>
|  3> *xyzfile 0 1 D2.xyz
|  4>
|  5> %MaxCore 64000
|  6>
|  7> %pal nprocs 4
|  8> end
|  9>
| 10> %scf
| 11>   MaxIter 150
| 12> end
| 13>
| 14>
| 15>                          ****END OF INPUT****

CARTESIAN COORDINATES (ANGSTROEM)
---------------------------------
  C      1.364014    0.468742   -2.813764
  C      0.428844    0.321402   -1.655312
  C      0.968045    1.630639   -3.715749
  C     -0.508347    1.722679   -4.124300
  S     -1.328608    0.146737   -4.435781
  H     -0.591511    2.294958   -5.047219
  H     -1.114114    2.235610   -3.374362
  H      0.748578   -0.400542   -1.001345
  H     -0.461053    0.023332   -2.077731
  H      0.310258    1.201375   -1.134948
  O     -2.571347    0.475733   -5.068341
  F     -1.514963   -0.400512   -3.063420
  H      1.294847   -0.468742   -3.364684
  H      2.376216    0.597400   -2.431495
  H      1.578688    1.520652   -4.612733
  H      1.266653    2.575988   -3.250448
  O     -0.377928   -0.627558   -5.201141

 Total Charge           Charge          ....    0
 Multiplicity           Mult            ....    1
 Number of Electrons    NEL             ....   74
 Basis Dimension        Dim             ....  395

ORBITAL ENERGIES
----------------

  NO   OCC          E(Eh)            E(eV)
   0   2.0000     -88.521486     -2408.7921
   1   2.0000     -24.560471      -668.3244
   2   2.0000     -18.961329      -515.9640
   3   2.0000     -18.958047      -515.8747
   4   2.0000     -10.128315      -275.6055
   5   2.0000     -10.091426      -274.6017
   6   2.0000     -10.068297      -273.9723
   7   2.0000     -10.027502      -272.8622
   8   2.0000      -8.064591      -219.4487
   9   2.0000      -6.096607      -165.8971
  10   2.0000      -6.089448      -165.7023
  11   2.0000      -6.088903      -165.6875
  12   2.0000      -1.443810       -39.2881
  13   2.0000      -1.219884       -33.1947
  14   2.0000      -1.126693       -30.6589
  15   2.0000      -0.950105       -25.8537
  16   2.0000      -0.889436       -24.2028
  17   2.0000      -0.821850       -22.3637
  18   2.0000      -0.805375       -21.9154
  19   2.0000      -0.709979       -19.3195
  20   2.0000      -0.695366       -18.9219
  21   2.0000      -0.677010       -18.4224
  22   2.0000      -0.654612       -17.8129
  23   2.0000      -0.607548       -16.5322
  24   2.0000      -0.589879       -16.0514
  25   2.0000      -0.581762       -15.8305
  26   2.0000      -0.563562       -15.3353
  27   2.0000      -0.535714       -14.5775
  28   2.0000      -0.517357       -14.0780
  29   2.0000      -0.506307       -13.7773
  30   2.0000      -0.500033       -13.6066
  31   2.0000      -0.458472       -12.4757
  32   2.0000      -0.453513       -12.3407
  33   2.0000      -0.440139       -11.9768
  34   2.0000      -0.433853       -11.8057
  35   2.0000      -0.428206       -11.6521
  36   2.0000      -0.416555       -11.3351
  37   0.0000       0.039960         1.0874
  38   0.0000       0.049294         1.3414
  39   0.0000       0.055294         1.5046
  40   0.0000       0.060134         1.6363
  41   0.0000       0.082859         2.2547

MULLIKEN ATOMIC CHARGES
-----------------------
   0 C :   -0.718125
   1 C :   -1.417446
   2 C :   -0.579343
   3 C :   -0.949137
   4 S :    1.075552
   5 H :    0.445713
   6 H :    0.445169
   7 H :    0.517252
   8 H :    0.417826
   9 H :    0.416637
  10 O :   -0.523800
  11 F :   -0.198023
  12 H :    0.390015
  13 H :    0.408791
  14 H :    0.360810
  15 H :    0.435634
  16 O :   -0.527527
Sum of atomic charges:   -0.0000000

LOEWDIN ATOMIC CHARGES
----------------------
   0 C :   -0.266149
   1 C :   -0.113770
   2 C :   -0.232582
   3 C :   -0.223173
   4 S :    0.576802
   5 H :    0.117263
   6 H :    0.115115
   7 H :    0.069946
   8 H :   -0.005463
   9 H :    0.074535
  10 O :   -0.243589
  11 F :   -0.096444
  12 H :    0.106059
  13 H :    0.119415
  14 H :    0.118394
  15 H :    0.125400
  16 O :   -0.241757

  Mayer bond orders larger than 0.100000
B(  0-C ,  1-C ) :   0.3298 B(  0-C ,  2-C ) :   0.6254 B(  0-C , 12-H ) :   0.9666
B(  0-C , 13-H ) :   0.8689 B(  1-C ,  7-H ) :   0.8591 B(  1-C ,  8-H ) :   0.9055
B(  1-C ,  9-H ) :   0.9540 B(  1-C , 11-F ) :   0.1197 B(  2-C ,  3-C ) :   0.5916
B(  2-C , 14-H ) :   0.9346 B(  2-C , 15-H ) :   0.8919 B(  3-C ,  4-S ) :   0.9458
B(  3-C ,  5-H ) :   0.8531 B(  3-C ,  6-H ) :   0.8643 B(  4-S , 10-O ) :   1.6781
B(  4-S , 11-F ) :   1.0045 B(  4-S , 16-O ) :   1.6905 B(  8-H , 11-F ) :  -0.1727

FINAL SINGLE POINT ENERGY      -805.377741409709

DIPOLE MOMENT
-------------
                                X             Y             Z
Electronic contribution:    -10.48589      -5.54387      -6.14726
Nuclear contribution   :     11.08796       6.45140       7.05645
                        -----------------------------------------
Total Dipole Moment    :      0.60208       0.90752       0.90920
                        -----------------------------------------
Magnitude (a.u.)       :      1.41871
Magnitude (Debye)      :      3.60607

Rotational constants in cm-1:     0.100113     0.046890     0.041843
Rotational constants in MHz :  3001.313402  1405.711946  1254.411771

                             ****ORCA TERMINATED NORMALLY****
TOTAL RUN TIME: 0 days 0 hours 1 minutes 43 seconds 568 msec
