                         Program Version 5.0.0 -  RELEASE  -
|  1> !LC-BLYP RIJCOSX def2-TZVPD def2/J TightSCF xyzfile
|  2>
|  3> *xyzfile 0 1 D3.xyz
|  4>
|  5> %MaxCore 64000
|  6>
|  7> %pal nprocs 4
|  8> end
|  9>
| 10> %scf
| 11>   MaxIter 150
| 12> end
| 13>
| 14>
| 15>                          ****END OF INPUT****

CARTESIAN COORDINATES (ANGSTROEM)
---------------------------------
  C      1.364014    0.468742   -2.813764
  C      0.428844    0.321402   -1.655312
  C      0.968045    1.630639   -3.715749
  C     -0.508347    1.722679   -4.124300
  S     -1.328608    0.146737   -4.435781
  H     -0.591511    2.294958   -5.047219
  H     -1.114114    2.235610   -3.374362
  H      0.748578   -0.400542   -1.001345
  H     -0.461053    0.023332   -2.077731
  H      0.310258    1.201375   -1.134948
  O     -2.571347    0.475733   -5.068341
  O     -1.514963   -0.400512   -3.063420
  H      1.294847   -0.468742   -3.364684
  H      2.376216    0.597400   -2.431495
  H      1.578688    1.520652   -4.612733
  H      1.266653    2.575988   -3.250448
  F     -0.377928   -0.627558   -5.201141

 Total Charge           Charge          ....    0
 Multiplicity           Mult            ....    1
 Number of Electrons    NEL             ....   74
 Basis Dimension        Dim             ....  395

ORBITAL ENERGIES
----------------

  NO   OCC          E(Eh)            E(eV)
   0   2.0000     -88.526949     -2408.9407
   1   2.0000     -24.582067      -668.9121
   2   2.0000     -18.963543      -516.0242
   3   2.0000     -18.945810      -515.5417
   4   2.0000     -10.130028      -275.6521
   5   2.0000     -10.094063      -274.6734
   6   2.0000     -10.065899      -273.9070
   7   2.0000     -10.000675      -272.1322
   8   2.0000      -8.069892      -219.5929
   9   2.0000      -6.101712      -166.0360
  10   2.0000      -6.094812      -165.8483
  11   2.0000      -6.094286      -165.8340
  12   2.0000      -1.470955       -40.0267
  13   2.0000      -1.214354       -33.0443
  14   2.0000      -1.115151       -30.3448
  15   2.0000      -0.948635       -25.8137
  16   2.0000      -0.883730       -24.0475
  17   2.0000      -0.830060       -22.5871
  18   2.0000      -0.790279       -21.5046
  19   2.0000      -0.723783       -19.6951
  20   2.0000      -0.699727       -19.0405
  21   2.0000      -0.691507       -18.8169
  22   2.0000      -0.650496       -17.7009
  23   2.0000      -0.610342       -16.6083
  24   2.0000      -0.604287       -16.4435
  25   2.0000      -0.576628       -15.6908
  26   2.0000      -0.562033       -15.2937
  27   2.0000      -0.533426       -14.5152
  28   2.0000      -0.516489       -14.0544
  29   2.0000      -0.499973       -13.6050
  30   2.0000      -0.495616       -13.4864
  31   2.0000      -0.469819       -12.7844
  32   2.0000      -0.446760       -12.1570
  33   2.0000      -0.432932       -11.7807
  34   2.0000      -0.431520       -11.7422
  35   2.0000      -0.421435       -11.4678
  36   2.0000      -0.370843       -10.0911
  37   0.0000       0.033384         0.9084
  38   0.0000       0.047332         1.2880
  39   0.0000       0.055295         1.5046
  40   0.0000       0.060890         1.6569
  41   0.0000       0.080208         2.1826

MULLIKEN ATOMIC CHARGES
-----------------------
   0 C :   -0.645750
   1 C :   -1.316424
   2 C :   -0.650352
   3 C :   -0.912016
   4 S :    1.106864
   5 H :    0.453212
   6 H :    0.432164
   7 H :    0.508173
   8 H :    0.357713
   9 H :    0.405580
  10 O :   -0.517530
  11 O :   -0.602141
  12 H :    0.322162
  13 H :    0.400545
  14 H :    0.360085
  15 H :    0.425102
  16 F :   -0.127386
Sum of atomic charges:    0.0000000

LOEWDIN ATOMIC CHARGES
----------------------
   0 C :   -0.268357
   1 C :   -0.128322
   2 C :   -0.236097
   3 C :   -0.216791
   4 S :    0.597260
   5 H :    0.109087
   6 H :    0.125677
   7 H :    0.067858
   8 H :   -0.037564
   9 H :    0.072157
  10 O :   -0.240927
  11 O :   -0.283568
  12 H :    0.105349
  13 H :    0.117629
  14 H :    0.113625
  15 H :    0.126700
  16 F :   -0.023716

  Mayer bond orders larger than 0.100000
B(  0-C ,  1-C ) :   0.3551 B(  0-C ,  2-C ) :   0.5780 B(  0-C ,  3-C ) :  -0.1088
B(  0-C , 12-H ) :   1.0064 B(  0-C , 13-H ) :   0.8744 B(  1-C ,  7-H ) :   0.8917
B(  1-C ,  8-H ) :   0.9999 B(  1-C ,  9-H ) :   1.0083 B(  2-C ,  3-C ) :   0.6044
B(  2-C , 14-H ) :   0.9536 B(  2-C , 15-H ) :   0.8818 B(  3-C ,  4-S ) :   0.9399
B(  3-C ,  5-H ) :   0.8769 B(  3-C ,  6-H ) :   0.8666 B(  3-C , 11-O ) :   0.1105
B(  4-S , 10-O ) :   1.7138 B(  4-S , 11-O ) :   1.6299 B(  4-S , 16-F ) :   1.0281
B(  8-H , 11-O ) :  -0.2538

FINAL SINGLE POINT ENERGY      -805.359364270212

DIPOLE MOMENT
-------------
                                X             Y             Z
Electronic contribution:     -8.63983      -5.94526      -9.90520
Nuclear contribution   :      9.83476       6.70164       9.41257
                        -----------------------------------------
Total Dipole Moment    :      1.19494       0.75638      -0.49263
                        -----------------------------------------
Magnitude (a.u.)       :      1.49755
Magnitude (Debye)      :      3.80648

Rotational constants in cm-1:     0.099832     0.045916     0.042219
Rotational constants in MHz :  2992.874960  1376.530174  1265.693813

                             ****ORCA TERMINATED NORMALLY****
TOTAL RUN TIME: 0 days 0 hours 1 minutes 55 seconds 55 msec
