                         Program Version 5.0.0 -  RELEASE  -
|  1> !LC-PBE RIJCOSX def2-SVPD def2/J TightSCF
|  2> *xyz -1 1
|  3> C          3.93993        0.32036       -4.36773
|  4> C          5.10585        0.66802       -5.30546
|  5> O          4.80913        1.15019       -6.41436
|  6> O          6.26737        0.56500       -4.81948
|  7> H          3.01376        0.44480       -4.88890
|  8> H          3.96058        0.96928       -3.51722
|  9> H          4.03331       -0.69517       -4.04388
| 10> *
| 11>
| 12> %MaxCore 64000
| 13>
| 14> %pal nprocs 4
| 15> end
| 16>
| 17> %scf
| 18>   MaxIter 150
| 19> end
| 20>
| 21>
| 22>                          ****END OF INPUT****

CARTESIAN COORDINATES (ANGSTROEM)
---------------------------------
  C      3.939930    0.320360   -4.367730
  C      5.105850    0.668020   -5.305460
  O      4.809130    1.150190   -6.414360
  O      6.267370    0.565000   -4.819480
  H      3.013760    0.444800   -4.888900
  H      3.960580    0.969280   -3.517220
  H      4.033310   -0.695170   -4.043880

 Total Charge           Charge          ....   -1
 Multiplicity           Mult            ....    1
 Number of Electrons    NEL             ....   32
 Basis Dimension        Dim             ....  110

ORBITAL ENERGIES
----------------

  NO   OCC          E(Eh)            E(eV)
   0   2.0000     -18.727235      -509.5940
   1   2.0000     -18.722502      -509.4652
   2   2.0000     -10.018564      -272.6190
   3   2.0000      -9.938284      -270.4345
   4   2.0000      -0.978973       -26.6392
   5   2.0000      -0.876401       -23.8481
   6   2.0000      -0.709064       -19.2946
   7   2.0000      -0.449680       -12.2364
   8   2.0000      -0.405476       -11.0336
   9   2.0000      -0.387294       -10.5388
  10   2.0000      -0.373547       -10.1647
  11   2.0000      -0.325887        -8.8678
  12   2.0000      -0.309439        -8.4203
  13   2.0000      -0.177667        -4.8346
  14   2.0000      -0.172141        -4.6842
  15   2.0000      -0.162737        -4.4283
  16   0.0000       0.237513         6.4631
  17   0.0000       0.270641         7.3645
  18   0.0000       0.297936         8.1073
  19   0.0000       0.306856         8.3500
  20   0.0000       0.333268         9.0687

MULLIKEN ATOMIC CHARGES
-----------------------
   0 C :    0.232104
   1 C :   -0.039424
   2 O :   -0.583627
   3 O :   -0.632566
   4 H :   -0.000699
   5 H :    0.010990
   6 H :    0.013222
Sum of atomic charges:   -1.0000000

LOEWDIN ATOMIC CHARGES
----------------------
   0 C :    0.107540
   1 C :   -0.356770
   2 O :   -0.327816
   3 O :   -0.345846
   4 H :   -0.030755
   5 H :   -0.021051
   6 H :   -0.025301

  Mayer bond orders larger than 0.100000
B(  0-C ,  1-C ) :   1.1995 B(  0-C ,  4-H ) :   0.9008 B(  0-C ,  5-H ) :   0.8661
B(  0-C ,  6-H ) :   0.8482 B(  1-C ,  2-O ) :   1.5880 B(  1-C ,  3-O ) :   1.5601
B(  1-C ,  4-H ) :   0.1942 B(  1-C ,  5-H ) :   0.1182 B(  1-C ,  6-H ) :   0.1319

FINAL SINGLE POINT ENERGY      -227.725783827500

DIPOLE MOMENT
-------------
                                X             Y             Z
Electronic contribution:      2.64705       0.83617      -2.17663
Nuclear contribution   :     -3.81330      -1.22874       3.01208
                        -----------------------------------------
Total Dipole Moment    :     -1.16625      -0.39257       0.83545
                        -----------------------------------------
Magnitude (a.u.)       :      1.48736
Magnitude (Debye)      :      3.78056

Rotational constants in cm-1:     0.390282     0.335702     0.186718
Rotational constants in MHz : 11700.346989 10064.094211  5597.661196

                             ****ORCA TERMINATED NORMALLY****
TOTAL RUN TIME: 0 days 0 hours 0 minutes 7 seconds 159 msec
