                         Program Version 5.0.0 -  RELEASE  -
|  1> !LC-PBE RIJCOSX def2-SVPD def2/J TightSCF
|  2> *xyz 1 1
|  3> C          3.90595        2.81985       -3.75292
|  4> N          5.29562        3.13151       -4.10533
|  5> C          5.70862        3.46889       -5.32419
|  6> N          6.90470        3.03895       -5.71708
|  7> N          4.98188        4.29357       -6.09746
|  8> H          5.00055        4.10131       -7.08776
|  9> H          4.08469        4.59690       -5.73965
| 10> H          5.96336        2.52611       -3.64239
| 11> H          7.04716        2.06686       -5.47360
| 12> H          7.19815        3.30799       -6.64523
| 13> H          3.24866        3.48801       -4.26909
| 14> H          3.77188        2.93227       -2.69732
| 15> H          3.68381        1.81198       -4.03533
| 16> *
| 17>
| 18> %MaxCore 64000
| 19>
| 20> %pal nprocs 4
| 21> end
| 22>
| 23> %scf
| 24>   MaxIter 150
| 25> end
| 26>
| 27>
| 28>                          ****END OF INPUT****

CARTESIAN COORDINATES (ANGSTROEM)
---------------------------------
  C      3.905950    2.819850   -3.752920
  N      5.295620    3.131510   -4.105330
  C      5.708620    3.468890   -5.324190
  N      6.904700    3.038950   -5.717080
  N      4.981880    4.293570   -6.097460
  H      5.000550    4.101310   -7.087760
  H      4.084690    4.596900   -5.739650
  H      5.963360    2.526110   -3.642390
  H      7.047160    2.066860   -5.473600
  H      7.198150    3.307990   -6.645230
  H      3.248660    3.488010   -4.269090
  H      3.771880    2.932270   -2.697320
  H      3.683810    1.811980   -4.035330

 Total Charge           Charge          ....    1
 Multiplicity           Mult            ....    1
 Number of Electrons    NEL             ....   40
 Basis Dimension        Dim             ....  164

ORBITAL ENERGIES
----------------

  NO   OCC          E(Eh)            E(eV)
   0   2.0000     -14.467985      -393.6939
   1   2.0000     -14.462761      -393.5517
   2   2.0000     -14.462561      -393.5463
   3   2.0000     -10.482684      -285.2483
   4   2.0000     -10.337367      -281.2941
   5   2.0000      -1.402323       -38.1592
   6   2.0000      -1.279282       -34.8110
   7   2.0000      -1.269390       -34.5419
   8   2.0000      -1.075606       -29.2687
   9   2.0000      -0.982166       -26.7261
  10   2.0000      -0.939461       -25.5640
  11   2.0000      -0.910732       -24.7823
  12   2.0000      -0.856744       -23.3132
  13   2.0000      -0.836259       -22.7558
  14   2.0000      -0.795031       -21.6339
  15   2.0000      -0.788251       -21.4494
  16   2.0000      -0.732946       -19.9445
  17   2.0000      -0.720204       -19.5978
  18   2.0000      -0.630790       -17.1647
  19   2.0000      -0.598065       -16.2742
  20   0.0000      -0.109898        -2.9905
  21   0.0000      -0.081957        -2.2302
  22   0.0000      -0.040271        -1.0958
  23   0.0000      -0.036198        -0.9850
  24   0.0000      -0.004781        -0.1301

MULLIKEN ATOMIC CHARGES
-----------------------
   0 C :    0.873607
   1 N :   -0.485409
   2 C :    0.724187
   3 N :   -0.066963
   4 N :    0.019398
   5 H :    0.041047
   6 H :    0.018840
   7 H :   -0.098297
   8 H :    0.070536
   9 H :    0.066418
  10 H :   -0.101531
  11 H :   -0.062402
  12 H :    0.000570
Sum of atomic charges:    1.0000000

LOEWDIN ATOMIC CHARGES
----------------------
   0 C :    0.235034
   1 N :    0.017706
   2 C :   -0.051055
   3 N :    0.255721
   4 N :    0.267569
   5 H :    0.048154
   6 H :    0.027975
   7 H :    0.060966
   8 H :    0.048728
   9 H :    0.047208
  10 H :   -0.002154
  11 H :    0.023599
  12 H :    0.020551

  Mayer bond orders larger than 0.100000
B(  0-C ,  1-N ) :   0.9060 B(  0-C , 10-H ) :   0.8772 B(  0-C , 11-H ) :   0.8509
B(  0-C , 12-H ) :   0.8494 B(  1-N ,  2-C ) :   1.2107 B(  1-N ,  3-N ) :   0.1639
B(  1-N ,  7-H ) :   1.1657 B(  1-N , 10-H ) :   0.1209 B(  1-N , 11-H ) :   0.1649
B(  2-C ,  3-N ) :   1.0419 B(  2-C ,  4-N ) :   1.0523 B(  2-C ,  7-H ) :  -0.1411
B(  3-N ,  4-N ) :   0.1029 B(  3-N ,  8-H ) :   1.0284 B(  3-N ,  9-H ) :   0.9626
B(  4-N ,  5-H ) :   1.0952 B(  4-N ,  6-H ) :   0.9905 B(  5-H ,  6-H ) :  -0.1137

FINAL SINGLE POINT ENERGY      -244.147606432127

DIPOLE MOMENT
-------------
                                X             Y             Z
Electronic contribution:      2.49401       1.05390      -1.21321
Nuclear contribution   :     -2.62204      -1.73043       0.52001
                        -----------------------------------------
Total Dipole Moment    :     -0.12802      -0.67653      -0.69320
                        -----------------------------------------
Magnitude (a.u.)       :      0.97704
Magnitude (Debye)      :      2.48343

Rotational constants in cm-1:     0.299316     0.133886     0.097604
Rotational constants in MHz :  8973.254382  4013.798371  2926.103660

                             ****ORCA TERMINATED NORMALLY****
TOTAL RUN TIME: 0 days 0 hours 0 minutes 18 seconds 660 msec
