                         Program Version 5.0.0 -  RELEASE  -
|  1> !LC-PBE RIJCOSX def2-SVPD def2/J TightSCF xyzfile
|  2>
|  3> *xyzfile 0 1 B.xyz
|  4>
|  5> %MaxCore 64000
|  6>
|  7> %pal nprocs 4
|  8> end
|  9>
| 10> %scf
| 11>   MaxIter 150
| 12> end
| 13>
| 14>
| 15>                          ****END OF INPUT****

CARTESIAN COORDINATES (ANGSTROEM)
---------------------------------
  C      3.905947    2.819855   -3.752920
  N      5.295615    3.131515   -4.105334
  C      3.803511    1.374716   -3.260807
  C      3.939934    0.320362   -4.367729
  H      4.105043   -0.655085   -3.907733
  H      3.022801    0.280517   -4.957117
  C      5.105846    0.668022   -5.305463
  C      5.708619    3.468885   -5.324190
  N      6.904696    3.038954   -5.717084
  N      4.981884    4.293570   -6.097457
  H      5.000546    4.101311   -7.087761
  H      4.084693    4.596899   -5.739652
  H      5.963358    2.526112   -3.642391
  H      7.047164    2.066861   -5.473604
  H      7.198145    3.307994   -6.645225
  H      3.282025    2.949187   -4.640259
  H      3.565254    3.514574   -2.982523
  H      4.574833    1.215157   -2.500443
  H      2.843514    1.260845   -2.751465
  O      4.809132    1.150187   -6.414361
  O      6.267366    0.564999   -4.819481

 Total Charge           Charge          ....    0
 Multiplicity           Mult            ....    1
 Number of Electrons    NEL             ....   78
 Basis Dimension        Dim             ....  294

ORBITAL ENERGIES
----------------

  NO   OCC          E(Eh)            E(eV)
   0   2.0000     -18.912258      -514.6287
   1   2.0000     -18.909522      -514.5542
   2   2.0000     -14.297213      -389.0470
   3   2.0000     -14.290842      -388.8736
   4   2.0000     -14.265795      -388.1920
   5   2.0000     -10.307338      -280.4769
   6   2.0000     -10.196992      -277.4743
   7   2.0000     -10.191984      -277.3380
   8   2.0000     -10.142704      -275.9970
   9   2.0000     -10.108656      -275.0705
  10   2.0000      -1.227130       -33.3919
  11   2.0000      -1.166765       -31.7493
  12   2.0000      -1.110364       -30.2145
  13   2.0000      -1.089563       -29.6485
  14   2.0000      -1.063844       -28.9487
  15   2.0000      -0.969519       -26.3819
  16   2.0000      -0.880816       -23.9682
  17   2.0000      -0.813167       -22.1274
  18   2.0000      -0.784530       -21.3482
  19   2.0000      -0.763655       -20.7801
  20   2.0000      -0.726833       -19.7781
  21   2.0000      -0.688564       -18.7368
  22   2.0000      -0.662899       -18.0384
  23   2.0000      -0.649240       -17.6667
  24   2.0000      -0.625406       -17.0182
  25   2.0000      -0.620321       -16.8798
  26   2.0000      -0.578795       -15.7498
  27   2.0000      -0.569807       -15.5052
  28   2.0000      -0.554445       -15.0872
  29   2.0000      -0.535559       -14.5733
  30   2.0000      -0.523546       -14.2464
  31   2.0000      -0.517500       -14.0819
  32   2.0000      -0.479877       -13.0581
  33   2.0000      -0.469484       -12.7753
  34   2.0000      -0.452839       -12.3224
  35   2.0000      -0.422577       -11.4989
  36   2.0000      -0.366131        -9.9629
  37   2.0000      -0.353427        -9.6172
  38   2.0000      -0.345302        -9.3961
  39   0.0000       0.065809         1.7907
  40   0.0000       0.070512         1.9187
  41   0.0000       0.092232         2.5098
  42   0.0000       0.103987         2.8296
  43   0.0000       0.123591         3.3631

MULLIKEN ATOMIC CHARGES
-----------------------
   0 C :    0.596031
   1 N :   -0.376596
   2 C :   -0.106888
   3 C :    0.173731
   4 H :    0.012866
   5 H :    0.077357
   6 C :    0.134312
   7 C :    0.707000
   8 N :    0.081187
   9 N :   -0.123993
  10 H :    0.039975
  11 H :    0.058459
  12 H :   -0.033481
  13 H :   -0.060230
  14 H :    0.071001
  15 H :    0.064111
  16 H :   -0.239509
  17 H :    0.121816
  18 H :   -0.060593
  19 O :   -0.506008
  20 O :   -0.630548
Sum of atomic charges:   -0.0000000

LOEWDIN ATOMIC CHARGES
----------------------
   0 C :    0.051876
   1 N :    0.058056
   2 C :   -0.031438
   3 C :    0.014854
   4 H :    0.038971
   5 H :    0.033130
   6 C :   -0.280184
   7 C :   -0.081538
   8 N :    0.271044
   9 N :    0.250877
  10 H :    0.035111
  11 H :    0.017643
  12 H :    0.032693
  13 H :   -0.057968
  14 H :    0.037482
  15 H :    0.035426
  16 H :    0.031882
  17 H :    0.039900
  18 H :    0.034958
  19 O :   -0.259205
  20 O :   -0.273567

  Mayer bond orders larger than 0.100000
B(  0-C ,  1-N ) :   0.8593 B(  0-C ,  2-C ) :   1.1798 B(  0-C , 15-H ) :   0.7642
B(  0-C , 16-H ) :   0.9696 B(  0-C , 18-H ) :   0.1436 B(  1-N ,  2-C ) :   0.1438
B(  1-N ,  7-C ) :   1.1374 B(  1-N ,  8-N ) :   0.1372 B(  1-N , 12-H ) :   1.1122
B(  1-N , 15-H ) :   0.1056 B(  2-C ,  3-C ) :   1.2067 B(  2-C ,  4-H ) :   0.1425
B(  2-C ,  5-H ) :   0.1050 B(  2-C , 17-H ) :   0.8695 B(  2-C , 18-H ) :   0.9688
B(  3-C ,  4-H ) :   0.8456 B(  3-C ,  5-H ) :   0.8591 B(  3-C ,  6-C ) :   1.0499
B(  4-H ,  6-C ) :   0.1138 B(  5-H ,  6-C ) :   0.2314 B(  6-C , 19-O ) :   1.7045
B(  6-C , 20-O ) :   1.4837 B(  7-C ,  8-N ) :   1.0430 B(  7-C ,  9-N ) :   0.9120
B(  7-C , 12-H ) :  -0.1941 B(  8-N ,  9-N ) :   0.1237 B(  8-N , 13-H ) :   0.9507
B(  8-N , 14-H ) :   0.9226 B(  9-N , 10-H ) :   1.1033 B(  9-N , 11-H ) :   0.9360
B( 10-H , 11-H ) :  -0.1104 B( 13-H , 20-O ) :   0.1783

FINAL SINGLE POINT ENERGY      -510.028874577640

DIPOLE MOMENT
-------------
                                X             Y             Z
Electronic contribution:      4.10235       0.43434      -3.38630
Nuclear contribution   :     -4.94498       2.03334       3.78956
                        -----------------------------------------
Total Dipole Moment    :     -0.84263       2.46769       0.40325
                        -----------------------------------------
Magnitude (a.u.)       :      2.63858
Magnitude (Debye)      :      6.70674

Rotational constants in cm-1:     0.062533     0.042832     0.033687
Rotational constants in MHz :  1874.701390  1284.063603  1009.911042

                             ****ORCA TERMINATED NORMALLY****
TOTAL RUN TIME: 0 days 0 hours 1 minutes 9 seconds 628 msec
