                         Program Version 5.0.0 -  RELEASE  -
|  1> !LC-PBE RIJCOSX def2-SVPD def2/J TightSCF
|  2> *xyz 0 1
|  3> C          3.93993        0.32036       -4.36773
|  4> C          5.10585        0.66802       -5.30546
|  5> F          4.80913        1.15019       -6.41436
|  6> O          6.26737        0.56500       -4.81948
|  7> H          3.01376        0.44480       -4.88890
|  8> H          3.96058        0.96928       -3.51722
|  9> H          4.03331       -0.69517       -4.04388
| 10> *
| 11>
| 12> %MaxCore 64000
| 13>
| 14> %pal nprocs 4
| 15> end
| 16>
| 17> %scf
| 18>   MaxIter 150
| 19> end
| 20>
| 21>
| 22>                          ****END OF INPUT****

CARTESIAN COORDINATES (ANGSTROEM)
---------------------------------
  C      3.939930    0.320360   -4.367730
  C      5.105850    0.668020   -5.305460
  F      4.809130    1.150190   -6.414360
  O      6.267370    0.565000   -4.819480
  H      3.013760    0.444800   -4.888900
  H      3.960580    0.969280   -3.517220
  H      4.033310   -0.695170   -4.043880

 Total Charge           Charge          ....    0
 Multiplicity           Mult            ....    1
 Number of Electrons    NEL             ....   32
 Basis Dimension        Dim             ....  110

ORBITAL ENERGIES
----------------

  NO   OCC          E(Eh)            E(eV)
   0   2.0000     -24.589770      -669.1217
   1   2.0000     -19.005416      -517.1637
   2   2.0000     -10.327085      -281.0143
   3   2.0000     -10.155998      -276.3588
   4   2.0000      -1.479962       -40.2718
   5   2.0000      -1.191732       -32.4287
   6   2.0000      -0.942805       -25.6550
   7   2.0000      -0.824157       -22.4264
   8   2.0000      -0.718139       -19.5416
   9   2.0000      -0.710170       -19.3247
  10   2.0000      -0.655122       -17.8268
  11   2.0000      -0.588589       -16.0163
  12   2.0000      -0.575425       -15.6581
  13   2.0000      -0.546431       -14.8692
  14   2.0000      -0.493147       -13.4192
  15   2.0000      -0.436019       -11.8647
  16   0.0000       0.060465         1.6453
  17   0.0000       0.081154         2.2083
  18   0.0000       0.118722         3.2306
  19   0.0000       0.155658         4.2357
  20   0.0000       0.158552         4.3144

MULLIKEN ATOMIC CHARGES
-----------------------
   0 C :    0.119598
   1 C :    0.327381
   2 F :   -0.279766
   3 O :   -0.431538
   4 H :    0.057372
   5 H :    0.107857
   6 H :    0.099096
Sum of atomic charges:   -0.0000000

LOEWDIN ATOMIC CHARGES
----------------------
   0 C :    0.180339
   1 C :   -0.049342
   2 F :   -0.017786
   3 O :   -0.142679
   4 H :   -0.001886
   5 H :    0.016861
   6 H :    0.014492

  Mayer bond orders larger than 0.100000
B(  0-C ,  1-C ) :   1.2486 B(  0-C ,  4-H ) :   0.9075 B(  0-C ,  5-H ) :   0.8514
B(  0-C ,  6-H ) :   0.8387 B(  1-C ,  2-F ) :   0.8864 B(  1-C ,  3-O ) :   1.8812
B(  1-C ,  4-H ) :   0.1147 B(  1-C ,  6-H ) :   0.1122

FINAL SINGLE POINT ENERGY      -252.227471262635

DIPOLE MOMENT
-------------
                                X             Y             Z
Electronic contribution:      2.35276       1.61835      -4.15945
Nuclear contribution   :     -3.58567      -1.71656       4.24175
                        -----------------------------------------
Total Dipole Moment    :     -1.23291      -0.09821       0.08230
                        -----------------------------------------
Magnitude (a.u.)       :      1.23955
Magnitude (Debye)      :      3.15068

Rotational constants in cm-1:     0.365806     0.323297     0.177262
Rotational constants in MHz : 10966.600844  9692.195205  5314.176777

                             ****ORCA TERMINATED NORMALLY****
TOTAL RUN TIME: 0 days 0 hours 0 minutes 7 seconds 496 msec
