                         Program Version 5.0.0 -  RELEASE  -
|  1> !LC-PBE RIJCOSX def2-SVPD def2/J TightSCF
|  2> *xyz 0 1
|  3> C          3.90595        2.81985       -3.75292
|  4> C          5.29562        3.13151       -4.10533
|  5> C          5.70862        3.46889       -5.32419
|  6> N          6.90470        3.03895       -5.71708
|  7> N          4.98188        4.29357       -6.09746
|  8> H          5.00055        4.10131       -7.08776
|  9> H          4.08469        4.59690       -5.73965
| 10> H          5.96336        2.52611       -3.64239
| 11> H          7.04716        2.06686       -5.47360
| 12> H          7.19815        3.30799       -6.64523
| 13> H          3.24866        3.48801       -4.26909
| 14> H          3.77188        2.93227       -2.69732
| 15> H          3.68381        1.81198       -4.03533
| 16> *
| 17>
| 18> %MaxCore 64000
| 19>
| 20> %pal nprocs 4
| 21> end
| 22>
| 23> %scf
| 24>   MaxIter 150
| 25> end
| 26>
| 27>
| 28>                          ****END OF INPUT****

CARTESIAN COORDINATES (ANGSTROEM)
---------------------------------
  C      3.905950    2.819850   -3.752920
  C      5.295620    3.131510   -4.105330
  C      5.708620    3.468890   -5.324190
  N      6.904700    3.038950   -5.717080
  N      4.981880    4.293570   -6.097460
  H      5.000550    4.101310   -7.087760
  H      4.084690    4.596900   -5.739650
  H      5.963360    2.526110   -3.642390
  H      7.047160    2.066860   -5.473600
  H      7.198150    3.307990   -6.645230
  H      3.248660    3.488010   -4.269090
  H      3.771880    2.932270   -2.697320
  H      3.683810    1.811980   -4.035330

 Total Charge           Charge          ....    0
 Multiplicity           Mult            ....    1
 Number of Electrons    NEL             ....   40
 Basis Dimension        Dim             ....  164

ORBITAL ENERGIES
----------------

  NO   OCC          E(Eh)            E(eV)
   0   2.0000     -14.231791      -387.2667
   1   2.0000     -14.229613      -387.2074
   2   2.0000     -10.175704      -276.8950
   3   2.0000     -10.095376      -274.7091
   4   2.0000     -10.055833      -273.6331
   5   2.0000      -1.135951       -30.9108
   6   2.0000      -1.037558       -28.2334
   7   2.0000      -0.924962       -25.1695
   8   2.0000      -0.817087       -22.2341
   9   2.0000      -0.733804       -19.9678
  10   2.0000      -0.687221       -18.7002
  11   2.0000      -0.653572       -17.7846
  12   2.0000      -0.620737       -16.8911
  13   2.0000      -0.573118       -15.5953
  14   2.0000      -0.545975       -14.8567
  15   2.0000      -0.522092       -14.2068
  16   2.0000      -0.490706       -13.3528
  17   2.0000      -0.465169       -12.6579
  18   2.0000      -0.409883       -11.1535
  19   2.0000      -0.285268        -7.7625
  20   0.0000       0.087517         2.3815
  21   0.0000       0.114440         3.1141
  22   0.0000       0.127965         3.4821
  23   0.0000       0.138238         3.7616
  24   0.0000       0.157580         4.2880

MULLIKEN ATOMIC CHARGES
-----------------------
   0 C :    0.583820
   1 C :   -0.477670
   2 C :    0.165662
   3 N :   -0.029854
   4 N :   -0.004881
   5 H :   -0.036368
   6 H :    0.014399
   7 H :   -0.126711
   8 H :    0.053410
   9 H :   -0.030965
  10 H :   -0.169473
  11 H :    0.069744
  12 H :   -0.011112
Sum of atomic charges:    0.0000000

LOEWDIN ATOMIC CHARGES
----------------------
   0 C :    0.066130
   1 C :   -0.074000
   2 C :   -0.254855
   3 N :    0.167806
   4 N :    0.178798
   5 H :   -0.000663
   6 H :   -0.003671
   7 H :   -0.042943
   8 H :    0.013239
   9 H :   -0.000876
  10 H :   -0.031650
  11 H :   -0.010455
  12 H :   -0.006859

  Mayer bond orders larger than 0.100000
B(  0-C ,  1-C ) :   1.1336 B(  0-C ,  7-H ) :   0.1683 B(  0-C , 10-H ) :   0.8091
B(  0-C , 11-H ) :   0.7441 B(  0-C , 12-H ) :   0.8711 B(  1-C ,  2-C ) :   2.0410
B(  1-C ,  3-N ) :   0.2804 B(  1-C ,  4-N ) :   0.1265 B(  1-C ,  7-H ) :   0.7628
B(  1-C , 10-H ) :   0.2444 B(  1-C , 11-H ) :   0.1893 B(  2-C ,  3-N ) :   0.9993
B(  2-C ,  4-N ) :   1.0551 B(  2-C ,  7-H ) :   0.2819 B(  3-N ,  8-H ) :   1.0104
B(  3-N ,  9-H ) :   0.9383 B(  4-N ,  5-H ) :   1.0698 B(  4-N ,  6-H ) :   0.9749
B( 10-H , 11-H ) :   0.1157

FINAL SINGLE POINT ENERGY      -227.705533692295

DIPOLE MOMENT
-------------
                                X             Y             Z
Electronic contribution:      2.48696       1.31909      -1.82685
Nuclear contribution   :     -2.63304      -1.77161       0.70501
                        -----------------------------------------
Total Dipole Moment    :     -0.14609      -0.45252      -1.12184
                        -----------------------------------------
Magnitude (a.u.)       :      1.21846
Magnitude (Debye)      :      3.09708

Rotational constants in cm-1:     0.303572     0.135185     0.098519
Rotational constants in MHz :  9100.846149  4052.756012  2953.539431

                             ****ORCA TERMINATED NORMALLY****
TOTAL RUN TIME: 0 days 0 hours 0 minutes 18 seconds 831 msec
