                         Program Version 5.0.0 -  RELEASE  -
|  1> !LC-PBE RIJCOSX def2-SVPD def2/J TightSCF
|  2> *xyz 0 1
|  3> C          3.93993        0.32036       -4.36773
|  4> C          5.10585        0.66802       -5.30546
|  5> O          4.80913        1.15019       -6.41436
|  6> F          6.26737        0.56500       -4.81948
|  7> H          3.01376        0.44480       -4.88890
|  8> H          3.96058        0.96928       -3.51722
|  9> H          4.03331       -0.69517       -4.04388
| 10> *
| 11>
| 12> %MaxCore 64000
| 13>
| 14> %pal nprocs 4
| 15> end
| 16>
| 17> %scf
| 18>   MaxIter 150
| 19> end
| 20>
| 21>
| 22>                          ****END OF INPUT****

CARTESIAN COORDINATES (ANGSTROEM)
---------------------------------
  C      3.939930    0.320360   -4.367730
  C      5.105850    0.668020   -5.305460
  O      4.809130    1.150190   -6.414360
  F      6.267370    0.565000   -4.819480
  H      3.013760    0.444800   -4.888900
  H      3.960580    0.969280   -3.517220
  H      4.033310   -0.695170   -4.043880

 Total Charge           Charge          ....    0
 Multiplicity           Mult            ....    1
 Number of Electrons    NEL             ....   32
 Basis Dimension        Dim             ....  110

ORBITAL ENERGIES
----------------

  NO   OCC          E(Eh)            E(eV)
   0   2.0000     -24.582777      -668.9314
   1   2.0000     -19.008905      -517.2586
   2   2.0000     -10.325236      -280.9639
   3   2.0000     -10.155590      -276.3477
   4   2.0000      -1.466025       -39.8926
   5   2.0000      -1.203145       -32.7393
   6   2.0000      -0.942131       -25.6367
   7   2.0000      -0.816470       -22.2173
   8   2.0000      -0.710737       -19.3401
   9   2.0000      -0.703099       -19.1323
  10   2.0000      -0.655411       -17.8346
  11   2.0000      -0.587048       -15.9744
  12   2.0000      -0.577059       -15.7026
  13   2.0000      -0.548963       -14.9381
  14   2.0000      -0.502897       -13.6845
  15   2.0000      -0.438219       -11.9246
  16   0.0000       0.065299         1.7769
  17   0.0000       0.082081         2.2335
  18   0.0000       0.118883         3.2350
  19   0.0000       0.153111         4.1664
  20   0.0000       0.159999         4.3538

MULLIKEN ATOMIC CHARGES
-----------------------
   0 C :    0.135584
   1 C :    0.336266
   2 O :   -0.389374
   3 F :   -0.322360
   4 H :    0.043505
   5 H :    0.101077
   6 H :    0.095302
Sum of atomic charges:   -0.0000000

LOEWDIN ATOMIC CHARGES
----------------------
   0 C :    0.180318
   1 C :   -0.049923
   2 O :   -0.129454
   3 F :   -0.030313
   4 H :    0.010067
   5 H :    0.012067
   6 H :    0.007239

  Mayer bond orders larger than 0.100000
B(  0-C ,  1-C ) :   1.2268 B(  0-C ,  4-H ) :   0.9248 B(  0-C ,  5-H ) :   0.8459
B(  0-C ,  6-H ) :   0.8376 B(  1-C ,  2-O ) :   1.9274 B(  1-C ,  3-F ) :   0.8272
B(  1-C ,  4-H ) :   0.1559

FINAL SINGLE POINT ENERGY      -252.233500689330

DIPOLE MOMENT
-------------
                                X             Y             Z
Electronic contribution:      4.75089       0.65602      -1.53521
Nuclear contribution   :     -5.09247      -1.11188       2.59376
                        -----------------------------------------
Total Dipole Moment    :     -0.34158      -0.45586       1.05855
                        -----------------------------------------
Magnitude (a.u.)       :      1.20209
Magnitude (Debye)      :      3.05547

Rotational constants in cm-1:     0.367940     0.321271     0.177147
Rotational constants in MHz : 11030.570495  9631.458923  5310.737691

                             ****ORCA TERMINATED NORMALLY****
TOTAL RUN TIME: 0 days 0 hours 0 minutes 7 seconds 924 msec
