                         Program Version 5.0.0 -  RELEASE  -
|  1> !LC-PBE RIJCOSX def2-SVPD def2/J TightSCF
|  2> *xyz 0 1
|  3> C          3.90595        2.81985       -3.75292
|  4> N          5.29562        3.13151       -4.10533
|  5> C          5.70862        3.46889       -5.32419
|  6> C          6.90470        3.03895       -5.71708
|  7> N          4.98188        4.29357       -6.09746
|  8> H          5.00055        4.10131       -7.08776
|  9> H          4.08469        4.59690       -5.73965
| 10> H          5.96336        2.52611       -3.64239
| 11> H          7.04716        2.06686       -5.47360
| 12> H          7.19815        3.30799       -6.64523
| 13> H          3.24866        3.48801       -4.26909
| 14> H          3.77188        2.93227       -2.69732
| 15> H          3.68381        1.81198       -4.03533
| 16> *
| 17>
| 18> %MaxCore 64000
| 19>
| 20> %pal nprocs 4
| 21> end
| 22>
| 23> %scf
| 24>   MaxIter 150
| 25> end
| 26>
| 27>
| 28>                          ****END OF INPUT****

CARTESIAN COORDINATES (ANGSTROEM)
---------------------------------
  C      3.905950    2.819850   -3.752920
  N      5.295620    3.131510   -4.105330
  C      5.708620    3.468890   -5.324190
  C      6.904700    3.038950   -5.717080
  N      4.981880    4.293570   -6.097460
  H      5.000550    4.101310   -7.087760
  H      4.084690    4.596900   -5.739650
  H      5.963360    2.526110   -3.642390
  H      7.047160    2.066860   -5.473600
  H      7.198150    3.307990   -6.645230
  H      3.248660    3.488010   -4.269090
  H      3.771880    2.932270   -2.697320
  H      3.683810    1.811980   -4.035330

 Total Charge           Charge          ....    0
 Multiplicity           Mult            ....    1
 Number of Electrons    NEL             ....   40
 Basis Dimension        Dim             ....  164

ORBITAL ENERGIES
----------------

  NO   OCC          E(Eh)            E(eV)
   0   2.0000     -14.236150      -387.3853
   1   2.0000     -14.233960      -387.3257
   2   2.0000     -10.183653      -277.1113
   3   2.0000     -10.161053      -276.4963
   4   2.0000     -10.040159      -273.2066
   5   2.0000      -1.143194       -31.1079
   6   2.0000      -1.050545       -28.5868
   7   2.0000      -0.915174       -24.9032
   8   2.0000      -0.834098       -22.6970
   9   2.0000      -0.750846       -20.4316
  10   2.0000      -0.684796       -18.6343
  11   2.0000      -0.639317       -17.3967
  12   2.0000      -0.626374       -17.0445
  13   2.0000      -0.598596       -16.2886
  14   2.0000      -0.544522       -14.8172
  15   2.0000      -0.531816       -14.4715
  16   2.0000      -0.523165       -14.2360
  17   2.0000      -0.482504       -13.1296
  18   2.0000      -0.392527       -10.6812
  19   2.0000      -0.295557        -8.0425
  20   0.0000       0.081368         2.2141
  21   0.0000       0.116080         3.1587
  22   0.0000       0.123238         3.3535
  23   0.0000       0.139106         3.7853
  24   0.0000       0.156871         4.2687

MULLIKEN ATOMIC CHARGES
-----------------------
   0 C :    0.862630
   1 N :   -0.525039
   2 C :    0.113169
   3 C :    0.335201
   4 N :    0.053461
   5 H :    0.002572
   6 H :   -0.071295
   7 H :   -0.086532
   8 H :   -0.168494
   9 H :   -0.227536
  10 H :   -0.146787
  11 H :   -0.112631
  12 H :   -0.028719
Sum of atomic charges:    0.0000000

LOEWDIN ATOMIC CHARGES
----------------------
   0 C :    0.180790
   1 N :   -0.048743
   2 C :   -0.254119
   3 C :    0.111711
   4 N :    0.185999
   5 H :    0.014354
   6 H :   -0.015343
   7 H :    0.032554
   8 H :   -0.088149
   9 H :   -0.090215
  10 H :   -0.021336
  11 H :   -0.003589
  12 H :   -0.003915

  Mayer bond orders larger than 0.100000
B(  0-C ,  1-N ) :   0.9151 B(  0-C , 10-H ) :   0.8762 B(  0-C , 11-H ) :   0.8445
B(  0-C , 12-H ) :   0.8462 B(  1-N ,  2-C ) :   1.1824 B(  1-N ,  3-C ) :   0.1943
B(  1-N ,  7-H ) :   1.1264 B(  1-N , 10-H ) :   0.1246 B(  1-N , 11-H ) :   0.1666
B(  2-C ,  3-C ) :   1.9058 B(  2-C ,  4-N ) :   1.0235 B(  2-C ,  7-H ) :  -0.1040
B(  2-C ,  8-H ) :   0.1890 B(  2-C ,  9-H ) :   0.2978 B(  3-C ,  4-N ) :   0.1951
B(  3-C ,  8-H ) :   0.8849 B(  3-C ,  9-H ) :   0.6494 B(  4-N ,  5-H ) :   1.0769
B(  4-N ,  6-H ) :   0.9774 B(  5-H ,  6-H ) :  -0.1087 B(  8-H ,  9-H ) :   0.1843

FINAL SINGLE POINT ENERGY      -227.690264027794

DIPOLE MOMENT
-------------
                                X             Y             Z
Electronic contribution:      0.91669       1.41878      -0.29733
Nuclear contribution   :     -2.30713      -1.79036       0.37856
                        -----------------------------------------
Total Dipole Moment    :     -1.39044      -0.37158       0.08123
                        -----------------------------------------
Magnitude (a.u.)       :      1.44153
Magnitude (Debye)      :      3.66408

Rotational constants in cm-1:     0.307513     0.139026     0.101190
Rotational constants in MHz :  9218.994719  4167.905268  3033.592538

                             ****ORCA TERMINATED NORMALLY****
TOTAL RUN TIME: 0 days 0 hours 0 minutes 18 seconds 434 msec
