                         Program Version 5.0.0 -  RELEASE  -
|  1> !LC-PBE RIJCOSX def2-SVPD def2/J TightSCF
|  2> *xyz 0 1
|  3> C          3.90595        2.81985       -3.75292
|  4> N          5.29562        3.13151       -4.10533
|  5> C          5.70862        3.46889       -5.32419
|  6> N          6.90470        3.03895       -5.71708
|  7> C          4.98188        4.29357       -6.09746
|  8> H          5.00055        4.10131       -7.08776
|  9> H          4.08469        4.59690       -5.73965
| 10> H          5.96336        2.52611       -3.64239
| 11> H          7.04716        2.06686       -5.47360
| 12> H          7.19815        3.30799       -6.64523
| 13> H          3.24866        3.48801       -4.26909
| 14> H          3.77188        2.93227       -2.69732
| 15> H          3.68381        1.81198       -4.03533
| 16> *
| 17>
| 18> %MaxCore 64000
| 19>
| 20> %pal nprocs 4
| 21> end
| 22>
| 23> %scf
| 24>   MaxIter 150
| 25> end
| 26>
| 27>
| 28>                          ****END OF INPUT****

CARTESIAN COORDINATES (ANGSTROEM)
---------------------------------
  C      3.905950    2.819850   -3.752920
  N      5.295620    3.131510   -4.105330
  C      5.708620    3.468890   -5.324190
  N      6.904700    3.038950   -5.717080
  C      4.981880    4.293570   -6.097460
  H      5.000550    4.101310   -7.087760
  H      4.084690    4.596900   -5.739650
  H      5.963360    2.526110   -3.642390
  H      7.047160    2.066860   -5.473600
  H      7.198150    3.307990   -6.645230
  H      3.248660    3.488010   -4.269090
  H      3.771880    2.932270   -2.697320
  H      3.683810    1.811980   -4.035330

 Total Charge           Charge          ....    0
 Multiplicity           Mult            ....    1
 Number of Electrons    NEL             ....   40
 Basis Dimension        Dim             ....  164

ORBITAL ENERGIES
----------------

  NO   OCC          E(Eh)            E(eV)
   0   2.0000     -14.237391      -387.4191
   1   2.0000     -14.233763      -387.3204
   2   2.0000     -10.182954      -277.0923
   3   2.0000     -10.153952      -276.3031
   4   2.0000     -10.044509      -273.3250
   5   2.0000      -1.147981       -31.2381
   6   2.0000      -1.052889       -28.6506
   7   2.0000      -0.888332       -24.1727
   8   2.0000      -0.861895       -23.4534
   9   2.0000      -0.718371       -19.5479
  10   2.0000      -0.692836       -18.8530
  11   2.0000      -0.670379       -18.2419
  12   2.0000      -0.602868       -16.4049
  13   2.0000      -0.590387       -16.0652
  14   2.0000      -0.557819       -15.1790
  15   2.0000      -0.525641       -14.3034
  16   2.0000      -0.513040       -13.9605
  17   2.0000      -0.485979       -13.2242
  18   2.0000      -0.393623       -10.7110
  19   2.0000      -0.295360        -8.0372
  20   0.0000       0.085215         2.3188
  21   0.0000       0.113623         3.0918
  22   0.0000       0.126020         3.4292
  23   0.0000       0.135821         3.6959
  24   0.0000       0.157238         4.2787

MULLIKEN ATOMIC CHARGES
-----------------------
   0 C :    0.916788
   1 N :   -0.423900
   2 C :    0.036311
   3 N :   -0.087854
   4 C :    0.328942
   5 H :   -0.239922
   6 H :   -0.139971
   7 H :   -0.200104
   8 H :    0.020622
   9 H :    0.071352
  10 H :   -0.119369
  11 H :   -0.106933
  12 H :   -0.055962
Sum of atomic charges:    0.0000000

LOEWDIN ATOMIC CHARGES
----------------------
   0 C :    0.189145
   1 N :   -0.049716
   2 C :   -0.265169
   3 N :    0.171658
   4 C :    0.131188
   5 H :   -0.089809
   6 H :   -0.102286
   7 H :    0.021729
   8 H :    0.003233
   9 H :    0.013493
  10 H :   -0.015844
  11 H :   -0.003803
  12 H :   -0.003820

  Mayer bond orders larger than 0.100000
B(  0-C ,  1-N ) :   0.8900 B(  0-C , 10-H ) :   0.8739 B(  0-C , 11-H ) :   0.8302
B(  0-C , 12-H ) :   0.8404 B(  1-N ,  2-C ) :   1.1572 B(  1-N ,  3-N ) :   0.1268
B(  1-N ,  4-C ) :   0.1869 B(  1-N ,  7-H ) :   1.1129 B(  1-N , 10-H ) :   0.1112
B(  1-N , 11-H ) :   0.1585 B(  1-N , 12-H ) :   0.1167 B(  2-C ,  3-N ) :   1.0474
B(  2-C ,  4-C ) :   1.9818 B(  2-C ,  5-H ) :   0.1797 B(  2-C ,  6-H ) :   0.2421
B(  3-N ,  4-C ) :   0.1269 B(  3-N ,  8-H ) :   0.9706 B(  3-N ,  9-H ) :   0.9541
B(  4-C ,  5-H ) :   0.8621 B(  4-C ,  6-H ) :   0.6108 B(  5-H ,  6-H ) :   0.2588

FINAL SINGLE POINT ENERGY      -227.693466153972

DIPOLE MOMENT
-------------
                                X             Y             Z
Electronic contribution:      2.78037       0.23164      -0.01101
Nuclear contribution   :     -2.69659      -1.53624       0.30152
                        -----------------------------------------
Total Dipole Moment    :      0.08378      -1.30460       0.29051
                        -----------------------------------------
Magnitude (a.u.)       :      1.33918
Magnitude (Debye)      :      3.40392

Rotational constants in cm-1:     0.320409     0.134796     0.100241
Rotational constants in MHz :  9605.632807  4041.079317  3005.150506

                             ****ORCA TERMINATED NORMALLY****
TOTAL RUN TIME: 0 days 0 hours 0 minutes 18 seconds 532 msec
