                         Program Version 5.0.0 -  RELEASE  -
|  1> !LC-PBE RIJCOSX def2-SVPD def2/J TightSCF xyzfile
|  2>
|  3> *xyzfile 0 1 D4.xyz
|  4>
|  5> %MaxCore 64000
|  6>
|  7> %pal nprocs 4
|  8> end
|  9>
| 10> %scf
| 11>   MaxIter 150
| 12> end
| 13>
| 14>
| 15>                          ****END OF INPUT****

CARTESIAN COORDINATES (ANGSTROEM)
---------------------------------
  C      3.905947    2.819855   -3.752920
  C      5.295615    3.131515   -4.105334
  C      3.803511    1.374716   -3.260807
  C      3.939934    0.320362   -4.367729
  H      4.105043   -0.655085   -3.907733
  H      3.022801    0.280517   -4.957117
  C      5.105846    0.668022   -5.305463
  C      5.708619    3.468885   -5.324190
  N      6.904696    3.038954   -5.717084
  N      4.981884    4.293570   -6.097457
  H      5.000546    4.101311   -7.087761
  H      4.084693    4.596899   -5.739652
  H      5.963358    2.526112   -3.642391
  H      7.047164    2.066861   -5.473604
  H      7.198145    3.307994   -6.645225
  H      3.282025    2.949187   -4.640259
  H      3.565254    3.514574   -2.982523
  H      4.574833    1.215157   -2.500443
  H      2.843514    1.260845   -2.751465
  O      4.809132    1.150187   -6.414361
  F      6.267366    0.564999   -4.819481

 Total Charge           Charge          ....    0
 Multiplicity           Mult            ....    1
 Number of Electrons    NEL             ....   78
 Basis Dimension        Dim             ....  294

ORBITAL ENERGIES
----------------

  NO   OCC          E(Eh)            E(eV)
   0   2.0000     -24.591004      -669.1552
   1   2.0000     -19.006381      -517.1899
   2   2.0000     -14.230141      -387.2218
   3   2.0000     -14.219517      -386.9327
   4   2.0000     -10.323115      -280.9062
   5   2.0000     -10.178748      -276.9778
   6   2.0000     -10.157115      -276.3892
   7   2.0000     -10.138251      -275.8758
   8   2.0000     -10.116182      -275.2753
   9   2.0000     -10.055559      -273.6257
  10   2.0000      -1.475256       -40.1438
  11   2.0000      -1.203525       -32.7496
  12   2.0000      -1.131991       -30.8030
  13   2.0000      -1.033454       -28.1217
  14   2.0000      -0.995663       -27.0934
  15   2.0000      -0.920600       -25.0508
  16   2.0000      -0.857154       -23.3244
  17   2.0000      -0.819466       -22.2988
  18   2.0000      -0.767602       -20.8875
  19   2.0000      -0.748333       -20.3632
  20   2.0000      -0.716854       -19.5066
  21   2.0000      -0.700029       -19.0488
  22   2.0000      -0.677866       -18.4457
  23   2.0000      -0.658096       -17.9077
  24   2.0000      -0.651487       -17.7279
  25   2.0000      -0.614129       -16.7113
  26   2.0000      -0.612157       -16.6576
  27   2.0000      -0.586618       -15.9627
  28   2.0000      -0.573963       -15.6183
  29   2.0000      -0.541460       -14.7339
  30   2.0000      -0.528758       -14.3882
  31   2.0000      -0.512691       -13.9510
  32   2.0000      -0.499802       -13.6003
  33   2.0000      -0.480227       -13.0676
  34   2.0000      -0.472182       -12.8487
  35   2.0000      -0.458020       -12.4634
  36   2.0000      -0.429522       -11.6879
  37   2.0000      -0.399893       -10.8816
  38   2.0000      -0.289521        -7.8783
  39   0.0000       0.062397         1.6979
  40   0.0000       0.084793         2.3073
  41   0.0000       0.103305         2.8111
  42   0.0000       0.110389         3.0038
  43   0.0000       0.119782         3.2594

MULLIKEN ATOMIC CHARGES
-----------------------
   0 C :    0.234247
   1 C :   -0.070198
   2 C :   -0.004966
   3 C :    0.127580
   4 H :    0.028283
   5 H :    0.099500
   6 C :    0.520789
   7 C :    0.102199
   8 N :    0.148231
   9 N :   -0.064241
  10 H :   -0.001529
  11 H :    0.057551
  12 H :   -0.188242
  13 H :   -0.059829
  14 H :    0.045519
  15 H :   -0.072750
  16 H :   -0.129791
  17 H :    0.076821
  18 H :   -0.066664
  19 O :   -0.385117
  20 F :   -0.397393
Sum of atomic charges:    0.0000000

LOEWDIN ATOMIC CHARGES
----------------------
   0 C :   -0.067215
   1 C :   -0.041548
   2 C :   -0.042138
   3 C :    0.042138
   4 H :    0.041990
   5 H :    0.048175
   6 C :   -0.026914
   7 C :   -0.254962
   8 N :    0.203597
   9 N :    0.203022
  10 H :    0.006863
  11 H :    0.005917
  12 H :   -0.047488
  13 H :   -0.045614
  14 H :    0.013817
  15 H :    0.023836
  16 H :    0.024303
  17 H :    0.039425
  18 H :    0.033985
  19 O :   -0.128044
  20 F :   -0.033147

  Mayer bond orders larger than 0.100000
B(  0-C ,  1-C ) :   1.0188 B(  0-C ,  2-C ) :   1.2156 B(  0-C , 12-H ) :   0.1759
B(  0-C , 15-H ) :   0.8200 B(  0-C , 16-H ) :   0.8892 B(  0-C , 18-H ) :   0.1668
B(  1-C ,  2-C ) :   0.1335 B(  1-C ,  7-C ) :   1.8812 B(  1-C ,  8-N ) :   0.3258
B(  1-C ,  9-N ) :   0.1397 B(  1-C , 12-H ) :   0.5128 B(  1-C , 16-H ) :   0.1316
B(  2-C ,  3-C ) :   1.1705 B(  2-C ,  4-H ) :   0.1541 B(  2-C , 17-H ) :   0.8757
B(  2-C , 18-H ) :   0.9263 B(  3-C ,  4-H ) :   0.8507 B(  3-C ,  5-H ) :   0.8852
B(  3-C ,  6-C ) :   1.1240 B(  5-H ,  6-C ) :   0.1677 B(  6-C , 19-O ) :   1.8797
B(  6-C , 20-F ) :   0.6812 B(  7-C ,  8-N ) :   0.9030 B(  7-C ,  9-N ) :   1.0125
B(  7-C , 12-H ) :   0.2619 B(  7-C , 14-H ) :   0.1742 B(  8-N , 13-H ) :   0.9120
B(  8-N , 14-H ) :   0.8203 B(  9-N , 10-H ) :   1.0452 B(  9-N , 11-H ) :   0.9592

FINAL SINGLE POINT ENERGY      -517.906236551292

DIPOLE MOMENT
-------------
                                X             Y             Z
Electronic contribution:      5.76340      -4.58114      -3.88673
Nuclear contribution   :     -6.25608       3.89116       3.75052
                        -----------------------------------------
Total Dipole Moment    :     -0.49268      -0.68999      -0.13620
                        -----------------------------------------
Magnitude (a.u.)       :      0.85870
Magnitude (Debye)      :      2.18264

Rotational constants in cm-1:     0.061229     0.042568     0.033282
Rotational constants in MHz :  1835.590871  1276.154029   997.769927

                             ****ORCA TERMINATED NORMALLY****
TOTAL RUN TIME: 0 days 0 hours 1 minutes 24 seconds 29 msec
