                         Program Version 5.0.0 -  RELEASE  -
|  1> !LC-PBE RIJCOSX def2-SVPD def2/J TightSCF xyzfile
|  2>
|  3> *xyzfile 0 1 D5.xyz
|  4>
|  5> %MaxCore 64000
|  6>
|  7> %pal nprocs 4
|  8> end
|  9>
| 10> %scf
| 11>   MaxIter 150
| 12> end
| 13>
| 14>
| 15>                          ****END OF INPUT****

CARTESIAN COORDINATES (ANGSTROEM)
---------------------------------
  C      3.905947    2.819855   -3.752920
  N      5.295615    3.131515   -4.105334
  C      3.803511    1.374716   -3.260807
  C      3.939934    0.320362   -4.367729
  H      4.105043   -0.655085   -3.907733
  H      3.022801    0.280517   -4.957117
  C      5.105846    0.668022   -5.305463
  C      5.708619    3.468885   -5.324190
  C      6.904696    3.038954   -5.717084
  N      4.981884    4.293570   -6.097457
  H      5.000546    4.101311   -7.087761
  H      4.084693    4.596899   -5.739652
  H      5.963358    2.526112   -3.642391
  H      7.047164    2.066861   -5.473604
  H      7.198145    3.307994   -6.645225
  H      3.282025    2.949187   -4.640259
  H      3.565254    3.514574   -2.982523
  H      4.574833    1.215157   -2.500443
  H      2.843514    1.260845   -2.751465
  O      4.809132    1.150187   -6.414361
  F      6.267366    0.564999   -4.819481

 Total Charge           Charge          ....    0
 Multiplicity           Mult            ....    1
 Number of Electrons    NEL             ....   78
 Basis Dimension        Dim             ....  294

ORBITAL ENERGIES
----------------

  NO   OCC          E(Eh)            E(eV)
   0   2.0000     -24.586325      -669.0279
   1   2.0000     -19.009236      -517.2676
   2   2.0000     -14.238622      -387.4526
   3   2.0000     -14.225762      -387.1027
   4   2.0000     -10.324533      -280.9448
   5   2.0000     -10.177773      -276.9513
   6   2.0000     -10.175400      -276.8867
   7   2.0000     -10.170204      -276.7453
   8   2.0000     -10.163903      -276.5738
   9   2.0000     -10.026733      -272.8413
  10   2.0000      -1.471621       -40.0449
  11   2.0000      -1.205515       -32.8037
  12   2.0000      -1.143638       -31.1200
  13   2.0000      -1.054772       -28.7018
  14   2.0000      -0.994527       -27.0625
  15   2.0000      -0.912526       -24.8311
  16   2.0000      -0.866556       -23.5802
  17   2.0000      -0.819586       -22.3021
  18   2.0000      -0.782281       -21.2870
  19   2.0000      -0.756302       -20.5800
  20   2.0000      -0.719595       -19.5812
  21   2.0000      -0.713501       -19.4153
  22   2.0000      -0.673081       -18.3155
  23   2.0000      -0.658903       -17.9297
  24   2.0000      -0.647269       -17.6131
  25   2.0000      -0.637770       -17.3546
  26   2.0000      -0.610578       -16.6147
  27   2.0000      -0.584789       -15.9129
  28   2.0000      -0.566384       -15.4121
  29   2.0000      -0.548625       -14.9288
  30   2.0000      -0.533334       -14.5128
  31   2.0000      -0.525995       -14.3131
  32   2.0000      -0.510174       -13.8826
  33   2.0000      -0.499659       -13.5964
  34   2.0000      -0.496157       -13.5011
  35   2.0000      -0.460707       -12.5365
  36   2.0000      -0.433957       -11.8086
  37   2.0000      -0.393490       -10.7074
  38   2.0000      -0.284931        -7.7534
  39   0.0000       0.058443         1.5903
  40   0.0000       0.077901         2.1198
  41   0.0000       0.097599         2.6558
  42   0.0000       0.103946         2.8285
  43   0.0000       0.114296         3.1101

MULLIKEN ATOMIC CHARGES
-----------------------
   0 C :    0.589197
   1 N :   -0.335107
   2 C :   -0.079424
   3 C :    0.081595
   4 H :    0.033184
   5 H :    0.107731
   6 C :    0.466552
   7 C :   -0.035577
   8 C :    0.675718
   9 N :   -0.023892
  10 H :    0.038302
  11 H :    0.034543
  12 H :   -0.009152
  13 H :   -0.470407
  14 H :   -0.160329
  15 H :    0.052643
  16 H :   -0.230114
  17 H :    0.077504
  18 H :   -0.043406
  19 O :   -0.345995
  20 F :   -0.423564
Sum of atomic charges:    0.0000000

LOEWDIN ATOMIC CHARGES
----------------------
   0 C :    0.036950
   1 N :    0.002434
   2 C :   -0.033182
   3 C :    0.041323
   4 H :    0.044334
   5 H :    0.049056
   6 C :   -0.027803
   7 C :   -0.265204
   8 C :    0.132445
   9 N :    0.200705
  10 H :    0.017975
  11 H :   -0.007406
  12 H :    0.021390
  13 H :   -0.128240
  14 H :   -0.073097
  15 H :    0.031810
  16 H :    0.028833
  17 H :    0.039248
  18 H :    0.038213
  19 O :   -0.112754
  20 F :   -0.037028

  Mayer bond orders larger than 0.100000
B(  0-C ,  1-N ) :   0.8588 B(  0-C ,  2-C ) :   1.1737 B(  0-C , 15-H ) :   0.7622
B(  0-C , 16-H ) :   0.9521 B(  0-C , 18-H ) :   0.1446 B(  1-N ,  2-C ) :   0.1398
B(  1-N ,  7-C ) :   1.1633 B(  1-N ,  8-C ) :   0.1664 B(  1-N , 12-H ) :   1.0332
B(  1-N , 15-H ) :   0.1204 B(  2-C ,  3-C ) :   1.1931 B(  2-C ,  4-H ) :   0.1523
B(  2-C , 17-H ) :   0.8781 B(  2-C , 18-H ) :   0.9634 B(  3-C ,  4-H ) :   0.8508
B(  3-C ,  5-H ) :   0.8798 B(  3-C ,  6-C ) :   1.1247 B(  5-H ,  6-C ) :   0.1751
B(  6-C , 19-O ) :   1.9251 B(  6-C , 20-F ) :   0.7076 B(  7-C ,  8-C ) :   1.9886
B(  7-C ,  9-N ) :   0.9133 B(  7-C , 11-H ) :   0.1518 B(  7-C , 12-H ) :  -0.1383
B(  7-C , 13-H ) :   0.1312 B(  7-C , 14-H ) :   0.4198 B(  8-C ,  9-N ) :   0.2558
B(  8-C , 13-H ) :   0.5897 B(  8-C , 14-H ) :   0.4313 B(  9-N , 10-H ) :   1.0313
B(  9-N , 11-H ) :   0.8497 B( 10-H , 11-H ) :  -0.1145 B( 13-H , 14-H ) :   0.1156
B( 13-H , 20-F ) :   0.1990

FINAL SINGLE POINT ENERGY      -517.878993138387

DIPOLE MOMENT
-------------
                                X             Y             Z
Electronic contribution:      4.35408      -4.71791      -2.55272
Nuclear contribution   :     -6.05797       3.87976       3.55209
                        -----------------------------------------
Total Dipole Moment    :     -1.70388      -0.83815       0.99936
                        -----------------------------------------
Magnitude (a.u.)       :      2.14579
Magnitude (Debye)      :      5.45418

Rotational constants in cm-1:     0.061282     0.043164     0.033679
Rotational constants in MHz :  1837.191639  1294.028651  1009.659886

                             ****ORCA TERMINATED NORMALLY****
TOTAL RUN TIME: 0 days 0 hours 1 minutes 23 seconds 653 msec
