                         Program Version 5.0.0 -  RELEASE  -
|  1> !BLYP D3BJ RIJCOSX def2-TZVPD def2/J TightSCF
|  2> *xyz -1 1
|  3> C          4.90646       -3.10282       -5.95484
|  4> C          3.51177       -2.80621       -6.49228
|  5> H          2.73604       -3.37345       -5.97374
|  6> H          3.44490       -3.04083       -7.55528
|  7> S          3.00462       -1.09621       -6.38926
|  8> O          4.12886       -0.32965       -6.95372
|  9> O          1.78128       -1.00078       -7.13640
| 10> O          2.85155       -0.78368       -4.95679
| 11> H          5.62703       -2.52424       -6.49422
| 12> H          5.12164       -4.14387       -6.07654
| 13> H          4.95004       -2.84862       -4.91639
| 14> *
| 15>
| 16> %MaxCore 64000
| 17>
| 18> %pal nprocs 4
| 19> end
| 20>
| 21> %scf
| 22>   MaxIter 150
| 23> end
| 24>
| 25>
| 26>                          ****END OF INPUT****

CARTESIAN COORDINATES (ANGSTROEM)
---------------------------------
  C      4.906460   -3.102820   -5.954840
  C      3.511770   -2.806210   -6.492280
  H      2.736040   -3.373450   -5.973740
  H      3.444900   -3.040830   -7.555280
  S      3.004620   -1.096210   -6.389260
  O      4.128860   -0.329650   -6.953720
  O      1.781280   -1.000780   -7.136400
  O      2.851550   -0.783680   -4.956790
  H      5.627030   -2.524240   -6.494220
  H      5.121640   -4.143870   -6.076540
  H      4.950040   -2.848620   -4.916390

 Total Charge           Charge          ....   -1
 Multiplicity           Mult            ....    1
 Number of Electrons    NEL             ....   58
 Basis Dimension        Dim             ....  285

ORBITAL ENERGIES
----------------

  NO   OCC          E(Eh)            E(eV)
   0   2.0000     -88.078349     -2396.7337
   1   2.0000     -18.554867      -504.9036
   2   2.0000     -18.544034      -504.6088
   3   2.0000     -18.543657      -504.5986
   4   2.0000      -9.765390      -265.7298
   5   2.0000      -9.758454      -265.5410
   6   2.0000      -7.609456      -207.0638
   7   2.0000      -5.637878      -153.4144
   8   2.0000      -5.637248      -153.3973
   9   2.0000      -5.636970      -153.3898
  10   2.0000      -0.824291       -22.4301
  11   2.0000      -0.697929       -18.9916
  12   2.0000      -0.678771       -18.4703
  13   2.0000      -0.554587       -15.0911
  14   2.0000      -0.439160       -11.9501
  15   2.0000      -0.318018        -8.6537
  16   2.0000      -0.265888        -7.2352
  17   2.0000      -0.254746        -6.9320
  18   2.0000      -0.220642        -6.0040
  19   2.0000      -0.203877        -5.5478
  20   2.0000      -0.199383        -5.4255
  21   2.0000      -0.180534        -4.9126
  22   2.0000      -0.166867        -4.5407
  23   2.0000      -0.098385        -2.6772
  24   2.0000      -0.096918        -2.6373
  25   2.0000      -0.067850        -1.8463
  26   2.0000      -0.060753        -1.6532
  27   2.0000      -0.052528        -1.4294
  28   2.0000      -0.014577        -0.3967
  29   0.0000       0.109232         2.9724
  30   0.0000       0.134065         3.6481
  31   0.0000       0.142588         3.8800
  32   0.0000       0.152627         4.1532
  33   0.0000       0.168594         4.5877

MULLIKEN ATOMIC CHARGES
-----------------------
   0 C :   -1.217817
   1 C :   -0.336163
   2 H :    0.260673
   3 H :    0.257614
   4 S :    1.255762
   5 O :   -0.742195
   6 O :   -0.686172
   7 O :   -0.740611
   8 H :    0.305903
   9 H :    0.333682
  10 H :    0.309323
Sum of atomic charges:   -1.0000000

LOEWDIN ATOMIC CHARGES
----------------------
   0 C :   -0.140518
   1 C :   -0.336939
   2 H :    0.079547
   3 H :    0.077115
   4 S :    0.320119
   5 O :   -0.390989
   6 O :   -0.369775
   7 O :   -0.394467
   8 H :    0.053835
   9 H :    0.044429
  10 H :    0.057643

  Mayer bond orders larger than 0.100000
B(  0-C ,  1-C ) :   0.6149 B(  0-C ,  8-H ) :   0.9827 B(  0-C ,  9-H ) :   0.9062
B(  0-C , 10-H ) :   0.9678 B(  1-C ,  2-H ) :   0.9449 B(  1-C ,  3-H ) :   0.9542
B(  1-C ,  4-S ) :   0.8766 B(  1-C ,  5-O ) :   0.1220 B(  1-C ,  6-O ) :   0.1666
B(  1-C ,  7-O ) :   0.1373 B(  4-S ,  5-O ) :   1.4279 B(  4-S ,  6-O ) :   1.4593
B(  4-S ,  7-O ) :   1.4304

Dispersion correction           -0.020546471
FINAL SINGLE POINT ENERGY      -703.249828939240

DIPOLE MOMENT
-------------
                                X             Y             Z
Electronic contribution:     -4.38526       6.47144      -0.65771
Nuclear contribution   :      5.05690      -8.21735       0.57889
                        -----------------------------------------
Total Dipole Moment    :      0.67164      -1.74591      -0.07881
                        -----------------------------------------
Magnitude (a.u.)       :      1.87230
Magnitude (Debye)      :      4.75902

Rotational constants in cm-1:     0.162547     0.083494     0.081672
Rotational constants in MHz :  4873.033504  2503.090885  2448.458543

                             ****ORCA TERMINATED NORMALLY****
TOTAL RUN TIME: 0 days 0 hours 0 minutes 10 seconds 136 msec
