                         Program Version 5.0.0 -  RELEASE  -
|  1> !BLYP D3BJ RIJCOSX def2-TZVPD def2/J TightSCF
|  2> *xyz 1 1
|  3> C          4.49059        1.15590       -2.46929
|  4> N          4.30539        1.22276       -3.90832
|  5> C          4.63192        2.24637       -4.67096
|  6> N          4.54169        2.14399       -5.98714
|  7> N          5.08409        3.39358       -4.11855
|  8> H          4.92067        3.57050       -3.13587
|  9> H          5.25465        4.19739       -4.70696
| 10> H          3.82453        0.44911       -4.35093
| 11> H          4.34337        1.24932       -6.41665
| 12> H          4.67671        2.95662       -6.57411
| 13> C          5.94213        0.93950       -2.03689
| 14> H          3.86431        0.32853       -2.13661
| 15> H          4.07623        2.04999       -1.98901
| 16> H          6.32982        0.06401       -2.51451
| 17> H          5.98308        0.81426       -0.97504
| 18> H          6.52865        1.78889       -2.31873
| 19> *
| 20>
| 21> %MaxCore 64000
| 22>
| 23> %pal nprocs 4
| 24> end
| 25>
| 26> %scf
| 27>   MaxIter 150
| 28> end
| 29>
| 30>
| 31>                          ****END OF INPUT****

CARTESIAN COORDINATES (ANGSTROEM)
---------------------------------
  C      4.490590    1.155900   -2.469290
  N      4.305390    1.222760   -3.908320
  C      4.631920    2.246370   -4.670960
  N      4.541690    2.143990   -5.987140
  N      5.084090    3.393580   -4.118550
  H      4.920670    3.570500   -3.135870
  H      5.254650    4.197390   -4.706960
  H      3.824530    0.449110   -4.350930
  H      4.343370    1.249320   -6.416650
  H      4.676710    2.956620   -6.574110
  C      5.942130    0.939500   -2.036890
  H      3.864310    0.328530   -2.136610
  H      4.076230    2.049990   -1.989010
  H      6.329820    0.064010   -2.514510
  H      5.983080    0.814260   -0.975040
  H      6.528650    1.788890   -2.318730

 Total Charge           Charge          ....    1
 Multiplicity           Mult            ....    1
 Number of Electrons    NEL             ....   48
 Basis Dimension        Dim             ....  312

ORBITAL ENERGIES
----------------

  NO   OCC          E(Eh)            E(eV)
   0   2.0000     -14.227854      -387.1596
   1   2.0000     -14.227050      -387.1377
   2   2.0000     -14.224953      -387.0806
   3   2.0000     -10.228791      -278.3396
   4   2.0000     -10.110821      -275.1294
   5   2.0000     -10.038471      -273.1607
   6   2.0000      -1.121700       -30.5230
   7   2.0000      -1.020138       -27.7594
   8   2.0000      -1.006114       -27.3778
   9   2.0000      -0.854127       -23.2420
  10   2.0000      -0.778125       -21.1739
  11   2.0000      -0.737124       -20.0582
  12   2.0000      -0.725809       -19.7503
  13   2.0000      -0.684193       -18.6178
  14   2.0000      -0.638555       -17.3760
  15   2.0000      -0.636989       -17.3334
  16   2.0000      -0.605869       -16.4865
  17   2.0000      -0.571730       -15.5576
  18   2.0000      -0.552363       -15.0305
  19   2.0000      -0.509746       -13.8709
  20   2.0000      -0.484848       -13.1934
  21   2.0000      -0.466845       -12.7035
  22   2.0000      -0.430600       -11.7172
  23   2.0000      -0.408662       -11.1203
  24   0.0000      -0.198303        -5.3961
  25   0.0000      -0.185350        -5.0436
  26   0.0000      -0.152505        -4.1499
  27   0.0000      -0.146029        -3.9736
  28   0.0000      -0.124979        -3.4009

MULLIKEN ATOMIC CHARGES
-----------------------
   0 C :   -0.446415
   1 N :   -0.137135
   2 C :    0.662535
   3 N :   -0.267443
   4 N :   -0.272784
   5 H :    0.201435
   6 H :    0.163524
   7 H :    0.188269
   8 H :    0.171571
   9 H :    0.171477
  10 C :   -1.115089
  11 H :    0.317443
  12 H :    0.318713
  13 H :    0.333368
  14 H :    0.349015
  15 H :    0.361516
Sum of atomic charges:    1.0000000

LOEWDIN ATOMIC CHARGES
----------------------
   0 C :   -0.203759
   1 N :    0.093748
   2 C :   -0.446145
   3 N :    0.219656
   4 N :    0.227063
   5 H :    0.119138
   6 H :    0.132456
   7 H :    0.166900
   8 H :    0.137422
   9 H :    0.135665
  10 C :   -0.048894
  11 H :    0.128405
  12 H :    0.118597
  13 H :    0.077005
  14 H :    0.080506
  15 H :    0.062237

  Mayer bond orders larger than 0.100000
B(  0-C ,  1-N ) :   0.8571 B(  0-C , 10-C ) :   0.6004 B(  0-C , 11-H ) :   0.9012
B(  0-C , 12-H ) :   0.8723 B(  1-N ,  2-C ) :   1.2217 B(  1-N ,  3-N ) :   0.1195
B(  1-N ,  7-H ) :   0.9997 B(  2-C ,  3-N ) :   1.0486 B(  2-C ,  4-N ) :   1.1404
B(  3-N ,  8-H ) :   1.0044 B(  3-N ,  9-H ) :   1.0213 B(  4-N ,  5-H ) :   0.9330
B(  4-N ,  6-H ) :   1.0326 B( 10-C , 13-H ) :   0.9748 B( 10-C , 14-H ) :   0.9417
B( 10-C , 15-H ) :   0.9242

Dispersion correction           -0.025127171
FINAL SINGLE POINT ENERGY      -284.409817515954

DIPOLE MOMENT
-------------
                                X             Y             Z
Electronic contribution:     -1.79057       1.56586      -4.43203
Nuclear contribution   :      1.34333      -1.11039       3.43667
                        -----------------------------------------
Total Dipole Moment    :     -0.44725       0.45547      -0.99537
                        -----------------------------------------
Magnitude (a.u.)       :      1.18247
Magnitude (Debye)      :      3.00560

Rotational constants in cm-1:     0.227161     0.075356     0.065003
Rotational constants in MHz :  6810.114531  2259.122204  1948.738523

                             ****ORCA TERMINATED NORMALLY****
TOTAL RUN TIME: 0 days 0 hours 0 minutes 14 seconds 14 msec
