                         Program Version 5.0.0 -  RELEASE  -
|  1> !BLYP D3BJ RIJCOSX def2-TZVPD def2/J TightSCF xyzfile
|  2>
|  3> *xyzfile 0 1 B.xyz
|  4>
|  5> %MaxCore 64000
|  6>
|  7> %pal nprocs 4
|  8> end
|  9>
| 10> %scf
| 11>   MaxIter 150
| 12> end
| 13>
| 14>
| 15>                          ****END OF INPUT****

CARTESIAN COORDINATES (ANGSTROEM)
---------------------------------
  C      4.490588    1.155899   -2.469290
  N      4.305394    1.222762   -3.908317
  C      4.906458   -3.102816   -5.954844
  C      3.511771   -2.806215   -6.492283
  H      2.736044   -3.373445   -5.973736
  H      3.444904   -3.040831   -7.555281
  S      3.004618   -1.096206   -6.389259
  C      4.631918    2.246365   -4.670958
  N      4.541686    2.143990   -5.987139
  N      5.084086    3.393584   -4.118545
  H      4.920675    3.570501   -3.135870
  H      5.254652    4.197390   -4.706956
  H      3.824530    0.449113   -4.350926
  H      4.343373    1.249318   -6.416646
  H      4.676712    2.956624   -6.574113
  O      4.128856   -0.329647   -6.953717
  O      1.781285   -1.000779   -7.136399
  C      5.942129    0.939500   -2.036893
  H      3.864305    0.328532   -2.136611
  H      4.076233    2.049994   -1.989010
  C      6.462677   -3.117775   -3.944671
  C      5.024977   -3.025679   -4.437625
  H      4.423321   -3.818693   -3.977648
  H      4.579350   -2.087131   -4.108727
  H      5.201533   -4.100207   -6.296905
  H      5.605922   -2.397822   -6.413368
  C      6.559957   -0.356290   -2.559086
  H      5.967976    0.952567   -0.942444
  H      6.547184    1.788331   -2.368849
  C      6.006283   -1.615917   -1.899301
  H      7.642360   -0.318000   -2.402059
  H      6.414855   -0.403433   -3.642587
  C      6.608718   -2.917014   -2.435655
  H      6.190324   -1.561115   -0.820948
  H      4.919250   -1.651245   -2.016586
  H      7.066975   -2.374258   -4.475514
  H      6.887808   -4.089747   -4.215332
  H      6.135197   -3.755573   -1.915159
  H      7.671142   -2.955503   -2.172291
  O      2.851546   -0.783683   -4.956789

 Total Charge           Charge          ....    0
 Multiplicity           Mult            ....    1
 Number of Electrons    NEL             ....  144
 Basis Dimension        Dim             ....  854

ORBITAL ENERGIES
----------------

  NO   OCC          E(Eh)            E(eV)
   0   2.0000     -88.234479     -2400.9822
   1   2.0000     -18.711578      -509.1679
   2   2.0000     -18.711208      -509.1578
   3   2.0000     -18.698620      -508.8153
   4   2.0000     -14.078613      -383.0985
   5   2.0000     -14.048213      -382.2713
   6   2.0000     -14.045501      -382.1975
   7   2.0000     -10.064499      -273.8689
   8   2.0000      -9.968707      -271.2623
   9   2.0000      -9.923870      -270.0422
  10   2.0000      -9.907686      -269.6018
  11   2.0000      -9.900742      -269.4129
  12   2.0000      -9.895572      -269.2722
  13   2.0000      -9.893608      -269.2187
  14   2.0000      -9.888577      -269.0819
  15   2.0000      -9.886164      -269.0162
  16   2.0000      -9.879279      -268.8288
  17   2.0000      -7.766277      -211.3311
  18   2.0000      -5.795056      -157.6915
  19   2.0000      -5.794025      -157.6634
  20   2.0000      -5.793283      -157.6432
  21   2.0000      -0.985303       -26.8115
  22   2.0000      -0.958012       -26.0688
  23   2.0000      -0.860177       -23.4066
  24   2.0000      -0.855224       -23.2718
  25   2.0000      -0.850181       -23.1346
  26   2.0000      -0.841947       -22.9106
  27   2.0000      -0.742372       -20.2010
  28   2.0000      -0.717625       -19.5276
  29   2.0000      -0.692823       -18.8527
  30   2.0000      -0.660231       -17.9658
  31   2.0000      -0.627559       -17.0767
  32   2.0000      -0.607859       -16.5407
  33   2.0000      -0.580243       -15.7892
  34   2.0000      -0.564905       -15.3718
  35   2.0000      -0.552227       -15.0269
  36   2.0000      -0.529917       -14.4198
  37   2.0000      -0.515871       -14.0376
  38   2.0000      -0.489768       -13.3273
  39   2.0000      -0.486046       -13.2260
  40   2.0000      -0.482102       -13.1187
  41   2.0000      -0.457896       -12.4600
  42   2.0000      -0.447526       -12.1778
  43   2.0000      -0.432097       -11.7580
  44   2.0000      -0.423625       -11.5274
  45   2.0000      -0.410061       -11.1583
  46   2.0000      -0.403330       -10.9752
  47   2.0000      -0.395323       -10.7573
  48   2.0000      -0.382114       -10.3979
  49   2.0000      -0.377918       -10.2837
  50   2.0000      -0.369481       -10.0541
  51   2.0000      -0.365544        -9.9470
  52   2.0000      -0.352753        -9.5989
  53   2.0000      -0.348275        -9.4770
  54   2.0000      -0.339212        -9.2304
  55   2.0000      -0.332297        -9.0423
  56   2.0000      -0.320158        -8.7119
  57   2.0000      -0.311885        -8.4868
  58   2.0000      -0.302932        -8.2432
  59   2.0000      -0.291177        -7.9233
  60   2.0000      -0.281258        -7.6534
  61   2.0000      -0.276892        -7.5346
  62   2.0000      -0.271335        -7.3834
  63   2.0000      -0.267376        -7.2757
  64   2.0000      -0.266600        -7.2546
  65   2.0000      -0.260643        -7.0925
  66   2.0000      -0.253356        -6.8942
  67   2.0000      -0.244878        -6.6635
  68   2.0000      -0.223365        -6.0781
  69   2.0000      -0.215783        -5.8718
  70   2.0000      -0.210170        -5.7190
  71   2.0000      -0.180020        -4.8986
  72   0.0000      -0.053875        -1.4660
  73   0.0000      -0.040491        -1.1018
  74   0.0000      -0.023575        -0.6415
  75   0.0000      -0.005330        -0.1450
  76   0.0000      -0.001051        -0.0286

MULLIKEN ATOMIC CHARGES
-----------------------
   0 C :   -1.010436
   1 N :   -0.130637
   2 C :   -0.614113
   3 C :   -0.812266
   4 H :    0.289613
   5 H :    0.302434
   6 S :    1.497528
   7 C :    0.628320
   8 N :   -0.194674
   9 N :   -0.293592
  10 H :    0.184473
  11 H :    0.139479
  12 H :    0.384254
  13 H :    0.300431
  14 H :    0.130821
  15 O :   -0.969056
  16 O :   -0.695288
  17 C :   -0.439605
  18 H :    0.391088
  19 H :    0.324914
  20 C :   -0.471135
  21 C :   -0.308443
  22 H :    0.268217
  23 H :    0.306450
  24 H :    0.258584
  25 H :    0.249250
  26 C :   -0.269376
  27 H :    0.304150
  28 H :    0.325783
  29 C :   -0.490714
  30 H :    0.254255
  31 H :    0.124534
  32 C :   -0.752576
  33 H :    0.285009
  34 H :    0.299743
  35 H :    0.260934
  36 H :    0.290533
  37 H :    0.274344
  38 H :    0.274158
  39 O :   -0.897391
Sum of atomic charges:   -0.0000000

LOEWDIN ATOMIC CHARGES
----------------------
   0 C :   -0.161936
   1 N :    0.111909
   2 C :   -0.225423
   3 C :   -0.247754
   4 H :    0.101575
   5 H :    0.096571
   6 S :    0.430266
   7 C :   -0.447267
   8 N :    0.219955
   9 N :    0.193354
  10 H :    0.102138
  11 H :    0.113914
  12 H :    0.066407
  13 H :    0.039251
  14 H :    0.123507
  15 O :   -0.353313
  16 O :   -0.303674
  17 C :   -0.182132
  18 H :    0.123262
  19 H :    0.111909
  20 C :   -0.212920
  21 C :   -0.215840
  22 H :    0.125104
  23 H :    0.079023
  24 H :    0.111029
  25 H :    0.105182
  26 C :   -0.201681
  27 H :    0.112539
  28 H :    0.098261
  29 C :   -0.211460
  30 H :    0.116273
  31 H :    0.104072
  32 C :   -0.204199
  33 H :    0.111143
  34 H :    0.100239
  35 H :    0.104371
  36 H :    0.110272
  37 H :    0.107004
  38 H :    0.105130
  39 O :   -0.356060

  Mayer bond orders larger than 0.100000
B(  0-C ,  1-N ) :   0.9845 B(  0-C ,  7-C ) :  -0.1292 B(  0-C , 12-H ) :  -0.2040
B(  0-C , 17-C ) :   0.6649 B(  0-C , 18-H ) :   0.7226 B(  0-C , 19-H ) :   0.8279
B(  0-C , 29-C ) :   0.1526 B(  1-N ,  7-C ) :   1.2047 B(  1-N ,  8-N ) :   0.1083
B(  1-N , 12-H ) :   0.8492 B(  2-C ,  3-C ) :   0.9187 B(  2-C , 20-C ) :   0.4042
B(  2-C , 21-C ) :   0.3326 B(  2-C , 22-H ) :  -0.1285 B(  2-C , 24-H ) :   0.9908
B(  2-C , 25-H ) :   0.9073 B(  3-C ,  4-H ) :   0.9054 B(  3-C ,  5-H ) :   0.9601
B(  3-C ,  6-S ) :   0.9113 B(  3-C , 15-O ) :   0.1204 B(  3-C , 16-O ) :   0.2173
B(  3-C , 21-C ) :   0.1573 B(  3-C , 39-O ) :   0.1031 B(  6-S , 15-O ) :   1.1074
B(  6-S , 16-O ) :   1.2541 B(  6-S , 39-O ) :   1.4009 B(  7-C ,  8-N ) :   1.1234
B(  7-C ,  9-N ) :   1.0736 B(  7-C , 12-H ) :  -0.1592 B(  8-N , 13-H ) :   0.8048
B(  8-N , 14-H ) :   1.0356 B(  9-N , 10-H ) :   0.9569 B(  9-N , 11-H ) :   1.0344
B( 15-O , 39-O ) :   0.1184 B( 17-C , 26-C ) :   0.9160 B( 17-C , 27-H ) :   0.9472
B( 17-C , 28-H ) :   0.8652 B( 17-C , 29-C ) :   0.1516 B( 20-C , 21-C ) :   0.2712
B( 20-C , 23-H ) :  -0.1534 B( 20-C , 26-C ) :   0.1162 B( 20-C , 32-C ) :   0.8732
B( 20-C , 35-H ) :   0.9636 B( 20-C , 36-H ) :   0.9104 B( 21-C , 22-H ) :   0.8210
B( 21-C , 23-H ) :   1.4767 B( 21-C , 29-C ) :   0.1472 B( 21-C , 32-C ) :   0.1029
B( 21-C , 35-H ) :  -0.1010 B( 21-C , 39-O ) :   0.1535 B( 22-H , 23-H ) :   0.1386
B( 23-H , 39-O ) :  -0.2012 B( 26-C , 29-C ) :   0.1659 B( 26-C , 30-H ) :   0.9311
B( 26-C , 31-H ) :   1.0693 B( 26-C , 32-C ) :   0.1383 B( 26-C , 33-H ) :  -0.1197
B( 26-C , 34-H ) :  -0.1332 B( 29-C , 32-C ) :   0.9015 B( 29-C , 33-H ) :   0.9275
B( 29-C , 34-H ) :   0.9938 B( 32-C , 37-H ) :   0.9383 B( 32-C , 38-H ) :   0.9676

Dispersion correction           -0.097106760
FINAL SINGLE POINT ENERGY     -1183.175510786582

DIPOLE MOMENT
-------------
                                X             Y             Z
Electronic contribution:    -14.57517       8.29278     -15.35940
Nuclear contribution   :     16.79156      -5.47215      17.54258
                        -----------------------------------------
Total Dipole Moment    :      2.21640       2.82063       2.18318
                        -----------------------------------------
Magnitude (a.u.)       :      4.19936
Magnitude (Debye)      :     10.67393

Rotational constants in cm-1:     0.014207     0.012373     0.007472
Rotational constants in MHz :   425.900436   370.942493   224.006604

                             ****ORCA TERMINATED NORMALLY****
TOTAL RUN TIME: 0 days 0 hours 2 minutes 31 seconds 464 msec
