                         Program Version 5.0.0 -  RELEASE  -
|  1> !BLYP D3BJ RIJCOSX def2-TZVPD def2/J TightSCF
|  2> *xyz 0 1
|  3> C          4.90646       -3.10282       -5.95484
|  4> C          3.51177       -2.80621       -6.49228
|  5> H          2.73604       -3.37345       -5.97374
|  6> H          3.44490       -3.04083       -7.55528
|  7> S          3.00462       -1.09621       -6.38926
|  8> F          4.12886       -0.32965       -6.95372
|  9> O          1.78128       -1.00078       -7.13640
| 10> O          2.85155       -0.78368       -4.95679
| 11> H          5.62703       -2.52424       -6.49422
| 12> H          5.12164       -4.14387       -6.07654
| 13> H          4.95004       -2.84862       -4.91639
| 14> *
| 15>
| 16> %MaxCore 64000
| 17>
| 18> %pal nprocs 4
| 19> end
| 20>
| 21> %scf
| 22>   MaxIter 150
| 23> end
| 24>
| 25>
| 26>                          ****END OF INPUT****

CARTESIAN COORDINATES (ANGSTROEM)
---------------------------------
  C      4.906460   -3.102820   -5.954840
  C      3.511770   -2.806210   -6.492280
  H      2.736040   -3.373450   -5.973740
  H      3.444900   -3.040830   -7.555280
  S      3.004620   -1.096210   -6.389260
  F      4.128860   -0.329650   -6.953720
  O      1.781280   -1.000780   -7.136400
  O      2.851550   -0.783680   -4.956790
  H      5.627030   -2.524240   -6.494220
  H      5.121640   -4.143870   -6.076540
  H      4.950040   -2.848620   -4.916390

 Total Charge           Charge          ....    0
 Multiplicity           Mult            ....    1
 Number of Electrons    NEL             ....   58
 Basis Dimension        Dim             ....  285

ORBITAL ENERGIES
----------------

  NO   OCC          E(Eh)            E(eV)
   0   2.0000     -88.334475     -2403.7033
   1   2.0000     -24.385967      -663.5759
   2   2.0000     -18.786093      -511.1956
   3   2.0000     -18.775045      -510.8950
   4   2.0000      -9.965250      -271.1683
   5   2.0000      -9.926618      -270.1170
   6   2.0000      -7.866169      -214.0493
   7   2.0000      -5.898523      -160.5070
   8   2.0000      -5.891647      -160.3199
   9   2.0000      -5.891467      -160.3150
  10   2.0000      -1.246387       -33.9159
  11   2.0000      -1.012064       -27.5397
  12   2.0000      -0.918793       -25.0016
  13   2.0000      -0.748390       -20.3647
  14   2.0000      -0.652913       -17.7667
  15   2.0000      -0.607355       -16.5270
  16   2.0000      -0.518364       -14.1054
  17   2.0000      -0.499136       -13.5822
  18   2.0000      -0.483195       -13.1484
  19   2.0000      -0.442840       -12.0503
  20   2.0000      -0.420349       -11.4383
  21   2.0000      -0.399825       -10.8798
  22   2.0000      -0.385460       -10.4889
  23   2.0000      -0.364434        -9.9167
  24   2.0000      -0.353263        -9.6128
  25   2.0000      -0.331497        -9.0205
  26   2.0000      -0.290649        -7.9090
  27   2.0000      -0.279291        -7.5999
  28   2.0000      -0.262074        -7.1314
  29   0.0000      -0.034077        -0.9273
  30   0.0000      -0.002556        -0.0695
  31   0.0000       0.007179         0.1953
  32   0.0000       0.009328         0.2538
  33   0.0000       0.022075         0.6007

MULLIKEN ATOMIC CHARGES
-----------------------
   0 C :   -1.239597
   1 C :   -0.311442
   2 H :    0.309750
   3 H :    0.316924
   4 S :    1.185722
   5 F :   -0.173222
   6 O :   -0.539430
   7 O :   -0.585712
   8 H :    0.353551
   9 H :    0.332709
  10 H :    0.350746
Sum of atomic charges:   -0.0000000

LOEWDIN ATOMIC CHARGES
----------------------
   0 C :   -0.103749
   1 C :   -0.283785
   2 H :    0.109672
   3 H :    0.097259
   4 S :    0.564774
   5 F :   -0.063918
   6 O :   -0.253281
   7 O :   -0.275720
   8 H :    0.065805
   9 H :    0.071013
  10 H :    0.071930

  Mayer bond orders larger than 0.100000
B(  0-C ,  1-C ) :   0.6081 B(  0-C ,  8-H ) :   0.9168 B(  0-C ,  9-H ) :   0.9319
B(  0-C , 10-H ) :   0.9547 B(  1-C ,  2-H ) :   0.9105 B(  1-C ,  3-H ) :   0.9150
B(  1-C ,  4-S ) :   0.8624 B(  1-C ,  6-O ) :   0.1300 B(  4-S ,  5-F ) :   0.9850
B(  4-S ,  6-O ) :   1.6667 B(  4-S ,  7-O ) :   1.6314 B(  6-O ,  7-O ) :   0.1101

Dispersion correction           -0.019523440
FINAL SINGLE POINT ENERGY      -727.786599499786

DIPOLE MOMENT
-------------
                                X             Y             Z
Electronic contribution:     -3.02841       8.22905      -1.72367
Nuclear contribution   :      4.18919      -9.36357       1.23251
                        -----------------------------------------
Total Dipole Moment    :      1.16078      -1.13451      -0.49116
                        -----------------------------------------
Magnitude (a.u.)       :      1.69581
Magnitude (Debye)      :      4.31041

Rotational constants in cm-1:     0.153152     0.082513     0.079874
Rotational constants in MHz :  4591.373714  2473.673397  2394.575279

                             ****ORCA TERMINATED NORMALLY****
TOTAL RUN TIME: 0 days 0 hours 0 minutes 10 seconds 867 msec
