                         Program Version 5.0.0 -  RELEASE  -
|  1> !BLYP D3BJ RIJCOSX def2-TZVPD def2/J TightSCF
|  2> *xyz 0 1
|  3> C          4.49059        1.15590       -2.46929
|  4> C          4.30539        1.22276       -3.90832
|  5> C          4.63192        2.24637       -4.67096
|  6> N          4.54169        2.14399       -5.98714
|  7> N          5.08409        3.39358       -4.11855
|  8> H          4.92067        3.57050       -3.13587
|  9> H          5.25465        4.19739       -4.70696
| 10> H          3.82453        0.44911       -4.35093
| 11> H          4.34337        1.24932       -6.41665
| 12> H          4.67671        2.95662       -6.57411
| 13> C          5.94213        0.93950       -2.03689
| 14> H          3.86431        0.32853       -2.13661
| 15> H          4.07623        2.04999       -1.98901
| 16> H          6.32982        0.06401       -2.51451
| 17> H          5.98308        0.81426       -0.97504
| 18> H          6.52865        1.78889       -2.31873
| 19> *
| 20>
| 21> %MaxCore 64000
| 22>
| 23> %pal nprocs 4
| 24> end
| 25>
| 26> %scf
| 27>   MaxIter 150
| 28> end
| 29>
| 30>
| 31>                          ****END OF INPUT****

CARTESIAN COORDINATES (ANGSTROEM)
---------------------------------
  C      4.490590    1.155900   -2.469290
  C      4.305390    1.222760   -3.908320
  C      4.631920    2.246370   -4.670960
  N      4.541690    2.143990   -5.987140
  N      5.084090    3.393580   -4.118550
  H      4.920670    3.570500   -3.135870
  H      5.254650    4.197390   -4.706960
  H      3.824530    0.449110   -4.350930
  H      4.343370    1.249320   -6.416650
  H      4.676710    2.956620   -6.574110
  C      5.942130    0.939500   -2.036890
  H      3.864310    0.328530   -2.136610
  H      4.076230    2.049990   -1.989010
  H      6.329820    0.064010   -2.514510
  H      5.983080    0.814260   -0.975040
  H      6.528650    1.788890   -2.318730

 Total Charge           Charge          ....    0
 Multiplicity           Mult            ....    1
 Number of Electrons    NEL             ....   48
 Basis Dimension        Dim             ....  312

ORBITAL ENERGIES
----------------

  NO   OCC          E(Eh)            E(eV)
   0   2.0000     -14.007684      -381.1685
   1   2.0000     -14.005644      -381.1130
   2   2.0000      -9.942219      -270.5415
   3   2.0000      -9.877823      -268.7892
   4   2.0000      -9.865875      -268.4641
   5   2.0000      -9.826850      -267.4022
   6   2.0000      -0.870466       -23.6866
   7   2.0000      -0.788002       -21.4426
   8   2.0000      -0.691851       -18.8262
   9   2.0000      -0.620528       -16.8854
  10   2.0000      -0.551984       -15.0203
  11   2.0000      -0.516709       -14.0604
  12   2.0000      -0.485598       -13.2138
  13   2.0000      -0.452562       -12.3148
  14   2.0000      -0.424459       -11.5501
  15   2.0000      -0.385564       -10.4917
  16   2.0000      -0.368567       -10.0292
  17   2.0000      -0.341765        -9.2999
  18   2.0000      -0.332034        -9.0351
  19   2.0000      -0.303526        -8.2594
  20   2.0000      -0.283464        -7.7134
  21   2.0000      -0.273150        -7.4328
  22   2.0000      -0.219167        -5.9638
  23   2.0000      -0.127144        -3.4598
  24   0.0000      -0.021802        -0.5933
  25   0.0000       0.005178         0.1409
  26   0.0000       0.014103         0.3838
  27   0.0000       0.024768         0.6740
  28   0.0000       0.039445         1.0734

MULLIKEN ATOMIC CHARGES
-----------------------
   0 C :   -0.454498
   1 C :   -0.389774
   2 C :    0.348870
   3 N :   -0.321918
   4 N :   -0.306671
   5 H :    0.157362
   6 H :    0.103329
   7 H :    0.344382
   8 H :    0.132113
   9 H :    0.111625
  10 C :   -1.179961
  11 H :    0.215950
  12 H :    0.266868
  13 H :    0.336673
  14 H :    0.304767
  15 H :    0.330884
Sum of atomic charges:   -0.0000000

LOEWDIN ATOMIC CHARGES
----------------------
   0 C :   -0.283201
   1 C :   -0.143375
   2 C :   -0.545431
   3 N :    0.122118
   4 N :    0.143635
   5 H :    0.091685
   6 H :    0.090921
   7 H :    0.063479
   8 H :    0.107058
   9 H :    0.091799
  10 C :   -0.099455
  11 H :    0.100065
  12 H :    0.092440
  13 H :    0.062828
  14 H :    0.053252
  15 H :    0.052183

  Mayer bond orders larger than 0.100000
B(  0-C ,  1-C ) :   0.7571 B(  0-C ,  2-C ) :   0.2687 B(  0-C , 10-C ) :   0.5559
B(  0-C , 11-H ) :   1.0746 B(  0-C , 12-H ) :   0.8737 B(  1-C ,  2-C ) :   1.1958
B(  1-C ,  3-N ) :   0.1079 B(  1-C ,  7-H ) :   0.9317 B(  2-C ,  3-N ) :   0.9302
B(  2-C ,  4-N ) :   0.9815 B(  2-C ,  7-H ) :  -0.1346 B(  3-N ,  8-H ) :   1.0349
B(  3-N ,  9-H ) :   1.0713 B(  4-N ,  5-H ) :   0.9683 B(  4-N ,  6-H ) :   1.0790
B( 10-C , 13-H ) :   0.9617 B( 10-C , 14-H ) :   0.9590 B( 10-C , 15-H ) :   0.9501

Dispersion correction           -0.026253614
FINAL SINGLE POINT ENERGY      -267.915008639905

DIPOLE MOMENT
-------------
                                X             Y             Z
Electronic contribution:     -1.26616       1.95255      -4.12765
Nuclear contribution   :      1.23062      -1.24683       3.43056
                        -----------------------------------------
Total Dipole Moment    :     -0.03554       0.70571      -0.69709
                        -----------------------------------------
Magnitude (a.u.)       :      0.99259
Magnitude (Debye)      :      2.52295

Rotational constants in cm-1:     0.231477     0.075416     0.065327
Rotational constants in MHz :  6939.497385  2260.912204  1958.442932

                             ****ORCA TERMINATED NORMALLY****
TOTAL RUN TIME: 0 days 0 hours 0 minutes 14 seconds 914 msec
