                         Program Version 5.0.0 -  RELEASE  -
|  1> !BLYP D3BJ RIJCOSX def2-TZVPD def2/J TightSCF
|  2> *xyz 0 1
|  3> C          4.90646       -3.10282       -5.95484
|  4> C          3.51177       -2.80621       -6.49228
|  5> H          2.73604       -3.37345       -5.97374
|  6> H          3.44490       -3.04083       -7.55528
|  7> S          3.00462       -1.09621       -6.38926
|  8> O          4.12886       -0.32965       -6.95372
|  9> F          1.78128       -1.00078       -7.13640
| 10> O          2.85155       -0.78368       -4.95679
| 11> H          5.62703       -2.52424       -6.49422
| 12> H          5.12164       -4.14387       -6.07654
| 13> H          4.95004       -2.84862       -4.91639
| 14> *
| 15>
| 16> %MaxCore 64000
| 17>
| 18> %pal nprocs 4
| 19> end
| 20>
| 21> %scf
| 22>   MaxIter 150
| 23> end
| 24>
| 25>
| 26>                          ****END OF INPUT****

CARTESIAN COORDINATES (ANGSTROEM)
---------------------------------
  C      4.906460   -3.102820   -5.954840
  C      3.511770   -2.806210   -6.492280
  H      2.736040   -3.373450   -5.973740
  H      3.444900   -3.040830   -7.555280
  S      3.004620   -1.096210   -6.389260
  O      4.128860   -0.329650   -6.953720
  F      1.781280   -1.000780   -7.136400
  O      2.851550   -0.783680   -4.956790
  H      5.627030   -2.524240   -6.494220
  H      5.121640   -4.143870   -6.076540
  H      4.950040   -2.848620   -4.916390

 Total Charge           Charge          ....    0
 Multiplicity           Mult            ....    1
 Number of Electrons    NEL             ....   58
 Basis Dimension        Dim             ....  285

ORBITAL ENERGIES
----------------

  NO   OCC          E(Eh)            E(eV)
   0   2.0000     -88.336642     -2403.7622
   1   2.0000     -24.403995      -664.0665
   2   2.0000     -18.775109      -510.8967
   3   2.0000     -18.775062      -510.8954
   4   2.0000      -9.966048      -271.1899
   5   2.0000      -9.922683      -270.0099
   6   2.0000      -7.868224      -214.1053
   7   2.0000      -5.900394      -160.5579
   8   2.0000      -5.893787      -160.3781
   9   2.0000      -5.893513      -160.3707
  10   2.0000      -1.275969       -34.7209
  11   2.0000      -0.999163       -27.1886
  12   2.0000      -0.906035       -24.6545
  13   2.0000      -0.745701       -20.2916
  14   2.0000      -0.666392       -18.1335
  15   2.0000      -0.608897       -16.5689
  16   2.0000      -0.521900       -14.2016
  17   2.0000      -0.520505       -14.1637
  18   2.0000      -0.493733       -13.4352
  19   2.0000      -0.443414       -12.0659
  20   2.0000      -0.422977       -11.5098
  21   2.0000      -0.385982       -10.5031
  22   2.0000      -0.382121       -10.3980
  23   2.0000      -0.362016        -9.8510
  24   2.0000      -0.344719        -9.3803
  25   2.0000      -0.326974        -8.8974
  26   2.0000      -0.280565        -7.6346
  27   2.0000      -0.275948        -7.5089
  28   2.0000      -0.251367        -6.8400
  29   0.0000      -0.029283        -0.7968
  30   0.0000      -0.012727        -0.3463
  31   0.0000       0.007524         0.2047
  32   0.0000       0.012662         0.3445
  33   0.0000       0.025211         0.6860

MULLIKEN ATOMIC CHARGES
-----------------------
   0 C :   -1.229594
   1 C :   -0.347247
   2 H :    0.324014
   3 H :    0.321777
   4 S :    1.181037
   5 O :   -0.584359
   6 F :   -0.114113
   7 O :   -0.580074
   8 H :    0.346068
   9 H :    0.333485
  10 H :    0.349006
Sum of atomic charges:   -0.0000000

LOEWDIN ATOMIC CHARGES
----------------------
   0 C :   -0.092587
   1 C :   -0.293726
   2 H :    0.098547
   3 H :    0.095161
   4 S :    0.565467
   5 O :   -0.276504
   6 F :   -0.038000
   7 O :   -0.276841
   8 H :    0.070863
   9 H :    0.072732
  10 H :    0.074887

  Mayer bond orders larger than 0.100000
B(  0-C ,  1-C ) :   0.6863 B(  0-C ,  8-H ) :   0.9423 B(  0-C ,  9-H ) :   0.9145
B(  0-C , 10-H ) :   0.9289 B(  1-C ,  2-H ) :   0.8878 B(  1-C ,  3-H ) :   0.8812
B(  1-C ,  4-S ) :   0.8651 B(  1-C ,  7-O ) :   0.1084 B(  4-S ,  5-O ) :   1.6356
B(  4-S ,  6-F ) :   1.0124 B(  4-S ,  7-O ) :   1.6359 B(  5-O ,  7-O ) :   0.1188

Dispersion correction           -0.019640129
FINAL SINGLE POINT ENERGY      -727.772084548536

DIPOLE MOMENT
-------------
                                X             Y             Z
Electronic contribution:     -6.93440       7.12763      -2.02544
Nuclear contribution   :      6.63544      -8.66423       1.42287
                        -----------------------------------------
Total Dipole Moment    :     -0.29896      -1.53660      -0.60257
                        -----------------------------------------
Magnitude (a.u.)       :      1.67738
Magnitude (Debye)      :      4.26356

Rotational constants in cm-1:     0.158118     0.080978     0.078216
Rotational constants in MHz :  4740.271775  2427.649826  2344.849020

                             ****ORCA TERMINATED NORMALLY****
TOTAL RUN TIME: 0 days 0 hours 0 minutes 10 seconds 890 msec
