                         Program Version 5.0.0 -  RELEASE  -
|  1> !BLYP D3BJ RIJCOSX def2-TZVPD def2/J TightSCF
|  2> *xyz 0 1
|  3> C          4.49059        1.15590       -2.46929
|  4> N          4.30539        1.22276       -3.90832
|  5> C          4.63192        2.24637       -4.67096
|  6> C          4.54169        2.14399       -5.98714
|  7> N          5.08409        3.39358       -4.11855
|  8> H          4.92067        3.57050       -3.13587
|  9> H          5.25465        4.19739       -4.70696
| 10> H          3.82453        0.44911       -4.35093
| 11> H          4.34337        1.24932       -6.41665
| 12> H          4.67671        2.95662       -6.57411
| 13> C          5.94213        0.93950       -2.03689
| 14> H          3.86431        0.32853       -2.13661
| 15> H          4.07623        2.04999       -1.98901
| 16> H          6.32982        0.06401       -2.51451
| 17> H          5.98308        0.81426       -0.97504
| 18> H          6.52865        1.78889       -2.31873
| 19> *
| 20>
| 21> %MaxCore 64000
| 22>
| 23> %pal nprocs 4
| 24> end
| 25>
| 26> %scf
| 27>   MaxIter 150
| 28> end
| 29>
| 30>
| 31>                          ****END OF INPUT****

CARTESIAN COORDINATES (ANGSTROEM)
---------------------------------
  C      4.490590    1.155900   -2.469290
  N      4.305390    1.222760   -3.908320
  C      4.631920    2.246370   -4.670960
  C      4.541690    2.143990   -5.987140
  N      5.084090    3.393580   -4.118550
  H      4.920670    3.570500   -3.135870
  H      5.254650    4.197390   -4.706960
  H      3.824530    0.449110   -4.350930
  H      4.343370    1.249320   -6.416650
  H      4.676710    2.956620   -6.574110
  C      5.942130    0.939500   -2.036890
  H      3.864310    0.328530   -2.136610
  H      4.076230    2.049990   -1.989010
  H      6.329820    0.064010   -2.514510
  H      5.983080    0.814260   -0.975040
  H      6.528650    1.788890   -2.318730

 Total Charge           Charge          ....    0
 Multiplicity           Mult            ....    1
 Number of Electrons    NEL             ....   48
 Basis Dimension        Dim             ....  312

ORBITAL ENERGIES
----------------

  NO   OCC          E(Eh)            E(eV)
   0   2.0000     -14.006376      -381.1329
   1   2.0000     -14.004865      -381.0917
   2   2.0000      -9.943950      -270.5886
   3   2.0000      -9.943104      -270.5656
   4   2.0000      -9.891496      -269.1613
   5   2.0000      -9.816012      -267.1073
   6   2.0000      -0.877624       -23.8814
   7   2.0000      -0.797792       -21.7090
   8   2.0000      -0.692860       -18.8537
   9   2.0000      -0.627264       -17.0687
  10   2.0000      -0.563698       -15.3390
  11   2.0000      -0.536370       -14.5954
  12   2.0000      -0.478416       -13.0184
  13   2.0000      -0.442964       -12.0537
  14   2.0000      -0.428971       -11.6729
  15   2.0000      -0.395933       -10.7739
  16   2.0000      -0.372582       -10.1385
  17   2.0000      -0.352553        -9.5934
  18   2.0000      -0.333708        -9.0807
  19   2.0000      -0.327917        -8.9231
  20   2.0000      -0.313480        -8.5302
  21   2.0000      -0.306433        -8.3385
  22   2.0000      -0.210233        -5.7207
  23   2.0000      -0.127615        -3.4726
  24   0.0000      -0.019873        -0.5408
  25   0.0000       0.004813         0.1310
  26   0.0000       0.009812         0.2670
  27   0.0000       0.017018         0.4631
  28   0.0000       0.043530         1.1845

MULLIKEN ATOMIC CHARGES
-----------------------
   0 C :   -0.403669
   1 N :   -0.153941
   2 C :    0.723603
   3 C :   -1.232899
   4 N :   -0.328196
   5 H :    0.149504
   6 H :    0.118075
   7 H :    0.147041
   8 H :    0.301894
   9 H :    0.253159
  10 C :   -1.151858
  11 H :    0.297492
  12 H :    0.289192
  13 H :    0.297301
  14 H :    0.339721
  15 H :    0.353583
Sum of atomic charges:   -0.0000000

LOEWDIN ATOMIC CHARGES
----------------------
   0 C :   -0.244195
   1 N :    0.026659
   2 C :   -0.566581
   3 C :    0.004093
   4 N :    0.135620
   5 H :    0.081906
   6 H :    0.103349
   7 H :    0.143149
   8 H :    0.004282
   9 H :    0.001043
  10 C :   -0.078040
  11 H :    0.109570
  12 H :    0.100195
  13 H :    0.065346
  14 H :    0.059135
  15 H :    0.054467

  Mayer bond orders larger than 0.100000
B(  0-C ,  1-N ) :   0.8227 B(  0-C , 10-C ) :   0.5773 B(  0-C , 11-H ) :   0.9321
B(  0-C , 12-H ) :   0.8949 B(  1-N ,  2-C ) :   1.0697 B(  1-N ,  3-C ) :   0.1088
B(  1-N ,  7-H ) :   1.0042 B(  1-N , 10-C ) :   0.1211 B(  2-C ,  3-C ) :   1.0188
B(  2-C ,  4-N ) :   0.9551 B(  2-C ,  9-H ) :  -0.1290 B(  3-C ,  8-H ) :   0.9555
B(  3-C ,  9-H ) :   1.1290 B(  4-N ,  5-H ) :   0.9943 B(  4-N ,  6-H ) :   1.0472
B( 10-C , 13-H ) :   1.0033 B( 10-C , 14-H ) :   0.9398 B( 10-C , 15-H ) :   0.9469

Dispersion correction           -0.025952557
FINAL SINGLE POINT ENERGY      -267.907926940819

DIPOLE MOMENT
-------------
                                X             Y             Z
Electronic contribution:     -1.41522       1.07159      -1.95907
Nuclear contribution   :      1.28075      -1.05140       2.98955
                        -----------------------------------------
Total Dipole Moment    :     -0.13447       0.02020       1.03048
                        -----------------------------------------
Magnitude (a.u.)       :      1.03941
Magnitude (Debye)      :      2.64198

Rotational constants in cm-1:     0.229858     0.078444     0.067377
Rotational constants in MHz :  6890.979812  2351.691803  2019.910665

                             ****ORCA TERMINATED NORMALLY****
TOTAL RUN TIME: 0 days 0 hours 0 minutes 13 seconds 841 msec
