                         Program Version 5.0.0 -  RELEASE  -
|  1> !BLYP D3BJ RIJCOSX def2-TZVPD def2/J TightSCF
|  2> *xyz 0 1
|  3> C          4.90646       -3.10282       -5.95484
|  4> C          3.51177       -2.80621       -6.49228
|  5> H          2.73604       -3.37345       -5.97374
|  6> H          3.44490       -3.04083       -7.55528
|  7> S          3.00462       -1.09621       -6.38926
|  8> O          4.12886       -0.32965       -6.95372
|  9> O          1.78128       -1.00078       -7.13640
| 10> F          2.85155       -0.78368       -4.95679
| 11> H          5.62703       -2.52424       -6.49422
| 12> H          5.12164       -4.14387       -6.07654
| 13> H          4.95004       -2.84862       -4.91639
| 14> *
| 15>
| 16> %MaxCore 64000
| 17>
| 18> %pal nprocs 4
| 19> end
| 20>
| 21> %scf
| 22>   MaxIter 150
| 23> end
| 24>
| 25>
| 26>                          ****END OF INPUT****

CARTESIAN COORDINATES (ANGSTROEM)
---------------------------------
  C      4.906460   -3.102820   -5.954840
  C      3.511770   -2.806210   -6.492280
  H      2.736040   -3.373450   -5.973740
  H      3.444900   -3.040830   -7.555280
  S      3.004620   -1.096210   -6.389260
  O      4.128860   -0.329650   -6.953720
  O      1.781280   -1.000780   -7.136400
  F      2.851550   -0.783680   -4.956790
  H      5.627030   -2.524240   -6.494220
  H      5.121640   -4.143870   -6.076540
  H      4.950040   -2.848620   -4.916390

 Total Charge           Charge          ....    0
 Multiplicity           Mult            ....    1
 Number of Electrons    NEL             ....   58
 Basis Dimension        Dim             ....  285

ORBITAL ENERGIES
----------------

  NO   OCC          E(Eh)            E(eV)
   0   2.0000     -88.334508     -2403.7042
   1   2.0000     -24.385674      -663.5679
   2   2.0000     -18.786301      -511.2012
   3   2.0000     -18.775327      -510.9026
   4   2.0000      -9.965116      -271.1646
   5   2.0000      -9.923711      -270.0379
   6   2.0000      -7.866201      -214.0502
   7   2.0000      -5.898525      -160.5070
   8   2.0000      -5.891734      -160.3222
   9   2.0000      -5.891473      -160.3151
  10   2.0000      -1.245495       -33.8917
  11   2.0000      -1.012225       -27.5440
  12   2.0000      -0.920337       -25.0436
  13   2.0000      -0.746229       -20.3059
  14   2.0000      -0.652309       -17.7502
  15   2.0000      -0.606263       -16.4973
  16   2.0000      -0.515768       -14.0348
  17   2.0000      -0.498002       -13.5513
  18   2.0000      -0.484899       -13.1948
  19   2.0000      -0.441616       -12.0170
  20   2.0000      -0.422757       -11.5038
  21   2.0000      -0.400073       -10.8865
  22   2.0000      -0.382377       -10.4050
  23   2.0000      -0.360409        -9.8072
  24   2.0000      -0.353406        -9.6167
  25   2.0000      -0.329819        -8.9748
  26   2.0000      -0.290514        -7.9053
  27   2.0000      -0.280005        -7.6193
  28   2.0000      -0.263656        -7.1744
  29   0.0000      -0.033563        -0.9133
  30   0.0000      -0.004558        -0.1240
  31   0.0000       0.006675         0.1816
  32   0.0000       0.008974         0.2442
  33   0.0000       0.021645         0.5890

MULLIKEN ATOMIC CHARGES
-----------------------
   0 C :   -1.209755
   1 C :   -0.338562
   2 H :    0.328258
   3 H :    0.304372
   4 S :    1.184058
   5 O :   -0.586566
   6 O :   -0.541661
   7 F :   -0.168099
   8 H :    0.342933
   9 H :    0.335794
  10 H :    0.349228
Sum of atomic charges:   -0.0000000

LOEWDIN ATOMIC CHARGES
----------------------
   0 C :   -0.103665
   1 C :   -0.285028
   2 H :    0.098622
   3 H :    0.106794
   4 S :    0.566557
   5 O :   -0.274253
   6 O :   -0.253533
   7 F :   -0.064143
   8 H :    0.069000
   9 H :    0.070676
  10 H :    0.068972

  Mayer bond orders larger than 0.100000
B(  0-C ,  1-C ) :   0.6335 B(  0-C ,  8-H ) :   0.9726 B(  0-C ,  9-H ) :   0.9267
B(  0-C , 10-H ) :   0.9098 B(  1-C ,  2-H ) :   0.8924 B(  1-C ,  3-H ) :   0.9181
B(  1-C ,  4-S ) :   0.8693 B(  1-C ,  6-O ) :   0.1351 B(  4-S ,  5-O ) :   1.6331
B(  4-S ,  6-O ) :   1.6647 B(  4-S ,  7-F ) :   0.9777 B(  5-O ,  6-O ) :   0.1130

Dispersion correction           -0.019560807
FINAL SINGLE POINT ENERGY      -727.786932653923

DIPOLE MOMENT
-------------
                                X             Y             Z
Electronic contribution:     -5.16125       7.48440       1.61164
Nuclear contribution   :      5.52019      -8.89046      -0.84835
                        -----------------------------------------
Total Dipole Moment    :      0.35894      -1.40605       0.76328
                        -----------------------------------------
Magnitude (a.u.)       :      1.63964
Magnitude (Debye)      :      4.16764

Rotational constants in cm-1:     0.153332     0.082132     0.079755
Rotational constants in MHz :  4596.775407  2462.251277  2391.008596

                             ****ORCA TERMINATED NORMALLY****
TOTAL RUN TIME: 0 days 0 hours 0 minutes 10 seconds 785 msec
