                         Program Version 5.0.0 -  RELEASE  -
|  1> !BLYP D3BJ RIJCOSX def2-TZVPD def2/J TightSCF
|  2> *xyz 0 1
|  3> C          4.49059        1.15590       -2.46929
|  4> N          4.30539        1.22276       -3.90832
|  5> C          4.63192        2.24637       -4.67096
|  6> N          4.54169        2.14399       -5.98714
|  7> C          5.08409        3.39358       -4.11855
|  8> H          4.92067        3.57050       -3.13587
|  9> H          5.25465        4.19739       -4.70696
| 10> H          3.82453        0.44911       -4.35093
| 11> H          4.34337        1.24932       -6.41665
| 12> H          4.67671        2.95662       -6.57411
| 13> C          5.94213        0.93950       -2.03689
| 14> H          3.86431        0.32853       -2.13661
| 15> H          4.07623        2.04999       -1.98901
| 16> H          6.32982        0.06401       -2.51451
| 17> H          5.98308        0.81426       -0.97504
| 18> H          6.52865        1.78889       -2.31873
| 19> *
| 20>
| 21> %MaxCore 64000
| 22>
| 23> %pal nprocs 4
| 24> end
| 25>
| 26> %scf
| 27>   MaxIter 150
| 28> end
| 29>
| 30>
| 31>                          ****END OF INPUT****

CARTESIAN COORDINATES (ANGSTROEM)
---------------------------------
  C      4.490590    1.155900   -2.469290
  N      4.305390    1.222760   -3.908320
  C      4.631920    2.246370   -4.670960
  N      4.541690    2.143990   -5.987140
  C      5.084090    3.393580   -4.118550
  H      4.920670    3.570500   -3.135870
  H      5.254650    4.197390   -4.706960
  H      3.824530    0.449110   -4.350930
  H      4.343370    1.249320   -6.416650
  H      4.676710    2.956620   -6.574110
  C      5.942130    0.939500   -2.036890
  H      3.864310    0.328530   -2.136610
  H      4.076230    2.049990   -1.989010
  H      6.329820    0.064010   -2.514510
  H      5.983080    0.814260   -0.975040
  H      6.528650    1.788890   -2.318730

 Total Charge           Charge          ....    0
 Multiplicity           Mult            ....    1
 Number of Electrons    NEL             ....   48
 Basis Dimension        Dim             ....  312

ORBITAL ENERGIES
----------------

  NO   OCC          E(Eh)            E(eV)
   0   2.0000     -14.010170      -381.2361
   1   2.0000     -14.007257      -381.1569
   2   2.0000      -9.945705      -270.6364
   3   2.0000      -9.936197      -270.3777
   4   2.0000      -9.881838      -268.8985
   5   2.0000      -9.817508      -267.1480
   6   2.0000      -0.881244       -23.9799
   7   2.0000      -0.804055       -21.8795
   8   2.0000      -0.675560       -18.3829
   9   2.0000      -0.632122       -17.2009
  10   2.0000      -0.572757       -15.5855
  11   2.0000      -0.501892       -13.6572
  12   2.0000      -0.495270       -13.4770
  13   2.0000      -0.466183       -12.6855
  14   2.0000      -0.417632       -11.3644
  15   2.0000      -0.387831       -10.5534
  16   2.0000      -0.361774        -9.8444
  17   2.0000      -0.346375        -9.4253
  18   2.0000      -0.333667        -9.0796
  19   2.0000      -0.318253        -8.6601
  20   2.0000      -0.312873        -8.5137
  21   2.0000      -0.300727        -8.1832
  22   2.0000      -0.206603        -5.6220
  23   2.0000      -0.129783        -3.5316
  24   0.0000      -0.020015        -0.5446
  25   0.0000       0.002864         0.0779
  26   0.0000       0.012330         0.3355
  27   0.0000       0.021663         0.5895
  28   0.0000       0.042693         1.1617

MULLIKEN ATOMIC CHARGES
-----------------------
   0 C :   -0.354377
   1 N :   -0.194957
   2 C :    0.775779
   3 N :   -0.287652
   4 C :   -1.295312
   5 H :    0.241160
   6 H :    0.313634
   7 H :    0.157473
   8 H :    0.125006
   9 H :    0.130658
  10 C :   -1.195934
  11 H :    0.303508
  12 H :    0.268532
  13 H :    0.302705
  14 H :    0.335468
  15 H :    0.374308
Sum of atomic charges:   -0.0000000

LOEWDIN ATOMIC CHARGES
----------------------
   0 C :   -0.240098
   1 N :    0.021265
   2 C :   -0.568915
   3 N :    0.127117
   4 C :    0.013805
   5 H :   -0.004369
   6 H :    0.001073
   7 H :    0.133453
   8 H :    0.094666
   9 H :    0.106564
  10 C :   -0.076773
  11 H :    0.108397
  12 H :    0.106144
  13 H :    0.062786
  14 H :    0.060464
  15 H :    0.054421

  Mayer bond orders larger than 0.100000
B(  0-C ,  1-N ) :   0.8383 B(  0-C , 10-C ) :   0.5784 B(  0-C , 11-H ) :   0.8739
B(  0-C , 12-H ) :   0.9182 B(  1-N ,  2-C ) :   1.0431 B(  1-N ,  7-H ) :   1.0200
B(  1-N , 10-C ) :   0.1173 B(  2-C ,  3-N ) :   0.9053 B(  2-C ,  4-C ) :   1.0513
B(  3-N ,  8-H ) :   1.0527 B(  3-N ,  9-H ) :   1.0332 B(  4-C ,  5-H ) :   1.0166
B(  4-C ,  6-H ) :   1.0070 B( 10-C , 13-H ) :   0.9818 B( 10-C , 14-H ) :   0.9256
B( 10-C , 15-H ) :   0.9573

Dispersion correction           -0.026154205
FINAL SINGLE POINT ENERGY      -267.907775467669

DIPOLE MOMENT
-------------
                                X             Y             Z
Electronic contribution:     -1.87632      -0.11097      -3.81234
Nuclear contribution   :      1.39581      -0.78630       3.38596
                        -----------------------------------------
Total Dipole Moment    :     -0.48051      -0.89727      -0.42637
                        -----------------------------------------
Magnitude (a.u.)       :      1.10353
Magnitude (Debye)      :      2.80495

Rotational constants in cm-1:     0.239249     0.075811     0.066261
Rotational constants in MHz :  7172.504830  2272.756282  1986.457543

                             ****ORCA TERMINATED NORMALLY****
TOTAL RUN TIME: 0 days 0 hours 0 minutes 15 seconds 74 msec
