                         Program Version 5.0.0 -  RELEASE  -
|  1> !BLYP D3BJ RIJCOSX def2-TZVPD def2/J TightSCF xyzfile
|  2>
|  3> *xyzfile 0 1 D1.xyz
|  4>
|  5> %MaxCore 64000
|  6>
|  7> %pal nprocs 4
|  8> end
|  9>
| 10> %scf
| 11>   MaxIter 150
| 12> end
| 13>
| 14>
| 15>                          ****END OF INPUT****

CARTESIAN COORDINATES (ANGSTROEM)
---------------------------------
  C      4.490588    1.155899   -2.469290
  C      4.305394    1.222762   -3.908317
  C      4.906458   -3.102816   -5.954844
  C      3.511771   -2.806215   -6.492283
  H      2.736044   -3.373445   -5.973736
  H      3.444904   -3.040831   -7.555281
  S      3.004618   -1.096206   -6.389259
  C      4.631918    2.246365   -4.670958
  N      4.541686    2.143990   -5.987139
  N      5.084086    3.393584   -4.118545
  H      4.920675    3.570501   -3.135870
  H      5.254652    4.197390   -4.706956
  H      3.824530    0.449113   -4.350926
  H      4.343373    1.249318   -6.416646
  H      4.676712    2.956624   -6.574113
  F      4.128856   -0.329647   -6.953717
  O      1.781285   -1.000779   -7.136399
  C      5.942129    0.939500   -2.036893
  H      3.864305    0.328532   -2.136611
  H      4.076233    2.049994   -1.989010
  C      6.462677   -3.117775   -3.944671
  C      5.024977   -3.025679   -4.437625
  H      4.423321   -3.818693   -3.977648
  H      4.579350   -2.087131   -4.108727
  H      5.201533   -4.100207   -6.296905
  H      5.605922   -2.397822   -6.413368
  C      6.559957   -0.356290   -2.559086
  H      5.967976    0.952567   -0.942444
  H      6.547184    1.788331   -2.368849
  C      6.006283   -1.615917   -1.899301
  H      7.642360   -0.318000   -2.402059
  H      6.414855   -0.403433   -3.642587
  C      6.608718   -2.917014   -2.435655
  H      6.190324   -1.561115   -0.820948
  H      4.919250   -1.651245   -2.016586
  H      7.066975   -2.374258   -4.475514
  H      6.887808   -4.089747   -4.215332
  H      6.135197   -3.755573   -1.915159
  H      7.671142   -2.955503   -2.172291
  O      2.851546   -0.783683   -4.956789

 Total Charge           Charge          ....    0
 Multiplicity           Mult            ....    1
 Number of Electrons    NEL             ....  144
 Basis Dimension        Dim             ....  854

ORBITAL ENERGIES
----------------

  NO   OCC          E(Eh)            E(eV)
   0   2.0000     -88.342577     -2403.9237
   1   2.0000     -24.404510      -664.0805
   2   2.0000     -18.793634      -511.4008
   3   2.0000     -18.781061      -511.0587
   4   2.0000     -13.995904      -380.8479
   5   2.0000     -13.991795      -380.7361
   6   2.0000      -9.966051      -271.1900
   7   2.0000      -9.932207      -270.2691
   8   2.0000      -9.927454      -270.1397
   9   2.0000      -9.902886      -269.4712
  10   2.0000      -9.898595      -269.3545
  11   2.0000      -9.892387      -269.1855
  12   2.0000      -9.883625      -268.9471
  13   2.0000      -9.877104      -268.7697
  14   2.0000      -9.872162      -268.6352
  15   2.0000      -9.866077      -268.4696
  16   2.0000      -9.801440      -266.7107
  17   2.0000      -7.874833      -214.2851
  18   2.0000      -5.907309      -160.7461
  19   2.0000      -5.900236      -160.5536
  20   2.0000      -5.899869      -160.5436
  21   2.0000      -1.267790       -34.4983
  22   2.0000      -1.021901       -27.8073
  23   2.0000      -0.930025       -25.3073
  24   2.0000      -0.858753       -23.3678
  25   2.0000      -0.777851       -21.1664
  26   2.0000      -0.761439       -20.7198
  27   2.0000      -0.724659       -19.7190
  28   2.0000      -0.698470       -19.0063
  29   2.0000      -0.676421       -18.4063
  30   2.0000      -0.653465       -17.7817
  31   2.0000      -0.629210       -17.1217
  32   2.0000      -0.600709       -16.3461
  33   2.0000      -0.572572       -15.5805
  34   2.0000      -0.549754       -14.9596
  35   2.0000      -0.541948       -14.7472
  36   2.0000      -0.524228       -14.2650
  37   2.0000      -0.518688       -14.1142
  38   2.0000      -0.499897       -13.6029
  39   2.0000      -0.498416       -13.5626
  40   2.0000      -0.481559       -13.1039
  41   2.0000      -0.472073       -12.8457
  42   2.0000      -0.443646       -12.0722
  43   2.0000      -0.437463       -11.9040
  44   2.0000      -0.431816       -11.7503
  45   2.0000      -0.418213       -11.3802
  46   2.0000      -0.408820       -11.1246
  47   2.0000      -0.402000       -10.9390
  48   2.0000      -0.398279       -10.8377
  49   2.0000      -0.396231       -10.7820
  50   2.0000      -0.376041       -10.2326
  51   2.0000      -0.369009       -10.0412
  52   2.0000      -0.366085        -9.9617
  53   2.0000      -0.354437        -9.6447
  54   2.0000      -0.342669        -9.3245
  55   2.0000      -0.332970        -9.0606
  56   2.0000      -0.331488        -9.0203
  57   2.0000      -0.324108        -8.8194
  58   2.0000      -0.316428        -8.6104
  59   2.0000      -0.308398        -8.3919
  60   2.0000      -0.302458        -8.2303
  61   2.0000      -0.295810        -8.0494
  62   2.0000      -0.292903        -7.9703
  63   2.0000      -0.280762        -7.6399
  64   2.0000      -0.278387        -7.5753
  65   2.0000      -0.268149        -7.2967
  66   2.0000      -0.265505        -7.2248
  67   2.0000      -0.258431        -7.0323
  68   2.0000      -0.251429        -6.8417
  69   2.0000      -0.235118        -6.3979
  70   2.0000      -0.208332        -5.6690
  71   2.0000      -0.113778        -3.0961
  72   0.0000      -0.038438        -1.0460
  73   0.0000      -0.014032        -0.3818
  74   0.0000      -0.008355        -0.2274
  75   0.0000      -0.003253        -0.0885
  76   0.0000       0.000285         0.0078

MULLIKEN ATOMIC CHARGES
-----------------------
   0 C :   -1.021561
   1 C :   -1.465805
   2 C :   -0.695267
   3 C :   -0.712487
   4 H :    0.327102
   5 H :    0.303909
   6 S :    1.319931
   7 C :    0.354873
   8 N :   -0.299398
   9 N :   -0.301254
  10 H :    0.170414
  11 H :    0.088813
  12 H :    1.624646
  13 H :    0.243935
  14 H :    0.080255
  15 F :   -0.316276
  16 O :   -0.585200
  17 C :   -0.683017
  18 H :    0.274149
  19 H :    0.328013
  20 C :   -0.538258
  21 C :   -0.169637
  22 H :    0.261029
  23 H :    0.300500
  24 H :    0.269634
  25 H :    0.255296
  26 C :   -0.348719
  27 H :    0.262587
  28 H :    0.352206
  29 C :   -0.483060
  30 H :    0.249699
  31 H :    0.221662
  32 C :   -0.740420
  33 H :    0.294068
  34 H :    0.238665
  35 H :    0.303006
  36 H :    0.293032
  37 H :    0.270743
  38 H :    0.280923
  39 O :   -0.608731
Sum of atomic charges:    0.0000000

LOEWDIN ATOMIC CHARGES
----------------------
   0 C :   -0.215141
   1 C :   -0.135707
   2 C :   -0.217893
   3 C :   -0.220474
   4 H :    0.118167
   5 H :    0.102142
   6 S :    0.612276
   7 C :   -0.521478
   8 N :    0.133473
   9 N :    0.143463
  10 H :    0.089940
  11 H :    0.087595
  12 H :    0.003494
  13 H :    0.051700
  14 H :    0.095949
  15 F :   -0.075124
  16 O :   -0.232733
  17 C :   -0.200210
  18 H :    0.103180
  19 H :    0.098148
  20 C :   -0.211245
  21 C :   -0.211424
  22 H :    0.127822
  23 H :    0.085427
  24 H :    0.119002
  25 H :    0.109825
  26 C :   -0.207358
  27 H :    0.101984
  28 H :    0.098726
  29 C :   -0.210769
  30 H :    0.111340
  31 H :    0.098146
  32 C :   -0.204821
  33 H :    0.111338
  34 H :    0.099385
  35 H :    0.105586
  36 H :    0.109498
  37 H :    0.105059
  38 H :    0.106019
  39 O :   -0.264303

  Mayer bond orders larger than 0.100000
B(  0-C ,  1-C ) :   1.0116 B(  0-C ,  7-C ) :   0.1403 B(  0-C , 12-H ) :  -0.3336
B(  0-C , 17-C ) :   0.6498 B(  0-C , 18-H ) :   1.0231 B(  0-C , 19-H ) :   0.8047
B(  0-C , 29-C ) :   0.1189 B(  1-C ,  7-C ) :   0.6434 B(  1-C , 10-H ) :  -0.1200
B(  1-C , 12-H ) :  -1.6664 B(  1-C , 18-H ) :  -0.1339 B(  1-C , 26-C ) :   0.1018
B(  1-C , 39-O ) :   0.4404 B(  2-C ,  3-C ) :   0.8573 B(  2-C , 20-C ) :   0.4053
B(  2-C , 21-C ) :   0.2295 B(  2-C , 22-H ) :  -0.1342 B(  2-C , 24-H ) :   0.9952
B(  2-C , 25-H ) :   0.9473 B(  3-C ,  4-H ) :   0.8659 B(  3-C ,  5-H ) :   0.9774
B(  3-C ,  6-S ) :   0.9205 B(  3-C , 16-O ) :   0.1653 B(  6-S , 15-F ) :   0.8906
B(  6-S , 16-O ) :   1.4409 B(  6-S , 39-O ) :   1.6110 B(  7-C ,  8-N ) :   0.9430
B(  7-C ,  9-N ) :   1.0749 B(  7-C , 10-H ) :   0.1299 B(  7-C , 12-H ) :   0.5320
B(  8-N , 13-H ) :   0.8831 B(  8-N , 14-H ) :   1.0896 B(  9-N , 10-H ) :   0.9816
B(  9-N , 11-H ) :   1.0658 B(  9-N , 17-C ) :   0.1495 B( 12-H , 39-O ) :  -0.6022
B( 17-C , 26-C ) :   0.9104 B( 17-C , 27-H ) :   0.9897 B( 17-C , 28-H ) :   0.8632
B( 17-C , 29-C ) :   0.1914 B( 20-C , 21-C ) :   0.3078 B( 20-C , 23-H ) :  -0.1035
B( 20-C , 26-C ) :   0.1362 B( 20-C , 32-C ) :   0.8958 B( 20-C , 35-H ) :   0.9425
B( 20-C , 36-H ) :   0.9074 B( 21-C , 22-H ) :   0.8350 B( 21-C , 23-H ) :   1.4050
B( 21-C , 29-C ) :   0.1310 B( 21-C , 39-O ) :   0.1454 B( 22-H , 23-H ) :   0.1499
B( 23-H , 39-O ) :  -0.1701 B( 26-C , 29-C ) :   0.1534 B( 26-C , 30-H ) :   0.9442
B( 26-C , 31-H ) :   1.0621 B( 26-C , 32-C ) :   0.1007 B( 26-C , 33-H ) :  -0.1008
B( 26-C , 34-H ) :  -0.1474 B( 29-C , 32-C ) :   0.8719 B( 29-C , 33-H ) :   0.9141
B( 29-C , 34-H ) :   1.0470 B( 32-C , 37-H ) :   0.9445 B( 32-C , 38-H ) :   0.9611

Dispersion correction           -0.097268956
FINAL SINGLE POINT ENERGY     -1191.020592672916

DIPOLE MOMENT
-------------
                                X             Y             Z
Electronic contribution:    -16.37961       4.86709     -21.39659
Nuclear contribution   :     17.24138      -5.45913      20.34076
                        -----------------------------------------
Total Dipole Moment    :      0.86178      -0.59204      -1.05583
                        -----------------------------------------
Magnitude (a.u.)       :      1.48592
Magnitude (Debye)      :      3.77691

Rotational constants in cm-1:     0.014201     0.012275     0.007453
Rotational constants in MHz :   425.728191   368.008875   223.435232

                             ****ORCA TERMINATED NORMALLY****
TOTAL RUN TIME: 0 days 0 hours 3 minutes 24 seconds 302 msec
