                         Program Version 5.0.0 -  RELEASE  -
|  1> !BLYP D3BJ RIJCOSX def2-TZVPD def2/J TightSCF xyzfile
|  2>
|  3> *xyzfile 0 1 D2.xyz
|  4>
|  5> %MaxCore 64000
|  6>
|  7> %pal nprocs 4
|  8> end
|  9>
| 10> %scf
| 11>   MaxIter 150
| 12> end
| 13>
| 14>
| 15>                          ****END OF INPUT****

CARTESIAN COORDINATES (ANGSTROEM)
---------------------------------
  C      4.490588    1.155899   -2.469290
  N      4.305394    1.222762   -3.908317
  C      4.906458   -3.102816   -5.954844
  C      3.511771   -2.806215   -6.492283
  H      2.736044   -3.373445   -5.973736
  H      3.444904   -3.040831   -7.555281
  S      3.004618   -1.096206   -6.389259
  C      4.631918    2.246365   -4.670958
  C      4.541686    2.143990   -5.987139
  N      5.084086    3.393584   -4.118545
  H      4.920675    3.570501   -3.135870
  H      5.254652    4.197390   -4.706956
  H      3.824530    0.449113   -4.350926
  H      4.343373    1.249318   -6.416646
  H      4.676712    2.956624   -6.574113
  F      4.128856   -0.329647   -6.953717
  O      1.781285   -1.000779   -7.136399
  C      5.942129    0.939500   -2.036893
  H      3.864305    0.328532   -2.136611
  H      4.076233    2.049994   -1.989010
  C      6.462677   -3.117775   -3.944671
  C      5.024977   -3.025679   -4.437625
  H      4.423321   -3.818693   -3.977648
  H      4.579350   -2.087131   -4.108727
  H      5.201533   -4.100207   -6.296905
  H      5.605922   -2.397822   -6.413368
  C      6.559957   -0.356290   -2.559086
  H      5.967976    0.952567   -0.942444
  H      6.547184    1.788331   -2.368849
  C      6.006283   -1.615917   -1.899301
  H      7.642360   -0.318000   -2.402059
  H      6.414855   -0.403433   -3.642587
  C      6.608718   -2.917014   -2.435655
  H      6.190324   -1.561115   -0.820948
  H      4.919250   -1.651245   -2.016586
  H      7.066975   -2.374258   -4.475514
  H      6.887808   -4.089747   -4.215332
  H      6.135197   -3.755573   -1.915159
  H      7.671142   -2.955503   -2.172291
  O      2.851546   -0.783683   -4.956789

 Total Charge           Charge          ....    0
 Multiplicity           Mult            ....    1
 Number of Electrons    NEL             ....  144
 Basis Dimension        Dim             ....  854

ORBITAL ENERGIES
----------------

  NO   OCC          E(Eh)            E(eV)
   0   2.0000     -88.345533     -2404.0042
   1   2.0000     -24.390727      -663.7054
   2   2.0000     -18.793691      -511.4023
   3   2.0000     -18.791137      -511.3328
   4   2.0000     -13.993128      -380.7724
   5   2.0000     -13.978117      -380.3639
   6   2.0000      -9.967487      -271.2291
   7   2.0000      -9.935156      -270.3493
   8   2.0000      -9.930089      -270.2115
   9   2.0000      -9.927377      -270.1377
  10   2.0000      -9.909780      -269.6588
  11   2.0000      -9.905573      -269.5443
  12   2.0000      -9.901634      -269.4372
  13   2.0000      -9.896961      -269.3100
  14   2.0000      -9.893393      -269.2129
  15   2.0000      -9.893112      -269.2053
  16   2.0000      -9.800979      -266.6982
  17   2.0000      -7.877360      -214.3539
  18   2.0000      -5.909622      -160.8090
  19   2.0000      -5.903124      -160.6322
  20   2.0000      -5.902466      -160.6143
  21   2.0000      -1.255536       -34.1649
  22   2.0000      -1.024207       -27.8701
  23   2.0000      -0.936009       -25.4701
  24   2.0000      -0.861014       -23.4294
  25   2.0000      -0.783404       -21.3175
  26   2.0000      -0.764723       -20.8092
  27   2.0000      -0.732392       -19.9294
  28   2.0000      -0.705490       -19.1973
  29   2.0000      -0.673804       -18.3351
  30   2.0000      -0.653637       -17.7864
  31   2.0000      -0.628809       -17.1108
  32   2.0000      -0.607453       -16.5296
  33   2.0000      -0.578805       -15.7501
  34   2.0000      -0.557987       -15.1836
  35   2.0000      -0.537060       -14.6142
  36   2.0000      -0.525628       -14.3031
  37   2.0000      -0.517265       -14.0755
  38   2.0000      -0.513948       -13.9852
  39   2.0000      -0.495379       -13.4799
  40   2.0000      -0.493015       -13.4156
  41   2.0000      -0.460984       -12.5440
  42   2.0000      -0.444820       -12.1042
  43   2.0000      -0.436457       -11.8766
  44   2.0000      -0.427935       -11.6447
  45   2.0000      -0.426035       -11.5930
  46   2.0000      -0.415480       -11.3058
  47   2.0000      -0.410602       -11.1730
  48   2.0000      -0.405529       -11.0350
  49   2.0000      -0.390755       -10.6330
  50   2.0000      -0.385670       -10.4946
  51   2.0000      -0.381427       -10.3792
  52   2.0000      -0.370691       -10.0870
  53   2.0000      -0.349137        -9.5005
  54   2.0000      -0.346145        -9.4191
  55   2.0000      -0.343861        -9.3569
  56   2.0000      -0.335355        -9.1255
  57   2.0000      -0.325341        -8.8530
  58   2.0000      -0.322546        -8.7769
  59   2.0000      -0.316777        -8.6199
  60   2.0000      -0.310898        -8.4600
  61   2.0000      -0.303739        -8.2652
  62   2.0000      -0.300352        -8.1730
  63   2.0000      -0.294231        -8.0064
  64   2.0000      -0.289814        -7.8862
  65   2.0000      -0.282450        -7.6859
  66   2.0000      -0.279301        -7.6002
  67   2.0000      -0.272219        -7.4074
  68   2.0000      -0.270404        -7.3581
  69   2.0000      -0.267167        -7.2700
  70   2.0000      -0.194748        -5.2993
  71   2.0000      -0.116093        -3.1590
  72   0.0000      -0.034327        -0.9341
  73   0.0000      -0.010513        -0.2861
  74   0.0000      -0.009196        -0.2502
  75   0.0000      -0.005505        -0.1498
  76   0.0000      -0.000804        -0.0219

MULLIKEN ATOMIC CHARGES
-----------------------
   0 C :   -0.956393
   1 N :   -0.211234
   2 C :   -0.671785
   3 C :   -0.743284
   4 H :    0.323731
   5 H :    0.322278
   6 S :    1.289358
   7 C :    1.166971
   8 C :   -2.009552
   9 N :   -0.344756
  10 H :    0.151385
  11 H :    0.127763
  12 H :    0.296259
  13 H :    0.786948
  14 H :    0.224585
  15 F :   -0.184851
  16 O :   -0.586732
  17 C :   -0.535817
  18 H :    0.353183
  19 H :    0.310266
  20 C :   -0.509363
  21 C :   -0.248308
  22 H :    0.278550
  23 H :    0.303617
  24 H :    0.275939
  25 H :    0.252773
  26 C :   -0.280799
  27 H :    0.322382
  28 H :    0.367995
  29 C :   -0.468707
  30 H :    0.249426
  31 H :    0.145349
  32 C :   -0.759392
  33 H :    0.290881
  34 H :    0.262299
  35 H :    0.294049
  36 H :    0.288823
  37 H :    0.273029
  38 H :    0.278662
  39 O :   -0.725527
Sum of atomic charges:   -0.0000000

LOEWDIN ATOMIC CHARGES
----------------------
   0 C :   -0.185344
   1 N :    0.043808
   2 C :   -0.216524
   3 C :   -0.220000
   4 H :    0.117286
   5 H :    0.104002
   6 S :    0.616688
   7 C :   -0.540600
   8 C :    0.012569
   9 N :    0.137776
  10 H :    0.081277
  11 H :    0.101077
  12 H :    0.056951
  13 H :   -0.033105
  14 H :    0.007791
  15 F :   -0.079349
  16 O :   -0.227610
  17 C :   -0.185899
  18 H :    0.111800
  19 H :    0.104972
  20 C :   -0.209907
  21 C :   -0.213002
  22 H :    0.127994
  23 H :    0.081950
  24 H :    0.119669
  25 H :    0.111722
  26 C :   -0.204321
  27 H :    0.106478
  28 H :    0.099684
  29 C :   -0.212653
  30 H :    0.114017
  31 H :    0.101080
  32 C :   -0.203125
  33 H :    0.112003
  34 H :    0.097811
  35 H :    0.106661
  36 H :    0.110967
  37 H :    0.106256
  38 H :    0.107292
  39 O :   -0.268142

  Mayer bond orders larger than 0.100000
B(  0-C ,  1-N ) :   0.9594 B(  0-C ,  7-C ) :  -0.1261 B(  0-C , 12-H ) :  -0.1660
B(  0-C , 17-C ) :   0.6592 B(  0-C , 18-H ) :   0.7918 B(  0-C , 19-H ) :   0.8249
B(  0-C , 29-C ) :   0.1518 B(  1-N ,  7-C ) :   0.9961 B(  1-N , 12-H ) :   0.9097
B(  1-N , 17-C ) :   0.1215 B(  2-C ,  3-C ) :   0.8693 B(  2-C , 20-C ) :   0.4016
B(  2-C , 21-C ) :   0.2501 B(  2-C , 22-H ) :  -0.1249 B(  2-C , 24-H ) :   0.9827
B(  2-C , 25-H ) :   0.9600 B(  3-C ,  4-H ) :   0.8695 B(  3-C ,  5-H ) :   0.9674
B(  3-C ,  6-S ) :   0.9274 B(  3-C , 16-O ) :   0.1627 B(  3-C , 21-C ) :   0.1184
B(  6-S , 15-F ) :   0.9491 B(  6-S , 16-O ) :   1.4385 B(  6-S , 21-C ) :   0.1034
B(  6-S , 39-O ) :   1.6143 B(  7-C ,  8-C ) :   0.5488 B(  7-C ,  9-N ) :   0.9010
B(  7-C , 12-H ) :  -0.2083 B(  7-C , 14-H ) :  -0.1792 B(  8-C , 13-H ) :   0.3865
B(  8-C , 14-H ) :   1.2001 B(  8-C , 15-F ) :   0.1467 B(  9-N , 10-H ) :   1.0138
B(  9-N , 11-H ) :   1.0314 B( 13-H , 15-F ) :  -0.2105 B( 17-C , 26-C ) :   0.9327
B( 17-C , 27-H ) :   0.9466 B( 17-C , 28-H ) :   0.8504 B( 17-C , 29-C ) :   0.1716
B( 20-C , 21-C ) :   0.2941 B( 20-C , 23-H ) :  -0.1105 B( 20-C , 26-C ) :   0.1217
B( 20-C , 32-C ) :   0.9070 B( 20-C , 35-H ) :   0.9425 B( 20-C , 36-H ) :   0.9071
B( 21-C , 22-H ) :   0.8276 B( 21-C , 23-H ) :   1.4477 B( 21-C , 29-C ) :   0.1230
B( 21-C , 32-C ) :   0.1255 B( 21-C , 39-O ) :   0.1537 B( 22-H , 23-H ) :   0.1356
B( 23-H , 39-O ) :  -0.2012 B( 26-C , 29-C ) :   0.1268 B( 26-C , 30-H ) :   0.9322
B( 26-C , 31-H ) :   1.0778 B( 26-C , 32-C ) :   0.1414 B( 26-C , 33-H ) :  -0.1043
B( 26-C , 34-H ) :  -0.1338 B( 29-C , 32-C ) :   0.8778 B( 29-C , 33-H ) :   0.9169
B( 29-C , 34-H ) :   1.0253 B( 32-C , 37-H ) :   0.9400 B( 32-C , 38-H ) :   0.9606

Dispersion correction           -0.096707951
FINAL SINGLE POINT ENERGY     -1191.025912016547

DIPOLE MOMENT
-------------
                                X             Y             Z
Electronic contribution:    -16.43388       3.98806     -19.60373
Nuclear contribution   :     17.27667      -5.32157      20.03034
                        -----------------------------------------
Total Dipole Moment    :      0.84279      -1.33351       0.42661
                        -----------------------------------------
Magnitude (a.u.)       :      1.63418
Magnitude (Debye)      :      4.15375

Rotational constants in cm-1:     0.014355     0.012269     0.007481
Rotational constants in MHz :   430.360270   367.823451   224.273399

                             ****ORCA TERMINATED NORMALLY****
TOTAL RUN TIME: 0 days 0 hours 2 minutes 26 seconds 263 msec
