                         Program Version 5.0.0 -  RELEASE  -
|  1> !BLYP D3BJ RIJCOSX def2-TZVPD def2/J TightSCF xyzfile
|  2>
|  3> *xyzfile 0 1 D3.xyz
|  4>
|  5> %MaxCore 64000
|  6>
|  7> %pal nprocs 4
|  8> end
|  9>
| 10> %scf
| 11>   MaxIter 150
| 12> end
| 13>
| 14>
| 15>                          ****END OF INPUT****

CARTESIAN COORDINATES (ANGSTROEM)
---------------------------------
  C      4.490588    1.155899   -2.469290
  N      4.305394    1.222762   -3.908317
  C      4.906458   -3.102816   -5.954844
  C      3.511771   -2.806215   -6.492283
  H      2.736044   -3.373445   -5.973736
  H      3.444904   -3.040831   -7.555281
  S      3.004618   -1.096206   -6.389259
  C      4.631918    2.246365   -4.670958
  N      4.541686    2.143990   -5.987139
  C      5.084086    3.393584   -4.118545
  H      4.920675    3.570501   -3.135870
  H      5.254652    4.197390   -4.706956
  H      3.824530    0.449113   -4.350926
  H      4.343373    1.249318   -6.416646
  H      4.676712    2.956624   -6.574113
  F      4.128856   -0.329647   -6.953717
  O      1.781285   -1.000779   -7.136399
  C      5.942129    0.939500   -2.036893
  H      3.864305    0.328532   -2.136611
  H      4.076233    2.049994   -1.989010
  C      6.462677   -3.117775   -3.944671
  C      5.024977   -3.025679   -4.437625
  H      4.423321   -3.818693   -3.977648
  H      4.579350   -2.087131   -4.108727
  H      5.201533   -4.100207   -6.296905
  H      5.605922   -2.397822   -6.413368
  C      6.559957   -0.356290   -2.559086
  H      5.967976    0.952567   -0.942444
  H      6.547184    1.788331   -2.368849
  C      6.006283   -1.615917   -1.899301
  H      7.642360   -0.318000   -2.402059
  H      6.414855   -0.403433   -3.642587
  C      6.608718   -2.917014   -2.435655
  H      6.190324   -1.561115   -0.820948
  H      4.919250   -1.651245   -2.016586
  H      7.066975   -2.374258   -4.475514
  H      6.887808   -4.089747   -4.215332
  H      6.135197   -3.755573   -1.915159
  H      7.671142   -2.955503   -2.172291
  O      2.851546   -0.783683   -4.956789

 Total Charge           Charge          ....    0
 Multiplicity           Mult            ....    1
 Number of Electrons    NEL             ....  144
 Basis Dimension        Dim             ....  854

ORBITAL ENERGIES
----------------

  NO   OCC          E(Eh)            E(eV)
   0   2.0000     -88.360572     -2404.4134
   1   2.0000     -24.418186      -664.4526
   2   2.0000     -18.809163      -511.8233
   3   2.0000     -18.805194      -511.7154
   4   2.0000     -13.991302      -380.7227
   5   2.0000     -13.979694      -380.4068
   6   2.0000      -9.979233      -271.5487
   7   2.0000      -9.943479      -270.5758
   8   2.0000      -9.929446      -270.1939
   9   2.0000      -9.919283      -269.9174
  10   2.0000      -9.914946      -269.7994
  11   2.0000      -9.908431      -269.6221
  12   2.0000      -9.901899      -269.4444
  13   2.0000      -9.894890      -269.2537
  14   2.0000      -9.889157      -269.0976
  15   2.0000      -9.883605      -268.9466
  16   2.0000      -9.803059      -266.7548
  17   2.0000      -7.892772      -214.7732
  18   2.0000      -5.925279      -161.2350
  19   2.0000      -5.918345      -161.0464
  20   2.0000      -5.917656      -161.0276
  21   2.0000      -1.281807       -34.8797
  22   2.0000      -1.039859       -28.2960
  23   2.0000      -0.950505       -25.8645
  24   2.0000      -0.863490       -23.4968
  25   2.0000      -0.788582       -21.4584
  26   2.0000      -0.774432       -21.0734
  27   2.0000      -0.734726       -19.9929
  28   2.0000      -0.704047       -19.1581
  29   2.0000      -0.681331       -18.5400
  30   2.0000      -0.655027       -17.8242
  31   2.0000      -0.627336       -17.0707
  32   2.0000      -0.615207       -16.7406
  33   2.0000      -0.588653       -16.0181
  34   2.0000      -0.564086       -15.3496
  35   2.0000      -0.549117       -14.9422
  36   2.0000      -0.538460       -14.6522
  37   2.0000      -0.529768       -14.4157
  38   2.0000      -0.517108       -14.0712
  39   2.0000      -0.500504       -13.6194
  40   2.0000      -0.481270       -13.0960
  41   2.0000      -0.469860       -12.7855
  42   2.0000      -0.461455       -12.5568
  43   2.0000      -0.446750       -12.1567
  44   2.0000      -0.441772       -12.0212
  45   2.0000      -0.426841       -11.6149
  46   2.0000      -0.420482       -11.4419
  47   2.0000      -0.413321       -11.2470
  48   2.0000      -0.404816       -11.0156
  49   2.0000      -0.395141       -10.7523
  50   2.0000      -0.385734       -10.4963
  51   2.0000      -0.382418       -10.4061
  52   2.0000      -0.369683       -10.0596
  53   2.0000      -0.358910        -9.7664
  54   2.0000      -0.347255        -9.4493
  55   2.0000      -0.342627        -9.3234
  56   2.0000      -0.337809        -9.1923
  57   2.0000      -0.330517        -8.9938
  58   2.0000      -0.321161        -8.7392
  59   2.0000      -0.319814        -8.7026
  60   2.0000      -0.312086        -8.4923
  61   2.0000      -0.306259        -8.3337
  62   2.0000      -0.304908        -8.2970
  63   2.0000      -0.300341        -8.1727
  64   2.0000      -0.292059        -7.9473
  65   2.0000      -0.285938        -7.7808
  66   2.0000      -0.285858        -7.7786
  67   2.0000      -0.272049        -7.4028
  68   2.0000      -0.270932        -7.3724
  69   2.0000      -0.262459        -7.1419
  70   2.0000      -0.189903        -5.1675
  71   2.0000      -0.115249        -3.1361
  72   0.0000      -0.049326        -1.3422
  73   0.0000      -0.019930        -0.5423
  74   0.0000      -0.012368        -0.3366
  75   0.0000      -0.008237        -0.2241
  76   0.0000      -0.003678        -0.1001

MULLIKEN ATOMIC CHARGES
-----------------------
   0 C :   -0.933646
   1 N :   -0.256310
   2 C :   -0.672149
   3 C :   -0.708231
   4 H :    0.330600
   5 H :    0.317110
   6 S :    1.263785
   7 C :    0.912901
   8 N :   -0.280295
   9 C :   -1.460518
  10 H :    0.279422
  11 H :    0.361604
  12 H :    0.397528
  13 H :    0.293177
  14 H :    0.081530
  15 F :   -0.324321
  16 O :   -0.574147
  17 C :   -0.608918
  18 H :    0.389095
  19 H :    0.288056
  20 C :   -0.512357
  21 C :   -0.277358
  22 H :    0.278656
  23 H :    0.329063
  24 H :    0.272543
  25 H :    0.254685
  26 C :   -0.258263
  27 H :    0.319379
  28 H :    0.390448
  29 C :   -0.450488
  30 H :    0.260761
  31 H :    0.084753
  32 C :   -0.768500
  33 H :    0.293495
  34 H :    0.247436
  35 H :    0.302636
  36 H :    0.292165
  37 H :    0.273013
  38 H :    0.279846
  39 O :   -0.708183
Sum of atomic charges:   -0.0000000

LOEWDIN ATOMIC CHARGES
----------------------
   0 C :   -0.181213
   1 N :    0.040376
   2 C :   -0.216584
   3 C :   -0.217701
   4 H :    0.119435
   5 H :    0.104710
   6 S :    0.617389
   7 C :   -0.551532
   8 N :    0.139531
   9 C :    0.013356
  10 H :   -0.006531
  11 H :   -0.002763
  12 H :    0.052116
  13 H :    0.044166
  14 H :    0.110693
  15 F :   -0.075679
  16 O :   -0.223629
  17 C :   -0.181223
  18 H :    0.110632
  19 H :    0.110621
  20 C :   -0.210019
  21 C :   -0.212899
  22 H :    0.128608
  23 H :    0.082065
  24 H :    0.120855
  25 H :    0.110745
  26 C :   -0.205809
  27 H :    0.108672
  28 H :    0.099667
  29 C :   -0.213084
  30 H :    0.113915
  31 H :    0.097933
  32 C :   -0.203248
  33 H :    0.112507
  34 H :    0.097183
  35 H :    0.106265
  36 H :    0.110948
  37 H :    0.106023
  38 H :    0.107607
  39 O :   -0.264106

  Mayer bond orders larger than 0.100000
B(  0-C ,  1-N ) :   1.0026 B(  0-C , 12-H ) :  -0.2414 B(  0-C , 17-C ) :   0.7043
B(  0-C , 18-H ) :   0.6680 B(  0-C , 19-H ) :   0.8663 B(  0-C , 29-C ) :   0.1571
B(  1-N ,  7-C ) :   0.9964 B(  1-N , 12-H ) :   0.8655 B(  1-N , 17-C ) :   0.1663
B(  1-N , 31-H ) :   0.1026 B(  2-C ,  3-C ) :   0.8627 B(  2-C , 20-C ) :   0.4024
B(  2-C , 21-C ) :   0.2378 B(  2-C , 22-H ) :  -0.1286 B(  2-C , 24-H ) :   0.9867
B(  2-C , 25-H ) :   0.9554 B(  3-C ,  4-H ) :   0.8645 B(  3-C ,  5-H ) :   0.9671
B(  3-C ,  6-S ) :   0.9109 B(  3-C , 16-O ) :   0.1614 B(  3-C , 21-C ) :   0.1174
B(  6-S , 15-F ) :   0.9058 B(  6-S , 16-O ) :   1.4657 B(  6-S , 21-C ) :   0.1064
B(  6-S , 39-O ) :   1.6467 B(  7-C ,  8-N ) :   0.8777 B(  7-C ,  9-C ) :   0.8175
B(  7-C , 11-H ) :  -0.1012 B(  7-C , 12-H ) :  -0.2151 B(  8-N , 13-H ) :   0.8500
B(  8-N , 14-H ) :   1.0720 B(  9-C , 10-H ) :   1.0710 B(  9-C , 11-H ) :   0.9804
B( 16-O , 39-O ) :   0.1062 B( 17-C , 26-C ) :   0.9311 B( 17-C , 27-H ) :   0.9064
B( 17-C , 28-H ) :   0.8771 B( 17-C , 29-C ) :   0.1670 B( 20-C , 21-C ) :   0.2996
B( 20-C , 23-H ) :  -0.1048 B( 20-C , 26-C ) :   0.1239 B( 20-C , 32-C ) :   0.9140
B( 20-C , 35-H ) :   0.9389 B( 20-C , 36-H ) :   0.9026 B( 21-C , 22-H ) :   0.8278
B( 21-C , 23-H ) :   1.4190 B( 21-C , 29-C ) :   0.1233 B( 21-C , 32-C ) :   0.1268
B( 21-C , 39-O ) :   0.1572 B( 22-H , 23-H ) :   0.1431 B( 23-H , 39-O ) :  -0.2071
B( 26-C , 29-C ) :   0.1441 B( 26-C , 30-H ) :   0.9234 B( 26-C , 31-H ) :   1.1048
B( 26-C , 32-C ) :   0.1335 B( 26-C , 34-H ) :  -0.1311 B( 29-C , 31-H ) :  -0.1059
B( 29-C , 32-C ) :   0.8737 B( 29-C , 33-H ) :   0.9141 B( 29-C , 34-H ) :   1.0286
B( 32-C , 37-H ) :   0.9390 B( 32-C , 38-H ) :   0.9591

Dispersion correction           -0.096580061
FINAL SINGLE POINT ENERGY     -1191.027913334805

DIPOLE MOMENT
-------------
                                X             Y             Z
Electronic contribution:    -16.92379       2.74314     -21.27913
Nuclear contribution   :     17.35766      -5.13497      20.30937
                        -----------------------------------------
Total Dipole Moment    :      0.43387      -2.39183      -0.96977
                        -----------------------------------------
Magnitude (a.u.)       :      2.61716
Magnitude (Debye)      :      6.65230

Rotational constants in cm-1:     0.014431     0.012329     0.007535
Rotational constants in MHz :   432.628327   369.619539   225.898827

                             ****ORCA TERMINATED NORMALLY****
TOTAL RUN TIME: 0 days 0 hours 2 minutes 24 seconds 62 msec
