                         Program Version 5.0.0 -  RELEASE  -
|  1> !BLYP D3BJ RIJCOSX def2-TZVPD def2/J TightSCF xyzfile
|  2>
|  3> *xyzfile 0 1 D4.xyz
|  4>
|  5> %MaxCore 64000
|  6>
|  7> %pal nprocs 4
|  8> end
|  9>
| 10> %scf
| 11>   MaxIter 150
| 12> end
| 13>
| 14>
| 15>                          ****END OF INPUT****

CARTESIAN COORDINATES (ANGSTROEM)
---------------------------------
  C      4.490588    1.155899   -2.469290
  C      4.305394    1.222762   -3.908317
  C      4.906458   -3.102816   -5.954844
  C      3.511771   -2.806215   -6.492283
  H      2.736044   -3.373445   -5.973736
  H      3.444904   -3.040831   -7.555281
  S      3.004618   -1.096206   -6.389259
  C      4.631918    2.246365   -4.670958
  N      4.541686    2.143990   -5.987139
  N      5.084086    3.393584   -4.118545
  H      4.920675    3.570501   -3.135870
  H      5.254652    4.197390   -4.706956
  H      3.824530    0.449113   -4.350926
  H      4.343373    1.249318   -6.416646
  H      4.676712    2.956624   -6.574113
  O      4.128856   -0.329647   -6.953717
  F      1.781285   -1.000779   -7.136399
  C      5.942129    0.939500   -2.036893
  H      3.864305    0.328532   -2.136611
  H      4.076233    2.049994   -1.989010
  C      6.462677   -3.117775   -3.944671
  C      5.024977   -3.025679   -4.437625
  H      4.423321   -3.818693   -3.977648
  H      4.579350   -2.087131   -4.108727
  H      5.201533   -4.100207   -6.296905
  H      5.605922   -2.397822   -6.413368
  C      6.559957   -0.356290   -2.559086
  H      5.967976    0.952567   -0.942444
  H      6.547184    1.788331   -2.368849
  C      6.006283   -1.615917   -1.899301
  H      7.642360   -0.318000   -2.402059
  H      6.414855   -0.403433   -3.642587
  C      6.608718   -2.917014   -2.435655
  H      6.190324   -1.561115   -0.820948
  H      4.919250   -1.651245   -2.016586
  H      7.066975   -2.374258   -4.475514
  H      6.887808   -4.089747   -4.215332
  H      6.135197   -3.755573   -1.915159
  H      7.671142   -2.955503   -2.172291
  O      2.851546   -0.783683   -4.956789

 Total Charge           Charge          ....    0
 Multiplicity           Mult            ....    1
 Number of Electrons    NEL             ....  144
 Basis Dimension        Dim             ....  854

ORBITAL ENERGIES
----------------

  NO   OCC          E(Eh)            E(eV)
   0   2.0000     -88.350851     -2404.1489
   1   2.0000     -24.414540      -664.3534
   2   2.0000     -18.794815      -511.4329
   3   2.0000     -18.786219      -511.1990
   4   2.0000     -13.984443      -380.5360
   5   2.0000     -13.965872      -380.0307
   6   2.0000      -9.969672      -271.2886
   7   2.0000      -9.930555      -270.2241
   8   2.0000      -9.913833      -269.7691
   9   2.0000      -9.899926      -269.3907
  10   2.0000      -9.894563      -269.2447
  11   2.0000      -9.888367      -269.0762
  12   2.0000      -9.878696      -268.8130
  13   2.0000      -9.870144      -268.5803
  14   2.0000      -9.864716      -268.4326
  15   2.0000      -9.858033      -268.2507
  16   2.0000      -9.789908      -266.3969
  17   2.0000      -7.882757      -214.5007
  18   2.0000      -5.914889      -160.9523
  19   2.0000      -5.908517      -160.7789
  20   2.0000      -5.907850      -160.7608
  21   2.0000      -1.286857       -35.0172
  22   2.0000      -1.019165       -27.7329
  23   2.0000      -0.926755       -25.2183
  24   2.0000      -0.842074       -22.9140
  25   2.0000      -0.762200       -20.7405
  26   2.0000      -0.758003       -20.6263
  27   2.0000      -0.721766       -19.6402
  28   2.0000      -0.695017       -18.9124
  29   2.0000      -0.676932       -18.4203
  30   2.0000      -0.649929       -17.6855
  31   2.0000      -0.624651       -16.9976
  32   2.0000      -0.593848       -16.1594
  33   2.0000      -0.567567       -15.4443
  34   2.0000      -0.546338       -14.8666
  35   2.0000      -0.533913       -14.5285
  36   2.0000      -0.523632       -14.2487
  37   2.0000      -0.521364       -14.1870
  38   2.0000      -0.506139       -13.7727
  39   2.0000      -0.490039       -13.3347
  40   2.0000      -0.474927       -12.9234
  41   2.0000      -0.461953       -12.5704
  42   2.0000      -0.445466       -12.1217
  43   2.0000      -0.440261       -11.9801
  44   2.0000      -0.425086       -11.5672
  45   2.0000      -0.412940       -11.2367
  46   2.0000      -0.412451       -11.2234
  47   2.0000      -0.399527       -10.8717
  48   2.0000      -0.393181       -10.6990
  49   2.0000      -0.381060       -10.3692
  50   2.0000      -0.373345       -10.1592
  51   2.0000      -0.362026        -9.8512
  52   2.0000      -0.360502        -9.8098
  53   2.0000      -0.352856        -9.6017
  54   2.0000      -0.334752        -9.1091
  55   2.0000      -0.329360        -8.9623
  56   2.0000      -0.326012        -8.8712
  57   2.0000      -0.319451        -8.6927
  58   2.0000      -0.304672        -8.2905
  59   2.0000      -0.301401        -8.2015
  60   2.0000      -0.298329        -8.1179
  61   2.0000      -0.290500        -7.9049
  62   2.0000      -0.283471        -7.7136
  63   2.0000      -0.276421        -7.5218
  64   2.0000      -0.272861        -7.4249
  65   2.0000      -0.272002        -7.4016
  66   2.0000      -0.260046        -7.0762
  67   2.0000      -0.252964        -6.8835
  68   2.0000      -0.244678        -6.6580
  69   2.0000      -0.229994        -6.2584
  70   2.0000      -0.191961        -5.2235
  71   2.0000      -0.100657        -2.7390
  72   0.0000      -0.035053        -0.9538
  73   0.0000      -0.019739        -0.5371
  74   0.0000      -0.004908        -0.1336
  75   0.0000       0.000284         0.0077
  76   0.0000       0.002941         0.0800

MULLIKEN ATOMIC CHARGES
-----------------------
   0 C :   -0.997695
   1 C :   -1.387891
   2 C :   -0.649371
   3 C :   -0.829699
   4 H :    0.348874
   5 H :    0.369287
   6 S :    1.362522
   7 C :    0.200231
   8 N :   -0.269973
   9 N :   -0.295980
  10 H :    0.167601
  11 H :    0.089403
  12 H :    1.670263
  13 H :    0.253778
  14 H :    0.078439
  15 O :   -0.806035
  16 F :   -0.110278
  17 C :   -0.687753
  18 H :    0.270287
  19 H :    0.320176
  20 C :   -0.561628
  21 C :   -0.212679
  22 H :    0.259085
  23 H :    0.282659
  24 H :    0.269513
  25 H :    0.266597
  26 C :   -0.351622
  27 H :    0.262968
  28 H :    0.352683
  29 C :   -0.478018
  30 H :    0.248104
  31 H :    0.231846
  32 C :   -0.734483
  33 H :    0.293924
  34 H :    0.234703
  35 H :    0.312558
  36 H :    0.296624
  37 H :    0.269571
  38 H :    0.280730
  39 O :   -0.619322
Sum of atomic charges:    0.0000000

LOEWDIN ATOMIC CHARGES
----------------------
   0 C :   -0.219715
   1 C :   -0.135499
   2 C :   -0.207517
   3 C :   -0.228720
   4 H :    0.108169
   5 H :    0.100367
   6 S :    0.637485
   7 C :   -0.522661
   8 N :    0.132084
   9 N :    0.140414
  10 H :    0.087149
  11 H :    0.085813
  12 H :    0.006338
  13 H :    0.026146
  14 H :    0.091186
  15 O :   -0.264519
  16 F :   -0.020249
  17 C :   -0.201309
  18 H :    0.101169
  19 H :    0.095726
  20 C :   -0.209619
  21 C :   -0.208403
  22 H :    0.126161
  23 H :    0.087334
  24 H :    0.121382
  25 H :    0.114574
  26 C :   -0.206765
  27 H :    0.100534
  28 H :    0.098699
  29 C :   -0.211678
  30 H :    0.110858
  31 H :    0.100499
  32 C :   -0.205416
  33 H :    0.110654
  34 H :    0.098649
  35 H :    0.107581
  36 H :    0.109161
  37 H :    0.104179
  38 H :    0.105833
  39 O :   -0.266073

  Mayer bond orders larger than 0.100000
B(  0-C ,  1-C ) :   0.9131 B(  0-C ,  7-C ) :   0.1532 B(  0-C , 12-H ) :  -0.3161
B(  0-C , 17-C ) :   0.6461 B(  0-C , 18-H ) :   1.0259 B(  0-C , 19-H ) :   0.8164
B(  0-C , 29-C ) :   0.1216 B(  1-C ,  7-C ) :   0.9912 B(  1-C , 10-H ) :  -0.1225
B(  1-C , 12-H ) :  -1.6221 B(  1-C , 18-H ) :  -0.1289 B(  1-C , 39-O ) :   0.4073
B(  2-C ,  3-C ) :   0.9615 B(  2-C , 20-C ) :   0.4146 B(  2-C , 21-C ) :   0.3095
B(  2-C , 22-H ) :  -0.1394 B(  2-C , 24-H ) :   0.9803 B(  2-C , 25-H ) :   0.9019
B(  3-C ,  4-H ) :   0.8558 B(  3-C ,  5-H ) :   0.8649 B(  3-C ,  6-S ) :   0.8919
B(  3-C , 15-O ) :   0.1235 B(  3-C , 16-F ) :   0.1289 B(  3-C , 21-C ) :   0.1308
B(  3-C , 39-O ) :   0.1120 B(  6-S , 15-O ) :   1.4560 B(  6-S , 16-F ) :   0.8515
B(  6-S , 39-O ) :   1.6442 B(  7-C ,  8-N ) :   0.9729 B(  7-C ,  9-N ) :   1.0794
B(  7-C , 10-H ) :   0.1336 B(  7-C , 12-H ) :   0.3958 B(  8-N , 13-H ) :   0.8724
B(  8-N , 14-H ) :   1.0843 B(  9-N , 10-H ) :   0.9823 B(  9-N , 11-H ) :   1.0644
B(  9-N , 17-C ) :   0.1504 B( 12-H , 39-O ) :  -0.6426 B( 15-O , 39-O ) :   0.1462
B( 17-C , 26-C ) :   0.9086 B( 17-C , 27-H ) :   0.9927 B( 17-C , 28-H ) :   0.8604
B( 17-C , 29-C ) :   0.1954 B( 20-C , 21-C ) :   0.3178 B( 20-C , 23-H ) :  -0.1046
B( 20-C , 26-C ) :   0.1394 B( 20-C , 32-C ) :   0.8958 B( 20-C , 35-H ) :   0.9365
B( 20-C , 36-H ) :   0.9044 B( 21-C , 22-H ) :   0.8387 B( 21-C , 23-H ) :   1.3942
B( 21-C , 29-C ) :   0.1291 B( 21-C , 39-O ) :   0.1564 B( 22-H , 23-H ) :   0.1412
B( 23-H , 39-O ) :  -0.1620 B( 26-C , 29-C ) :   0.1399 B( 26-C , 30-H ) :   0.9430
B( 26-C , 31-H ) :   1.0570 B( 26-C , 32-C ) :   0.1009 B( 26-C , 34-H ) :  -0.1479
B( 29-C , 31-H ) :  -0.1042 B( 29-C , 32-C ) :   0.8670 B( 29-C , 33-H ) :   0.9155
B( 29-C , 34-H ) :   1.0485 B( 32-C , 37-H ) :   0.9451 B( 32-C , 38-H ) :   0.9615

Dispersion correction           -0.097893601
FINAL SINGLE POINT ENERGY     -1191.017235542834

DIPOLE MOMENT
-------------
                                X             Y             Z
Electronic contribution:    -20.57117       3.54733     -21.95808
Nuclear contribution   :     19.99734      -4.67125      20.55522
                        -----------------------------------------
Total Dipole Moment    :     -0.57383      -1.12392      -1.40285
                        -----------------------------------------
Magnitude (a.u.)       :      1.88692
Magnitude (Debye)      :      4.79618

Rotational constants in cm-1:     0.014213     0.012058     0.007367
Rotational constants in MHz :   426.102180   361.491761   220.844824

                             ****ORCA TERMINATED NORMALLY****
TOTAL RUN TIME: 0 days 0 hours 2 minutes 49 seconds 871 msec
