                         Program Version 5.0.0 -  RELEASE  -
|  1> !BLYP D3BJ RIJCOSX def2-TZVPD def2/J TightSCF xyzfile
|  2>
|  3> *xyzfile 0 1 D5.xyz
|  4>
|  5> %MaxCore 64000
|  6>
|  7> %pal nprocs 4
|  8> end
|  9>
| 10> %scf
| 11>   MaxIter 150
| 12> end
| 13>
| 14>
| 15>                          ****END OF INPUT****

CARTESIAN COORDINATES (ANGSTROEM)
---------------------------------
  C      4.490588    1.155899   -2.469290
  N      4.305394    1.222762   -3.908317
  C      4.906458   -3.102816   -5.954844
  C      3.511771   -2.806215   -6.492283
  H      2.736044   -3.373445   -5.973736
  H      3.444904   -3.040831   -7.555281
  S      3.004618   -1.096206   -6.389259
  C      4.631918    2.246365   -4.670958
  C      4.541686    2.143990   -5.987139
  N      5.084086    3.393584   -4.118545
  H      4.920675    3.570501   -3.135870
  H      5.254652    4.197390   -4.706956
  H      3.824530    0.449113   -4.350926
  H      4.343373    1.249318   -6.416646
  H      4.676712    2.956624   -6.574113
  O      4.128856   -0.329647   -6.953717
  F      1.781285   -1.000779   -7.136399
  C      5.942129    0.939500   -2.036893
  H      3.864305    0.328532   -2.136611
  H      4.076233    2.049994   -1.989010
  C      6.462677   -3.117775   -3.944671
  C      5.024977   -3.025679   -4.437625
  H      4.423321   -3.818693   -3.977648
  H      4.579350   -2.087131   -4.108727
  H      5.201533   -4.100207   -6.296905
  H      5.605922   -2.397822   -6.413368
  C      6.559957   -0.356290   -2.559086
  H      5.967976    0.952567   -0.942444
  H      6.547184    1.788331   -2.368849
  C      6.006283   -1.615917   -1.899301
  H      7.642360   -0.318000   -2.402059
  H      6.414855   -0.403433   -3.642587
  C      6.608718   -2.917014   -2.435655
  H      6.190324   -1.561115   -0.820948
  H      4.919250   -1.651245   -2.016586
  H      7.066975   -2.374258   -4.475514
  H      6.887808   -4.089747   -4.215332
  H      6.135197   -3.755573   -1.915159
  H      7.671142   -2.955503   -2.172291
  O      2.851546   -0.783683   -4.956789

 Total Charge           Charge          ....    0
 Multiplicity           Mult            ....    1
 Number of Electrons    NEL             ....  144
 Basis Dimension        Dim             ....  854

ORBITAL ENERGIES
----------------

  NO   OCC          E(Eh)            E(eV)
   0   2.0000     -88.350023     -2404.1263
   1   2.0000     -24.413322      -664.3203
   2   2.0000     -18.793635      -511.4008
   3   2.0000     -18.783769      -511.1323
   4   2.0000     -13.980610      -380.4317
   5   2.0000     -13.967231      -380.0677
   6   2.0000      -9.969907      -271.2950
   7   2.0000      -9.932893      -270.2878
   8   2.0000      -9.919604      -269.9261
   9   2.0000      -9.913937      -269.7719
  10   2.0000      -9.906380      -269.5663
  11   2.0000      -9.901318      -269.4286
  12   2.0000      -9.897504      -269.3248
  13   2.0000      -9.892030      -269.1758
  14   2.0000      -9.886536      -269.0263
  15   2.0000      -9.885861      -269.0080
  16   2.0000      -9.778646      -266.0905
  17   2.0000      -7.881864      -214.4764
  18   2.0000      -5.914001      -160.9282
  19   2.0000      -5.907627      -160.7547
  20   2.0000      -5.906955      -160.7364
  21   2.0000      -1.285403       -34.9776
  22   2.0000      -1.017852       -27.6972
  23   2.0000      -0.925246       -25.1772
  24   2.0000      -0.848751       -23.0957
  25   2.0000      -0.771952       -21.0059
  26   2.0000      -0.762377       -20.7453
  27   2.0000      -0.728743       -19.8301
  28   2.0000      -0.702563       -19.1177
  29   2.0000      -0.676040       -18.3960
  30   2.0000      -0.652655       -17.7597
  31   2.0000      -0.626632       -17.0515
  32   2.0000      -0.598707       -16.2916
  33   2.0000      -0.573953       -15.6181
  34   2.0000      -0.554060       -15.0767
  35   2.0000      -0.533678       -14.5221
  36   2.0000      -0.527268       -14.3477
  37   2.0000      -0.523358       -14.2413
  38   2.0000      -0.514319       -13.9953
  39   2.0000      -0.498460       -13.5638
  40   2.0000      -0.487415       -13.2632
  41   2.0000      -0.456614       -12.4251
  42   2.0000      -0.447651       -12.1812
  43   2.0000      -0.435581       -11.8528
  44   2.0000      -0.423502       -11.5241
  45   2.0000      -0.418073       -11.3763
  46   2.0000      -0.410903       -11.1812
  47   2.0000      -0.408401       -11.1131
  48   2.0000      -0.395682       -10.7670
  49   2.0000      -0.392141       -10.6707
  50   2.0000      -0.379925       -10.3383
  51   2.0000      -0.374278       -10.1846
  52   2.0000      -0.363455        -9.8901
  53   2.0000      -0.347332        -9.4514
  54   2.0000      -0.339917        -9.2496
  55   2.0000      -0.338071        -9.1994
  56   2.0000      -0.329596        -8.9688
  57   2.0000      -0.323448        -8.8015
  58   2.0000      -0.312705        -8.5091
  59   2.0000      -0.309566        -8.4237
  60   2.0000      -0.308206        -8.3867
  61   2.0000      -0.297519        -8.0959
  62   2.0000      -0.293843        -7.9959
  63   2.0000      -0.287322        -7.8184
  64   2.0000      -0.280172        -7.6239
  65   2.0000      -0.272360        -7.4113
  66   2.0000      -0.268685        -7.3113
  67   2.0000      -0.266780        -7.2595
  68   2.0000      -0.261747        -7.1225
  69   2.0000      -0.246103        -6.6968
  70   2.0000      -0.183301        -4.9879
  71   2.0000      -0.099817        -2.7162
  72   0.0000      -0.033992        -0.9250
  73   0.0000      -0.020928        -0.5695
  74   0.0000      -0.005136        -0.1398
  75   0.0000      -0.001251        -0.0340
  76   0.0000       0.001174         0.0319

MULLIKEN ATOMIC CHARGES
-----------------------
   0 C :   -0.945894
   1 N :   -0.227534
   2 C :   -0.635705
   3 C :   -0.856894
   4 H :    0.346587
   5 H :    0.380782
   6 S :    1.306224
   7 C :    1.083859
   8 C :   -1.997196
   9 N :   -0.344696
  10 H :    0.146598
  11 H :    0.127603
  12 H :    0.351088
  13 H :    0.888272
  14 H :    0.213338
  15 O :   -0.661338
  16 F :   -0.107514
  17 C :   -0.549284
  18 H :    0.342308
  19 H :    0.309684
  20 C :   -0.530979
  21 C :   -0.292449
  22 H :    0.273207
  23 H :    0.289392
  24 H :    0.274632
  25 H :    0.267402
  26 C :   -0.291179
  27 H :    0.325393
  28 H :    0.374299
  29 C :   -0.462700
  30 H :    0.248023
  31 H :    0.154747
  32 C :   -0.753315
  33 H :    0.292019
  34 H :    0.257165
  35 H :    0.300858
  36 H :    0.293579
  37 H :    0.272111
  38 H :    0.277894
  39 O :   -0.740388
Sum of atomic charges:    0.0000000

LOEWDIN ATOMIC CHARGES
----------------------
   0 C :   -0.188697
   1 N :    0.045255
   2 C :   -0.206622
   3 C :   -0.230042
   4 H :    0.106372
   5 H :    0.101891
   6 S :    0.636640
   7 C :   -0.543318
   8 C :    0.011996
   9 N :    0.131441
  10 H :    0.077589
  11 H :    0.098723
  12 H :    0.060382
  13 H :   -0.051063
  14 H :    0.005604
  15 O :   -0.263547
  16 F :   -0.017022
  17 C :   -0.186666
  18 H :    0.110012
  19 H :    0.103183
  20 C :   -0.208417
  21 C :   -0.209990
  22 H :    0.126330
  23 H :    0.083971
  24 H :    0.121958
  25 H :    0.116001
  26 C :   -0.203722
  27 H :    0.105127
  28 H :    0.099604
  29 C :   -0.213538
  30 H :    0.113564
  31 H :    0.103269
  32 C :   -0.203748
  33 H :    0.111317
  34 H :    0.097115
  35 H :    0.108515
  36 H :    0.110607
  37 H :    0.105397
  38 H :    0.107070
  39 O :   -0.272541

  Mayer bond orders larger than 0.100000
B(  0-C ,  1-N ) :   0.9503 B(  0-C ,  7-C ) :  -0.1313 B(  0-C , 12-H ) :  -0.1603
B(  0-C , 17-C ) :   0.6607 B(  0-C , 18-H ) :   0.8008 B(  0-C , 19-H ) :   0.8284
B(  0-C , 29-C ) :   0.1514 B(  1-N ,  7-C ) :   1.0114 B(  1-N , 12-H ) :   0.8841
B(  1-N , 17-C ) :   0.1237 B(  2-C ,  3-C ) :   0.9696 B(  2-C , 20-C ) :   0.4109
B(  2-C , 21-C ) :   0.3343 B(  2-C , 22-H ) :  -0.1324 B(  2-C , 24-H ) :   0.9707
B(  2-C , 25-H ) :   0.9105 B(  3-C ,  4-H ) :   0.8548 B(  3-C ,  5-H ) :   0.8642
B(  3-C ,  6-S ) :   0.8898 B(  3-C , 15-O ) :   0.1229 B(  3-C , 16-F ) :   0.1198
B(  3-C , 21-C ) :   0.1510 B(  3-C , 39-O ) :   0.1237 B(  6-S , 15-O ) :   1.5503
B(  6-S , 16-F ) :   0.8596 B(  6-S , 39-O ) :   1.6319 B(  7-C ,  8-C ) :   0.5548
B(  7-C ,  9-N ) :   0.8935 B(  7-C , 12-H ) :  -0.1966 B(  7-C , 14-H ) :  -0.2140
B(  8-C , 13-H ) :   0.3459 B(  8-C , 14-H ) :   1.2676 B(  8-C , 15-O ) :   0.1567
B(  9-N , 10-H ) :   1.0190 B(  9-N , 11-H ) :   1.0336 B( 13-H , 15-O ) :  -0.3165
B( 15-O , 39-O ) :   0.1718 B( 17-C , 26-C ) :   0.9315 B( 17-C , 27-H ) :   0.9498
B( 17-C , 28-H ) :   0.8473 B( 17-C , 29-C ) :   0.1762 B( 20-C , 21-C ) :   0.3051
B( 20-C , 23-H ) :  -0.1139 B( 20-C , 26-C ) :   0.1252 B( 20-C , 32-C ) :   0.9058
B( 20-C , 35-H ) :   0.9405 B( 20-C , 36-H ) :   0.9022 B( 21-C , 22-H ) :   0.8322
B( 21-C , 23-H ) :   1.4369 B( 21-C , 29-C ) :   0.1213 B( 21-C , 32-C ) :   0.1237
B( 21-C , 39-O ) :   0.1736 B( 22-H , 23-H ) :   0.1276 B( 23-H , 39-O ) :  -0.1997
B( 26-C , 29-C ) :   0.1132 B( 26-C , 30-H ) :   0.9312 B( 26-C , 31-H ) :   1.0722
B( 26-C , 32-C ) :   0.1414 B( 26-C , 33-H ) :  -0.1016 B( 26-C , 34-H ) :  -0.1347
B( 29-C , 31-H ) :  -0.1009 B( 29-C , 32-C ) :   0.8739 B( 29-C , 33-H ) :   0.9170
B( 29-C , 34-H ) :   1.0275 B( 32-C , 37-H ) :   0.9409 B( 32-C , 38-H ) :   0.9615

Dispersion correction           -0.097338356
FINAL SINGLE POINT ENERGY     -1191.009078644316

DIPOLE MOMENT
-------------
                                X             Y             Z
Electronic contribution:    -20.59507       2.70194     -20.18162
Nuclear contribution   :     20.03262      -4.53368      20.24480
                        -----------------------------------------
Total Dipole Moment    :     -0.56245      -1.83174       0.06318
                        -----------------------------------------
Magnitude (a.u.)       :      1.91719
Magnitude (Debye)      :      4.87311

Rotational constants in cm-1:     0.014367     0.012055     0.007393
Rotational constants in MHz :   430.711297   361.391195   221.649333

                             ****ORCA TERMINATED NORMALLY****
TOTAL RUN TIME: 0 days 0 hours 2 minutes 26 seconds 527 msec
