                         Program Version 5.0.0 -  RELEASE  -
|  1> !BLYP D3BJ RIJCOSX def2-TZVPD def2/J TightSCF xyzfile
|  2>
|  3> *xyzfile 0 1 D6.xyz
|  4>
|  5> %MaxCore 64000
|  6>
|  7> %pal nprocs 4
|  8> end
|  9>
| 10> %scf
| 11>   MaxIter 150
| 12> end
| 13>
| 14>
| 15>                          ****END OF INPUT****

CARTESIAN COORDINATES (ANGSTROEM)
---------------------------------
  C      4.490588    1.155899   -2.469290
  N      4.305394    1.222762   -3.908317
  C      4.906458   -3.102816   -5.954844
  C      3.511771   -2.806215   -6.492283
  H      2.736044   -3.373445   -5.973736
  H      3.444904   -3.040831   -7.555281
  S      3.004618   -1.096206   -6.389259
  C      4.631918    2.246365   -4.670958
  N      4.541686    2.143990   -5.987139
  C      5.084086    3.393584   -4.118545
  H      4.920675    3.570501   -3.135870
  H      5.254652    4.197390   -4.706956
  H      3.824530    0.449113   -4.350926
  H      4.343373    1.249318   -6.416646
  H      4.676712    2.956624   -6.574113
  O      4.128856   -0.329647   -6.953717
  F      1.781285   -1.000779   -7.136399
  C      5.942129    0.939500   -2.036893
  H      3.864305    0.328532   -2.136611
  H      4.076233    2.049994   -1.989010
  C      6.462677   -3.117775   -3.944671
  C      5.024977   -3.025679   -4.437625
  H      4.423321   -3.818693   -3.977648
  H      4.579350   -2.087131   -4.108727
  H      5.201533   -4.100207   -6.296905
  H      5.605922   -2.397822   -6.413368
  C      6.559957   -0.356290   -2.559086
  H      5.967976    0.952567   -0.942444
  H      6.547184    1.788331   -2.368849
  C      6.006283   -1.615917   -1.899301
  H      7.642360   -0.318000   -2.402059
  H      6.414855   -0.403433   -3.642587
  C      6.608718   -2.917014   -2.435655
  H      6.190324   -1.561115   -0.820948
  H      4.919250   -1.651245   -2.016586
  H      7.066975   -2.374258   -4.475514
  H      6.887808   -4.089747   -4.215332
  H      6.135197   -3.755573   -1.915159
  H      7.671142   -2.955503   -2.172291
  O      2.851546   -0.783683   -4.956789

 Total Charge           Charge          ....    0
 Multiplicity           Mult            ....    1
 Number of Electrons    NEL             ....  144
 Basis Dimension        Dim             ....  854

ORBITAL ENERGIES
----------------

  NO   OCC          E(Eh)            E(eV)
   0   2.0000     -88.368856     -2404.6388
   1   2.0000     -24.429686      -664.7656
   2   2.0000     -18.809261      -511.8260
   3   2.0000     -18.809077      -511.8210
   4   2.0000     -13.969196      -380.1211
   5   2.0000     -13.964585      -379.9957
   6   2.0000      -9.983425      -271.6628
   7   2.0000      -9.942331      -270.5446
   8   2.0000      -9.914989      -269.8006
   9   2.0000      -9.912357      -269.7289
  10   2.0000      -9.911643      -269.7095
  11   2.0000      -9.904710      -269.5209
  12   2.0000      -9.898153      -269.3424
  13   2.0000      -9.890265      -269.1278
  14   2.0000      -9.882515      -268.9169
  15   2.0000      -9.876449      -268.7518
  16   2.0000      -9.789818      -266.3945
  17   2.0000      -7.900730      -214.9898
  18   2.0000      -5.932797      -161.4396
  19   2.0000      -5.926699      -161.2737
  20   2.0000      -5.925699      -161.2465
  21   2.0000      -1.301902       -35.4265
  22   2.0000      -1.037563       -28.2335
  23   2.0000      -0.945679       -25.7332
  24   2.0000      -0.847603       -23.0645
  25   2.0000      -0.774271       -21.0690
  26   2.0000      -0.770706       -20.9720
  27   2.0000      -0.732485       -19.9319
  28   2.0000      -0.704311       -19.1653
  29   2.0000      -0.680154       -18.5079
  30   2.0000      -0.653735       -17.7890
  31   2.0000      -0.619978       -16.8705
  32   2.0000      -0.604457       -16.4481
  33   2.0000      -0.585405       -15.9297
  34   2.0000      -0.561569       -15.2811
  35   2.0000      -0.549423       -14.9506
  36   2.0000      -0.537129       -14.6160
  37   2.0000      -0.527881       -14.3644
  38   2.0000      -0.522545       -14.2192
  39   2.0000      -0.494265       -13.4496
  40   2.0000      -0.476202       -12.9581
  41   2.0000      -0.465203       -12.6588
  42   2.0000      -0.458445       -12.4749
  43   2.0000      -0.447558       -12.1787
  44   2.0000      -0.438119       -11.9218
  45   2.0000      -0.424527       -11.5520
  46   2.0000      -0.418044       -11.3756
  47   2.0000      -0.408949       -11.1281
  48   2.0000      -0.400020       -10.8851
  49   2.0000      -0.386244       -10.5102
  50   2.0000      -0.380110       -10.3433
  51   2.0000      -0.376702       -10.2506
  52   2.0000      -0.365554        -9.9472
  53   2.0000      -0.355835        -9.6828
  54   2.0000      -0.342548        -9.3212
  55   2.0000      -0.337633        -9.1875
  56   2.0000      -0.335048        -9.1171
  57   2.0000      -0.323431        -8.8010
  58   2.0000      -0.317728        -8.6458
  59   2.0000      -0.310877        -8.4594
  60   2.0000      -0.303893        -8.2693
  61   2.0000      -0.300276        -8.1709
  62   2.0000      -0.297731        -8.1017
  63   2.0000      -0.291952        -7.9444
  64   2.0000      -0.285768        -7.7762
  65   2.0000      -0.283339        -7.7100
  66   2.0000      -0.278611        -7.5814
  67   2.0000      -0.266505        -7.2520
  68   2.0000      -0.264816        -7.2060
  69   2.0000      -0.256400        -6.9770
  70   2.0000      -0.173950        -4.7334
  71   2.0000      -0.101769        -2.7693
  72   0.0000      -0.047478        -1.2919
  73   0.0000      -0.030498        -0.8299
  74   0.0000      -0.009010        -0.2452
  75   0.0000      -0.007190        -0.1956
  76   0.0000      -0.000756        -0.0206

MULLIKEN ATOMIC CHARGES
-----------------------
   0 C :   -0.924929
   1 N :   -0.269982
   2 C :   -0.630237
   3 C :   -0.830818
   4 H :    0.352901
   5 H :    0.378787
   6 S :    1.319779
   7 C :    0.852443
   8 N :   -0.260485
   9 C :   -1.463026
  10 H :    0.277938
  11 H :    0.364567
  12 H :    0.450941
  13 H :    0.307584
  14 H :    0.079140
  15 O :   -0.792534
  16 F :   -0.110109
  17 C :   -0.622695
  18 H :    0.376298
  19 H :    0.291469
  20 C :   -0.534596
  21 C :   -0.325832
  22 H :    0.279679
  23 H :    0.311077
  24 H :    0.272317
  25 H :    0.272107
  26 C :   -0.265875
  27 H :    0.318943
  28 H :    0.399045
  29 C :   -0.444009
  30 H :    0.256100
  31 H :    0.094006
  32 C :   -0.762297
  33 H :    0.293595
  34 H :    0.242778
  35 H :    0.311662
  36 H :    0.294700
  37 H :    0.271431
  38 H :    0.279724
  39 O :   -0.711588
Sum of atomic charges:   -0.0000000

LOEWDIN ATOMIC CHARGES
----------------------
   0 C :   -0.184325
   1 N :    0.043180
   2 C :   -0.205789
   3 C :   -0.225618
   4 H :    0.109444
   5 H :    0.102993
   6 S :    0.642796
   7 C :   -0.553404
   8 N :    0.137615
   9 C :    0.006328
  10 H :   -0.011036
  11 H :   -0.005641
  12 H :    0.055578
  13 H :    0.019602
  14 H :    0.106378
  15 O :   -0.263032
  16 F :   -0.013689
  17 C :   -0.181937
  18 H :    0.108762
  19 H :    0.108921
  20 C :   -0.208368
  21 C :   -0.209696
  22 H :    0.127017
  23 H :    0.084158
  24 H :    0.123424
  25 H :    0.115593
  26 C :   -0.204970
  27 H :    0.107508
  28 H :    0.099451
  29 C :   -0.213961
  30 H :    0.113554
  31 H :    0.100418
  32 C :   -0.203790
  33 H :    0.111886
  34 H :    0.096453
  35 H :    0.108272
  36 H :    0.110645
  37 H :    0.105177
  38 H :    0.107467
  39 O :   -0.267361

  Mayer bond orders larger than 0.100000
B(  0-C ,  1-N ) :   0.9853 B(  0-C ,  9-C ) :   0.1061 B(  0-C , 12-H ) :  -0.2339
B(  0-C , 17-C ) :   0.7117 B(  0-C , 18-H ) :   0.6804 B(  0-C , 19-H ) :   0.8650
B(  0-C , 29-C ) :   0.1557 B(  1-N ,  7-C ) :   1.0141 B(  1-N , 12-H ) :   0.8353
B(  1-N , 17-C ) :   0.1757 B(  1-N , 31-H ) :   0.1164 B(  2-C ,  3-C ) :   0.9688
B(  2-C , 20-C ) :   0.4114 B(  2-C , 21-C ) :   0.3184 B(  2-C , 22-H ) :  -0.1330
B(  2-C , 24-H ) :   0.9727 B(  2-C , 25-H ) :   0.9073 B(  3-C ,  4-H ) :   0.8521
B(  3-C ,  5-H ) :   0.8612 B(  3-C ,  6-S ) :   0.8841 B(  3-C , 15-O ) :   0.1264
B(  3-C , 16-F ) :   0.1253 B(  3-C , 21-C ) :   0.1542 B(  3-C , 39-O ) :   0.1222
B(  6-S , 15-O ) :   1.4722 B(  6-S , 16-F ) :   0.8698 B(  6-S , 39-O ) :   1.6626
B(  7-C ,  8-N ) :   0.9139 B(  7-C ,  9-C ) :   0.8288 B(  7-C , 12-H ) :  -0.1927
B(  8-N , 13-H ) :   0.8413 B(  8-N , 14-H ) :   1.0720 B(  9-C , 10-H ) :   1.0802
B(  9-C , 11-H ) :   0.9774 B( 15-O , 39-O ) :   0.1428 B( 17-C , 26-C ) :   0.9309
B( 17-C , 27-H ) :   0.9097 B( 17-C , 28-H ) :   0.8747 B( 17-C , 29-C ) :   0.1714
B( 20-C , 21-C ) :   0.3127 B( 20-C , 23-H ) :  -0.1086 B( 20-C , 26-C ) :   0.1262
B( 20-C , 32-C ) :   0.9104 B( 20-C , 35-H ) :   0.9340 B( 20-C , 36-H ) :   0.9009
B( 21-C , 22-H ) :   0.8287 B( 21-C , 23-H ) :   1.4124 B( 21-C , 29-C ) :   0.1212
B( 21-C , 32-C ) :   0.1260 B( 21-C , 39-O ) :   0.1709 B( 22-H , 23-H ) :   0.1340
B( 23-H , 39-O ) :  -0.1985 B( 26-C , 29-C ) :   0.1272 B( 26-C , 30-H ) :   0.9255
B( 26-C , 31-H ) :   1.1009 B( 26-C , 32-C ) :   0.1351 B( 26-C , 34-H ) :  -0.1317
B( 29-C , 31-H ) :  -0.1091 B( 29-C , 32-C ) :   0.8689 B( 29-C , 33-H ) :   0.9156
B( 29-C , 34-H ) :   1.0314 B( 32-C , 37-H ) :   0.9410 B( 32-C , 38-H ) :   0.9590

Dispersion correction           -0.097191065
FINAL SINGLE POINT ENERGY     -1191.023124412002

DIPOLE MOMENT
-------------
                                X             Y             Z
Electronic contribution:    -21.11064       1.37796     -21.83779
Nuclear contribution   :     20.11362      -4.34709      20.52383
                        -----------------------------------------
Total Dipole Moment    :     -0.99703      -2.96913      -1.31396
                        -----------------------------------------
Magnitude (a.u.)       :      3.39651
Magnitude (Debye)      :      8.63324

Rotational constants in cm-1:     0.014449     0.012108     0.007447
Rotational constants in MHz :   433.168496   362.988632   223.260798

                             ****ORCA TERMINATED NORMALLY****
TOTAL RUN TIME: 0 days 0 hours 2 minutes 31 seconds 672 msec
