                         Program Version 5.0.0 -  RELEASE  -
|  1> !BLYP D3BJ RIJCOSX def2-TZVPD def2/J TightSCF xyzfile
|  2>
|  3> *xyzfile 0 1 D7.xyz
|  4>
|  5> %MaxCore 64000
|  6>
|  7> %pal nprocs 4
|  8> end
|  9>
| 10> %scf
| 11>   MaxIter 150
| 12> end
| 13>
| 14>
| 15>                          ****END OF INPUT****

CARTESIAN COORDINATES (ANGSTROEM)
---------------------------------
  C      4.490588    1.155899   -2.469290
  C      4.305394    1.222762   -3.908317
  C      4.906458   -3.102816   -5.954844
  C      3.511771   -2.806215   -6.492283
  H      2.736044   -3.373445   -5.973736
  H      3.444904   -3.040831   -7.555281
  S      3.004618   -1.096206   -6.389259
  C      4.631918    2.246365   -4.670958
  N      4.541686    2.143990   -5.987139
  N      5.084086    3.393584   -4.118545
  H      4.920675    3.570501   -3.135870
  H      5.254652    4.197390   -4.706956
  H      3.824530    0.449113   -4.350926
  H      4.343373    1.249318   -6.416646
  H      4.676712    2.956624   -6.574113
  O      4.128856   -0.329647   -6.953717
  O      1.781285   -1.000779   -7.136399
  C      5.942129    0.939500   -2.036893
  H      3.864305    0.328532   -2.136611
  H      4.076233    2.049994   -1.989010
  C      6.462677   -3.117775   -3.944671
  C      5.024977   -3.025679   -4.437625
  H      4.423321   -3.818693   -3.977648
  H      4.579350   -2.087131   -4.108727
  H      5.201533   -4.100207   -6.296905
  H      5.605922   -2.397822   -6.413368
  C      6.559957   -0.356290   -2.559086
  H      5.967976    0.952567   -0.942444
  H      6.547184    1.788331   -2.368849
  C      6.006283   -1.615917   -1.899301
  H      7.642360   -0.318000   -2.402059
  H      6.414855   -0.403433   -3.642587
  C      6.608718   -2.917014   -2.435655
  H      6.190324   -1.561115   -0.820948
  H      4.919250   -1.651245   -2.016586
  H      7.066975   -2.374258   -4.475514
  H      6.887808   -4.089747   -4.215332
  H      6.135197   -3.755573   -1.915159
  H      7.671142   -2.955503   -2.172291
  F      2.851546   -0.783683   -4.956789

 Total Charge           Charge          ....    0
 Multiplicity           Mult            ....    1
 Number of Electrons    NEL             ....  144
 Basis Dimension        Dim             ....  854

ORBITAL ENERGIES
----------------

  NO   OCC          E(Eh)            E(eV)
   0   2.0000     -88.345451     -2404.0020
   1   2.0000     -24.390742      -663.7058
   2   2.0000     -18.794976      -511.4373
   3   2.0000     -18.791278      -511.3367
   4   2.0000     -13.996325      -380.8594
   5   2.0000     -13.974976      -380.2784
   6   2.0000      -9.966575      -271.2043
   7   2.0000      -9.929365      -270.1918
   8   2.0000      -9.929299      -270.1900
   9   2.0000      -9.911451      -269.7043
  10   2.0000      -9.902241      -269.4537
  11   2.0000      -9.896105      -269.2867
  12   2.0000      -9.888412      -269.0774
  13   2.0000      -9.879994      -268.8483
  14   2.0000      -9.875410      -268.7236
  15   2.0000      -9.872381      -268.6411
  16   2.0000      -9.810833      -266.9663
  17   2.0000      -7.877398      -214.3549
  18   2.0000      -5.909653      -160.8098
  19   2.0000      -5.903127      -160.6323
  20   2.0000      -5.902491      -160.6150
  21   2.0000      -1.255492       -34.1637
  22   2.0000      -1.024915       -27.8894
  23   2.0000      -0.937025       -25.4978
  24   2.0000      -0.853884       -23.2354
  25   2.0000      -0.770639       -20.9702
  26   2.0000      -0.761583       -20.7237
  27   2.0000      -0.727885       -19.8067
  28   2.0000      -0.701475       -19.0881
  29   2.0000      -0.678961       -18.4755
  30   2.0000      -0.647204       -17.6113
  31   2.0000      -0.633745       -17.2451
  32   2.0000      -0.599563       -16.3149
  33   2.0000      -0.575048       -15.6479
  34   2.0000      -0.555466       -15.1150
  35   2.0000      -0.527975       -14.3669
  36   2.0000      -0.520313       -14.1584
  37   2.0000      -0.513644       -13.9770
  38   2.0000      -0.510026       -13.8785
  39   2.0000      -0.491477       -13.3738
  40   2.0000      -0.484583       -13.1862
  41   2.0000      -0.469413       -12.7734
  42   2.0000      -0.442481       -12.0405
  43   2.0000      -0.433913       -11.8074
  44   2.0000      -0.430895       -11.7253
  45   2.0000      -0.422591       -11.4993
  46   2.0000      -0.419554       -11.4166
  47   2.0000      -0.405642       -11.0381
  48   2.0000      -0.398306       -10.8385
  49   2.0000      -0.389534       -10.5998
  50   2.0000      -0.378432       -10.2977
  51   2.0000      -0.372915       -10.1475
  52   2.0000      -0.369950       -10.0668
  53   2.0000      -0.353591        -9.6217
  54   2.0000      -0.345124        -9.3913
  55   2.0000      -0.334825        -9.1111
  56   2.0000      -0.329186        -8.9576
  57   2.0000      -0.324975        -8.8430
  58   2.0000      -0.315824        -8.5940
  59   2.0000      -0.310523        -8.4498
  60   2.0000      -0.300394        -8.1741
  61   2.0000      -0.298248        -8.1157
  62   2.0000      -0.291914        -7.9434
  63   2.0000      -0.285935        -7.7807
  64   2.0000      -0.285081        -7.7574
  65   2.0000      -0.278173        -7.5695
  66   2.0000      -0.276656        -7.5282
  67   2.0000      -0.263358        -7.1663
  68   2.0000      -0.257167        -6.9979
  69   2.0000      -0.252568        -6.8727
  70   2.0000      -0.202302        -5.5049
  71   2.0000      -0.115894        -3.1536
  72   0.0000      -0.031984        -0.8703
  73   0.0000      -0.011928        -0.3246
  74   0.0000      -0.010068        -0.2740
  75   0.0000      -0.004524        -0.1231
  76   0.0000       0.001836         0.0500

MULLIKEN ATOMIC CHARGES
-----------------------
   0 C :   -0.997986
   1 C :   -1.256332
   2 C :   -0.575666
   3 C :   -0.769467
   4 H :    0.313160
   5 H :    0.327304
   6 S :    1.433581
   7 C :    0.283191
   8 N :   -0.272971
   9 N :   -0.292111
  10 H :    0.169364
  11 H :    0.095848
  12 H :    1.364158
  13 H :    0.267647
  14 H :    0.084901
  15 O :   -0.805863
  16 O :   -0.584051
  17 C :   -0.681385
  18 H :    0.303162
  19 H :    0.319571
  20 C :   -0.580198
  21 C :   -0.212177
  22 H :    0.265957
  23 H :    0.224378
  24 H :    0.281903
  25 H :    0.264941
  26 C :   -0.351261
  27 H :    0.266664
  28 H :    0.357055
  29 C :   -0.482309
  30 H :    0.246169
  31 H :    0.239054
  32 C :   -0.727333
  33 H :    0.289438
  34 H :    0.237152
  35 H :    0.310314
  36 H :    0.293271
  37 H :    0.270875
  38 H :    0.281708
  39 F :   -0.201657
Sum of atomic charges:   -0.0000000

LOEWDIN ATOMIC CHARGES
----------------------
   0 C :   -0.222755
   1 C :   -0.138709
   2 C :   -0.217460
   3 C :   -0.221250
   4 H :    0.108552
   5 H :    0.111817
   6 S :    0.617659
   7 C :   -0.519426
   8 N :    0.136955
   9 N :    0.145946
  10 H :    0.089477
  11 H :    0.090259
  12 H :    0.022307
  13 H :    0.027438
  14 H :    0.096307
  15 O :   -0.263639
  16 O :   -0.231198
  17 C :   -0.200101
  18 H :    0.099534
  19 H :    0.097453
  20 C :   -0.207844
  21 C :   -0.212706
  22 H :    0.126186
  23 H :    0.085212
  24 H :    0.120125
  25 H :    0.112969
  26 C :   -0.206725
  27 H :    0.102050
  28 H :    0.099921
  29 C :   -0.212782
  30 H :    0.112311
  31 H :    0.100024
  32 C :   -0.204665
  33 H :    0.111559
  34 H :    0.096033
  35 H :    0.108408
  36 H :    0.111400
  37 H :    0.104910
  38 H :    0.106900
  39 F :   -0.082454

  Mayer bond orders larger than 0.100000
B(  0-C ,  1-C ) :   0.7397 B(  0-C ,  7-C ) :   0.1870 B(  0-C , 12-H ) :  -0.2353
B(  0-C , 17-C ) :   0.6606 B(  0-C , 18-H ) :   0.9876 B(  0-C , 19-H ) :   0.8443
B(  0-C , 29-C ) :   0.1210 B(  1-C ,  7-C ) :   0.9878 B(  1-C , 10-H ) :  -0.1191
B(  1-C , 12-H ) :  -1.1640 B(  1-C , 18-H ) :  -0.1250 B(  1-C , 39-F ) :   0.4404
B(  2-C ,  3-C ) :   0.8713 B(  2-C , 20-C ) :   0.4267 B(  2-C , 21-C ) :   0.2668
B(  2-C , 22-H ) :  -0.1409 B(  2-C , 24-H ) :   0.9724 B(  2-C , 25-H ) :   0.9314
B(  3-C ,  4-H ) :   0.8989 B(  3-C ,  5-H ) :   0.9162 B(  3-C ,  6-S ) :   0.9167
B(  3-C , 16-O ) :   0.1828 B(  3-C , 21-C ) :   0.1602 B(  6-S , 15-O ) :   1.3751
B(  6-S , 16-O ) :   1.3651 B(  6-S , 39-F ) :   1.0323 B(  7-C ,  8-N ) :   0.9298
B(  7-C ,  9-N ) :   1.0990 B(  7-C , 10-H ) :   0.1253 B(  7-C , 12-H ) :   0.4182
B(  8-N , 12-H ) :   0.1052 B(  8-N , 13-H ) :   0.8675 B(  8-N , 14-H ) :   1.0710
B(  9-N , 10-H ) :   0.9804 B(  9-N , 11-H ) :   1.0591 B(  9-N , 17-C ) :   0.1446
B( 12-H , 15-O ) :   0.1033 B( 12-H , 39-F ) :  -0.5900 B( 17-C , 26-C ) :   0.9147
B( 17-C , 27-H ) :   0.9847 B( 17-C , 28-H ) :   0.8564 B( 17-C , 29-C ) :   0.1923
B( 20-C , 21-C ) :   0.3772 B( 20-C , 26-C ) :   0.1355 B( 20-C , 32-C ) :   0.8945
B( 20-C , 35-H ) :   0.9357 B( 20-C , 36-H ) :   0.9047 B( 21-C , 22-H ) :   0.8414
B( 21-C , 23-H ) :   1.3664 B( 21-C , 29-C ) :   0.1335 B( 21-C , 39-F ) :   0.1409
B( 22-H , 23-H ) :   0.1379 B( 23-H , 39-F ) :  -0.1217 B( 26-C , 29-C ) :   0.1266
B( 26-C , 30-H ) :   0.9400 B( 26-C , 31-H ) :   1.0591 B( 26-C , 32-C ) :   0.1024
B( 26-C , 34-H ) :  -0.1503 B( 29-C , 31-H ) :  -0.1072 B( 29-C , 32-C ) :   0.8769
B( 29-C , 33-H ) :   0.9205 B( 29-C , 34-H ) :   1.0448 B( 32-C , 37-H ) :   0.9466
B( 32-C , 38-H ) :   0.9584

Dispersion correction           -0.097074842
FINAL SINGLE POINT ENERGY     -1191.034023067611

DIPOLE MOMENT
-------------
                                X             Y             Z
Electronic contribution:    -18.44296       4.06678     -18.06009
Nuclear contribution   :     18.74089      -4.92611      17.99644
                        -----------------------------------------
Total Dipole Moment    :      0.29793      -0.85933      -0.06364
                        -----------------------------------------
Magnitude (a.u.)       :      0.91173
Magnitude (Debye)      :      2.31744

Rotational constants in cm-1:     0.014210     0.012324     0.007480
Rotational constants in MHz :   425.991442   369.455467   224.259162

                             ****ORCA TERMINATED NORMALLY****
TOTAL RUN TIME: 0 days 0 hours 2 minutes 22 seconds 428 msec
