                         Program Version 5.0.0 -  RELEASE  -
|  1> !BLYP D3BJ RIJCOSX def2-TZVPD def2/J TightSCF xyzfile
|  2>
|  3> *xyzfile 0 1 D8.xyz
|  4>
|  5> %MaxCore 64000
|  6>
|  7> %pal nprocs 4
|  8> end
|  9>
| 10> %scf
| 11>   MaxIter 150
| 12> end
| 13>
| 14>
| 15>                          ****END OF INPUT****

CARTESIAN COORDINATES (ANGSTROEM)
---------------------------------
  C      4.490588    1.155899   -2.469290
  N      4.305394    1.222762   -3.908317
  C      4.906458   -3.102816   -5.954844
  C      3.511771   -2.806215   -6.492283
  H      2.736044   -3.373445   -5.973736
  H      3.444904   -3.040831   -7.555281
  S      3.004618   -1.096206   -6.389259
  C      4.631918    2.246365   -4.670958
  C      4.541686    2.143990   -5.987139
  N      5.084086    3.393584   -4.118545
  H      4.920675    3.570501   -3.135870
  H      5.254652    4.197390   -4.706956
  H      3.824530    0.449113   -4.350926
  H      4.343373    1.249318   -6.416646
  H      4.676712    2.956624   -6.574113
  O      4.128856   -0.329647   -6.953717
  O      1.781285   -1.000779   -7.136399
  C      5.942129    0.939500   -2.036893
  H      3.864305    0.328532   -2.136611
  H      4.076233    2.049994   -1.989010
  C      6.462677   -3.117775   -3.944671
  C      5.024977   -3.025679   -4.437625
  H      4.423321   -3.818693   -3.977648
  H      4.579350   -2.087131   -4.108727
  H      5.201533   -4.100207   -6.296905
  H      5.605922   -2.397822   -6.413368
  C      6.559957   -0.356290   -2.559086
  H      5.967976    0.952567   -0.942444
  H      6.547184    1.788331   -2.368849
  C      6.006283   -1.615917   -1.899301
  H      7.642360   -0.318000   -2.402059
  H      6.414855   -0.403433   -3.642587
  C      6.608718   -2.917014   -2.435655
  H      6.190324   -1.561115   -0.820948
  H      4.919250   -1.651245   -2.016586
  H      7.066975   -2.374258   -4.475514
  H      6.887808   -4.089747   -4.215332
  H      6.135197   -3.755573   -1.915159
  H      7.671142   -2.955503   -2.172291
  F      2.851546   -0.783683   -4.956789

 Total Charge           Charge          ....    0
 Multiplicity           Mult            ....    1
 Number of Electrons    NEL             ....  144
 Basis Dimension        Dim             ....  854

ORBITAL ENERGIES
----------------

  NO   OCC          E(Eh)            E(eV)
   0   2.0000     -88.340120     -2403.8569
   1   2.0000     -24.401689      -664.0037
   2   2.0000     -18.791272      -511.3365
   3   2.0000     -18.778863      -510.9988
   4   2.0000     -13.990984      -380.7140
   5   2.0000     -13.990830      -380.7098
   6   2.0000      -9.965516      -271.1755
   7   2.0000      -9.935531      -270.3595
   8   2.0000      -9.931132      -270.2398
   9   2.0000      -9.925762      -270.0937
  10   2.0000      -9.918262      -269.8896
  11   2.0000      -9.909274      -269.6450
  12   2.0000      -9.905629      -269.5459
  13   2.0000      -9.902341      -269.4564
  14   2.0000      -9.897511      -269.3250
  15   2.0000      -9.897059      -269.3127
  16   2.0000      -9.788363      -266.3549
  17   2.0000      -7.872413      -214.2193
  18   2.0000      -5.904908      -160.6807
  19   2.0000      -5.897758      -160.4861
  20   2.0000      -5.897464      -160.4782
  21   2.0000      -1.265015       -34.4228
  22   2.0000      -1.019361       -27.7382
  23   2.0000      -0.928302       -25.2604
  24   2.0000      -0.865178       -23.5427
  25   2.0000      -0.786394       -21.3989
  26   2.0000      -0.763973       -20.7888
  27   2.0000      -0.735360       -20.0102
  28   2.0000      -0.709289       -19.3007
  29   2.0000      -0.677531       -18.4366
  30   2.0000      -0.657159       -17.8822
  31   2.0000      -0.635733       -17.2992
  32   2.0000      -0.604671       -16.4539
  33   2.0000      -0.582839       -15.8598
  34   2.0000      -0.563554       -15.3351
  35   2.0000      -0.543745       -14.7960
  36   2.0000      -0.531338       -14.4584
  37   2.0000      -0.521355       -14.1868
  38   2.0000      -0.508676       -13.8418
  39   2.0000      -0.498537       -13.5659
  40   2.0000      -0.494601       -13.4588
  41   2.0000      -0.461321       -12.5532
  42   2.0000      -0.445543       -12.1239
  43   2.0000      -0.435449       -11.8492
  44   2.0000      -0.429023       -11.6743
  45   2.0000      -0.426548       -11.6070
  46   2.0000      -0.419312       -11.4101
  47   2.0000      -0.412523       -11.2253
  48   2.0000      -0.408383       -11.1127
  49   2.0000      -0.392947       -10.6926
  50   2.0000      -0.390420       -10.6239
  51   2.0000      -0.382107       -10.3977
  52   2.0000      -0.367715       -10.0060
  53   2.0000      -0.352783        -9.5997
  54   2.0000      -0.344920        -9.3858
  55   2.0000      -0.342977        -9.3329
  56   2.0000      -0.336684        -9.1616
  57   2.0000      -0.328909        -8.9501
  58   2.0000      -0.323134        -8.7929
  59   2.0000      -0.318393        -8.6639
  60   2.0000      -0.316564        -8.6141
  61   2.0000      -0.304154        -8.2764
  62   2.0000      -0.299584        -8.1521
  63   2.0000      -0.297563        -8.0971
  64   2.0000      -0.291516        -7.9326
  65   2.0000      -0.279952        -7.6179
  66   2.0000      -0.278165        -7.5693
  67   2.0000      -0.272496        -7.4150
  68   2.0000      -0.271177        -7.3791
  69   2.0000      -0.249722        -6.7953
  70   2.0000      -0.198270        -5.3952
  71   2.0000      -0.111272        -3.0279
  72   0.0000      -0.034727        -0.9450
  73   0.0000      -0.015143        -0.4121
  74   0.0000      -0.013283        -0.3615
  75   0.0000      -0.006721        -0.1829
  76   0.0000      -0.001155        -0.0314

MULLIKEN ATOMIC CHARGES
-----------------------
   0 C :   -0.950087
   1 N :   -0.246096
   2 C :   -0.535813
   3 C :   -0.795126
   4 H :    0.309913
   5 H :    0.331615
   6 S :    1.327254
   7 C :    1.120571
   8 C :   -2.075081
   9 N :   -0.346174
  10 H :    0.146893
  11 H :    0.131398
  12 H :    0.325648
  13 H :    0.940394
  14 H :    0.212639
  15 O :   -0.652423
  16 O :   -0.580009
  17 C :   -0.552189
  18 H :    0.364727
  19 H :    0.308383
  20 C :   -0.558770
  21 C :   -0.274811
  22 H :    0.286053
  23 H :    0.189036
  24 H :    0.285825
  25 H :    0.265129
  26 C :   -0.286120
  27 H :    0.327186
  28 H :    0.377971
  29 C :   -0.459731
  30 H :    0.246701
  31 H :    0.162157
  32 C :   -0.746363
  33 H :    0.288893
  34 H :    0.255008
  35 H :    0.301021
  36 H :    0.291799
  37 H :    0.274938
  38 H :    0.278410
  39 F :   -0.290770
Sum of atomic charges:    0.0000000

LOEWDIN ATOMIC CHARGES
----------------------
   0 C :   -0.189221
   1 N :    0.042105
   2 C :   -0.217038
   3 C :   -0.223716
   4 H :    0.106382
   5 H :    0.112635
   6 S :    0.610483
   7 C :   -0.542352
   8 C :    0.019609
   9 N :    0.133139
  10 H :    0.078599
  11 H :    0.101513
  12 H :    0.081835
  13 H :   -0.048362
  14 H :    0.011478
  15 O :   -0.263813
  16 O :   -0.230155
  17 C :   -0.184996
  18 H :    0.108600
  19 H :    0.105330
  20 C :   -0.206551
  21 C :   -0.214200
  22 H :    0.126423
  23 H :    0.081801
  24 H :    0.120526
  25 H :    0.114240
  26 C :   -0.203605
  27 H :    0.106850
  28 H :    0.101135
  29 C :   -0.214763
  30 H :    0.115171
  31 H :    0.102755
  32 C :   -0.202933
  33 H :    0.112270
  34 H :    0.094290
  35 H :    0.109362
  36 H :    0.112957
  37 H :    0.106178
  38 H :    0.108191
  39 F :   -0.082153

  Mayer bond orders larger than 0.100000
B(  0-C ,  1-N ) :   0.9434 B(  0-C ,  7-C ) :  -0.1373 B(  0-C , 12-H ) :  -0.1501
B(  0-C , 17-C ) :   0.6827 B(  0-C , 18-H ) :   0.7680 B(  0-C , 19-H ) :   0.8391
B(  0-C , 29-C ) :   0.1545 B(  1-N ,  7-C ) :   1.0519 B(  1-N , 12-H ) :   0.8811
B(  1-N , 17-C ) :   0.1291 B(  2-C ,  3-C ) :   0.8627 B(  2-C , 20-C ) :   0.4264
B(  2-C , 21-C ) :   0.2859 B(  2-C , 22-H ) :  -0.1310 B(  2-C , 24-H ) :   0.9618
B(  2-C , 25-H ) :   0.9356 B(  3-C ,  4-H ) :   0.9003 B(  3-C ,  5-H ) :   0.9182
B(  3-C ,  6-S ) :   0.9373 B(  3-C , 16-O ) :   0.1675 B(  3-C , 21-C ) :   0.1855
B(  6-S , 15-O ) :   1.4745 B(  6-S , 16-O ) :   1.3849 B(  6-S , 21-C ) :   0.1064
B(  6-S , 39-F ) :   1.0420 B(  7-C ,  8-C ) :   0.4201 B(  7-C ,  9-N ) :   0.8927
B(  7-C , 12-H ) :  -0.1732 B(  7-C , 14-H ) :  -0.2262 B(  8-C , 13-H ) :   0.2897
B(  8-C , 14-H ) :   1.2691 B(  8-C , 15-O ) :   0.1694 B(  9-N , 10-H ) :   1.0185
B(  9-N , 11-H ) :   1.0300 B( 13-H , 15-O ) :  -0.3413 B( 15-O , 16-O ) :   0.1049
B( 17-C , 26-C ) :   0.9403 B( 17-C , 27-H ) :   0.9459 B( 17-C , 28-H ) :   0.8459
B( 17-C , 29-C ) :   0.1718 B( 20-C , 21-C ) :   0.3644 B( 20-C , 26-C ) :   0.1229
B( 20-C , 32-C ) :   0.9070 B( 20-C , 35-H ) :   0.9361 B( 20-C , 36-H ) :   0.9021
B( 21-C , 22-H ) :   0.8375 B( 21-C , 23-H ) :   1.4259 B( 21-C , 29-C ) :   0.1228
B( 21-C , 32-C ) :   0.1249 B( 21-C , 39-F ) :   0.1352 B( 22-H , 23-H ) :   0.1156
B( 23-H , 39-F ) :  -0.1292 B( 26-C , 30-H ) :   0.9268 B( 26-C , 31-H ) :   1.0802
B( 26-C , 32-C ) :   0.1443 B( 26-C , 33-H ) :  -0.1036 B( 26-C , 34-H ) :  -0.1397
B( 29-C , 31-H ) :  -0.1063 B( 29-C , 32-C ) :   0.8824 B( 29-C , 33-H ) :   0.9201
B( 29-C , 34-H ) :   1.0303 B( 32-C , 37-H ) :   0.9404 B( 32-C , 38-H ) :   0.9586

Dispersion correction           -0.096532134
FINAL SINGLE POINT ENERGY     -1191.012491658472

DIPOLE MOMENT
-------------
                                X             Y             Z
Electronic contribution:    -18.46108       3.22688     -16.25019
Nuclear contribution   :     18.77618      -4.78855      17.68602
                        -----------------------------------------
Total Dipole Moment    :      0.31509      -1.56167       1.43583
                        -----------------------------------------
Magnitude (a.u.)       :      2.14469
Magnitude (Debye)      :      5.45137

Rotational constants in cm-1:     0.014368     0.012319     0.007509
Rotational constants in MHz :   430.738566   369.302170   225.105103

                             ****ORCA TERMINATED NORMALLY****
TOTAL RUN TIME: 0 days 0 hours 2 minutes 18 seconds 597 msec
