                         Program Version 5.0.0 -  RELEASE  -
|  1> !BLYP D3BJ RIJCOSX def2-TZVPD def2/J TightSCF xyzfile
|  2>
|  3> *xyzfile 0 1 D9.xyz
|  4>
|  5> %MaxCore 64000
|  6>
|  7> %pal nprocs 4
|  8> end
|  9>
| 10> %scf
| 11>   MaxIter 150
| 12> end
| 13>
| 14>
| 15>                          ****END OF INPUT****

CARTESIAN COORDINATES (ANGSTROEM)
---------------------------------
  C      4.490588    1.155899   -2.469290
  N      4.305394    1.222762   -3.908317
  C      4.906458   -3.102816   -5.954844
  C      3.511771   -2.806215   -6.492283
  H      2.736044   -3.373445   -5.973736
  H      3.444904   -3.040831   -7.555281
  S      3.004618   -1.096206   -6.389259
  C      4.631918    2.246365   -4.670958
  N      4.541686    2.143990   -5.987139
  C      5.084086    3.393584   -4.118545
  H      4.920675    3.570501   -3.135870
  H      5.254652    4.197390   -4.706956
  H      3.824530    0.449113   -4.350926
  H      4.343373    1.249318   -6.416646
  H      4.676712    2.956624   -6.574113
  O      4.128856   -0.329647   -6.953717
  O      1.781285   -1.000779   -7.136399
  C      5.942129    0.939500   -2.036893
  H      3.864305    0.328532   -2.136611
  H      4.076233    2.049994   -1.989010
  C      6.462677   -3.117775   -3.944671
  C      5.024977   -3.025679   -4.437625
  H      4.423321   -3.818693   -3.977648
  H      4.579350   -2.087131   -4.108727
  H      5.201533   -4.100207   -6.296905
  H      5.605922   -2.397822   -6.413368
  C      6.559957   -0.356290   -2.559086
  H      5.967976    0.952567   -0.942444
  H      6.547184    1.788331   -2.368849
  C      6.006283   -1.615917   -1.899301
  H      7.642360   -0.318000   -2.402059
  H      6.414855   -0.403433   -3.642587
  C      6.608718   -2.917014   -2.435655
  H      6.190324   -1.561115   -0.820948
  H      4.919250   -1.651245   -2.016586
  H      7.066975   -2.374258   -4.475514
  H      6.887808   -4.089747   -4.215332
  H      6.135197   -3.755573   -1.915159
  H      7.671142   -2.955503   -2.172291
  F      2.851546   -0.783683   -4.956789

 Total Charge           Charge          ....    0
 Multiplicity           Mult            ....    1
 Number of Electrons    NEL             ....  144
 Basis Dimension        Dim             ....  854

ORBITAL ENERGIES
----------------

  NO   OCC          E(Eh)            E(eV)
   0   2.0000     -88.359454     -2404.3830
   1   2.0000     -24.415754      -664.3864
   2   2.0000     -18.808340      -511.8010
   3   2.0000     -18.804672      -511.7011
   4   2.0000     -13.993773      -380.7899
   5   2.0000     -13.972749      -380.2178
   6   2.0000      -9.978692      -271.5340
   7   2.0000      -9.940388      -270.4917
   8   2.0000      -9.928120      -270.1579
   9   2.0000      -9.927991      -270.1544
  10   2.0000      -9.924006      -270.0459
  11   2.0000      -9.912555      -269.7343
  12   2.0000      -9.906256      -269.5629
  13   2.0000      -9.900631      -269.4099
  14   2.0000      -9.893255      -269.2092
  15   2.0000      -9.888481      -269.0793
  16   2.0000      -9.801843      -266.7217
  17   2.0000      -7.891693      -214.7439
  18   2.0000      -5.924164      -161.2047
  19   2.0000      -5.917262      -161.0169
  20   2.0000      -5.916597      -160.9988
  21   2.0000      -1.279419       -34.8148
  22   2.0000      -1.038983       -28.2722
  23   2.0000      -0.950367       -25.8608
  24   2.0000      -0.864443       -23.5227
  25   2.0000      -0.784653       -21.3515
  26   2.0000      -0.774015       -21.0620
  27   2.0000      -0.738056       -20.0835
  28   2.0000      -0.708250       -19.2725
  29   2.0000      -0.680493       -18.5172
  30   2.0000      -0.660358       -17.9692
  31   2.0000      -0.628398       -17.0996
  32   2.0000      -0.614816       -16.7300
  33   2.0000      -0.593444       -16.1484
  34   2.0000      -0.571403       -15.5487
  35   2.0000      -0.544290       -14.8109
  36   2.0000      -0.537067       -14.6143
  37   2.0000      -0.531736       -14.4693
  38   2.0000      -0.516273       -14.0485
  39   2.0000      -0.503224       -13.6934
  40   2.0000      -0.478088       -13.0094
  41   2.0000      -0.468942       -12.7606
  42   2.0000      -0.457264       -12.4428
  43   2.0000      -0.451905       -12.2970
  44   2.0000      -0.440318       -11.9817
  45   2.0000      -0.434343       -11.8191
  46   2.0000      -0.419941       -11.4272
  47   2.0000      -0.418612       -11.3910
  48   2.0000      -0.402520       -10.9531
  49   2.0000      -0.399208       -10.8630
  50   2.0000      -0.387619       -10.5477
  51   2.0000      -0.386556       -10.5187
  52   2.0000      -0.367714       -10.0060
  53   2.0000      -0.360458        -9.8086
  54   2.0000      -0.349704        -9.5159
  55   2.0000      -0.345703        -9.4071
  56   2.0000      -0.337386        -9.1807
  57   2.0000      -0.330549        -8.9947
  58   2.0000      -0.322853        -8.7853
  59   2.0000      -0.318389        -8.6638
  60   2.0000      -0.311777        -8.4839
  61   2.0000      -0.310042        -8.4367
  62   2.0000      -0.306625        -8.3437
  63   2.0000      -0.300066        -8.1652
  64   2.0000      -0.297778        -8.1029
  65   2.0000      -0.289943        -7.8898
  66   2.0000      -0.289070        -7.8660
  67   2.0000      -0.277675        -7.5559
  68   2.0000      -0.276341        -7.5196
  69   2.0000      -0.267974        -7.2919
  70   2.0000      -0.188625        -5.1327
  71   2.0000      -0.114151        -3.1062
  72   0.0000      -0.046036        -1.2527
  73   0.0000      -0.022232        -0.6050
  74   0.0000      -0.014403        -0.3919
  75   0.0000      -0.007857        -0.2138
  76   0.0000      -0.000844        -0.0230

MULLIKEN ATOMIC CHARGES
-----------------------
   0 C :   -0.919700
   1 N :   -0.283053
   2 C :   -0.545203
   3 C :   -0.770206
   4 H :    0.317471
   5 H :    0.335609
   6 S :    1.348632
   7 C :    0.860205
   8 N :   -0.252572
   9 C :   -1.465841
  10 H :    0.280982
  11 H :    0.363521
  12 H :    0.424101
  13 H :    0.308668
  14 H :    0.086685
  15 O :   -0.795467
  16 O :   -0.572081
  17 C :   -0.617802
  18 H :    0.388552
  19 H :    0.292216
  20 C :   -0.561706
  21 C :   -0.297130
  22 H :    0.290659
  23 H :    0.208437
  24 H :    0.283346
  25 H :    0.270014
  26 C :   -0.264556
  27 H :    0.319389
  28 H :    0.399820
  29 C :   -0.443948
  30 H :    0.256561
  31 H :    0.101086
  32 C :   -0.754121
  33 H :    0.290846
  34 H :    0.242403
  35 H :    0.310966
  36 H :    0.293802
  37 H :    0.274181
  38 H :    0.280391
  39 F :   -0.285160
Sum of atomic charges:   -0.0000000

LOEWDIN ATOMIC CHARGES
----------------------
   0 C :   -0.184708
   1 N :    0.040450
   2 C :   -0.216293
   3 C :   -0.219524
   4 H :    0.109383
   5 H :    0.113888
   6 S :    0.617194
   7 C :   -0.552080
   8 N :    0.140857
   9 C :    0.012162
  10 H :   -0.008464
  11 H :   -0.000887
  12 H :    0.076329
  13 H :    0.020667
  14 H :    0.110043
  15 O :   -0.262956
  16 O :   -0.224322
  17 C :   -0.180214
  18 H :    0.107481
  19 H :    0.111008
  20 C :   -0.206559
  21 C :   -0.214010
  22 H :    0.127094
  23 H :    0.081841
  24 H :    0.121902
  25 H :    0.113836
  26 C :   -0.204701
  27 H :    0.109175
  28 H :    0.101124
  29 C :   -0.215121
  30 H :    0.115174
  31 H :    0.100004
  32 C :   -0.202967
  33 H :    0.112827
  34 H :    0.093723
  35 H :    0.109102
  36 H :    0.112982
  37 H :    0.105976
  38 H :    0.108567
  39 F :   -0.079982

  Mayer bond orders larger than 0.100000
B(  0-C ,  1-N ) :   0.9770 B(  0-C ,  9-C ) :   0.1079 B(  0-C , 12-H ) :  -0.2195
B(  0-C , 17-C ) :   0.7357 B(  0-C , 18-H ) :   0.6580 B(  0-C , 19-H ) :   0.8701
B(  0-C , 29-C ) :   0.1602 B(  1-N ,  7-C ) :   1.0370 B(  1-N ,  9-C ) :   0.1013
B(  1-N , 12-H ) :   0.8435 B(  1-N , 17-C ) :   0.1745 B(  1-N , 31-H ) :   0.1005
B(  2-C ,  3-C ) :   0.8717 B(  2-C , 20-C ) :   0.4262 B(  2-C , 21-C ) :   0.2694
B(  2-C , 22-H ) :  -0.1329 B(  2-C , 24-H ) :   0.9647 B(  2-C , 25-H ) :   0.9332
B(  3-C ,  4-H ) :   0.8964 B(  3-C ,  5-H ) :   0.9119 B(  3-C ,  6-S ) :   0.9180
B(  3-C , 16-O ) :   0.1731 B(  3-C , 21-C ) :   0.1825 B(  6-S , 15-O ) :   1.4186
B(  6-S , 16-O ) :   1.4094 B(  6-S , 21-C ) :   0.1093 B(  6-S , 39-F ) :   1.0636
B(  7-C ,  8-N ) :   0.9023 B(  7-C ,  9-C ) :   0.8348 B(  7-C , 12-H ) :  -0.1763
B(  8-N , 13-H ) :   0.8416 B(  8-N , 14-H ) :   1.0600 B(  9-C , 10-H ) :   1.0765
B(  9-C , 11-H ) :   0.9742 B( 17-C , 26-C ) :   0.9391 B( 17-C , 27-H ) :   0.9053
B( 17-C , 28-H ) :   0.8771 B( 17-C , 29-C ) :   0.1669 B( 20-C , 21-C ) :   0.3735
B( 20-C , 26-C ) :   0.1221 B( 20-C , 32-C ) :   0.9129 B( 20-C , 35-H ) :   0.9298
B( 20-C , 36-H ) :   0.9000 B( 21-C , 22-H ) :   0.8334 B( 21-C , 23-H ) :   1.4053
B( 21-C , 29-C ) :   0.1222 B( 21-C , 32-C ) :   0.1265 B( 21-C , 39-F ) :   0.1292
B( 22-H , 23-H ) :   0.1231 B( 23-H , 39-F ) :  -0.1286 B( 26-C , 29-C ) :   0.1082
B( 26-C , 30-H ) :   0.9202 B( 26-C , 31-H ) :   1.1120 B( 26-C , 32-C ) :   0.1386
B( 26-C , 34-H ) :  -0.1364 B( 29-C , 31-H ) :  -0.1158 B( 29-C , 32-C ) :   0.8765
B( 29-C , 33-H ) :   0.9185 B( 29-C , 34-H ) :   1.0324 B( 32-C , 37-H ) :   0.9405
B( 32-C , 38-H ) :   0.9559

Dispersion correction           -0.096394199
FINAL SINGLE POINT ENERGY     -1191.028814934233

DIPOLE MOMENT
-------------
                                X             Y             Z
Electronic contribution:    -18.96246       1.92372     -17.87464
Nuclear contribution   :     18.85717      -4.60195      17.96505
                        -----------------------------------------
Total Dipole Moment    :     -0.10528      -2.67823       0.09041
                        -----------------------------------------
Magnitude (a.u.)       :      2.68182
Magnitude (Debye)      :      6.81664

Rotational constants in cm-1:     0.014436     0.012382     0.007563
Rotational constants in MHz :   432.785702   371.214592   226.743759

                             ****ORCA TERMINATED NORMALLY****
TOTAL RUN TIME: 0 days 0 hours 2 minutes 28 seconds 451 msec
