                         Program Version 5.0.0 -  RELEASE  -
|  1> !CAM-B3LYP RIJCOSX def2-SVPD def2/J TightSCF
|  2> *xyz -1 1
|  3> C         -0.77455        2.78833       -0.54394
|  4> C          0.69721        3.22791       -0.52513
|  5> O          1.48929        2.37470        0.19919
|  6> H          0.71600        4.26403       -0.13077
|  7> H          1.03615        3.33092       -1.58367
|  8> H         -1.34746        3.48478       -1.11982
|  9> H         -1.15078        2.75876        0.45729
| 10> H         -0.85058        1.81526       -0.98241
| 11> *
| 12>
| 13> %MaxCore 64000
| 14> %pal nprocs 4
| 15> end
| 16>
| 17> %scf
| 18>   MaxIter 150
| 19> end
| 20>
| 21>
| 22>                          ****END OF INPUT****

CARTESIAN COORDINATES (ANGSTROEM)
---------------------------------
  C     -0.774550    2.788330   -0.543940
  C      0.697210    3.227910   -0.525130
  O      1.489290    2.374700    0.199190
  H      0.716000    4.264030   -0.130770
  H      1.036150    3.330920   -1.583670
  H     -1.347460    3.484780   -1.119820
  H     -1.150780    2.758760    0.457290
  H     -0.850580    1.815260   -0.982410

 Total Charge           Charge          ....   -1
 Multiplicity           Mult            ....    1
 Number of Electrons    NEL             ....   26
 Basis Dimension        Dim             ....  103

ORBITAL ENERGIES
----------------

  NO   OCC          E(Eh)            E(eV)
   0   2.0000     -18.878808      -513.7185
   1   2.0000     -10.073791      -274.1218
   2   2.0000     -10.050613      -273.4911
   3   2.0000      -0.749074       -20.3833
   4   2.0000      -0.600180       -16.3317
   5   2.0000      -0.443280       -12.0622
   6   2.0000      -0.321187        -8.7400
   7   2.0000      -0.297106        -8.0847
   8   2.0000      -0.241807        -6.5799
   9   2.0000      -0.222683        -6.0595
  10   2.0000      -0.177097        -4.8191
  11   2.0000      -0.032146        -0.8747
  12   2.0000      -0.030293        -0.8243
  13   0.0000       0.207476         5.6457
  14   0.0000       0.238699         6.4953
  15   0.0000       0.275404         7.4941
  16   0.0000       0.288027         7.8376
  17   0.0000       0.305409         8.3106

MULLIKEN ATOMIC CHARGES
-----------------------
   0 C :    0.495264
   1 C :    0.233590
   2 O :   -0.885464
   3 H :   -0.214671
   4 H :   -0.202070
   5 H :   -0.122847
   6 H :   -0.151365
   7 H :   -0.152436
Sum of atomic charges:   -1.0000000

LOEWDIN ATOMIC CHARGES
----------------------
   0 C :    0.062383
   1 C :   -0.263083
   2 O :   -0.589904
   3 H :   -0.034204
   4 H :   -0.030161
   5 H :   -0.059928
   6 H :   -0.042273
   7 H :   -0.042831

  Mayer bond orders larger than 0.100000
B(  0-C ,  1-C ) :   1.1656 B(  0-C ,  2-O ) :   0.1293 B(  0-C ,  3-H ) :   0.1329
B(  0-C ,  4-H ) :   0.1241 B(  0-C ,  5-H ) :   0.8684 B(  0-C ,  6-H ) :   0.8695
B(  0-C ,  7-H ) :   0.8732 B(  1-C ,  2-O ) :   1.1771 B(  1-C ,  3-H ) :   0.9534
B(  1-C ,  4-H ) :   0.9636 B(  1-C ,  5-H ) :   0.1406 B(  1-C ,  6-H ) :   0.1918
B(  1-C ,  7-H ) :   0.1904

FINAL SINGLE POINT ENERGY      -154.246677564741

DIPOLE MOMENT
-------------
                                X             Y             Z
Electronic contribution:      2.30284      -0.96097       1.10977
Nuclear contribution   :     -3.69910       1.55962      -1.78699
                        -----------------------------------------
Total Dipole Moment    :     -1.39626       0.59865      -0.67722
                        -----------------------------------------
Magnitude (a.u.)       :      1.66329
Magnitude (Debye)      :      4.22775

Rotational constants in cm-1:     1.268893     0.327436     0.287754
Rotational constants in MHz : 38040.440181  9816.269339  8626.646564

                             ****ORCA TERMINATED NORMALLY****
TOTAL RUN TIME: 0 days 0 hours 0 minutes 12 seconds 973 msec
