                         Program Version 5.0.0 -  RELEASE  -
|  1> !CAM-B3LYP RIJCOSX def2-SVPD def2/J TightSCF
|  2> *xyz 1 1
|  3> C          3.95643        0.50147       -0.37910
|  4> H          3.16840        0.02920        0.20738
|  5> N          3.80389        1.96157       -0.15675
|  6> C          3.84232        0.14849       -1.85406
|  7> H          4.92323        0.17798        0.00937
|  8> H          4.20643        2.24441        0.74536
|  9> H          2.80827        2.21132       -0.09610
| 10> H          4.28076        2.50155       -0.89104
| 11> H          4.62951        0.62800       -2.39748
| 12> H          2.89665        0.48102       -2.22825
| 13> H          3.92053       -0.91187       -1.97413
| 14> *
| 15>
| 16> %MaxCore 64000
| 17> %pal nprocs 4
| 18> end
| 19>
| 20> %scf
| 21>   MaxIter 150
| 22> end
| 23>
| 24>
| 25>                          ****END OF INPUT****

CARTESIAN COORDINATES (ANGSTROEM)
---------------------------------
  C      3.956430    0.501470   -0.379100
  H      3.168400    0.029200    0.207380
  N      3.803890    1.961570   -0.156750
  C      3.842320    0.148490   -1.854060
  H      4.923230    0.177980    0.009370
  H      4.206430    2.244410    0.745360
  H      2.808270    2.211320   -0.096100
  H      4.280760    2.501550   -0.891040
  H      4.629510    0.628000   -2.397480
  H      2.896650    0.481020   -2.228250
  H      3.920530   -0.911870   -1.974130

 Total Charge           Charge          ....    1
 Multiplicity           Mult            ....    1
 Number of Electrons    NEL             ....   26
 Basis Dimension        Dim             ....  124

ORBITAL ENERGIES
----------------

  NO   OCC          E(Eh)            E(eV)
   0   2.0000     -14.742032      -401.1511
   1   2.0000     -10.513664      -286.0914
   2   2.0000     -10.434857      -283.9469
   3   2.0000      -1.292916       -35.1820
   4   2.0000      -1.043279       -28.3891
   5   2.0000      -0.919804       -25.0291
   6   2.0000      -0.877945       -23.8901
   7   2.0000      -0.859041       -23.3757
   8   2.0000      -0.768640       -20.9158
   9   2.0000      -0.714126       -19.4324
  10   2.0000      -0.651309       -17.7230
  11   2.0000      -0.636398       -17.3173
  12   2.0000      -0.618032       -16.8175
  13   0.0000      -0.159114        -4.3297
  14   0.0000      -0.099105        -2.6968
  15   0.0000      -0.096184        -2.6173
  16   0.0000      -0.089786        -2.4432
  17   0.0000      -0.057999        -1.5782

MULLIKEN ATOMIC CHARGES
-----------------------
   0 C :    0.342452
   1 H :   -0.143033
   2 N :   -0.756605
   3 C :    0.790802
   4 H :   -0.122986
   5 H :    0.342612
   6 H :    0.389104
   7 H :    0.392960
   8 H :   -0.092107
   9 H :   -0.055597
  10 H :   -0.087601
Sum of atomic charges:    1.0000000

LOEWDIN ATOMIC CHARGES
----------------------
   0 C :    0.049251
   1 H :    0.053387
   2 N :    0.328274
   3 C :    0.170890
   4 H :    0.054472
   5 H :    0.107704
   6 H :    0.111344
   7 H :    0.107441
   8 H :    0.000451
   9 H :    0.001387
  10 H :    0.015400

  Mayer bond orders larger than 0.100000
B(  0-C ,  1-H ) :   0.8883 B(  0-C ,  2-N ) :   0.7721 B(  0-C ,  3-C ) :   1.3092
B(  0-C ,  4-H ) :   0.9084 B(  0-C ,  8-H ) :   0.1766 B(  0-C ,  9-H ) :   0.1595
B(  0-C , 10-H ) :   0.2009 B(  1-H ,  2-N ) :   0.1310 B(  2-N ,  5-H ) :   0.7945
B(  2-N ,  6-H ) :   0.7401 B(  2-N ,  7-H ) :   0.7193 B(  3-C ,  8-H ) :   0.8058
B(  3-C ,  9-H ) :   0.7968 B(  3-C , 10-H ) :   0.7957

FINAL SINGLE POINT ENERGY      -135.361565127872

DIPOLE MOMENT
-------------
                                X             Y             Z
Electronic contribution:     -0.01249       1.34243       1.25789
Nuclear contribution   :     -0.06214      -0.04120      -0.39947
                        -----------------------------------------
Total Dipole Moment    :     -0.07463       1.30123       0.85842
                        -----------------------------------------
Magnitude (a.u.)       :      1.56066
Magnitude (Debye)      :      3.96687

Rotational constants in cm-1:     1.011771     0.281435     0.249812
Rotational constants in MHz : 30332.138762  8437.210602  7489.166323

                             ****ORCA TERMINATED NORMALLY****
TOTAL RUN TIME: 0 days 0 hours 0 minutes 16 seconds 520 msec
