                         Program Version 5.0.0 -  RELEASE  -
|  1> !CAM-B3LYP RIJCOSX def2-SVPD def2/J TightSCF xyzfile
|  2>
|  3> *xyzfile 0 1 B.xyz
|  4>
|  5> %MaxCore 64000
|  6>
|  7> %pal nprocs 4
|  8> end
|  9>
| 10> %scf
| 11>   MaxIter 150
| 12> end
| 13>
| 14>
| 15>                          ****END OF INPUT****

CARTESIAN COORDINATES (ANGSTROEM)
---------------------------------
  C      3.956426    0.501466   -0.379100
  H      3.168398    0.029201    0.207383
  N      3.803893    1.961572   -0.156747
  C      3.842322    0.148490   -1.854058
  H      4.923231    0.177982    0.009371
  H      4.620021    0.694502   -2.402150
  H      4.096015   -0.910930   -1.955103
  C      2.475619    0.412708   -2.485377
  H      2.174689    1.445076   -2.287971
  C      1.383931   -0.532740   -1.995203
  H      2.575613    0.318574   -3.571460
  H      1.264698   -0.412309   -0.915491
  H      1.705223   -1.566885   -2.164984
  C      0.031398   -0.317260   -2.677791
  C     -0.587292    1.060853   -2.436460
  H     -0.662815   -1.089530   -2.329985
  H      0.149465   -0.478040   -3.755648
  H      0.104376    1.828590   -2.793130
  C     -0.951213    1.334978   -0.972500
  H     -1.478832    1.161355   -3.062484
  H     -0.317007    0.741648   -0.311389
  H     -1.980916    1.012842   -0.788958
  C     -0.774550    2.788332   -0.543943
  H     -1.352609    3.459372   -1.192585
  H     -1.171014    2.902331    0.469968
  C      0.697208    3.227911   -0.525126
  O      1.489294    2.374703    0.199189
  H      0.715998    4.264030   -0.130774
  H      1.036148    3.330920   -1.583669
  H      4.206425    2.244406    0.745359
  H      2.808269    2.211323   -0.096097
  H      4.280757    2.501552   -0.891037

 Total Charge           Charge          ....    0
 Multiplicity           Mult            ....    1
 Number of Electrons    NEL             ....   90
 Basis Dimension        Dim             ....  391

ORBITAL ENERGIES
----------------

  NO   OCC          E(Eh)            E(eV)
   0   2.0000     -19.082855      -519.2709
   1   2.0000     -14.484695      -394.1486
   2   2.0000     -10.326545      -280.9996
   3   2.0000     -10.281758      -279.7809
   4   2.0000     -10.255646      -279.0703
   5   2.0000     -10.243011      -278.7265
   6   2.0000     -10.242252      -278.7058
   7   2.0000     -10.237325      -278.5718
   8   2.0000     -10.224972      -278.2356
   9   2.0000     -10.211716      -277.8749
  10   2.0000     -10.205022      -277.6928
  11   2.0000      -1.064804       -28.9748
  12   2.0000      -0.961031       -26.1510
  13   2.0000      -0.895576       -24.3699
  14   2.0000      -0.855737       -23.2858
  15   2.0000      -0.816879       -22.2284
  16   2.0000      -0.773018       -21.0349
  17   2.0000      -0.734885       -19.9972
  18   2.0000      -0.695714       -18.9313
  19   2.0000      -0.667675       -18.1684
  20   2.0000      -0.644161       -17.5285
  21   2.0000      -0.641121       -17.4458
  22   2.0000      -0.619169       -16.8485
  23   2.0000      -0.580579       -15.7984
  24   2.0000      -0.562961       -15.3190
  25   2.0000      -0.539199       -14.6723
  26   2.0000      -0.538233       -14.6461
  27   2.0000      -0.507822       -13.8185
  28   2.0000      -0.492789       -13.4095
  29   2.0000      -0.488366       -13.2891
  30   2.0000      -0.469257       -12.7691
  31   2.0000      -0.459316       -12.4986
  32   2.0000      -0.449255       -12.2249
  33   2.0000      -0.431049       -11.7294
  34   2.0000      -0.422448       -11.4954
  35   2.0000      -0.410593       -11.1728
  36   2.0000      -0.402156       -10.9432
  37   2.0000      -0.390291       -10.6204
  38   2.0000      -0.380445       -10.3524
  39   2.0000      -0.374731       -10.1969
  40   2.0000      -0.353717        -9.6251
  41   2.0000      -0.348447        -9.4817
  42   2.0000      -0.344072        -9.3627
  43   2.0000      -0.246653        -6.7118
  44   2.0000      -0.239629        -6.5206
  45   0.0000       0.019106         0.5199
  46   0.0000       0.050852         1.3837
  47   0.0000       0.055943         1.5223
  48   0.0000       0.070320         1.9135
  49   0.0000       0.084852         2.3089

MULLIKEN ATOMIC CHARGES
-----------------------
   0 C :    1.024729
   1 H :   -0.068042
   2 N :    0.127147
   3 C :    0.370535
   4 H :   -0.353016
   5 H :   -0.157263
   6 H :   -0.151269
   7 C :    0.692770
   8 H :   -0.714004
   9 C :    0.093397
  10 H :   -0.146243
  11 H :   -0.153034
  12 H :   -0.216955
  13 C :    0.729415
  14 C :    0.301209
  15 H :   -0.287656
  16 H :   -0.036811
  17 H :   -0.194811
  18 C :    0.270894
  19 H :   -0.312215
  20 H :   -0.161387
  21 H :   -0.214374
  22 C :    0.396937
  23 H :   -0.226002
  24 H :   -0.021022
  25 C :    0.591828
  26 O :   -0.636949
  27 H :   -0.430904
  28 H :   -0.013214
  29 H :    0.321021
  30 H :   -0.754292
  31 H :    0.329580
Sum of atomic charges:    0.0000000

LOEWDIN ATOMIC CHARGES
----------------------
   0 C :    0.086038
   1 H :    0.038614
   2 N :    0.318259
   3 C :   -0.018193
   4 H :    0.028344
   5 H :    0.021493
   6 H :    0.028788
   7 C :   -0.018719
   8 H :   -0.004495
   9 C :   -0.027712
  10 H :    0.029722
  11 H :    0.002520
  12 H :    0.023055
  13 C :   -0.031119
  14 C :   -0.022122
  15 H :    0.022716
  16 H :    0.018600
  17 H :   -0.006541
  18 C :   -0.026975
  19 H :    0.018429
  20 H :   -0.006964
  21 H :    0.016614
  22 C :   -0.032218
  23 H :    0.018673
  24 H :    0.020522
  25 C :   -0.078997
  26 O :   -0.387135
  27 H :    0.005628
  28 H :   -0.007881
  29 H :    0.088820
  30 H :   -0.202579
  31 H :    0.084815

  Mayer bond orders larger than 0.100000
B(  0-C ,  1-H ) :   0.7545 B(  0-C ,  2-N ) :   0.8461 B(  0-C ,  3-C ) :   1.1252
B(  0-C ,  4-H ) :   0.7788 B(  0-C ,  6-H ) :   0.1441 B(  0-C , 30-H ) :  -0.1053
B(  1-H ,  2-N ) :   0.1374 B(  1-H ,  3-C ) :   0.1196 B(  1-H ,  4-H ) :  -0.1569
B(  2-N , 10-H ) :  -0.1071 B(  2-N , 29-H ) :   0.8000 B(  2-N , 30-H ) :   1.4160
B(  2-N , 31-H ) :   0.7955 B(  3-C ,  4-H ) :   0.1177 B(  3-C ,  5-H ) :   0.6995
B(  3-C ,  6-H ) :   0.8535 B(  3-C ,  7-C ) :   1.1493 B(  3-C ,  8-H ) :   0.1051
B(  5-H ,  6-H ) :  -0.1122 B(  5-H ,  7-C ) :   0.2680 B(  7-C ,  8-H ) :   0.5778
B(  7-C ,  9-C ) :   1.1349 B(  7-C , 10-H ) :   0.6083 B(  7-C , 11-H ) :   0.1331
B(  7-C , 12-H ) :   0.1588 B(  8-H ,  9-C ) :   0.2777 B(  8-H , 10-H ) :   0.1408
B(  9-C , 10-H ) :   0.1677 B(  9-C , 11-H ) :   0.8278 B(  9-C , 12-H ) :   0.8179
B(  9-C , 13-C ) :   1.1645 B(  9-C , 14-C ) :   0.1253 B(  9-C , 15-H ) :   0.3235
B(  9-C , 16-H ) :   0.1385 B( 11-H , 20-H ) :   0.1513 B( 13-C , 14-C ) :   1.1703
B( 13-C , 15-H ) :   0.6504 B( 13-C , 16-H ) :   0.6414 B( 13-C , 17-H ) :   0.1145
B( 14-C , 16-H ) :   0.2499 B( 14-C , 17-H ) :   0.8227 B( 14-C , 18-C ) :   1.1720
B( 14-C , 19-H ) :   0.7631 B( 14-C , 20-H ) :   0.1192 B( 14-C , 21-H ) :   0.2407
B( 15-H , 16-H ) :  -0.1570 B( 17-H , 18-C ) :   0.1369 B( 18-C , 19-H ) :   0.2120
B( 18-C , 20-H ) :   0.7939 B( 18-C , 21-H ) :   0.7340 B( 18-C , 22-C ) :   1.2269
B( 18-C , 23-H ) :   0.1156 B( 18-C , 24-H ) :   0.2479 B( 18-C , 25-C ) :   0.1178
B( 20-H , 22-C ) :   0.1543 B( 21-H , 22-C ) :   0.1142 B( 22-C , 23-H ) :   0.7922
B( 22-C , 24-H ) :   0.6336 B( 22-C , 25-C ) :   1.1550 B( 22-C , 27-H ) :   0.1019
B( 22-C , 28-H ) :   0.1102 B( 23-H , 25-C ) :   0.1885 B( 24-H , 25-C ) :   0.1320
B( 25-C , 26-O ) :   1.0190 B( 25-C , 27-H ) :   0.9665 B( 25-C , 28-H ) :   0.7762
B( 26-O , 30-H ) :   0.4802 B( 30-H , 31-H ) :  -0.1100

FINAL SINGLE POINT ENERGY      -484.950254024988

DIPOLE MOMENT
-------------
                                X             Y             Z
Electronic contribution:      2.12241       0.91412       2.52783
Nuclear contribution   :      0.61785      -1.47632      -2.91844
                        -----------------------------------------
Total Dipole Moment    :      2.74026      -0.56221      -0.39061
                        -----------------------------------------
Magnitude (a.u.)       :      2.82448
Magnitude (Debye)      :      7.17925

Rotational constants in cm-1:     0.040993     0.027400     0.018162
Rotational constants in MHz :  1228.944366   821.418004   544.476857

                             ****ORCA TERMINATED NORMALLY****
TOTAL RUN TIME: 0 days 0 hours 3 minutes 45 seconds 215 msec
