                         Program Version 5.0.0 -  RELEASE  -
|  1> !CAM-B3LYP RIJCOSX def2-SVPD def2/J TightSCF
|  2> *xyz 0 1
|  3> C         -0.77455        2.78833       -0.54394
|  4> C          0.69721        3.22791       -0.52513
|  5> F          1.48929        2.37470        0.19919
|  6> H          0.71600        4.26403       -0.13077
|  7> H          1.03615        3.33092       -1.58367
|  8> H         -1.34746        3.48478       -1.11982
|  9> H         -1.15078        2.75876        0.45729
| 10> H         -0.85058        1.81526       -0.98241
| 11> *
| 12>
| 13> %MaxCore 64000
| 14> %pal nprocs 4
| 15> end
| 16>
| 17> %scf
| 18>   MaxIter 150
| 19> end
| 20>
| 21>
| 22>                          ****END OF INPUT****

CARTESIAN COORDINATES (ANGSTROEM)
---------------------------------
  C     -0.774550    2.788330   -0.543940
  C      0.697210    3.227910   -0.525130
  F      1.489290    2.374700    0.199190
  H      0.716000    4.264030   -0.130770
  H      1.036150    3.330920   -1.583670
  H     -1.347460    3.484780   -1.119820
  H     -1.150780    2.758760    0.457290
  H     -0.850580    1.815260   -0.982410

 Total Charge           Charge          ....    0
 Multiplicity           Mult            ....    1
 Number of Electrons    NEL             ....   26
 Basis Dimension        Dim             ....  103

ORBITAL ENERGIES
----------------

  NO   OCC          E(Eh)            E(eV)
   0   2.0000     -24.763111      -673.8385
   1   2.0000     -10.342371      -281.4302
   2   2.0000     -10.256901      -279.1045
   3   2.0000      -1.266472       -34.4625
   4   2.0000      -0.842587       -22.9280
   5   2.0000      -0.706140       -19.2151
   6   2.0000      -0.585048       -15.9200
   7   2.0000      -0.572180       -15.5698
   8   2.0000      -0.534370       -14.5409
   9   2.0000      -0.477625       -12.9968
  10   2.0000      -0.471017       -12.8170
  11   2.0000      -0.407994       -11.1021
  12   2.0000      -0.400471       -10.8974
  13   0.0000       0.051472         1.4006
  14   0.0000       0.082304         2.2396
  15   0.0000       0.109312         2.9745
  16   0.0000       0.114205         3.1077
  17   0.0000       0.142419         3.8754

MULLIKEN ATOMIC CHARGES
-----------------------
   0 C :    0.531581
   1 C :    0.508136
   2 F :   -0.437914
   3 H :   -0.125993
   4 H :   -0.113120
   5 H :   -0.105298
   6 H :   -0.127696
   7 H :   -0.129696
Sum of atomic charges:   -0.0000000

LOEWDIN ATOMIC CHARGES
----------------------
   0 C :    0.135853
   1 C :    0.059456
   2 F :   -0.217040
   3 H :    0.029670
   4 H :    0.034615
   5 H :   -0.013448
   6 H :   -0.014306
   7 H :   -0.014801

  Mayer bond orders larger than 0.100000
B(  0-C ,  1-C ) :   1.3169 B(  0-C ,  5-H ) :   0.8309 B(  0-C ,  6-H ) :   0.8573
B(  0-C ,  7-H ) :   0.8609 B(  1-C ,  2-F ) :   0.7685 B(  1-C ,  3-H ) :   0.9214
B(  1-C ,  4-H ) :   0.9269 B(  1-C ,  5-H ) :   0.1315 B(  1-C ,  6-H ) :   0.1534
B(  1-C ,  7-H ) :   0.1512

FINAL SINGLE POINT ENERGY      -178.862188588226

DIPOLE MOMENT
-------------
                                X             Y             Z
Electronic contribution:      4.38658      -1.62528       1.97642
Nuclear contribution   :     -4.89513       2.05627      -2.36166
                        -----------------------------------------
Total Dipole Moment    :     -0.50856       0.43099      -0.38525
                        -----------------------------------------
Magnitude (a.u.)       :      0.76993
Magnitude (Debye)      :      1.95701

Rotational constants in cm-1:     1.247826     0.304622     0.269019
Rotational constants in MHz : 37408.889506  9132.346906  8064.979146

                             ****ORCA TERMINATED NORMALLY****
TOTAL RUN TIME: 0 days 0 hours 0 minutes 12 seconds 464 msec
