                         Program Version 5.0.0 -  RELEASE  -
|  1> !CAM-B3LYP RIJCOSX def2-SVPD def2/J TightSCF
|  2> *xyz 0 1
|  3> C          3.95643        0.50147       -0.37910
|  4> H          3.16840        0.02920        0.20738
|  5> C          3.80389        1.96157       -0.15675
|  6> C          3.84232        0.14849       -1.85406
|  7> H          4.92323        0.17798        0.00937
|  8> H          4.20643        2.24441        0.74536
|  9> H          2.80827        2.21132       -0.09610
| 10> H          4.28076        2.50155       -0.89104
| 11> H          4.62951        0.62800       -2.39748
| 12> H          2.89665        0.48102       -2.22825
| 13> H          3.92053       -0.91187       -1.97413
| 14> *
| 15>
| 16> %MaxCore 64000
| 17> %pal nprocs 4
| 18> end
| 19>
| 20> %scf
| 21>   MaxIter 150
| 22> end
| 23>
| 24>
| 25>                          ****END OF INPUT****

CARTESIAN COORDINATES (ANGSTROEM)
---------------------------------
  C      3.956430    0.501470   -0.379100
  H      3.168400    0.029200    0.207380
  C      3.803890    1.961570   -0.156750
  C      3.842320    0.148490   -1.854060
  H      4.923230    0.177980    0.009370
  H      4.206430    2.244410    0.745360
  H      2.808270    2.211320   -0.096100
  H      4.280760    2.501550   -0.891040
  H      4.629510    0.628000   -2.397480
  H      2.896650    0.481020   -2.228250
  H      3.920530   -0.911870   -1.974130

 Total Charge           Charge          ....    0
 Multiplicity           Mult            ....    1
 Number of Electrons    NEL             ....   26
 Basis Dimension        Dim             ....  124

ORBITAL ENERGIES
----------------

  NO   OCC          E(Eh)            E(eV)
   0   2.0000     -10.244664      -278.7715
   1   2.0000     -10.237076      -278.5650
   2   2.0000     -10.220167      -278.1049
   3   2.0000      -0.869792       -23.6683
   4   2.0000      -0.764811       -20.8116
   5   2.0000      -0.657320       -17.8866
   6   2.0000      -0.541352       -14.7309
   7   2.0000      -0.516720       -14.0607
   8   2.0000      -0.470589       -12.8054
   9   2.0000      -0.458707       -12.4821
  10   2.0000      -0.403212       -10.9720
  11   2.0000      -0.400537       -10.8992
  12   2.0000      -0.390514       -10.6264
  13   0.0000       0.056506         1.5376
  14   0.0000       0.083533         2.2730
  15   0.0000       0.090589         2.4651
  16   0.0000       0.117294         3.1917
  17   0.0000       0.137051         3.7293

MULLIKEN ATOMIC CHARGES
-----------------------
   0 C :   -0.417739
   1 H :   -0.161015
   2 C :    1.111351
   3 C :    0.808074
   4 H :   -0.172726
   5 H :   -0.262139
   6 H :   -0.228577
   7 H :   -0.289348
   8 H :   -0.097935
   9 H :   -0.122410
  10 H :   -0.167535
Sum of atomic charges:    0.0000000

LOEWDIN ATOMIC CHARGES
----------------------
   0 C :   -0.118669
   1 H :    0.020870
   2 C :    0.111567
   3 C :    0.113976
   4 H :    0.020979
   5 H :   -0.034769
   6 H :   -0.028502
   7 H :   -0.031053
   8 H :   -0.017031
   9 H :   -0.015065
  10 H :   -0.022302

  Mayer bond orders larger than 0.100000
B(  0-C ,  1-H ) :   0.9059 B(  0-C ,  2-C ) :   1.2758 B(  0-C ,  3-C ) :   1.2586
B(  0-C ,  4-H ) :   0.9103 B(  0-C ,  5-H ) :   0.2312 B(  0-C ,  6-H ) :   0.2749
B(  0-C ,  7-H ) :   0.2055 B(  0-C ,  8-H ) :   0.1716 B(  0-C ,  9-H ) :   0.1972
B(  0-C , 10-H ) :   0.2075 B(  1-H ,  2-C ) :   0.1335 B(  2-C ,  5-H ) :   0.6402
B(  2-C ,  6-H ) :   0.6166 B(  2-C ,  7-H ) :   0.6764 B(  3-C ,  8-H ) :   0.8015
B(  3-C ,  9-H ) :   0.7972 B(  3-C , 10-H ) :   0.7844

FINAL SINGLE POINT ENERGY      -118.963787505684

DIPOLE MOMENT
-------------
                                X             Y             Z
Electronic contribution:      0.08101      -0.29703       0.23468
Nuclear contribution   :     -0.08172       0.30475      -0.19303
                        -----------------------------------------
Total Dipole Moment    :     -0.00071       0.00772       0.04165
                        -----------------------------------------
Magnitude (a.u.)       :      0.04237
Magnitude (Debye)      :      0.10769

Rotational constants in cm-1:     1.020248     0.295755     0.261591
Rotational constants in MHz : 30586.266829  8866.511639  7842.297953

                             ****ORCA TERMINATED NORMALLY****
TOTAL RUN TIME: 0 days 0 hours 0 minutes 15 seconds 805 msec
