                         Program Version 5.0.0 -  RELEASE  -
|  1> !CAM-B3LYP RIJCOSX def2-SVPD def2/J TightSCF xyzfile
|  2>
|  3> *xyzfile 0 1 D.xyz
|  4>
|  5> %MaxCore 64000
|  6>
|  7> %pal nprocs 4
|  8> end
|  9>
| 10> %scf
| 11>   MaxIter 150
| 12> end
| 13>
| 14>
| 15>                          ****END OF INPUT****

CARTESIAN COORDINATES (ANGSTROEM)
---------------------------------
  C      3.956426    0.501466   -0.379100
  H      3.168398    0.029201    0.207383
  C      3.803893    1.961572   -0.156747
  C      3.842322    0.148490   -1.854058
  H      4.923231    0.177982    0.009371
  H      4.620021    0.694502   -2.402150
  H      4.096015   -0.910930   -1.955103
  C      2.475619    0.412708   -2.485377
  H      2.174689    1.445076   -2.287971
  C      1.383931   -0.532740   -1.995203
  H      2.575613    0.318574   -3.571460
  H      1.264698   -0.412309   -0.915491
  H      1.705223   -1.566885   -2.164984
  C      0.031398   -0.317260   -2.677791
  C     -0.587292    1.060853   -2.436460
  H     -0.662815   -1.089530   -2.329985
  H      0.149465   -0.478040   -3.755648
  H      0.104376    1.828590   -2.793130
  C     -0.951213    1.334978   -0.972500
  H     -1.478832    1.161355   -3.062484
  H     -0.317007    0.741648   -0.311389
  H     -1.980916    1.012842   -0.788958
  C     -0.774550    2.788332   -0.543943
  H     -1.352609    3.459372   -1.192585
  H     -1.171014    2.902331    0.469968
  C      0.697208    3.227911   -0.525126
  F      1.489294    2.374703    0.199189
  H      0.715998    4.264030   -0.130774
  H      1.036148    3.330920   -1.583669
  H      4.206425    2.244406    0.745359
  H      2.808269    2.211323   -0.096097
  H      4.280757    2.501552   -0.891037

 Total Charge           Charge          ....    0
 Multiplicity           Mult            ....    1
 Number of Electrons    NEL             ....   90
 Basis Dimension        Dim             ....  391

ORBITAL ENERGIES
----------------

  NO   OCC          E(Eh)            E(eV)
   0   2.0000     -24.783173      -674.3844
   1   2.0000     -10.349650      -281.6283
   2   2.0000     -10.270265      -279.4681
   3   2.0000     -10.255894      -279.0771
   4   2.0000     -10.252419      -278.9825
   5   2.0000     -10.248945      -278.8880
   6   2.0000     -10.243051      -278.7276
   7   2.0000     -10.241073      -278.6738
   8   2.0000     -10.234781      -278.5026
   9   2.0000     -10.224279      -278.2168
  10   2.0000     -10.171826      -276.7895
  11   2.0000      -1.300082       -35.3770
  12   2.0000      -0.899265       -24.4702
  13   2.0000      -0.879098       -23.9215
  14   2.0000      -0.845117       -22.9968
  15   2.0000      -0.813622       -22.1398
  16   2.0000      -0.764834       -20.8122
  17   2.0000      -0.739507       -20.1230
  18   2.0000      -0.697427       -18.9779
  19   2.0000      -0.674492       -18.3539
  20   2.0000      -0.637171       -17.3383
  21   2.0000      -0.627243       -17.0682
  22   2.0000      -0.601571       -16.3696
  23   2.0000      -0.591528       -16.0963
  24   2.0000      -0.569999       -15.5105
  25   2.0000      -0.541852       -14.7445
  26   2.0000      -0.530808       -14.4440
  27   2.0000      -0.520034       -14.1508
  28   2.0000      -0.499876       -13.6023
  29   2.0000      -0.497442       -13.5361
  30   2.0000      -0.479507       -13.0481
  31   2.0000      -0.462295       -12.5797
  32   2.0000      -0.454834       -12.3767
  33   2.0000      -0.442075       -12.0295
  34   2.0000      -0.433222       -11.7886
  35   2.0000      -0.423094       -11.5130
  36   2.0000      -0.414957       -11.2915
  37   2.0000      -0.408871       -11.1259
  38   2.0000      -0.389727       -10.6050
  39   2.0000      -0.384705       -10.4684
  40   2.0000      -0.378195       -10.2912
  41   2.0000      -0.377127       -10.2621
  42   2.0000      -0.361592        -9.8394
  43   2.0000      -0.360181        -9.8010
  44   2.0000      -0.338227        -9.2036
  45   0.0000       0.049099         1.3360
  46   0.0000       0.058400         1.5891
  47   0.0000       0.064618         1.7583
  48   0.0000       0.070014         1.9052
  49   0.0000       0.083632         2.2757

MULLIKEN ATOMIC CHARGES
-----------------------
   0 C :    0.105538
   1 H :   -0.037996
   2 C :    3.219535
   3 C :    0.457257
   4 H :   -0.433309
   5 H :   -0.084905
   6 H :   -0.138396
   7 C :    0.587158
   8 H :   -0.711578
   9 C :    0.141696
  10 H :   -0.115331
  11 H :   -0.181453
  12 H :   -0.236871
  13 C :    0.718385
  14 C :    0.344692
  15 H :   -0.296966
  16 H :   -0.025089
  17 H :   -0.232009
  18 C :    0.282231
  19 H :   -0.307131
  20 H :   -0.148751
  21 H :   -0.209485
  22 C :    0.360266
  23 H :   -0.183085
  24 H :   -0.052142
  25 C :    0.792033
  26 F :   -0.527361
  27 H :   -0.316766
  28 H :    0.053614
  29 H :    0.034153
  30 H :   -2.667850
  31 H :   -0.190081
Sum of atomic charges:   -0.0000000

LOEWDIN ATOMIC CHARGES
----------------------
   0 C :   -0.052710
   1 H :    0.013823
   2 C :    0.136567
   3 C :   -0.035573
   4 H :    0.018447
   5 H :    0.022988
   6 H :    0.016186
   7 C :   -0.022261
   8 H :   -0.009298
   9 C :   -0.028934
  10 H :    0.026384
  11 H :   -0.000724
  12 H :    0.027301
  13 C :   -0.030601
  14 C :   -0.021557
  15 H :    0.022739
  16 H :    0.022639
  17 H :   -0.005559
  18 C :   -0.020553
  19 H :    0.021618
  20 H :    0.001762
  21 H :    0.025788
  22 C :   -0.012445
  23 H :    0.035619
  24 H :    0.027160
  25 C :    0.153633
  26 F :   -0.177785
  27 H :    0.041532
  28 H :    0.031839
  29 H :   -0.024870
  30 H :   -0.177852
  31 H :   -0.025302

  Mayer bond orders larger than 0.100000
B(  0-C ,  1-H ) :   0.7694 B(  0-C ,  2-C ) :   0.5006 B(  0-C ,  3-C ) :   1.1416
B(  0-C ,  4-H ) :   0.9191 B(  0-C ,  5-H ) :   0.1229 B(  0-C ,  6-H ) :   0.1814
B(  0-C , 29-H ) :   0.1765 B(  0-C , 30-H ) :   0.9351 B(  0-C , 31-H ) :   0.3820
B(  1-H ,  2-C ) :   0.3516 B(  1-H ,  3-C ) :   0.1831 B(  1-H ,  4-H ) :  -0.2189
B(  1-H , 30-H ) :  -0.1960 B(  1-H , 31-H ) :  -0.1167 B(  2-C ,  4-H ) :  -0.2324
B(  2-C , 26-F ) :  -0.3202 B(  2-C , 29-H ) :   0.6512 B(  2-C , 30-H ) :  -5.3178
B(  2-C , 31-H ) :  -0.3127 B(  3-C ,  5-H ) :   0.6545 B(  3-C ,  6-H ) :   0.8230
B(  3-C ,  7-C ) :   1.1844 B(  3-C ,  8-H ) :   0.1295 B(  4-H , 29-H ) :  -0.1703
B(  4-H , 30-H ) :   0.1940 B(  4-H , 31-H ) :   0.3003 B(  5-H ,  6-H ) :  -0.1613
B(  5-H ,  7-C ) :   0.3010 B(  5-H , 31-H ) :   0.1497 B(  6-H , 31-H ) :  -0.1813
B(  7-C ,  8-H ) :   0.6013 B(  7-C ,  9-C ) :   1.1561 B(  7-C , 10-H ) :   0.6068
B(  7-C , 11-H ) :   0.1190 B(  7-C , 12-H ) :   0.1601 B(  8-H ,  9-C ) :   0.2165
B(  8-H , 10-H ) :   0.1250 B(  8-H , 30-H ) :   0.1141 B(  9-C , 10-H ) :   0.1860
B(  9-C , 11-H ) :   0.8393 B(  9-C , 12-H ) :   0.8360 B(  9-C , 13-C ) :   1.1596
B(  9-C , 14-C ) :   0.1175 B(  9-C , 15-H ) :   0.3223 B(  9-C , 16-H ) :   0.1479
B( 11-H , 20-H ) :   0.1393 B( 13-C , 14-C ) :   1.1802 B( 13-C , 15-H ) :   0.6617
B( 13-C , 16-H ) :   0.6352 B( 13-C , 17-H ) :   0.1239 B( 13-C , 19-H ) :   0.1034
B( 14-C , 16-H ) :   0.2496 B( 14-C , 17-H ) :   0.8042 B( 14-C , 18-C ) :   1.1688
B( 14-C , 19-H ) :   0.7525 B( 14-C , 20-H ) :   0.1156 B( 14-C , 21-H ) :   0.2388
B( 15-H , 16-H ) :  -0.1592 B( 17-H , 18-C ) :   0.1308 B( 18-C , 19-H ) :   0.2017
B( 18-C , 20-H ) :   0.7927 B( 18-C , 21-H ) :   0.7823 B( 18-C , 22-C ) :   1.2060
B( 18-C , 24-H ) :   0.2403 B( 18-C , 25-C ) :   0.1122 B( 20-H , 22-C ) :   0.1388
B( 22-C , 23-H ) :   0.7888 B( 22-C , 24-H ) :   0.6504 B( 22-C , 25-C ) :   1.2575
B( 22-C , 27-H ) :   0.1241 B( 22-C , 28-H ) :   0.1038 B( 23-H , 25-C ) :   0.1740
B( 24-H , 25-C ) :   0.1316 B( 25-C , 26-F ) :   0.5870 B( 25-C , 27-H ) :   0.8976
B( 25-C , 28-H ) :   0.7644 B( 25-C , 30-H ) :   0.2214 B( 26-F , 27-H ) :  -0.1161
B( 26-F , 30-H ) :   0.5053 B( 29-H , 30-H ) :   0.1761 B( 29-H , 31-H ) :  -0.2615
B( 30-H , 31-H ) :   0.9772

FINAL SINGLE POINT ENERGY      -492.900450800860

DIPOLE MOMENT
-------------
                                X             Y             Z
Electronic contribution:     -1.98335       3.30401       4.26128
Nuclear contribution   :      1.09293      -2.80761      -4.51228
                        -----------------------------------------
Total Dipole Moment    :     -0.89042       0.49639      -0.25100
                        -----------------------------------------
Magnitude (a.u.)       :      1.04989
Magnitude (Debye)      :      2.66860

Rotational constants in cm-1:     0.040502     0.027818     0.018259
Rotational constants in MHz :  1214.218058   833.972871   547.398614

                             ****ORCA TERMINATED NORMALLY****
TOTAL RUN TIME: 0 days 0 hours 3 minutes 14 seconds 181 msec
