                         Program Version 5.0.0 -  RELEASE  -
|  1> !CAM-B3LYP RIJCOSX def2-TZVP def2/J TightSCF
|  2> *xyz -1 1
|  3> C         -7.33044       -2.67899       -3.20681
|  4> S         -6.01966       -2.92697       -4.41913
|  5> O         -5.64583       -1.58838       -4.91931
|  6> O         -4.88196       -3.50370       -3.66724
|  7> O         -6.54927       -3.80515       -5.42507
|  8> C         -7.46900       -1.24615       -2.71383
|  9> H         -7.11825       -3.37982       -2.39805
| 10> H         -8.24184       -3.00474       -3.70651
| 11> H         -7.67580       -0.60214       -3.54292
| 12> H         -6.55749       -0.94096       -2.24382
| 13> H         -8.27114       -1.18777       -2.00810
| 14> *
| 15> %MaxCore 64000
| 16>
| 17> %pal nprocs 4
| 18> end
| 19>
| 20> %scf
| 21>   MaxIter 150
| 22> end
| 23>
| 24>
| 25>                          ****END OF INPUT****

CARTESIAN COORDINATES (ANGSTROEM)
---------------------------------
  C     -7.330440   -2.678990   -3.206810
  S     -6.019660   -2.926970   -4.419130
  O     -5.645830   -1.588380   -4.919310
  O     -4.881960   -3.503700   -3.667240
  O     -6.549270   -3.805150   -5.425070
  C     -7.469000   -1.246150   -2.713830
  H     -7.118250   -3.379820   -2.398050
  H     -8.241840   -3.004740   -3.706510
  H     -7.675800   -0.602140   -3.542920
  H     -6.557490   -0.940960   -2.243820
  H     -8.271140   -1.187770   -2.008100

 Total Charge           Charge          ....   -1
 Multiplicity           Mult            ....    1
 Number of Electrons    NEL             ....   58
 Basis Dimension        Dim             ....  222

ORBITAL ENERGIES
----------------

  NO   OCC          E(Eh)            E(eV)
   0   2.0000     -88.911536     -2419.4059
   1   2.0000     -18.973237      -516.2880
   2   2.0000     -18.962118      -515.9855
   3   2.0000     -18.958046      -515.8747
   4   2.0000     -10.104701      -274.9629
   5   2.0000     -10.097487      -274.7666
   6   2.0000      -7.954653      -216.4571
   7   2.0000      -5.919193      -161.0694
   8   2.0000      -5.918117      -161.0402
   9   2.0000      -5.917888      -161.0339
  10   2.0000      -0.997841       -27.1526
  11   2.0000      -0.863957       -23.5095
  12   2.0000      -0.841339       -22.8940
  13   2.0000      -0.716161       -19.4877
  14   2.0000      -0.585221       -15.9247
  15   2.0000      -0.452683       -12.3181
  16   2.0000      -0.390303       -10.6207
  17   2.0000      -0.381344       -10.3769
  18   2.0000      -0.340582        -9.2677
  19   2.0000      -0.321589        -8.7509
  20   2.0000      -0.319603        -8.6969
  21   2.0000      -0.292472        -7.9586
  22   2.0000      -0.284302        -7.7363
  23   2.0000      -0.211266        -5.7488
  24   2.0000      -0.209951        -5.7131
  25   2.0000      -0.174027        -4.7355
  26   2.0000      -0.167137        -4.5480
  27   2.0000      -0.158457        -4.3118
  28   2.0000      -0.121222        -3.2986
  29   0.0000       0.207709         5.6520
  30   0.0000       0.253905         6.9091
  31   0.0000       0.267024         7.2661
  32   0.0000       0.273180         7.4336
  33   0.0000       0.299446         8.1484

MULLIKEN ATOMIC CHARGES
-----------------------
   0 C :   -0.247118
   1 S :    0.833938
   2 O :   -0.588015
   3 O :   -0.596409
   4 O :   -0.548496
   5 C :   -0.316866
   6 H :    0.091902
   7 H :    0.087298
   8 H :    0.113175
   9 H :    0.106934
  10 H :    0.063658
Sum of atomic charges:   -1.0000000

LOEWDIN ATOMIC CHARGES
----------------------
   0 C :   -0.424718
   1 S :    0.440714
   2 O :   -0.420174
   3 O :   -0.437609
   4 O :   -0.378920
   5 C :   -0.344068
   6 H :    0.119281
   7 H :    0.117039
   8 H :    0.115070
   9 H :    0.115381
  10 H :    0.098004

  Mayer bond orders larger than 0.100000
B(  0-C ,  1-S ) :   0.8812 B(  0-C ,  5-C ) :   0.9431 B(  0-C ,  6-H ) :   0.9668
B(  0-C ,  7-H ) :   0.9622 B(  1-S ,  2-O ) :   1.7498 B(  1-S ,  3-O ) :   1.7669
B(  1-S ,  4-O ) :   1.8266 B(  5-C ,  8-H ) :   0.9771 B(  5-C ,  9-H ) :   0.9798
B(  5-C , 10-H ) :   0.9636

FINAL SINGLE POINT ENERGY      -703.197127889316

DIPOLE MOMENT
-------------
                                X             Y             Z
Electronic contribution:      4.68554      -3.52656      -5.10627
Nuclear contribution   :     -6.18165       4.01759       6.33106
                        -----------------------------------------
Total Dipole Moment    :     -1.49611       0.49103       1.22479
                        -----------------------------------------
Magnitude (a.u.)       :      1.99489
Magnitude (Debye)      :      5.07061

Rotational constants in cm-1:     0.161711     0.082788     0.081165
Rotational constants in MHz :  4847.971521  2481.906910  2433.276832

                             ****ORCA TERMINATED NORMALLY****
TOTAL RUN TIME: 0 days 0 hours 0 minutes 38 seconds 500 msec
