                         Program Version 5.0.0 -  RELEASE  -
|  1> !CAM-B3LYP RIJCOSX def2-TZVP def2/J TightSCF
|  2> *xyz 1 1
|  3> C         -2.16038       -1.36949       -3.46710
|  4> N         -3.03011       -1.91086       -4.54107
|  5> C         -2.04772        0.14658       -3.51177
|  6> H         -3.47744       -2.79151       -4.25710
|  7> H         -2.53801       -2.01786       -5.43808
|  8> H         -3.89159       -1.37604       -4.71437
|  9> H         -1.18444       -1.84400       -3.56639
| 10> H         -2.59819       -1.70838       -2.52848
| 11> H         -1.61525        0.44478       -4.44395
| 12> H         -1.42718        0.48198       -2.70720
| 13> H         -3.02145        0.57958       -3.41560
| 14> *
| 15> %MaxCore 64000
| 16>
| 17> %pal nprocs 4
| 18> end
| 19>
| 20> %scf
| 21>   MaxIter 150
| 22> end
| 23>
| 24>
| 25>                          ****END OF INPUT****

CARTESIAN COORDINATES (ANGSTROEM)
---------------------------------
  C     -2.160380   -1.369490   -3.467100
  N     -3.030110   -1.910860   -4.541070
  C     -2.047720    0.146580   -3.511770
  H     -3.477440   -2.791510   -4.257100
  H     -2.538010   -2.017860   -5.438080
  H     -3.891590   -1.376040   -4.714370
  H     -1.184440   -1.844000   -3.566390
  H     -2.598190   -1.708380   -2.528480
  H     -1.615250    0.444780   -4.443950
  H     -1.427180    0.481980   -2.707200
  H     -3.021450    0.579580   -3.415600

 Total Charge           Charge          ....    1
 Multiplicity           Mult            ....    1
 Number of Electrons    NEL             ....   26
 Basis Dimension        Dim             ....  141

ORBITAL ENERGIES
----------------

  NO   OCC          E(Eh)            E(eV)
   0   2.0000     -14.725108      -400.6906
   1   2.0000     -10.498047      -285.6664
   2   2.0000     -10.415899      -283.4310
   3   2.0000      -1.301355       -35.4117
   4   2.0000      -1.049771       -28.5657
   5   2.0000      -0.925280       -25.1782
   6   2.0000      -0.882580       -24.0162
   7   2.0000      -0.842209       -22.9177
   8   2.0000      -0.770582       -20.9686
   9   2.0000      -0.713152       -19.4059
  10   2.0000      -0.649230       -17.6665
  11   2.0000      -0.634346       -17.2614
  12   2.0000      -0.616275       -16.7697
  13   0.0000      -0.159135        -4.3303
  14   0.0000      -0.096398        -2.6231
  15   0.0000      -0.093673        -2.5490
  16   0.0000      -0.073614        -2.0031
  17   0.0000      -0.034856        -0.9485

MULLIKEN ATOMIC CHARGES
-----------------------
   0 C :   -0.191522
   1 N :   -0.293929
   2 C :   -0.354749
   3 H :    0.327960
   4 H :    0.333436
   5 H :    0.318568
   6 H :    0.194735
   7 H :    0.184587
   8 H :    0.150510
   9 H :    0.180805
  10 H :    0.149599
Sum of atomic charges:    1.0000000

LOEWDIN ATOMIC CHARGES
----------------------
   0 C :   -0.276590
   1 N :    0.166981
   2 C :   -0.276405
   3 H :    0.225023
   4 H :    0.224646
   5 H :    0.221527
   6 H :    0.154259
   7 H :    0.152204
   8 H :    0.131018
   9 H :    0.147594
  10 H :    0.129743

  Mayer bond orders larger than 0.100000
B(  0-C ,  1-N ) :   0.8343 B(  0-C ,  2-C ) :   0.9708 B(  0-C ,  6-H ) :   0.9586
B(  0-C ,  7-H ) :   0.9578 B(  1-N ,  3-H ) :   0.8838 B(  1-N ,  4-H ) :   0.8756
B(  1-N ,  5-H ) :   0.8800 B(  2-C ,  8-H ) :   0.9601 B(  2-C ,  9-H ) :   0.9616
B(  2-C , 10-H ) :   0.9614

FINAL SINGLE POINT ENERGY      -135.503786005276

DIPOLE MOMENT
-------------
                                X             Y             Z
Electronic contribution:     -0.65690      -1.50364      -0.78001
Nuclear contribution   :     -0.15215       0.37393      -0.04773
                        -----------------------------------------
Total Dipole Moment    :     -0.80904      -1.12971      -0.82774
                        -----------------------------------------
Magnitude (a.u.)       :      1.61739
Magnitude (Debye)      :      4.11108

Rotational constants in cm-1:     1.020762     0.277172     0.247319
Rotational constants in MHz : 30601.664035  8309.399682  7414.438136

                             ****ORCA TERMINATED NORMALLY****
TOTAL RUN TIME: 0 days 0 hours 0 minutes 16 seconds 504 msec
