                         Program Version 5.0.0 -  RELEASE  -
|  1> !CAM-B3LYP RIJCOSX def2-TZVP def2/J TightSCF
|  2> *xyz 0 1
|  3> C         -7.33044       -2.67899       -3.20681
|  4> S         -6.01966       -2.92697       -4.41913
|  5> F         -5.64583       -1.58838       -4.91931
|  6> O         -4.88196       -3.50370       -3.66724
|  7> O         -6.54927       -3.80515       -5.42507
|  8> C         -7.46900       -1.24615       -2.71383
|  9> H         -7.11825       -3.37982       -2.39805
| 10> H         -8.24184       -3.00474       -3.70651
| 11> H         -7.67580       -0.60214       -3.54292
| 12> H         -6.55749       -0.94096       -2.24382
| 13> H         -8.27114       -1.18777       -2.00810
| 14> *
| 15> %MaxCore 64000
| 16>
| 17> %pal nprocs 4
| 18> end
| 19>
| 20> %scf
| 21>   MaxIter 150
| 22> end
| 23>
| 24>
| 25>                          ****END OF INPUT****

CARTESIAN COORDINATES (ANGSTROEM)
---------------------------------
  C     -7.330440   -2.678990   -3.206810
  S     -6.019660   -2.926970   -4.419130
  F     -5.645830   -1.588380   -4.919310
  O     -4.881960   -3.503700   -3.667240
  O     -6.549270   -3.805150   -5.425070
  C     -7.469000   -1.246150   -2.713830
  H     -7.118250   -3.379820   -2.398050
  H     -8.241840   -3.004740   -3.706510
  H     -7.675800   -0.602140   -3.542920
  H     -6.557490   -0.940960   -2.243820
  H     -8.271140   -1.187770   -2.008100

 Total Charge           Charge          ....    0
 Multiplicity           Mult            ....    1
 Number of Electrons    NEL             ....   58
 Basis Dimension        Dim             ....  222

ORBITAL ENERGIES
----------------

  NO   OCC          E(Eh)            E(eV)
   0   2.0000     -89.177139     -2426.6333
   1   2.0000     -24.863047      -676.5579
   2   2.0000     -19.214129      -522.8430
   3   2.0000     -19.198971      -522.4305
   4   2.0000     -10.309309      -280.5306
   5   2.0000     -10.271067      -279.4899
   6   2.0000      -8.220911      -223.7024
   7   2.0000      -6.188922      -168.4091
   8   2.0000      -6.182160      -168.2251
   9   2.0000      -6.181944      -168.2193
  10   2.0000      -1.441119       -39.2148
  11   2.0000      -1.191381       -32.4191
  12   2.0000      -1.090222       -29.6664
  13   2.0000      -0.914268       -24.8785
  14   2.0000      -0.804377       -21.8882
  15   2.0000      -0.755904       -20.5692
  16   2.0000      -0.663565       -18.0565
  17   2.0000      -0.644752       -17.5446
  18   2.0000      -0.616788       -16.7836
  19   2.0000      -0.572987       -15.5918
  20   2.0000      -0.545914       -14.8551
  21   2.0000      -0.520724       -14.1696
  22   2.0000      -0.513555       -13.9745
  23   2.0000      -0.484729       -13.1901
  24   2.0000      -0.467440       -12.7197
  25   2.0000      -0.454888       -12.3781
  26   2.0000      -0.402844       -10.9619
  27   2.0000      -0.389586       -10.6012
  28   2.0000      -0.377323       -10.2675
  29   0.0000       0.043544         1.1849
  30   0.0000       0.088843         2.4175
  31   0.0000       0.102003         2.7757
  32   0.0000       0.106893         2.9087
  33   0.0000       0.115108         3.1323

MULLIKEN ATOMIC CHARGES
-----------------------
   0 C :   -0.248420
   1 S :    0.873136
   2 F :   -0.130393
   3 O :   -0.455318
   4 O :   -0.407066
   5 C :   -0.361856
   6 H :    0.165828
   7 H :    0.155995
   8 H :    0.131577
   9 H :    0.142172
  10 H :    0.134345
Sum of atomic charges:    0.0000000

LOEWDIN ATOMIC CHARGES
----------------------
   0 C :   -0.382123
   1 S :    0.567255
   2 F :    0.057351
   3 O :   -0.321532
   4 O :   -0.264967
   5 C :   -0.317861
   6 H :    0.148507
   7 H :    0.141766
   8 H :    0.120536
   9 H :    0.124570
  10 H :    0.126497

  Mayer bond orders larger than 0.100000
B(  0-C ,  1-S ) :   0.9085 B(  0-C ,  5-C ) :   0.9449 B(  0-C ,  6-H ) :   0.9442
B(  0-C ,  7-H ) :   0.9450 B(  1-S ,  2-F ) :   1.1032 B(  1-S ,  3-O ) :   1.8966
B(  1-S ,  4-O ) :   1.9529 B(  5-C ,  8-H ) :   0.9695 B(  5-C ,  9-H ) :   0.9699
B(  5-C , 10-H ) :   0.9646

FINAL SINGLE POINT ENERGY      -727.731326011436

DIPOLE MOMENT
-------------
                                X             Y             Z
Electronic contribution:      5.62879      -1.70147      -6.37232
Nuclear contribution   :     -6.81251       2.87933       7.15058
                        -----------------------------------------
Total Dipole Moment    :     -1.18373       1.17786       0.77825
                        -----------------------------------------
Magnitude (a.u.)       :      1.84235
Magnitude (Debye)      :      4.68287

Rotational constants in cm-1:     0.152543     0.082494     0.078987
Rotational constants in MHz :  4573.135887  2473.116216  2367.980829

                             ****ORCA TERMINATED NORMALLY****
TOTAL RUN TIME: 0 days 0 hours 0 minutes 37 seconds 105 msec
