                         Program Version 5.0.0 -  RELEASE  -
|  1> !CAM-B3LYP RIJCOSX def2-TZVP def2/J TightSCF
|  2> *xyz 0 1
|  3> C         -2.16038       -1.36949       -3.46710
|  4> C         -3.03011       -1.91086       -4.54107
|  5> C         -2.04772        0.14658       -3.51177
|  6> H         -3.47744       -2.79151       -4.25710
|  7> H         -2.53801       -2.01786       -5.43808
|  8> H         -3.89159       -1.37604       -4.71437
|  9> H         -1.18444       -1.84400       -3.56639
| 10> H         -2.59819       -1.70838       -2.52848
| 11> H         -1.61525        0.44478       -4.44395
| 12> H         -1.42718        0.48198       -2.70720
| 13> H         -3.02145        0.57958       -3.41560
| 14> *
| 15> %MaxCore 64000
| 16>
| 17> %pal nprocs 4
| 18> end
| 19>
| 20> %scf
| 21>   MaxIter 150
| 22> end
| 23>
| 24>
| 25>                          ****END OF INPUT****

CARTESIAN COORDINATES (ANGSTROEM)
---------------------------------
  C     -2.160380   -1.369490   -3.467100
  C     -3.030110   -1.910860   -4.541070
  C     -2.047720    0.146580   -3.511770
  H     -3.477440   -2.791510   -4.257100
  H     -2.538010   -2.017860   -5.438080
  H     -3.891590   -1.376040   -4.714370
  H     -1.184440   -1.844000   -3.566390
  H     -2.598190   -1.708380   -2.528480
  H     -1.615250    0.444780   -4.443950
  H     -1.427180    0.481980   -2.707200
  H     -3.021450    0.579580   -3.415600

 Total Charge           Charge          ....    0
 Multiplicity           Mult            ....    1
 Number of Electrons    NEL             ....   26
 Basis Dimension        Dim             ....  141

ORBITAL ENERGIES
----------------

  NO   OCC          E(Eh)            E(eV)
   0   2.0000     -10.228863      -278.3415
   1   2.0000     -10.219308      -278.0815
   2   2.0000     -10.200886      -277.5802
   3   2.0000      -0.874240       -23.7893
   4   2.0000      -0.772351       -21.0167
   5   2.0000      -0.665663       -18.1136
   6   2.0000      -0.541407       -14.7324
   7   2.0000      -0.509840       -13.8734
   8   2.0000      -0.469762       -12.7829
   9   2.0000      -0.461502       -12.5581
  10   2.0000      -0.404914       -11.0183
  11   2.0000      -0.392676       -10.6852
  12   2.0000      -0.391659       -10.6576
  13   0.0000       0.076945         2.0938
  14   0.0000       0.119409         3.2493
  15   0.0000       0.125170         3.4060
  16   0.0000       0.131156         3.5689
  17   0.0000       0.155309         4.2262

MULLIKEN ATOMIC CHARGES
-----------------------
   0 C :   -0.147690
   1 C :   -0.354274
   2 C :   -0.331255
   3 H :    0.114874
   4 H :    0.111295
   5 H :    0.108660
   6 H :    0.088523
   7 H :    0.087519
   8 H :    0.104603
   9 H :    0.110501
  10 H :    0.107244
Sum of atomic charges:   -0.0000000

LOEWDIN ATOMIC CHARGES
----------------------
   0 C :   -0.320019
   1 C :   -0.311216
   2 C :   -0.305610
   3 H :    0.111290
   4 H :    0.107847
   5 H :    0.109851
   6 H :    0.131825
   7 H :    0.131880
   8 H :    0.115404
   9 H :    0.114057
  10 H :    0.114691

  Mayer bond orders larger than 0.100000
B(  0-C ,  1-C ) :   0.9427 B(  0-C ,  2-C ) :   0.9582 B(  0-C ,  6-H ) :   0.9788
B(  0-C ,  7-H ) :   0.9833 B(  1-C ,  3-H ) :   0.9868 B(  1-C ,  4-H ) :   0.9804
B(  1-C ,  5-H ) :   0.9832 B(  2-C ,  8-H ) :   0.9781 B(  2-C ,  9-H ) :   0.9837
B(  2-C , 10-H ) :   0.9805

FINAL SINGLE POINT ENERGY      -119.091595824363

DIPOLE MOMENT
-------------
                                X             Y             Z
Electronic contribution:      0.31636      -0.13249       0.27673
Nuclear contribution   :     -0.34625       0.09603      -0.26933
                        -----------------------------------------
Total Dipole Moment    :     -0.02988      -0.03646       0.00740
                        -----------------------------------------
Magnitude (a.u.)       :      0.04772
Magnitude (Debye)      :      0.12128

Rotational constants in cm-1:     1.028617     0.291238     0.258956
Rotational constants in MHz : 30837.159054  8731.095379  7763.318586

                             ****ORCA TERMINATED NORMALLY****
TOTAL RUN TIME: 0 days 0 hours 0 minutes 16 seconds 516 msec
