                         Program Version 5.0.0 -  RELEASE  -
|  1> !CAM-B3LYP RIJCOSX def2-TZVP def2/J TightSCF
|  2> *xyz 0 1
|  3> C         -7.33044       -2.67899       -3.20681
|  4> S         -6.01966       -2.92697       -4.41913
|  5> O         -5.64583       -1.58838       -4.91931
|  6> F         -4.88196       -3.50370       -3.66724
|  7> O         -6.54927       -3.80515       -5.42507
|  8> C         -7.46900       -1.24615       -2.71383
|  9> H         -7.11825       -3.37982       -2.39805
| 10> H         -8.24184       -3.00474       -3.70651
| 11> H         -7.67580       -0.60214       -3.54292
| 12> H         -6.55749       -0.94096       -2.24382
| 13> H         -8.27114       -1.18777       -2.00810
| 14> *
| 15> %MaxCore 64000
| 16>
| 17> %pal nprocs 4
| 18> end
| 19>
| 20> %scf
| 21>   MaxIter 150
| 22> end
| 23>
| 24>
| 25>                          ****END OF INPUT****

CARTESIAN COORDINATES (ANGSTROEM)
---------------------------------
  C     -7.330440   -2.678990   -3.206810
  S     -6.019660   -2.926970   -4.419130
  O     -5.645830   -1.588380   -4.919310
  F     -4.881960   -3.503700   -3.667240
  O     -6.549270   -3.805150   -5.425070
  C     -7.469000   -1.246150   -2.713830
  H     -7.118250   -3.379820   -2.398050
  H     -8.241840   -3.004740   -3.706510
  H     -7.675800   -0.602140   -3.542920
  H     -6.557490   -0.940960   -2.243820
  H     -8.271140   -1.187770   -2.008100

 Total Charge           Charge          ....    0
 Multiplicity           Mult            ....    1
 Number of Electrons    NEL             ....   58
 Basis Dimension        Dim             ....  222

ORBITAL ENERGIES
----------------

  NO   OCC          E(Eh)            E(eV)
   0   2.0000     -89.177349     -2426.6390
   1   2.0000     -24.860255      -676.4819
   2   2.0000     -19.214225      -522.8457
   3   2.0000     -19.202476      -522.5259
   4   2.0000     -10.309679      -280.5406
   5   2.0000     -10.261959      -279.2421
   6   2.0000      -8.221108      -223.7077
   7   2.0000      -6.189045      -168.4125
   8   2.0000      -6.182551      -168.2358
   9   2.0000      -6.182038      -168.2218
  10   2.0000      -1.437535       -39.1173
  11   2.0000      -1.192555       -32.4511
  12   2.0000      -1.093790       -29.7635
  13   2.0000      -0.909775       -24.7562
  14   2.0000      -0.805468       -21.9179
  15   2.0000      -0.748912       -20.3789
  16   2.0000      -0.653722       -17.7887
  17   2.0000      -0.640984       -17.4421
  18   2.0000      -0.625439       -17.0191
  19   2.0000      -0.567135       -15.4325
  20   2.0000      -0.554049       -15.0764
  21   2.0000      -0.524818       -14.2810
  22   2.0000      -0.498729       -13.5711
  23   2.0000      -0.472715       -12.8632
  24   2.0000      -0.467617       -12.7245
  25   2.0000      -0.452676       -12.3179
  26   2.0000      -0.402306       -10.9473
  27   2.0000      -0.395858       -10.7718
  28   2.0000      -0.380405       -10.3513
  29   0.0000       0.055222         1.5027
  30   0.0000       0.074349         2.0231
  31   0.0000       0.093320         2.5394
  32   0.0000       0.114833         3.1248
  33   0.0000       0.121427         3.3042

MULLIKEN ATOMIC CHARGES
-----------------------
   0 C :   -0.264416
   1 S :    0.874778
   2 O :   -0.450465
   3 F :   -0.132612
   4 O :   -0.409165
   5 C :   -0.328563
   6 H :    0.140194
   7 H :    0.164326
   8 H :    0.150312
   9 H :    0.127897
  10 H :    0.127713
Sum of atomic charges:    0.0000000

LOEWDIN ATOMIC CHARGES
----------------------
   0 C :   -0.388853
   1 S :    0.568197
   2 O :   -0.307622
   3 F :    0.046713
   4 O :   -0.265804
   5 C :   -0.310606
   6 H :    0.135548
   7 H :    0.147361
   8 H :    0.128187
   9 H :    0.123262
  10 H :    0.123616

  Mayer bond orders larger than 0.100000
B(  0-C ,  1-S ) :   0.9030 B(  0-C ,  5-C ) :   0.9482 B(  0-C ,  6-H ) :   0.9498
B(  0-C ,  7-H ) :   0.9440 B(  1-S ,  2-O ) :   1.8885 B(  1-S ,  3-F ) :   1.1050
B(  1-S ,  4-O ) :   1.9530 B(  5-C ,  8-H ) :   0.9683 B(  5-C ,  9-H ) :   0.9722
B(  5-C , 10-H ) :   0.9594

FINAL SINGLE POINT ENERGY      -727.734401470743

DIPOLE MOMENT
-------------
                                X             Y             Z
Electronic contribution:      6.97932      -4.98956      -4.25239
Nuclear contribution   :     -7.60849       4.87515       5.84588
                        -----------------------------------------
Total Dipole Moment    :     -0.62917      -0.11441       1.59349
                        -----------------------------------------
Magnitude (a.u.)       :      1.71702
Magnitude (Debye)      :      4.36432

Rotational constants in cm-1:     0.153704     0.080342     0.079431
Rotational constants in MHz :  4607.928650  2408.599360  2381.267225

                             ****ORCA TERMINATED NORMALLY****
TOTAL RUN TIME: 0 days 0 hours 0 minutes 38 seconds 27 msec
