                         Program Version 5.0.0 -  RELEASE  -
|  1> !CAM-B3LYP RIJCOSX def2-TZVP def2/J TightSCF
|  2> *xyz 0 1
|  3> C         -7.33044       -2.67899       -3.20681
|  4> S         -6.01966       -2.92697       -4.41913
|  5> O         -5.64583       -1.58838       -4.91931
|  6> O         -4.88196       -3.50370       -3.66724
|  7> F         -6.54927       -3.80515       -5.42507
|  8> C         -7.46900       -1.24615       -2.71383
|  9> H         -7.11825       -3.37982       -2.39805
| 10> H         -8.24184       -3.00474       -3.70651
| 11> H         -7.67580       -0.60214       -3.54292
| 12> H         -6.55749       -0.94096       -2.24382
| 13> H         -8.27114       -1.18777       -2.00810
| 14> *
| 15> %MaxCore 64000
| 16>
| 17> %pal nprocs 4
| 18> end
| 19>
| 20> %scf
| 21>   MaxIter 150
| 22> end
| 23>
| 24>
| 25>                          ****END OF INPUT****

CARTESIAN COORDINATES (ANGSTROEM)
---------------------------------
  C     -7.330440   -2.678990   -3.206810
  S     -6.019660   -2.926970   -4.419130
  O     -5.645830   -1.588380   -4.919310
  O     -4.881960   -3.503700   -3.667240
  F     -6.549270   -3.805150   -5.425070
  C     -7.469000   -1.246150   -2.713830
  H     -7.118250   -3.379820   -2.398050
  H     -8.241840   -3.004740   -3.706510
  H     -7.675800   -0.602140   -3.542920
  H     -6.557490   -0.940960   -2.243820
  H     -8.271140   -1.187770   -2.008100

 Total Charge           Charge          ....    0
 Multiplicity           Mult            ....    1
 Number of Electrons    NEL             ....   58
 Basis Dimension        Dim             ....  222

ORBITAL ENERGIES
----------------

  NO   OCC          E(Eh)            E(eV)
   0   2.0000     -89.179511     -2426.6979
   1   2.0000     -24.882739      -677.0937
   2   2.0000     -19.202753      -522.5335
   3   2.0000     -19.199621      -522.4482
   4   2.0000     -10.310280      -280.5570
   5   2.0000     -10.261979      -279.2426
   6   2.0000      -8.223267      -223.7665
   7   2.0000      -6.191109      -168.4686
   8   2.0000      -6.184582      -168.2910
   9   2.0000      -6.184265      -168.2824
  10   2.0000      -1.474533       -40.1241
  11   2.0000      -1.176344       -32.0100
  12   2.0000      -1.076619       -29.2963
  13   2.0000      -0.909919       -24.7602
  14   2.0000      -0.819680       -22.3046
  15   2.0000      -0.756832       -20.5945
  16   2.0000      -0.669593       -18.2206
  17   2.0000      -0.667301       -18.1582
  18   2.0000      -0.630281       -17.1508
  19   2.0000      -0.568683       -15.4746
  20   2.0000      -0.552410       -15.0318
  21   2.0000      -0.513502       -13.9731
  22   2.0000      -0.495289       -13.4775
  23   2.0000      -0.475174       -12.9301
  24   2.0000      -0.458419       -12.4742
  25   2.0000      -0.448301       -12.1989
  26   2.0000      -0.394178       -10.7261
  27   2.0000      -0.387478       -10.5438
  28   2.0000      -0.366598        -9.9756
  29   0.0000       0.057129         1.5545
  30   0.0000       0.072823         1.9816
  31   0.0000       0.092141         2.5073
  32   0.0000       0.111707         3.0397
  33   0.0000       0.120120         3.2686

MULLIKEN ATOMIC CHARGES
-----------------------
   0 C :   -0.255012
   1 S :    0.872253
   2 O :   -0.442949
   3 O :   -0.447580
   4 F :   -0.100387
   5 C :   -0.334129
   6 H :    0.162153
   7 H :    0.131218
   8 H :    0.140259
   9 H :    0.145587
  10 H :    0.128586
Sum of atomic charges:   -0.0000000

LOEWDIN ATOMIC CHARGES
----------------------
   0 C :   -0.391141
   1 S :    0.560698
   2 O :   -0.304222
   3 O :   -0.317278
   4 F :    0.100958
   5 C :   -0.305207
   6 H :    0.144365
   7 H :    0.132661
   8 H :    0.126124
   9 H :    0.128665
  10 H :    0.124377

  Mayer bond orders larger than 0.100000
B(  0-C ,  1-S ) :   0.9061 B(  0-C ,  5-C ) :   0.9538 B(  0-C ,  6-H ) :   0.9434
B(  0-C ,  7-H ) :   0.9442 B(  1-S ,  2-O ) :   1.8908 B(  1-S ,  3-O ) :   1.8991
B(  1-S ,  4-F ) :   1.1484 B(  5-C ,  8-H ) :   0.9683 B(  5-C ,  9-H ) :   0.9709
B(  5-C , 10-H ) :   0.9589

FINAL SINGLE POINT ENERGY      -727.715883056058

DIPOLE MOMENT
-------------
                                X             Y             Z
Electronic contribution:      4.12028      -5.48908      -7.27117
Nuclear contribution   :     -5.87110       5.18927       7.67759
                        -----------------------------------------
Total Dipole Moment    :     -1.75082      -0.29981       0.40643
                        -----------------------------------------
Magnitude (a.u.)       :      1.82220
Magnitude (Debye)      :      4.63168

Rotational constants in cm-1:     0.155988     0.080452     0.078187
Rotational constants in MHz :  4676.405251  2411.902056  2343.983816

                             ****ORCA TERMINATED NORMALLY****
TOTAL RUN TIME: 0 days 0 hours 0 minutes 39 seconds 708 msec
