                         Program Version 5.0.0 -  RELEASE  -
|  1> !CAM-B3LYP RIJCOSX def2-TZVP def2/J TightSCF xyzfile
|  2>
|  3> *xyzfile 0 1 D2.xyz
|  4>
|  5> %MaxCore 64000
|  6>
|  7> %pal nprocs 18
|  8> end
|  9>
| 10> %scf
| 11>   MaxIter 150
| 12> end
| 13>
| 14>
| 15>                          ****END OF INPUT****

CARTESIAN COORDINATES (ANGSTROEM)
---------------------------------
  C     -2.160376   -1.369486   -3.467104
  C     -3.030108   -1.910857   -4.541074
  C     -2.047717    0.146583   -3.511774
  C     -7.330440   -2.678991   -3.206811
  S     -6.019659   -2.926965   -4.419128
  H     -3.477443   -2.791513   -4.257096
  H     -2.538013   -2.017860   -5.438075
  H     -3.891589   -1.376039   -4.714365
  O     -5.645830   -1.588384   -4.919307
  F     -4.881961   -3.503697   -3.667235
  H     -1.184438   -1.843997   -3.566393
  H     -2.598195   -1.708376   -2.528477
  O     -6.549267   -3.805150   -5.425071
  C     -3.328755    0.875037   -3.103669
  H     -1.740034    0.452343   -4.517126
  H     -1.232611    0.434938   -2.842208
  C     -3.628487    0.771601   -1.609363
  H     -4.175106    0.490791   -3.682203
  H     -3.237812    1.928663   -3.381480
  C     -4.975718    1.361432   -1.190644
  H     -2.830700    1.276234   -1.054766
  H     -3.594312   -0.275838   -1.294603
  C     -6.184720    0.784347   -1.926464
  H     -4.956292    2.445725   -1.342200
  H     -5.097256    1.205252   -0.114136
  C     -6.286921   -0.735882   -1.893531
  H     -6.163994    1.100199   -2.974250
  H     -7.094530    1.223459   -1.504509
  C     -7.468999   -1.246153   -2.713833
  H     -6.360641   -1.090347   -0.859176
  H     -5.369848   -1.171853   -2.295982
  H     -7.601914   -0.601349   -3.585329
  H     -8.389791   -1.173436   -2.126922
  H     -7.118254   -3.379818   -2.398055
  H     -8.241838   -3.004745   -3.706513

 Total Charge           Charge          ....    0
 Multiplicity           Mult            ....    1
 Number of Electrons    NEL             ....  122
 Basis Dimension        Dim             ....  566

ORBITAL ENERGIES
----------------

  NO   OCC          E(Eh)            E(eV)
   0   2.0000     -89.182842     -2426.7885
   1   2.0000     -24.865538      -676.6257
   2   2.0000     -19.219592      -522.9917
   3   2.0000     -19.207479      -522.6621
   4   2.0000     -10.309519      -280.5363
   5   2.0000     -10.269978      -279.4603
   6   2.0000     -10.252091      -278.9736
   7   2.0000     -10.241837      -278.6945
   8   2.0000     -10.236841      -278.5586
   9   2.0000     -10.230748      -278.3928
  10   2.0000     -10.225167      -278.2409
  11   2.0000     -10.222416      -278.1661
  12   2.0000     -10.216002      -277.9916
  13   2.0000     -10.168603      -276.7017
  14   2.0000      -8.226915      -223.8658
  15   2.0000      -6.194825      -168.5698
  16   2.0000      -6.188247      -168.3908
  17   2.0000      -6.187879      -168.3807
  18   2.0000      -1.447944       -39.4005
  19   2.0000      -1.199532       -32.6409
  20   2.0000      -1.103119       -30.0174
  21   2.0000      -0.927569       -25.2404
  22   2.0000      -0.897792       -24.4302
  23   2.0000      -0.870298       -23.6820
  24   2.0000      -0.843435       -22.9510
  25   2.0000      -0.801878       -21.8202
  26   2.0000      -0.786798       -21.4099
  27   2.0000      -0.747437       -20.3388
  28   2.0000      -0.712831       -19.3971
  29   2.0000      -0.698399       -19.0044
  30   2.0000      -0.659130       -17.9358
  31   2.0000      -0.654092       -17.7988
  32   2.0000      -0.648411       -17.6441
  33   2.0000      -0.633142       -17.2287
  34   2.0000      -0.618858       -16.8400
  35   2.0000      -0.576154       -15.6779
  36   2.0000      -0.557749       -15.1771
  37   2.0000      -0.547851       -14.9078
  38   2.0000      -0.541760       -14.7420
  39   2.0000      -0.534253       -14.5378
  40   2.0000      -0.514981       -14.0134
  41   2.0000      -0.502519       -13.6742
  42   2.0000      -0.500270       -13.6130
  43   2.0000      -0.495998       -13.4968
  44   2.0000      -0.474963       -12.9244
  45   2.0000      -0.467604       -12.7242
  46   2.0000      -0.456612       -12.4250
  47   2.0000      -0.449430       -12.2296
  48   2.0000      -0.440537       -11.9876
  49   2.0000      -0.430797       -11.7226
  50   2.0000      -0.423709       -11.5297
  51   2.0000      -0.410935       -11.1821
  52   2.0000      -0.403778       -10.9874
  53   2.0000      -0.399610       -10.8739
  54   2.0000      -0.393945       -10.7198
  55   2.0000      -0.391082       -10.6419
  56   2.0000      -0.382459       -10.4072
  57   2.0000      -0.376839       -10.2543
  58   2.0000      -0.365117        -9.9353
  59   2.0000      -0.362799        -9.8723
  60   2.0000      -0.350107        -9.5269
  61   0.0000       0.054659         1.4873
  62   0.0000       0.066744         1.8162
  63   0.0000       0.077763         2.1160
  64   0.0000       0.080904         2.2015
  65   0.0000       0.093155         2.5349

MULLIKEN ATOMIC CHARGES
-----------------------
   0 C :   -0.175779
   1 C :   -0.437418
   2 C :   -0.139160
   3 C :   -0.294185
   4 S :    0.908892
   5 H :    0.098407
   6 H :    0.115200
   7 H :    0.171259
   8 O :   -0.458636
   9 F :   -0.129241
  10 H :    0.094884
  11 H :    0.079335
  12 O :   -0.413139
  13 C :   -0.249490
  14 H :    0.098820
  15 H :    0.088374
  16 C :   -0.244378
  17 H :    0.135774
  18 H :    0.100510
  19 C :   -0.163599
  20 H :    0.106781
  21 H :    0.109555
  22 C :   -0.245271
  23 H :    0.104374
  24 H :    0.101820
  25 C :   -0.248573
  26 H :    0.133159
  27 H :    0.106858
  28 C :   -0.166610
  29 H :    0.108087
  30 H :    0.105228
  31 H :    0.142472
  32 H :    0.123935
  33 H :    0.148909
  34 H :    0.182845
Sum of atomic charges:    0.0000000

LOEWDIN ATOMIC CHARGES
----------------------
   0 C :   -0.302316
   1 C :   -0.338495
   2 C :   -0.265010
   3 C :   -0.359540
   4 S :    0.585899
   5 H :    0.093199
   6 H :    0.105206
   7 H :    0.104976
   8 O :   -0.277806
   9 F :    0.065147
  10 H :    0.132523
  11 H :    0.127415
  12 O :   -0.258813
  13 C :   -0.264802
  14 H :    0.136302
  15 H :    0.133005
  16 C :   -0.270573
  17 H :    0.138509
  18 H :    0.134485
  19 C :   -0.267641
  20 H :    0.135749
  21 H :    0.130948
  22 C :   -0.269218
  23 H :    0.136870
  24 H :    0.134649
  25 C :   -0.269453
  26 H :    0.140099
  27 H :    0.136227
  28 C :   -0.280874
  29 H :    0.135353
  30 H :    0.134312
  31 H :    0.149367
  32 H :    0.144333
  33 H :    0.139472
  34 H :    0.150497

  Mayer bond orders larger than 0.100000
B(  0-C ,  1-C ) :   0.9027 B(  0-C ,  2-C ) :   0.9506 B(  0-C , 10-H ) :   0.9841
B(  0-C , 11-H ) :   0.9992 B(  1-C ,  5-H ) :   0.9889 B(  1-C ,  6-H ) :   0.9767
B(  1-C ,  7-H ) :   0.9840 B(  2-C , 13-C ) :   0.9632 B(  2-C , 14-H ) :   0.9766
B(  2-C , 15-H ) :   0.9815 B(  3-C ,  4-S ) :   0.9066 B(  3-C , 28-C ) :   0.9295
B(  3-C , 33-H ) :   0.9511 B(  3-C , 34-H ) :   0.9556 B(  4-S ,  8-O ) :   1.8000
B(  4-S ,  9-F ) :   1.0713 B(  4-S , 12-O ) :   1.9871 B( 13-C , 16-C ) :   0.9266
B( 13-C , 17-H ) :   0.9862 B( 13-C , 18-H ) :   0.9759 B( 16-C , 19-C ) :   0.9451
B( 16-C , 20-H ) :   0.9761 B( 16-C , 21-H ) :   0.9904 B( 19-C , 22-C ) :   0.9513
B( 19-C , 23-H ) :   0.9841 B( 19-C , 24-H ) :   0.9863 B( 22-C , 25-C ) :   0.9324
B( 22-C , 26-H ) :   0.9864 B( 22-C , 27-H ) :   0.9792 B( 25-C , 28-C ) :   0.9284
B( 25-C , 29-H ) :   0.9653 B( 25-C , 30-H ) :   0.9909 B( 28-C , 31-H ) :   0.9733
B( 28-C , 32-H ) :   0.9575

FINAL SINGLE POINT ENERGY     -1042.103587978077

DIPOLE MOMENT
-------------
                                X             Y             Z
Electronic contribution:     -9.54870     -19.52200     -11.07899
Nuclear contribution   :      8.71934      19.48829      12.54264
                        -----------------------------------------
Total Dipole Moment    :     -0.82936      -0.03371       1.46365
                        -----------------------------------------
Magnitude (a.u.)       :      1.68263
Magnitude (Debye)      :      4.27691

Rotational constants in cm-1:     0.025810     0.015137     0.010647
Rotational constants in MHz :   773.773140   453.802427   319.195213

                             ****ORCA TERMINATED NORMALLY****
TOTAL RUN TIME: 0 days 0 hours 2 minutes 3 seconds 822 msec
