                         Program Version 5.0.0 -  RELEASE  -
|  1> !TPSS D3BJ RIJCOSX def2-SVPD def2/J TightSCF
|  2> *xyz -1 1
|  3> C          2.09343        1.86104       -4.65684
|  4> S          1.87964        0.07859       -4.46297
|  5> O          3.20757       -0.46611       -4.42026
|  6> O          1.07506       -0.05616       -3.26876
|  7> O          1.13166       -0.31996       -5.67903
|  8> H          2.68437        2.05681       -5.52711
|  9> H          2.58708        2.25699       -3.79404
| 10> H          1.13553        2.32556       -4.76426
| 11> *
| 12>
| 13> %MaxCore 64000
| 14>
| 15> %pal nprocs 8
| 16> end
| 17>
| 18> %scf
| 19>   MaxIter 150
| 20> end
| 21>
| 22>
| 23>                          ****END OF INPUT****

CARTESIAN COORDINATES (ANGSTROEM)
---------------------------------
  C      2.093430    1.861040   -4.656840
  S      1.879640    0.078590   -4.462970
  O      3.207570   -0.466110   -4.420260
  O      1.075060   -0.056160   -3.268760
  O      1.131660   -0.319960   -5.679030
  H      2.684370    2.056810   -5.527110
  H      2.587080    2.256990   -3.794040
  H      1.135530    2.325560   -4.764260

 Total Charge           Charge          ....   -1
 Multiplicity           Mult            ....    1
 Number of Electrons    NEL             ....   50
 Basis Dimension        Dim             ....  140

ORBITAL ENERGIES
----------------

  NO   OCC          E(Eh)            E(eV)
   0   2.0000     -88.365835     -2404.5566
   1   2.0000     -18.680706      -508.3279
   2   2.0000     -18.676735      -508.2198
   3   2.0000     -18.666159      -507.9320
   4   2.0000      -9.848335      -267.9868
   5   2.0000      -7.725691      -210.2267
   6   2.0000      -5.711701      -155.4233
   7   2.0000      -5.711496      -155.4177
   8   2.0000      -5.710886      -155.4011
   9   2.0000      -0.853910       -23.2361
  10   2.0000      -0.723437       -19.6857
  11   2.0000      -0.698576       -19.0092
  12   2.0000      -0.517782       -14.0896
  13   2.0000      -0.332300        -9.0423
  14   2.0000      -0.253166        -6.8890
  15   2.0000      -0.243296        -6.6204
  16   2.0000      -0.242483        -6.5983
  17   2.0000      -0.202059        -5.4983
  18   2.0000      -0.200072        -5.4442
  19   2.0000      -0.105788        -2.8786
  20   2.0000      -0.105348        -2.8667
  21   2.0000      -0.073695        -2.0053
  22   2.0000      -0.068008        -1.8506
  23   2.0000      -0.057603        -1.5675
  24   2.0000      -0.021447        -0.5836
  25   0.0000       0.143553         3.9063
  26   0.0000       0.176488         4.8025
  27   0.0000       0.176963         4.8154
  28   0.0000       0.179005         4.8710
  29   0.0000       0.204993         5.5781

MULLIKEN ATOMIC CHARGES
-----------------------
   0 C :    0.421871
   1 S :    1.018579
   2 O :   -0.733178
   3 O :   -0.745649
   4 O :   -0.781810
   5 H :   -0.061991
   6 H :   -0.063454
   7 H :   -0.054368
Sum of atomic charges:   -1.0000000

LOEWDIN ATOMIC CHARGES
----------------------
   0 C :    0.059022
   1 S :    0.815511
   2 O :   -0.567838
   3 O :   -0.574658
   4 O :   -0.592578
   5 H :   -0.046389
   6 H :   -0.047926
   7 H :   -0.045145

  Mayer bond orders larger than 0.100000
B(  0-C ,  1-S ) :   0.9175 B(  0-C ,  5-H ) :   0.9389 B(  0-C ,  6-H ) :   0.9363
B(  0-C ,  7-H ) :   0.9374 B(  1-S ,  2-O ) :   1.3695 B(  1-S ,  3-O ) :   1.3625
B(  1-S ,  4-O ) :   1.3347 B(  1-S ,  5-H ) :   0.1118 B(  1-S ,  6-H ) :   0.1056
B(  1-S ,  7-H ) :   0.1129

Dispersion correction           -0.007894456
FINAL SINGLE POINT ENERGY      -663.551274964270

DIPOLE MOMENT
-------------
                                X             Y             Z
Electronic contribution:     -0.43894      -4.36448       0.56855
Nuclear contribution   :      0.72475       5.67579      -0.57287
                        -----------------------------------------
Total Dipole Moment    :      0.28581       1.31131      -0.00433
                        -----------------------------------------
Magnitude (a.u.)       :      1.34210
Magnitude (Debye)      :      3.41136

Rotational constants in cm-1:     0.171646     0.157781     0.155534
Rotational constants in MHz :  5145.813281  4730.160232  4662.792719

                             ****ORCA TERMINATED NORMALLY****
TOTAL RUN TIME: 0 days 0 hours 0 minutes 4 seconds 304 msec
