                         Program Version 5.0.0 -  RELEASE  -
|  1> !TPSS D3BJ RIJCOSX def2-SVPD def2/J TightSCF
|  2> *xyz 1 1
|  3> C         -0.46129        2.23469       -4.98962
|  4> C         -0.42384        2.39877       -6.47432
|  5> N         -0.95947        3.49265       -7.00740
|  6> N          0.14558        1.48689       -7.20399
|  7> H          0.56537        0.69681       -6.72386
|  8> H          0.22068        1.58177       -8.20752
|  9> H         -1.40624        4.18151       -6.40326
| 10> H         -0.93421        3.68160       -7.99947
| 11> H          0.00645        1.31059       -4.72100
| 12> H         -1.47822        2.22967       -4.65687
| 13> H          0.06109        3.04632       -4.52779
| 14> *
| 15>
| 16> %MaxCore 64000
| 17>
| 18> %pal nprocs 8
| 19> end
| 20>
| 21> %scf
| 22>   MaxIter 150
| 23> end
| 24>
| 25>
| 26>                          ****END OF INPUT****

CARTESIAN COORDINATES (ANGSTROEM)
---------------------------------
  C     -0.461290    2.234690   -4.989620
  C     -0.423840    2.398770   -6.474320
  N     -0.959470    3.492650   -7.007400
  N      0.145580    1.486890   -7.203990
  H      0.565370    0.696810   -6.723860
  H      0.220680    1.581770   -8.207520
  H     -1.406240    4.181510   -6.403260
  H     -0.934210    3.681600   -7.999470
  H      0.006450    1.310590   -4.721000
  H     -1.478220    2.229670   -4.656870
  H      0.061090    3.046320   -4.527790

 Total Charge           Charge          ....    1
 Multiplicity           Mult            ....    1
 Number of Electrons    NEL             ....   32
 Basis Dimension        Dim             ....  136

ORBITAL ENERGIES
----------------

  NO   OCC          E(Eh)            E(eV)
   0   2.0000     -14.373750      -391.1296
   1   2.0000     -14.367080      -390.9481
   2   2.0000     -10.322233      -280.8822
   3   2.0000     -10.202004      -277.6106
   4   2.0000      -1.137072       -30.9413
   5   2.0000      -1.047430       -28.5020
   6   2.0000      -0.896329       -24.3903
   7   2.0000      -0.792824       -21.5738
   8   2.0000      -0.739366       -20.1192
   9   2.0000      -0.725171       -19.7329
  10   2.0000      -0.665632       -18.1128
  11   2.0000      -0.619882       -16.8678
  12   2.0000      -0.579521       -15.7696
  13   2.0000      -0.565729       -15.3943
  14   2.0000      -0.540576       -14.7098
  15   2.0000      -0.463431       -12.6106
  16   0.0000      -0.243494        -6.6258
  17   0.0000      -0.177665        -4.8345
  18   0.0000      -0.132865        -3.6154
  19   0.0000      -0.130752        -3.5579
  20   0.0000      -0.108720        -2.9584

MULLIKEN ATOMIC CHARGES
-----------------------
   0 C :    0.554348
   1 C :    0.458176
   2 N :    0.046397
   3 N :   -0.013458
   4 H :    0.100547
   5 H :   -0.125200
   6 H :    0.037391
   7 H :   -0.145097
   8 H :    0.032116
   9 H :    0.032286
  10 H :    0.022495
Sum of atomic charges:    1.0000000

LOEWDIN ATOMIC CHARGES
----------------------
   0 C :    0.244239
   1 C :   -0.067215
   2 N :    0.278478
   3 N :    0.285592
   4 H :    0.056983
   5 H :    0.054408
   6 H :    0.059548
   7 H :    0.043741
   8 H :    0.002917
   9 H :    0.020346
  10 H :    0.020962

  Mayer bond orders larger than 0.100000
B(  0-C ,  1-C ) :   1.2505 B(  0-C ,  8-H ) :   0.7972 B(  0-C ,  9-H ) :   0.7661
B(  0-C , 10-H ) :   0.7851 B(  1-C ,  2-N ) :   1.0957 B(  1-C ,  3-N ) :   1.0236
B(  1-C ,  5-H ) :  -0.2547 B(  1-C ,  7-H ) :  -0.1849 B(  1-C ,  8-H ) :   0.2225
B(  1-C ,  9-H ) :   0.1705 B(  1-C , 10-H ) :   0.1587 B(  2-N ,  3-N ) :   0.1845
B(  2-N ,  6-H ) :   1.1080 B(  2-N ,  7-H ) :   1.2837 B(  3-N ,  4-H ) :   1.0275
B(  3-N ,  5-H ) :   1.3825 B(  4-H ,  5-H ) :  -0.1715 B(  6-H ,  7-H ) :  -0.1580
B(  8-H ,  9-H ) :   0.1027 B(  9-H , 10-H ) :   0.1024

Dispersion correction           -0.008448210
FINAL SINGLE POINT ENERGY      -189.628245933151

DIPOLE MOMENT
-------------
                                X             Y             Z
Electronic contribution:      0.06160       0.18109      -2.19840
Nuclear contribution   :     -0.00094      -0.11553       1.69525
                        -----------------------------------------
Total Dipole Moment    :      0.06066       0.06556      -0.50314
                        -----------------------------------------
Magnitude (a.u.)       :      0.51101
Magnitude (Debye)      :      1.29889

Rotational constants in cm-1:     0.329971     0.303414     0.162776
Rotational constants in MHz :  9892.292308  9096.128349  4879.901854

                             ****ORCA TERMINATED NORMALLY****
TOTAL RUN TIME: 0 days 0 hours 0 minutes 4 seconds 240 msec
