                         Program Version 5.0.0 -  RELEASE  -
|  1> !TPSS D3BJ RIJCOSX def2-SVPD def2/J TightSCF
|  2> *xyz 0 1
|  3> C          2.09343        1.86104       -4.65684
|  4> S          1.87964        0.07859       -4.46297
|  5> F          3.20757       -0.46611       -4.42026
|  6> O          1.07506       -0.05616       -3.26876
|  7> O          1.13166       -0.31996       -5.67903
|  8> H          2.68437        2.05681       -5.52711
|  9> H          2.58708        2.25699       -3.79404
| 10> H          1.13553        2.32556       -4.76426
| 11> *
| 12>
| 13> %MaxCore 64000
| 14>
| 15> %pal nprocs 8
| 16> end
| 17>
| 18> %scf
| 19>   MaxIter 150
| 20> end
| 21>
| 22>
| 23>                          ****END OF INPUT****

CARTESIAN COORDINATES (ANGSTROEM)
---------------------------------
  C      2.093430    1.861040   -4.656840
  S      1.879640    0.078590   -4.462970
  F      3.207570   -0.466110   -4.420260
  O      1.075060   -0.056160   -3.268760
  O      1.131660   -0.319960   -5.679030
  H      2.684370    2.056810   -5.527110
  H      2.587080    2.256990   -3.794040
  H      1.135530    2.325560   -4.764260

 Total Charge           Charge          ....    0
 Multiplicity           Mult            ....    1
 Number of Electrons    NEL             ....   50
 Basis Dimension        Dim             ....  140

ORBITAL ENERGIES
----------------

  NO   OCC          E(Eh)            E(eV)
   0   2.0000     -88.629054     -2411.7192
   1   2.0000     -24.549374      -668.0224
   2   2.0000     -18.915334      -514.7124
   3   2.0000     -18.904466      -514.4167
   4   2.0000     -10.058646      -273.7097
   5   2.0000      -7.989863      -217.4152
   6   2.0000      -5.980245      -162.7307
   7   2.0000      -5.973432      -162.5454
   8   2.0000      -5.971951      -162.5051
   9   2.0000      -1.303261       -35.4635
  10   2.0000      -1.036546       -28.2058
  11   2.0000      -0.937100       -25.4998
  12   2.0000      -0.739972       -20.1357
  13   2.0000      -0.665608       -18.1121
  14   2.0000      -0.554851       -15.0983
  15   2.0000      -0.537076       -14.6146
  16   2.0000      -0.507506       -13.8099
  17   2.0000      -0.436167       -11.8687
  18   2.0000      -0.433602       -11.7989
  19   2.0000      -0.424469       -11.5504
  20   2.0000      -0.396517       -10.7898
  21   2.0000      -0.346093        -9.4177
  22   2.0000      -0.298317        -8.1176
  23   2.0000      -0.287442        -7.8217
  24   2.0000      -0.267197        -7.2708
  25   0.0000      -0.027729        -0.7545
  26   0.0000       0.011666         0.3174
  27   0.0000       0.014342         0.3903
  28   0.0000       0.034456         0.9376
  29   0.0000       0.035418         0.9638

MULLIKEN ATOMIC CHARGES
-----------------------
   0 C :    0.414590
   1 S :    1.196261
   2 F :   -0.353207
   3 O :   -0.608820
   4 O :   -0.640952
   5 H :   -0.003558
   6 H :   -0.001719
   7 H :   -0.002594
Sum of atomic charges:   -0.0000000

LOEWDIN ATOMIC CHARGES
----------------------
   0 C :    0.129361
   1 S :    1.086808
   2 F :   -0.248205
   3 O :   -0.453986
   4 O :   -0.470238
   5 H :   -0.019443
   6 H :   -0.020022
   7 H :   -0.004275

  Mayer bond orders larger than 0.100000
B(  0-C ,  1-S ) :   0.9758 B(  0-C ,  5-H ) :   0.9261 B(  0-C ,  6-H ) :   0.9236
B(  0-C ,  7-H ) :   0.9260 B(  1-S ,  2-F ) :   0.7254 B(  1-S ,  3-O ) :   1.5570
B(  1-S ,  4-O ) :   1.5294 B(  1-S ,  7-H ) :   0.1081

Dispersion correction           -0.007402456
FINAL SINGLE POINT ENERGY      -688.036906017170

DIPOLE MOMENT
-------------
                                X             Y             Z
Electronic contribution:      1.75290      -5.22209       0.65709
Nuclear contribution   :     -0.60459       6.33153      -0.64388
                        -----------------------------------------
Total Dipole Moment    :      1.14831       1.10944       0.01321
                        -----------------------------------------
Magnitude (a.u.)       :      1.59676
Magnitude (Debye)      :      4.05865

Rotational constants in cm-1:     0.163601     0.155191     0.147098
Rotational constants in MHz :  4904.622287  4652.507792  4409.891356

                             ****ORCA TERMINATED NORMALLY****
TOTAL RUN TIME: 0 days 0 hours 0 minutes 4 seconds 797 msec
