                         Program Version 5.0.0 -  RELEASE  -
|  1> !TPSS D3BJ RIJCOSX def2-SVPD def2/J TightSCF
|  2> *xyz 0 1
|  3> C         -0.46129        2.23469       -4.98962
|  4> C         -0.42384        2.39877       -6.47432
|  5> C         -0.95947        3.49265       -7.00740
|  6> N          0.14558        1.48689       -7.20399
|  7> H          0.56537        0.69681       -6.72386
|  8> H          0.22068        1.58177       -8.20752
|  9> H         -1.40624        4.18151       -6.40326
| 10> H         -0.93421        3.68160       -7.99947
| 11> H          0.00645        1.31059       -4.72100
| 12> H         -1.47822        2.22967       -4.65687
| 13> H          0.06109        3.04632       -4.52779
| 14> *
| 15>
| 16> %MaxCore 64000
| 17>
| 18> %pal nprocs 8
| 19> end
| 20>
| 21> %scf
| 22>   MaxIter 150
| 23> end
| 24>
| 25>
| 26>                          ****END OF INPUT****

CARTESIAN COORDINATES (ANGSTROEM)
---------------------------------
  C     -0.461290    2.234690   -4.989620
  C     -0.423840    2.398770   -6.474320
  C     -0.959470    3.492650   -7.007400
  N      0.145580    1.486890   -7.203990
  H      0.565370    0.696810   -6.723860
  H      0.220680    1.581770   -8.207520
  H     -1.406240    4.181510   -6.403260
  H     -0.934210    3.681600   -7.999470
  H      0.006450    1.310590   -4.721000
  H     -1.478220    2.229670   -4.656870
  H      0.061090    3.046320   -4.527790

 Total Charge           Charge          ....    0
 Multiplicity           Mult            ....    1
 Number of Electrons    NEL             ....   32
 Basis Dimension        Dim             ....  136

ORBITAL ENERGIES
----------------

  NO   OCC          E(Eh)            E(eV)
   0   2.0000     -14.123300      -384.3145
   1   2.0000     -10.013840      -272.4904
   2   2.0000      -9.993228      -271.9296
   3   2.0000      -9.928200      -270.1600
   4   2.0000      -0.864048       -23.5120
   5   2.0000      -0.693407       -18.8686
   6   2.0000      -0.626413       -17.0456
   7   2.0000      -0.525430       -14.2977
   8   2.0000      -0.487262       -13.2591
   9   2.0000      -0.428369       -11.6565
  10   2.0000      -0.390969       -10.6388
  11   2.0000      -0.359530        -9.7833
  12   2.0000      -0.347767        -9.4632
  13   2.0000      -0.314961        -8.5705
  14   2.0000      -0.300111        -8.1664
  15   2.0000      -0.153345        -4.1727
  16   0.0000       0.006813         0.1854
  17   0.0000       0.024147         0.6571
  18   0.0000       0.043849         1.1932
  19   0.0000       0.051450         1.4000
  20   0.0000       0.076371         2.0781

MULLIKEN ATOMIC CHARGES
-----------------------
   0 C :    0.765184
   1 C :   -0.327718
   2 C :    0.296083
   3 N :    0.152267
   4 H :   -0.060270
   5 H :   -0.187020
   6 H :   -0.138705
   7 H :   -0.412463
   8 H :   -0.118267
   9 H :    0.023796
  10 H :    0.007114
Sum of atomic charges:   -0.0000000

LOEWDIN ATOMIC CHARGES
----------------------
   0 C :    0.175499
   1 C :   -0.290818
   2 C :    0.164270
   3 N :    0.165585
   4 H :    0.000052
   5 H :    0.012845
   6 H :   -0.081439
   7 H :   -0.096335
   8 H :   -0.032196
   9 H :   -0.008873
  10 H :   -0.008591

  Mayer bond orders larger than 0.100000
B(  0-C ,  1-C ) :   1.0733 B(  0-C ,  2-C ) :   0.1019 B(  0-C ,  3-N ) :   0.1180
B(  0-C ,  8-H ) :   0.7355 B(  0-C ,  9-H ) :   0.7383 B(  0-C , 10-H ) :   0.7622
B(  1-C ,  2-C ) :   1.7177 B(  1-C ,  3-N ) :   1.0920 B(  1-C ,  5-H ) :  -0.1549
B(  1-C ,  7-H ) :   0.1620 B(  1-C ,  8-H ) :   0.2648 B(  1-C ,  9-H ) :   0.1891
B(  1-C , 10-H ) :   0.1753 B(  2-C ,  3-N ) :   0.2614 B(  2-C ,  6-H ) :   0.8670
B(  2-C ,  7-H ) :   0.8594 B(  3-N ,  4-H ) :   1.0736 B(  3-N ,  5-H ) :   1.3346
B(  4-H ,  5-H ) :  -0.1445

Dispersion correction           -0.008877179
FINAL SINGLE POINT ENERGY      -173.167105744459

DIPOLE MOMENT
-------------
                                X             Y             Z
Electronic contribution:      0.54190      -0.81815      -1.55734
Nuclear contribution   :     -0.12116       0.12783       1.56719
                        -----------------------------------------
Total Dipole Moment    :      0.42074      -0.69032       0.00985
                        -----------------------------------------
Magnitude (a.u.)       :      0.80849
Magnitude (Debye)      :      2.05502

Rotational constants in cm-1:     0.350065     0.307664     0.168807
Rotational constants in MHz : 10494.676477  9223.531181  5060.697310

                             ****ORCA TERMINATED NORMALLY****
TOTAL RUN TIME: 0 days 0 hours 0 minutes 4 seconds 822 msec
