                         Program Version 5.0.0 -  RELEASE  -
|  1> !TPSS D3BJ RIJCOSX def2-SVPD def2/J TightSCF
|  2> *xyz 0 1
|  3> C          2.09343        1.86104       -4.65684
|  4> S          1.87964        0.07859       -4.46297
|  5> O          3.20757       -0.46611       -4.42026
|  6> F          1.07506       -0.05616       -3.26876
|  7> O          1.13166       -0.31996       -5.67903
|  8> H          2.68437        2.05681       -5.52711
|  9> H          2.58708        2.25699       -3.79404
| 10> H          1.13553        2.32556       -4.76426
| 11> *
| 12>
| 13> %MaxCore 64000
| 14>
| 15> %pal nprocs 8
| 16> end
| 17>
| 18> %scf
| 19>   MaxIter 150
| 20> end
| 21>
| 22>
| 23>                          ****END OF INPUT****

CARTESIAN COORDINATES (ANGSTROEM)
---------------------------------
  C      2.093430    1.861040   -4.656840
  S      1.879640    0.078590   -4.462970
  O      3.207570   -0.466110   -4.420260
  F      1.075060   -0.056160   -3.268760
  O      1.131660   -0.319960   -5.679030
  H      2.684370    2.056810   -5.527110
  H      2.587080    2.256990   -3.794040
  H      1.135530    2.325560   -4.764260

 Total Charge           Charge          ....    0
 Multiplicity           Mult            ....    1
 Number of Electrons    NEL             ....   50
 Basis Dimension        Dim             ....  140

ORBITAL ENERGIES
----------------

  NO   OCC          E(Eh)            E(eV)
   0   2.0000     -88.628481     -2411.7036
   1   2.0000     -24.543772      -667.8700
   2   2.0000     -18.919221      -514.8182
   3   2.0000     -18.904270      -514.4113
   4   2.0000     -10.058441      -273.7041
   5   2.0000      -7.989301      -217.3999
   6   2.0000      -5.979602      -162.7132
   7   2.0000      -5.972962      -162.5326
   8   2.0000      -5.971431      -162.4909
   9   2.0000      -1.294108       -35.2145
  10   2.0000      -1.041061       -28.3287
  11   2.0000      -0.940390       -25.5893
  12   2.0000      -0.739876       -20.1330
  13   2.0000      -0.661015       -17.9871
  14   2.0000      -0.550472       -14.9791
  15   2.0000      -0.530804       -14.4439
  16   2.0000      -0.506626       -13.7860
  17   2.0000      -0.435973       -11.8634
  18   2.0000      -0.434871       -11.8334
  19   2.0000      -0.423610       -11.5270
  20   2.0000      -0.398269       -10.8375
  21   2.0000      -0.348782        -9.4908
  22   2.0000      -0.302848        -8.2409
  23   2.0000      -0.287810        -7.8317
  24   2.0000      -0.269813        -7.3420
  25   0.0000      -0.026872        -0.7312
  26   0.0000       0.013062         0.3554
  27   0.0000       0.014350         0.3905
  28   0.0000       0.034974         0.9517
  29   0.0000       0.036048         0.9809

MULLIKEN ATOMIC CHARGES
-----------------------
   0 C :    0.413460
   1 S :    1.198709
   2 O :   -0.600570
   3 F :   -0.358895
   4 O :   -0.643966
   5 H :   -0.009181
   6 H :   -0.003536
   7 H :    0.003979
Sum of atomic charges:    0.0000000

LOEWDIN ATOMIC CHARGES
----------------------
   0 C :    0.129508
   1 S :    1.086164
   2 O :   -0.447794
   3 F :   -0.253805
   4 O :   -0.470409
   5 H :   -0.005100
   6 H :   -0.020562
   7 H :   -0.018001

  Mayer bond orders larger than 0.100000
B(  0-C ,  1-S ) :   0.9748 B(  0-C ,  5-H ) :   0.9273 B(  0-C ,  6-H ) :   0.9233
B(  0-C ,  7-H ) :   0.9259 B(  1-S ,  2-O ) :   1.5635 B(  1-S ,  3-F ) :   0.7152
B(  1-S ,  4-O ) :   1.5292 B(  1-S ,  5-H ) :   0.1077

Dispersion correction           -0.007401259
FINAL SINGLE POINT ENERGY      -688.041924083054

DIPOLE MOMENT
-------------
                                X             Y             Z
Electronic contribution:     -1.72751      -4.55457       2.54077
Nuclear contribution   :      1.52593       5.92196      -1.79430
                        -----------------------------------------
Total Dipole Moment    :     -0.20158       1.36739       0.74647
                        -----------------------------------------
Magnitude (a.u.)       :      1.57086
Magnitude (Debye)      :      3.99281

Rotational constants in cm-1:     0.162837     0.155564     0.147443
Rotational constants in MHz :  4881.731197  4663.686927  4420.233103

                             ****ORCA TERMINATED NORMALLY****
TOTAL RUN TIME: 0 days 0 hours 0 minutes 4 seconds 712 msec
