                         Program Version 5.0.0 -  RELEASE  -
|  1> !TPSS D3BJ RIJCOSX def2-SVPD def2/J TightSCF
|  2> *xyz 0 1
|  3> C         -0.46129        2.23469       -4.98962
|  4> C         -0.42384        2.39877       -6.47432
|  5> N         -0.95947        3.49265       -7.00740
|  6> C          0.14558        1.48689       -7.20399
|  7> H          0.56537        0.69681       -6.72386
|  8> H          0.22068        1.58177       -8.20752
|  9> H         -1.40624        4.18151       -6.40326
| 10> H         -0.93421        3.68160       -7.99947
| 11> H          0.00645        1.31059       -4.72100
| 12> H         -1.47822        2.22967       -4.65687
| 13> H          0.06109        3.04632       -4.52779
| 14> *
| 15>
| 16> %MaxCore 64000
| 17>
| 18> %pal nprocs 8
| 19> end
| 20>
| 21> %scf
| 22>   MaxIter 150
| 23> end
| 24>
| 25>
| 26>                          ****END OF INPUT****

CARTESIAN COORDINATES (ANGSTROEM)
---------------------------------
  C     -0.461290    2.234690   -4.989620
  C     -0.423840    2.398770   -6.474320
  N     -0.959470    3.492650   -7.007400
  C      0.145580    1.486890   -7.203990
  H      0.565370    0.696810   -6.723860
  H      0.220680    1.581770   -8.207520
  H     -1.406240    4.181510   -6.403260
  H     -0.934210    3.681600   -7.999470
  H      0.006450    1.310590   -4.721000
  H     -1.478220    2.229670   -4.656870
  H      0.061090    3.046320   -4.527790

 Total Charge           Charge          ....    0
 Multiplicity           Mult            ....    1
 Number of Electrons    NEL             ....   32
 Basis Dimension        Dim             ....  136

ORBITAL ENERGIES
----------------

  NO   OCC          E(Eh)            E(eV)
   0   2.0000     -14.118817      -384.1925
   1   2.0000     -10.013001      -272.4676
   2   2.0000      -9.991698      -271.8879
   3   2.0000      -9.932446      -270.2756
   4   2.0000      -0.851777       -23.1780
   5   2.0000      -0.697207       -18.9720
   6   2.0000      -0.630266       -17.1504
   7   2.0000      -0.521497       -14.1907
   8   2.0000      -0.477950       -13.0057
   9   2.0000      -0.431057       -11.7297
  10   2.0000      -0.390915       -10.6373
  11   2.0000      -0.357420        -9.7259
  12   2.0000      -0.353599        -9.6219
  13   2.0000      -0.315295        -8.5796
  14   2.0000      -0.292689        -7.9645
  15   2.0000      -0.162632        -4.4255
  16   0.0000       0.008082         0.2199
  17   0.0000       0.029384         0.7996
  18   0.0000       0.044292         1.2052
  19   0.0000       0.053984         1.4690
  20   0.0000       0.078672         2.1408

MULLIKEN ATOMIC CHARGES
-----------------------
   0 C :    0.779830
   1 C :   -0.389726
   2 N :    0.182291
   3 C :    0.299611
   4 H :   -0.035720
   5 H :   -0.408831
   6 H :   -0.144766
   7 H :   -0.212330
   8 H :    0.017508
   9 H :   -0.039000
  10 H :   -0.048867
Sum of atomic charges:    0.0000000

LOEWDIN ATOMIC CHARGES
----------------------
   0 C :    0.172305
   1 C :   -0.293290
   2 N :    0.163952
   3 C :    0.168760
   4 H :   -0.081153
   5 H :   -0.082565
   6 H :    0.001004
   7 H :    0.001030
   8 H :   -0.018159
   9 H :   -0.016394
  10 H :   -0.015490

  Mayer bond orders larger than 0.100000
B(  0-C ,  1-C ) :   1.2567 B(  0-C ,  8-H ) :   0.8076 B(  0-C ,  9-H ) :   0.6879
B(  0-C , 10-H ) :   0.6887 B(  1-C ,  2-N ) :   1.1570 B(  1-C ,  3-C ) :   1.6696
B(  1-C ,  5-H ) :   0.1726 B(  1-C ,  8-H ) :   0.2029 B(  1-C ,  9-H ) :   0.2678
B(  1-C , 10-H ) :   0.2716 B(  2-N ,  3-C ) :   0.2747 B(  2-N ,  6-H ) :   1.1697
B(  2-N ,  7-H ) :   1.2506 B(  3-C ,  4-H ) :   0.9234 B(  3-C ,  5-H ) :   0.8102
B(  6-H ,  7-H ) :  -0.1306 B(  8-H ,  9-H ) :   0.1013

Dispersion correction           -0.008876322
FINAL SINGLE POINT ENERGY      -173.170665981046

DIPOLE MOMENT
-------------
                                X             Y             Z
Electronic contribution:     -0.44303       0.95474      -1.41805
Nuclear contribution   :      0.12666      -0.32199       1.52310
                        -----------------------------------------
Total Dipole Moment    :     -0.31637       0.63274       0.10505
                        -----------------------------------------
Magnitude (a.u.)       :      0.71518
Magnitude (Debye)      :      1.81785

Rotational constants in cm-1:     0.352483     0.305471     0.168700
Rotational constants in MHz : 10567.165953  9157.779739  5057.501411

                             ****ORCA TERMINATED NORMALLY****
TOTAL RUN TIME: 0 days 0 hours 0 minutes 4 seconds 695 msec
