                         Program Version 5.0.0 -  RELEASE  -
|  1> !TPSS D3BJ RIJCOSX def2-SVPD def2/J TightSCF
|  2> *xyz 0 1
|  3> C          2.09343        1.86104       -4.65684
|  4> S          1.87964        0.07859       -4.46297
|  5> O          3.20757       -0.46611       -4.42026
|  6> O          1.07506       -0.05616       -3.26876
|  7> F          1.13166       -0.31996       -5.67903
|  8> H          2.68437        2.05681       -5.52711
|  9> H          2.58708        2.25699       -3.79404
| 10> H          1.13553        2.32556       -4.76426
| 11> *
| 12>
| 13> %MaxCore 64000
| 14>
| 15> %pal nprocs 8
| 16> end
| 17>
| 18> %scf
| 19>   MaxIter 150
| 20> end
| 21>
| 22>
| 23>                          ****END OF INPUT****

CARTESIAN COORDINATES (ANGSTROEM)
---------------------------------
  C      2.093430    1.861040   -4.656840
  S      1.879640    0.078590   -4.462970
  O      3.207570   -0.466110   -4.420260
  O      1.075060   -0.056160   -3.268760
  F      1.131660   -0.319960   -5.679030
  H      2.684370    2.056810   -5.527110
  H      2.587080    2.256990   -3.794040
  H      1.135530    2.325560   -4.764260

 Total Charge           Charge          ....    0
 Multiplicity           Mult            ....    1
 Number of Electrons    NEL             ....   50
 Basis Dimension        Dim             ....  140

ORBITAL ENERGIES
----------------

  NO   OCC          E(Eh)            E(eV)
   0   2.0000     -88.626504     -2411.6498
   1   2.0000     -24.526908      -667.4111
   2   2.0000     -18.918924      -514.8101
   3   2.0000     -18.914814      -514.6983
   4   2.0000     -10.057574      -273.6805
   5   2.0000      -7.987346      -217.3467
   6   2.0000      -5.977367      -162.6524
   7   2.0000      -5.971236      -162.4856
   8   2.0000      -5.969675      -162.4431
   9   2.0000      -1.264868       -34.4188
  10   2.0000      -1.048517       -28.5316
  11   2.0000      -0.958429       -26.0802
  12   2.0000      -0.737736       -20.0748
  13   2.0000      -0.647056       -17.6073
  14   2.0000      -0.538848       -14.6628
  15   2.0000      -0.511005       -13.9052
  16   2.0000      -0.502505       -13.6739
  17   2.0000      -0.435537       -11.8516
  18   2.0000      -0.435086       -11.8393
  19   2.0000      -0.421857       -11.4793
  20   2.0000      -0.402477       -10.9520
  21   2.0000      -0.353258        -9.6126
  22   2.0000      -0.305515        -8.3135
  23   2.0000      -0.299316        -8.1448
  24   2.0000      -0.282872        -7.6973
  25   0.0000      -0.025095        -0.6829
  26   0.0000       0.012293         0.3345
  27   0.0000       0.014693         0.3998
  28   0.0000       0.036048         0.9809
  29   0.0000       0.037360         1.0166

MULLIKEN ATOMIC CHARGES
-----------------------
   0 C :    0.411875
   1 S :    1.208941
   2 O :   -0.611172
   3 O :   -0.622123
   4 F :   -0.377091
   5 H :   -0.003526
   6 H :   -0.009023
   7 H :    0.002119
Sum of atomic charges:    0.0000000

LOEWDIN ATOMIC CHARGES
----------------------
   0 C :    0.129892
   1 S :    1.084620
   2 O :   -0.448109
   3 O :   -0.454661
   4 F :   -0.267996
   5 H :   -0.019141
   6 H :   -0.006112
   7 H :   -0.018493

  Mayer bond orders larger than 0.100000
B(  0-C ,  1-S ) :   0.9743 B(  0-C ,  5-H ) :   0.9281 B(  0-C ,  6-H ) :   0.9237
B(  0-C ,  7-H ) :   0.9259 B(  1-S ,  2-O ) :   1.5604 B(  1-S ,  3-O ) :   1.5543
B(  1-S ,  4-F ) :   0.6740 B(  1-S ,  6-H ) :   0.1028 B(  2-O ,  3-O ) :   0.1045

Dispersion correction           -0.007402068
FINAL SINGLE POINT ENERGY      -688.056519189724

DIPOLE MOMENT
-------------
                                X             Y             Z
Electronic contribution:     -1.64522      -4.98872      -1.41910
Nuclear contribution   :      1.46938       6.18552       0.61372
                        -----------------------------------------
Total Dipole Moment    :     -0.17584       1.19679      -0.80539
                        -----------------------------------------
Magnitude (a.u.)       :      1.45323
Magnitude (Debye)      :      3.69382

Rotational constants in cm-1:     0.163578     0.153284     0.148718
Rotational constants in MHz :  4903.939615  4595.352658  4458.447794

                             ****ORCA TERMINATED NORMALLY****
TOTAL RUN TIME: 0 days 0 hours 0 minutes 4 seconds 730 msec
