                         Program Version 5.0.0 -  RELEASE  -
|  1> !TPSS D3BJ RIJCOSX def2-SVPD def2/J TightSCF xyzfile
|  2>
|  3> *xyzfile 0 1 D1.xyz
|  4>
|  5> %MaxCore 64000
|  6>
|  7> %pal nprocs 4
|  8> end
|  9>
| 10> %scf
| 11>   MaxIter 150
| 12> end
| 13>
| 14>
| 15>                          ****END OF INPUT****

CARTESIAN COORDINATES (ANGSTROEM)
---------------------------------
  C     -0.461293    2.234686   -4.989619
  C      0.848883    2.667967   -4.302351
  C      2.093434    1.861037   -4.656845
  H      2.444814    2.041567   -5.674990
  H      2.901748    2.137864   -3.980338
  S      1.879644    0.078594   -4.462965
  C     -0.423841    2.398772   -6.474317
  C     -0.959467    3.492647   -7.007401
  N      0.145585    1.486891   -7.203987
  H      0.565371    0.696807   -6.723858
  H      0.220682    1.581768   -8.207520
  H     -1.406243    4.181507   -6.403261
  H     -0.934215    3.681601   -7.999468
  F      3.207574   -0.466111   -4.420259
  O      1.075064   -0.056160   -3.268758
  O      1.131661   -0.319960   -5.679031
  H      0.668432    2.559427   -3.232850
  H      1.034074    3.729426   -4.497081
  H     -1.288884    2.826737   -4.594997
  H     -0.651696    1.186343   -4.756552

 Total Charge           Charge          ....    0
 Multiplicity           Mult            ....    1
 Number of Electrons    NEL             ....   88
 Basis Dimension        Dim             ....  296

ORBITAL ENERGIES
----------------

  NO   OCC          E(Eh)            E(eV)
   0   2.0000     -88.641358     -2412.0540
   1   2.0000     -24.560377      -668.3218
   2   2.0000     -18.928570      -515.0726
   3   2.0000     -18.925462      -514.9880
   4   2.0000     -14.094424      -383.5288
   5   2.0000     -10.066348      -273.9193
   6   2.0000     -10.029980      -272.9296
   7   2.0000     -10.005888      -272.2741
   8   2.0000     -10.002849      -272.1914
   9   2.0000      -9.925537      -270.0876
  10   2.0000      -8.001899      -217.7427
  11   2.0000      -5.992163      -163.0551
  12   2.0000      -5.985985      -162.8869
  13   2.0000      -5.983580      -162.8215
  14   2.0000      -1.313555       -35.7436
  15   2.0000      -1.053758       -28.6742
  16   2.0000      -0.959258       -26.1027
  17   2.0000      -0.848718       -23.0948
  18   2.0000      -0.771889       -21.0042
  19   2.0000      -0.709078       -19.2950
  20   2.0000      -0.677730       -18.4420
  21   2.0000      -0.635691       -17.2980
  22   2.0000      -0.592344       -16.1185
  23   2.0000      -0.551795       -15.0151
  24   2.0000      -0.543973       -14.8022
  25   2.0000      -0.529417       -14.4062
  26   2.0000      -0.507839       -13.8190
  27   2.0000      -0.480956       -13.0875
  28   2.0000      -0.459189       -12.4952
  29   2.0000      -0.446998       -12.1634
  30   2.0000      -0.429747       -11.6940
  31   2.0000      -0.414192       -11.2707
  32   2.0000      -0.406046       -11.0491
  33   2.0000      -0.372063       -10.1244
  34   2.0000      -0.360447        -9.8083
  35   2.0000      -0.354317        -9.6415
  36   2.0000      -0.340876        -9.2757
  37   2.0000      -0.330210        -8.9855
  38   2.0000      -0.309921        -8.4334
  39   2.0000      -0.305470        -8.3123
  40   2.0000      -0.291991        -7.9455
  41   2.0000      -0.287648        -7.8273
  42   2.0000      -0.281432        -7.6581
  43   2.0000      -0.147715        -4.0195
  44   0.0000      -0.034553        -0.9402
  45   0.0000      -0.003339        -0.0909
  46   0.0000       0.010052         0.2735
  47   0.0000       0.014372         0.3911
  48   0.0000       0.024065         0.6549

MULLIKEN ATOMIC CHARGES
-----------------------
   0 C :    0.419183
   1 C :    0.084175
   2 C :    0.051685
   3 H :    0.185052
   4 H :   -0.091506
   5 S :    1.547154
   6 C :   -0.026299
   7 C :    0.225738
   8 N :    0.563427
   9 H :   -0.328848
  10 H :   -0.237198
  11 H :   -0.058945
  12 H :   -0.409032
  13 F :   -0.446037
  14 O :   -0.657194
  15 O :   -0.823625
  16 H :    0.193109
  17 H :   -0.161657
  18 H :    0.022715
  19 H :   -0.051896
Sum of atomic charges:   -0.0000000

LOEWDIN ATOMIC CHARGES
----------------------
   0 C :    0.038244
   1 C :    0.002736
   2 C :   -0.036157
   3 H :    0.019227
   4 H :    0.011560
   5 S :    1.154460
   6 C :   -0.246857
   7 C :    0.173185
   8 N :    0.203806
   9 H :   -0.134543
  10 H :    0.016496
  11 H :   -0.089291
  12 H :   -0.094327
  13 F :   -0.237229
  14 O :   -0.431622
  15 O :   -0.444001
  16 H :    0.022181
  17 H :    0.035942
  18 H :    0.027252
  19 H :    0.008937

  Mayer bond orders larger than 0.100000
B(  0-C ,  1-C ) :   1.1660 B(  0-C ,  6-C ) :   1.1142 B(  0-C ,  8-N ) :   0.1342
B(  0-C , 16-H ) :   0.1413 B(  0-C , 17-H ) :   0.1031 B(  0-C , 18-H ) :   0.7458
B(  0-C , 19-H ) :   0.7289 B(  1-C ,  2-C ) :   1.3873 B(  1-C ,  3-H ) :   0.1218
B(  1-C ,  4-H ) :   0.2113 B(  1-C , 16-H ) :   0.7678 B(  1-C , 17-H ) :   0.9220
B(  1-C , 18-H ) :   0.1365 B(  1-C , 19-H ) :   0.1588 B(  2-C ,  3-H ) :   0.8633
B(  2-C ,  4-H ) :   0.8134 B(  2-C ,  5-S ) :   0.9100 B(  2-C , 15-O ) :   0.1536
B(  2-C , 16-H ) :   0.1207 B(  5-S , 13-F ) :   0.6477 B(  5-S , 14-O ) :   1.5353
B(  5-S , 15-O ) :   1.3759 B(  6-C ,  7-C ) :   1.5496 B(  6-C ,  8-N ) :   1.1493
B(  6-C , 10-H ) :  -0.1482 B(  6-C , 12-H ) :   0.1748 B(  6-C , 18-H ) :   0.1509
B(  6-C , 19-H ) :   0.1682 B(  7-C ,  8-N ) :   0.2280 B(  7-C , 11-H ) :   0.9498
B(  7-C , 12-H ) :   0.7017 B(  8-N ,  9-H ) :   0.9429 B(  8-N , 10-H ) :   1.2886
B(  9-H , 10-H ) :  -0.2184 B(  9-H , 15-O ) :   0.1128

Dispersion correction           -0.028711715
FINAL SINGLE POINT ENERGY      -899.311481560362

DIPOLE MOMENT
-------------
                                X             Y             Z
Electronic contribution:     10.09682     -13.91866       5.42861
Nuclear contribution   :     -8.53047      14.15581      -5.17613
                        -----------------------------------------
Total Dipole Moment    :      1.56635       0.23715       0.25247
                        -----------------------------------------
Magnitude (a.u.)       :      1.60420
Magnitude (Debye)      :      4.07754

Rotational constants in cm-1:     0.081196     0.024861     0.022477
Rotational constants in MHz :  2434.181666   745.320670   673.846846

                             ****ORCA TERMINATED NORMALLY****
TOTAL RUN TIME: 0 days 0 hours 0 minutes 33 seconds 112 msec
