                         Program Version 5.0.0 -  RELEASE  -
|  1> !TPSS D3BJ RIJCOSX def2-SVPD def2/J TightSCF xyzfile
|  2>
|  3> *xyzfile 0 1 D6.xyz
|  4>
|  5> %MaxCore 64000
|  6>
|  7> %pal nprocs 4
|  8> end
|  9>
| 10> %scf
| 11>   MaxIter 150
| 12> end
| 13>
| 14>
| 15>                          ****END OF INPUT****

CARTESIAN COORDINATES (ANGSTROEM)
---------------------------------
  C     -0.461293    2.234686   -4.989619
  C      0.848883    2.667967   -4.302351
  C      2.093434    1.861037   -4.656845
  H      2.444814    2.041567   -5.674990
  H      2.901748    2.137864   -3.980338
  S      1.879644    0.078594   -4.462965
  C     -0.423841    2.398772   -6.474317
  N     -0.959467    3.492647   -7.007401
  C      0.145585    1.486891   -7.203987
  H      0.565371    0.696807   -6.723858
  H      0.220682    1.581768   -8.207520
  H     -1.406243    4.181507   -6.403261
  H     -0.934215    3.681601   -7.999468
  O      3.207574   -0.466111   -4.420259
  O      1.075064   -0.056160   -3.268758
  F      1.131661   -0.319960   -5.679031
  H      0.668432    2.559427   -3.232850
  H      1.034074    3.729426   -4.497081
  H     -1.288884    2.826737   -4.594997
  H     -0.651696    1.186343   -4.756552

 Total Charge           Charge          ....    0
 Multiplicity           Mult            ....    1
 Number of Electrons    NEL             ....   88
 Basis Dimension        Dim             ....  296

ORBITAL ENERGIES
----------------

  NO   OCC          E(Eh)            E(eV)
   0   2.0000     -88.618906     -2411.4430
   1   2.0000     -24.522545      -667.2924
   2   2.0000     -18.913545      -514.6637
   3   2.0000     -18.910763      -514.5880
   4   2.0000     -14.130457      -384.5093
   5   2.0000     -10.052751      -273.5493
   6   2.0000     -10.028771      -272.8967
   7   2.0000     -10.022798      -272.7342
   8   2.0000     -10.016728      -272.5690
   9   2.0000      -9.935166      -270.3496
  10   2.0000      -7.979406      -217.1307
  11   2.0000      -5.969649      -162.4424
  12   2.0000      -5.963411      -162.2727
  13   2.0000      -5.961368      -162.2171
  14   2.0000      -1.264504       -34.4089
  15   2.0000      -1.043946       -28.4072
  16   2.0000      -0.953634       -25.9497
  17   2.0000      -0.864034       -23.5116
  18   2.0000      -0.768510       -20.9122
  19   2.0000      -0.710194       -19.3254
  20   2.0000      -0.663993       -18.0682
  21   2.0000      -0.653872       -17.7928
  22   2.0000      -0.586159       -15.9502
  23   2.0000      -0.548780       -14.9331
  24   2.0000      -0.510833       -13.9005
  25   2.0000      -0.507420       -13.8076
  26   2.0000      -0.500376       -13.6159
  27   2.0000      -0.487481       -13.2650
  28   2.0000      -0.456190       -12.4136
  29   2.0000      -0.444418       -12.0932
  30   2.0000      -0.427989       -11.6462
  31   2.0000      -0.413617       -11.2551
  32   2.0000      -0.405400       -11.0315
  33   2.0000      -0.371897       -10.1198
  34   2.0000      -0.362972        -9.8770
  35   2.0000      -0.356349        -9.6967
  36   2.0000      -0.343965        -9.3598
  37   2.0000      -0.333077        -9.0635
  38   2.0000      -0.309065        -8.4101
  39   2.0000      -0.303530        -8.2595
  40   2.0000      -0.296795        -8.0762
  41   2.0000      -0.287431        -7.8214
  42   2.0000      -0.278356        -7.5745
  43   2.0000      -0.172444        -4.6924
  44   0.0000      -0.015766        -0.4290
  45   0.0000      -0.001314        -0.0358
  46   0.0000       0.006276         0.1708
  47   0.0000       0.017719         0.4822
  48   0.0000       0.025110         0.6833

MULLIKEN ATOMIC CHARGES
-----------------------
   0 C :    0.274603
   1 C :    0.157819
   2 C :    0.075808
   3 H :    0.252810
   4 H :   -0.149470
   5 S :    1.408974
   6 C :    0.329464
   7 N :   -0.036208
   8 C :    0.694614
   9 H :   -0.012139
  10 H :   -0.666172
  11 H :   -0.104532
  12 H :   -0.211515
  13 O :   -0.684700
  14 O :   -0.695553
  15 F :   -0.571212
  16 H :    0.176543
  17 H :   -0.167520
  18 H :   -0.171359
  19 H :    0.099745
Sum of atomic charges:    0.0000000

LOEWDIN ATOMIC CHARGES
----------------------
   0 C :    0.034358
   1 C :   -0.009702
   2 C :   -0.028598
   3 H :    0.016804
   4 H :    0.023917
   5 S :    1.115343
   6 C :   -0.230911
   7 N :    0.173789
   8 C :    0.200611
   9 H :   -0.150501
  10 H :   -0.071492
  11 H :   -0.000269
  12 H :    0.004608
  13 O :   -0.439186
  14 O :   -0.442251
  15 F :   -0.278493
  16 H :    0.022421
  17 H :    0.028914
  18 H :    0.018662
  19 H :    0.011977

  Mayer bond orders larger than 0.100000
B(  0-C ,  1-C ) :   1.1859 B(  0-C ,  6-C ) :   1.0342 B(  0-C ,  7-N ) :   0.1231
B(  0-C ,  8-C ) :   0.1855 B(  0-C , 16-H ) :   0.1147 B(  0-C , 18-H ) :   0.8029
B(  0-C , 19-H ) :   0.8468 B(  1-C ,  2-C ) :   1.3600 B(  1-C ,  3-H ) :   0.1205
B(  1-C ,  4-H ) :   0.1794 B(  1-C , 16-H ) :   0.7622 B(  1-C , 17-H ) :   0.8845
B(  1-C , 18-H ) :   0.1547 B(  1-C , 19-H ) :   0.1434 B(  2-C ,  3-H ) :   0.8393
B(  2-C ,  4-H ) :   0.8706 B(  2-C ,  5-S ) :   0.9646 B(  2-C ,  9-H ) :   0.1007
B(  2-C , 15-F ) :   0.1360 B(  2-C , 16-H ) :   0.1254 B(  4-H ,  9-H ) :  -0.1280
B(  5-S , 13-O ) :   1.5340 B(  5-S , 14-O ) :   1.5292 B(  5-S , 15-F ) :   0.6963
B(  6-C ,  7-N ) :   0.9462 B(  6-C ,  8-C ) :   1.7264 B(  6-C ,  9-H ) :   0.2978
B(  6-C , 10-H ) :   0.2208 B(  6-C , 12-H ) :  -0.1461 B(  6-C , 18-H ) :   0.1366
B(  7-N ,  8-C ) :   0.3207 B(  7-N , 11-H ) :   1.1796 B(  7-N , 12-H ) :   1.3891
B(  8-C ,  9-H ) :   0.4945 B(  8-C , 10-H ) :   0.8771 B(  9-H , 10-H ) :  -0.3334
B( 11-H , 12-H ) :  -0.1505 B( 13-O , 14-O ) :   0.1037

Dispersion correction           -0.028586634
FINAL SINGLE POINT ENERGY      -899.310843278847

DIPOLE MOMENT
-------------
                                X             Y             Z
Electronic contribution:      5.53752     -11.97967       3.17264
Nuclear contribution   :     -6.15577      13.80449      -3.81895
                        -----------------------------------------
Total Dipole Moment    :     -0.61825       1.82482      -0.64631
                        -----------------------------------------
Magnitude (a.u.)       :      2.03222
Magnitude (Debye)      :      5.16549

Rotational constants in cm-1:     0.081431     0.024887     0.022470
Rotational constants in MHz :  2441.231544   746.086417   673.646914

                             ****ORCA TERMINATED NORMALLY****
TOTAL RUN TIME: 0 days 0 hours 0 minutes 32 seconds 949 msec
