                         Program Version 5.0.0 -  RELEASE  -
|  1> !LC-BLYP RIJCOSX def2-TZVP def2/J TightSCF
|  2> *xyz -1 1
|  3> C          2.49556        1.81615       -2.13636
|  4> C          1.87218        0.42790       -2.07750
|  5> H          2.61427       -0.36583       -2.19889
|  6> H          1.38995        0.27309       -1.11236
|  7> S          0.57902        0.14047       -3.29794
|  8> O          0.22886       -1.24687       -3.12787
|  9> O         -0.43927        1.11897       -3.01455
| 10> O          1.24788        0.40347       -4.59565
| 11> H          2.96535        1.95613       -3.08747
| 12> H          3.22581        1.91242       -1.36024
| 13> H          1.73350        2.55528       -2.00274
| 14> *
| 15>
| 16> %MaxCore 64000
| 17>
| 18> %pal nprocs 4
| 19> end
| 20>
| 21> %scf
| 22>   MaxIter 150
| 23> end
| 24>
| 25>
| 26>                          ****END OF INPUT****

CARTESIAN COORDINATES (ANGSTROEM)
---------------------------------
  C      2.495560    1.816150   -2.136360
  C      1.872180    0.427900   -2.077500
  H      2.614270   -0.365830   -2.198890
  H      1.389950    0.273090   -1.112360
  S      0.579020    0.140470   -3.297940
  O      0.228860   -1.246870   -3.127870
  O     -0.439270    1.118970   -3.014550
  O      1.247880    0.403470   -4.595650
  H      2.965350    1.956130   -3.087470
  H      3.225810    1.912420   -1.360240
  H      1.733500    2.555280   -2.002740

 Total Charge           Charge          ....   -1
 Multiplicity           Mult            ....    1
 Number of Electrons    NEL             ....   58
 Basis Dimension        Dim             ....  222

ORBITAL ENERGIES
----------------

  NO   OCC          E(Eh)            E(eV)
   0   2.0000     -88.251417     -2401.4431
   1   2.0000     -18.712464      -509.1920
   2   2.0000     -18.712344      -509.1888
   3   2.0000     -18.696958      -508.7701
   4   2.0000      -9.924053      -270.0472
   5   2.0000      -9.918030      -269.8833
   6   2.0000      -7.793385      -212.0688
   7   2.0000      -5.821613      -158.4142
   8   2.0000      -5.820370      -158.3803
   9   2.0000      -5.820063      -158.3720
  10   2.0000      -1.017476       -27.6869
  11   2.0000      -0.884498       -24.0684
  12   2.0000      -0.858425       -23.3589
  13   2.0000      -0.738102       -20.0848
  14   2.0000      -0.609291       -16.5796
  15   2.0000      -0.480736       -13.0815
  16   2.0000      -0.419995       -11.4286
  17   2.0000      -0.416776       -11.3410
  18   2.0000      -0.374945       -10.2028
  19   2.0000      -0.360923        -9.8212
  20   2.0000      -0.351190        -9.5564
  21   2.0000      -0.327039        -8.8992
  22   2.0000      -0.306090        -8.3291
  23   2.0000      -0.251214        -6.8359
  24   2.0000      -0.249826        -6.7981
  25   2.0000      -0.213820        -5.8183
  26   2.0000      -0.202675        -5.5151
  27   2.0000      -0.193692        -5.2706
  28   2.0000      -0.157697        -4.2911
  29   0.0000       0.238540         6.4910
  30   0.0000       0.281178         7.6513
  31   0.0000       0.299015         8.1366
  32   0.0000       0.303929         8.2703
  33   0.0000       0.334973         9.1151

MULLIKEN ATOMIC CHARGES
-----------------------
   0 C :   -0.374265
   1 C :   -0.273383
   2 H :    0.098310
   3 H :    0.090808
   4 S :    0.677239
   5 O :   -0.495008
   6 O :   -0.499549
   7 O :   -0.556496
   8 H :    0.127107
   9 H :    0.079616
  10 H :    0.125622
Sum of atomic charges:   -1.0000000

LOEWDIN ATOMIC CHARGES
----------------------
   0 C :   -0.358755
   1 C :   -0.442790
   2 H :    0.120728
   3 H :    0.119705
   4 S :    0.377976
   5 O :   -0.367371
   6 O :   -0.366840
   7 O :   -0.422611
   8 H :    0.118505
   9 H :    0.102950
  10 H :    0.118503

  Mayer bond orders larger than 0.100000
B(  0-C ,  1-C ) :   0.9212 B(  0-C ,  8-H ) :   0.9720 B(  0-C ,  9-H ) :   0.9710
B(  0-C , 10-H ) :   0.9745 B(  1-C ,  2-H ) :   0.9643 B(  1-C ,  3-H ) :   0.9628
B(  1-C ,  4-S ) :   0.8900 B(  4-S ,  5-O ) :   1.8907 B(  4-S ,  6-O ) :   1.8380
B(  4-S ,  7-O ) :   1.7766

FINAL SINGLE POINT ENERGY      -702.478661714609

DIPOLE MOMENT
-------------
                                X             Y             Z
Electronic contribution:     -5.70446      -3.61203      -4.09769
Nuclear contribution   :      6.89220       4.11756       5.35566
                        -----------------------------------------
Total Dipole Moment    :      1.18774       0.50553       1.25797
                        -----------------------------------------
Magnitude (a.u.)       :      1.80244
Magnitude (Debye)      :      4.58143

Rotational constants in cm-1:     0.162183     0.084017     0.082390
Rotational constants in MHz :  4862.117324  2518.774315  2469.980309

                             ****ORCA TERMINATED NORMALLY****
TOTAL RUN TIME: 0 days 0 hours 0 minutes 23 seconds 363 msec
