                         Program Version 5.0.0 -  RELEASE  -
|  1> !LC-BLYP RIJCOSX def2-TZVP def2/J TightSCF
|  2> *xyz 1 1
|  3> C          3.38093        2.08304       -3.35013
|  4> N          4.53592        1.18245       -3.42852
|  5> C          2.49556        1.81615       -2.13636
|  6> C          4.67196        0.12227       -4.22060
|  7> N          5.86602       -0.50785       -4.22428
|  8> N          3.69888       -0.31284       -4.98699
|  9> H          2.73141       -0.05009       -4.84900
| 10> H          3.89005       -1.05517       -5.64373
| 11> H          5.25193        1.30346       -2.72101
| 12> H          6.69516       -0.06232       -3.85160
| 13> H          5.97538       -1.39688       -4.69141
| 14> H          2.80646        1.98651       -4.26848
| 15> H          3.77871        3.09828       -3.30738
| 16> H          2.11090        0.81901       -2.18783
| 17> H          1.68276        2.51198       -2.12786
| 18> H          3.07216        1.93031       -1.24227
| 19> *
| 20>
| 21> %MaxCore 64000
| 22>
| 23> %pal nprocs 4
| 24> end
| 25>
| 26> %scf
| 27>   MaxIter 150
| 28> end
| 29>
| 30>
| 31>                          ****END OF INPUT****

CARTESIAN COORDINATES (ANGSTROEM)
---------------------------------
  C      3.380930    2.083040   -3.350130
  N      4.535920    1.182450   -3.428520
  C      2.495560    1.816150   -2.136360
  C      4.671960    0.122270   -4.220600
  N      5.866020   -0.507850   -4.224280
  N      3.698880   -0.312840   -4.986990
  H      2.731410   -0.050090   -4.849000
  H      3.890050   -1.055170   -5.643730
  H      5.251930    1.303460   -2.721010
  H      6.695160   -0.062320   -3.851600
  H      5.975380   -1.396880   -4.691410
  H      2.806460    1.986510   -4.268480
  H      3.778710    3.098280   -3.307380
  H      2.110900    0.819010   -2.187830
  H      1.682760    2.511980   -2.127860
  H      3.072160    1.930310   -1.242270

 Total Charge           Charge          ....    1
 Multiplicity           Mult            ....    1
 Number of Electrons    NEL             ....   48
 Basis Dimension        Dim             ....  246

ORBITAL ENERGIES
----------------

  NO   OCC          E(Eh)            E(eV)
   0   2.0000     -14.395132      -391.7115
   1   2.0000     -14.391070      -391.6009
   2   2.0000     -14.386919      -391.4880
   3   2.0000     -10.406729      -283.1815
   4   2.0000     -10.273370      -279.5526
   5   2.0000     -10.201309      -277.5917
   6   2.0000      -1.314714       -35.7752
   7   2.0000      -1.205218       -32.7956
   8   2.0000      -1.190175       -32.3863
   9   2.0000      -1.038322       -28.2542
  10   2.0000      -0.946562       -25.7573
  11   2.0000      -0.909582       -24.7510
  12   2.0000      -0.892402       -24.2835
  13   2.0000      -0.846219       -23.0268
  14   2.0000      -0.798135       -21.7184
  15   2.0000      -0.793321       -21.5874
  16   2.0000      -0.746283       -20.3074
  17   2.0000      -0.738190       -20.0872
  18   2.0000      -0.706904       -19.2358
  19   2.0000      -0.660249       -17.9663
  20   2.0000      -0.629122       -17.1193
  21   2.0000      -0.611574       -16.6418
  22   2.0000      -0.577385       -15.7114
  23   2.0000      -0.543299       -14.7839
  24   0.0000      -0.088315        -2.4032
  25   0.0000      -0.080943        -2.2026
  26   0.0000      -0.053589        -1.4582
  27   0.0000      -0.044518        -1.2114
  28   0.0000      -0.021601        -0.5878

MULLIKEN ATOMIC CHARGES
-----------------------
   0 C :   -0.266882
   1 N :   -0.233519
   2 C :   -0.340165
   3 C :    0.427538
   4 N :   -0.421427
   5 N :   -0.383419
   6 H :    0.295896
   7 H :    0.279907
   8 H :    0.259037
   9 H :    0.287484
  10 H :    0.281043
  11 H :    0.157132
  12 H :    0.191579
  13 H :    0.132408
  14 H :    0.177882
  15 H :    0.155506
Sum of atomic charges:    1.0000000

LOEWDIN ATOMIC CHARGES
----------------------
   0 C :   -0.290555
   1 N :    0.170799
   2 C :   -0.297746
   3 C :   -0.412611
   4 N :    0.046728
   5 N :    0.082603
   6 H :    0.201079
   7 H :    0.201962
   8 H :    0.212118
   9 H :    0.197433
  10 H :    0.194534
  11 H :    0.142393
  12 H :    0.154561
  13 H :    0.124671
  14 H :    0.141143
  15 H :    0.130888

  Mayer bond orders larger than 0.100000
B(  0-C ,  1-N ) :   0.8593 B(  0-C ,  2-C ) :   0.9387 B(  0-C , 11-H ) :   0.9787
B(  0-C , 12-H ) :   0.9629 B(  1-N ,  3-C ) :   1.3739 B(  1-N ,  8-H ) :   0.9086
B(  2-C , 13-H ) :   0.9550 B(  2-C , 14-H ) :   0.9705 B(  2-C , 15-H ) :   0.9680
B(  3-C ,  4-N ) :   1.2816 B(  3-C ,  5-N ) :   1.3358 B(  4-N ,  9-H ) :   0.9020
B(  4-N , 10-H ) :   0.9044 B(  5-N ,  6-H ) :   0.8962 B(  5-N ,  7-H ) :   0.9024

FINAL SINGLE POINT ENERGY      -283.780501381228

DIPOLE MOMENT
-------------
                                X             Y             Z
Electronic contribution:      3.58165      -2.66718      -2.83238
Nuclear contribution   :     -2.93277       1.85779       2.25966
                        -----------------------------------------
Total Dipole Moment    :      0.64888      -0.80938      -0.57272
                        -----------------------------------------
Magnitude (a.u.)       :      1.18497
Magnitude (Debye)      :      3.01196

Rotational constants in cm-1:     0.245511     0.068839     0.059711
Rotational constants in MHz :  7360.233487  2063.743353  1790.088408

                             ****ORCA TERMINATED NORMALLY****
TOTAL RUN TIME: 0 days 0 hours 0 minutes 30 seconds 548 msec
