                         Program Version 5.0.0 -  RELEASE  -
|  1> !LC-BLYP RIJCOSX def2-TZVP def2/J TightSCF
|  2> *xyz 0 1
|  3> C          2.49556        1.81615       -2.13636
|  4> C          1.87218        0.42790       -2.07750
|  5> H          2.61427       -0.36583       -2.19889
|  6> H          1.38995        0.27309       -1.11236
|  7> S          0.57902        0.14047       -3.29794
|  8> F          0.22886       -1.24687       -3.12787
|  9> O         -0.43927        1.11897       -3.01455
| 10> O          1.24788        0.40347       -4.59565
| 11> H          2.96535        1.95613       -3.08747
| 12> H          3.22581        1.91242       -1.36024
| 13> H          1.73350        2.55528       -2.00274
| 14> *
| 15>
| 16> %MaxCore 64000
| 17>
| 18> %pal nprocs 4
| 19> end
| 20>
| 21> %scf
| 22>   MaxIter 150
| 23> end
| 24>
| 25>
| 26>                          ****END OF INPUT****

CARTESIAN COORDINATES (ANGSTROEM)
---------------------------------
  C      2.495560    1.816150   -2.136360
  C      1.872180    0.427900   -2.077500
  H      2.614270   -0.365830   -2.198890
  H      1.389950    0.273090   -1.112360
  S      0.579020    0.140470   -3.297940
  F      0.228860   -1.246870   -3.127870
  O     -0.439270    1.118970   -3.014550
  O      1.247880    0.403470   -4.595650
  H      2.965350    1.956130   -3.087470
  H      3.225810    1.912420   -1.360240
  H      1.733500    2.555280   -2.002740

 Total Charge           Charge          ....    0
 Multiplicity           Mult            ....    1
 Number of Electrons    NEL             ....   58
 Basis Dimension        Dim             ....  222

ORBITAL ENERGIES
----------------

  NO   OCC          E(Eh)            E(eV)
   0   2.0000     -88.517754     -2408.6906
   1   2.0000     -24.577348      -668.7836
   2   2.0000     -18.952089      -515.7126
   3   2.0000     -18.936872      -515.2985
   4   2.0000     -10.128977      -275.6235
   5   2.0000     -10.083469      -274.3851
   6   2.0000      -8.060369      -219.3338
   7   2.0000      -6.092017      -165.7722
   8   2.0000      -6.085168      -165.5859
   9   2.0000      -6.085004      -165.5814
  10   2.0000      -1.467649       -39.9368
  11   2.0000      -1.201779       -32.7021
  12   2.0000      -1.097949       -29.8767
  13   2.0000      -0.930922       -25.3317
  14   2.0000      -0.842953       -22.9379
  15   2.0000      -0.781945       -21.2778
  16   2.0000      -0.693949       -18.8833
  17   2.0000      -0.692941       -18.8559
  18   2.0000      -0.659149       -17.9364
  19   2.0000      -0.600270       -16.3342
  20   2.0000      -0.587053       -15.9745
  21   2.0000      -0.543654       -14.7936
  22   2.0000      -0.531808       -14.4712
  23   2.0000      -0.510018       -13.8783
  24   2.0000      -0.489621       -13.3233
  25   2.0000      -0.485523       -13.2117
  26   2.0000      -0.434885       -11.8338
  27   2.0000      -0.420986       -11.4556
  28   2.0000      -0.405282       -11.0283
  29   0.0000       0.087949         2.3932
  30   0.0000       0.109140         2.9698
  31   0.0000       0.130855         3.5608
  32   0.0000       0.138787         3.7766
  33   0.0000       0.149641         4.0719

MULLIKEN ATOMIC CHARGES
-----------------------
   0 C :   -0.401100
   1 C :   -0.286930
   2 H :    0.160273
   3 H :    0.157425
   4 S :    0.742990
   5 F :   -0.066684
   6 O :   -0.360591
   7 O :   -0.414637
   8 H :    0.163640
   9 H :    0.144518
  10 H :    0.161096
Sum of atomic charges:    0.0000000

LOEWDIN ATOMIC CHARGES
----------------------
   0 C :   -0.318430
   1 C :   -0.409911
   2 H :    0.140258
   3 H :    0.140323
   4 S :    0.496629
   5 F :    0.113441
   6 O :   -0.250962
   7 O :   -0.304304
   8 H :    0.131978
   9 H :    0.129230
  10 H :    0.131748

  Mayer bond orders larger than 0.100000
B(  0-C ,  1-C ) :   0.9360 B(  0-C ,  8-H ) :   0.9652 B(  0-C ,  9-H ) :   0.9625
B(  0-C , 10-H ) :   0.9657 B(  1-C ,  2-H ) :   0.9377 B(  1-C ,  3-H ) :   0.9373
B(  1-C ,  4-S ) :   0.9245 B(  4-S ,  5-F ) :   1.1863 B(  4-S ,  6-O ) :   1.9690
B(  4-S ,  7-O ) :   1.9125

FINAL SINGLE POINT ENERGY      -726.982780389935

DIPOLE MOMENT
-------------
                                X             Y             Z
Electronic contribution:     -6.82600      -6.43475      -4.08498
Nuclear contribution   :      7.60530       5.82028       5.38743
                        -----------------------------------------
Total Dipole Moment    :      0.77930      -0.61447       1.30245
                        -----------------------------------------
Magnitude (a.u.)       :      1.63746
Magnitude (Debye)      :      4.16208

Rotational constants in cm-1:     0.157861     0.081452     0.078859
Rotational constants in MHz :  4732.562506  2441.865430  2364.129821

                             ****ORCA TERMINATED NORMALLY****
TOTAL RUN TIME: 0 days 0 hours 0 minutes 24 seconds 984 msec
