                         Program Version 5.0.0 -  RELEASE  -
|  1> !LC-BLYP RIJCOSX def2-TZVP def2/J TightSCF
|  2> *xyz 0 1
|  3> C          3.38093        2.08304       -3.35013
|  4> C          4.53592        1.18245       -3.42852
|  5> C          2.49556        1.81615       -2.13636
|  6> C          4.67196        0.12227       -4.22060
|  7> N          5.86602       -0.50785       -4.22428
|  8> N          3.69888       -0.31284       -4.98699
|  9> H          2.73141       -0.05009       -4.84900
| 10> H          3.89005       -1.05517       -5.64373
| 11> H          5.25193        1.30346       -2.72101
| 12> H          6.69516       -0.06232       -3.85160
| 13> H          5.97538       -1.39688       -4.69141
| 14> H          2.80646        1.98651       -4.26848
| 15> H          3.77871        3.09828       -3.30738
| 16> H          2.11090        0.81901       -2.18783
| 17> H          1.68276        2.51198       -2.12786
| 18> H          3.07216        1.93031       -1.24227
| 19> *
| 20>
| 21> %MaxCore 64000
| 22>
| 23> %pal nprocs 4
| 24> end
| 25>
| 26> %scf
| 27>   MaxIter 150
| 28> end
| 29>
| 30>
| 31>                          ****END OF INPUT****

CARTESIAN COORDINATES (ANGSTROEM)
---------------------------------
  C      3.380930    2.083040   -3.350130
  C      4.535920    1.182450   -3.428520
  C      2.495560    1.816150   -2.136360
  C      4.671960    0.122270   -4.220600
  N      5.866020   -0.507850   -4.224280
  N      3.698880   -0.312840   -4.986990
  H      2.731410   -0.050090   -4.849000
  H      3.890050   -1.055170   -5.643730
  H      5.251930    1.303460   -2.721010
  H      6.695160   -0.062320   -3.851600
  H      5.975380   -1.396880   -4.691410
  H      2.806460    1.986510   -4.268480
  H      3.778710    3.098280   -3.307380
  H      2.110900    0.819010   -2.187830
  H      1.682760    2.511980   -2.127860
  H      3.072160    1.930310   -1.242270

 Total Charge           Charge          ....    0
 Multiplicity           Mult            ....    1
 Number of Electrons    NEL             ....   48
 Basis Dimension        Dim             ....  246

ORBITAL ENERGIES
----------------

  NO   OCC          E(Eh)            E(eV)
   0   2.0000     -14.169963      -385.5843
   1   2.0000     -14.161954      -385.3664
   2   2.0000     -10.112021      -275.1621
   3   2.0000     -10.038664      -273.1659
   4   2.0000     -10.029793      -272.9245
   5   2.0000      -9.986753      -271.7534
   6   2.0000      -1.060859       -28.8674
   7   2.0000      -0.968165       -26.3451
   8   2.0000      -0.877762       -23.8851
   9   2.0000      -0.799335       -21.7510
  10   2.0000      -0.721402       -19.6303
  11   2.0000      -0.682321       -18.5669
  12   2.0000      -0.647712       -17.6251
  13   2.0000      -0.608994       -16.5716
  14   2.0000      -0.579127       -15.7588
  15   2.0000      -0.543880       -14.7997
  16   2.0000      -0.517868       -14.0919
  17   2.0000      -0.498300       -13.5594
  18   2.0000      -0.476960       -12.9787
  19   2.0000      -0.449948       -12.2437
  20   2.0000      -0.422024       -11.4838
  21   2.0000      -0.415039       -11.2938
  22   2.0000      -0.363101        -9.8805
  23   2.0000      -0.248804        -6.7703
  24   0.0000       0.083526         2.2729
  25   0.0000       0.111410         3.0316
  26   0.0000       0.129284         3.5180
  27   0.0000       0.145284         3.9534
  28   0.0000       0.156468         4.2577

MULLIKEN ATOMIC CHARGES
-----------------------
   0 C :   -0.297056
   1 C :   -0.371407
   2 C :   -0.324676
   3 C :    0.370008
   4 N :   -0.473332
   5 N :   -0.448155
   6 H :    0.245865
   7 H :    0.212489
   8 H :    0.103706
   9 H :    0.240867
  10 H :    0.206749
  11 H :    0.083470
  12 H :    0.113755
  13 H :    0.104590
  14 H :    0.115576
  15 H :    0.117550
Sum of atomic charges:   -0.0000000

LOEWDIN ATOMIC CHARGES
----------------------
   0 C :   -0.314575
   1 C :   -0.283585
   2 C :   -0.319350
   3 C :   -0.465865
   4 N :   -0.031120
   5 N :   -0.000070
   6 H :    0.177505
   7 H :    0.165339
   8 H :    0.122328
   9 H :    0.175416
  10 H :    0.156532
  11 H :    0.131010
  12 H :    0.140586
  13 H :    0.114585
  14 H :    0.112944
  15 H :    0.118322

  Mayer bond orders larger than 0.100000
B(  0-C ,  1-C ) :   1.0044 B(  0-C ,  2-C ) :   0.9242 B(  0-C , 11-H ) :   0.9908
B(  0-C , 12-H ) :   0.9961 B(  1-C ,  3-C ) :   1.6227 B(  1-C ,  8-H ) :   0.9932
B(  2-C , 13-H ) :   0.9754 B(  2-C , 14-H ) :   0.9850 B(  2-C , 15-H ) :   0.9819
B(  3-C ,  4-N ) :   1.1018 B(  3-C ,  5-N ) :   1.1265 B(  4-N ,  9-H ) :   0.9271
B(  4-N , 10-H ) :   0.9360 B(  5-N ,  6-H ) :   0.9270 B(  5-N ,  7-H ) :   0.9335

FINAL SINGLE POINT ENERGY      -267.299685708532

DIPOLE MOMENT
-------------
                                X             Y             Z
Electronic contribution:      3.01064      -2.85310      -2.93985
Nuclear contribution   :     -2.84307       1.95814       2.32378
                        -----------------------------------------
Total Dipole Moment    :      0.16756      -0.89496      -0.61607
                        -----------------------------------------
Magnitude (a.u.)       :      1.09935
Magnitude (Debye)      :      2.79433

Rotational constants in cm-1:     0.248902     0.068887     0.059904
Rotational constants in MHz :  7461.898926  2065.183281  1795.882140

                             ****ORCA TERMINATED NORMALLY****
TOTAL RUN TIME: 0 days 0 hours 0 minutes 33 seconds 862 msec
