                         Program Version 5.0.0 -  RELEASE  -
|  1> !LC-BLYP RIJCOSX def2-TZVP def2/J TightSCF
|  2> *xyz 0 1
|  3> C          2.49556        1.81615       -2.13636
|  4> C          1.87218        0.42790       -2.07750
|  5> H          2.61427       -0.36583       -2.19889
|  6> H          1.38995        0.27309       -1.11236
|  7> S          0.57902        0.14047       -3.29794
|  8> O          0.22886       -1.24687       -3.12787
|  9> F         -0.43927        1.11897       -3.01455
| 10> O          1.24788        0.40347       -4.59565
| 11> H          2.96535        1.95613       -3.08747
| 12> H          3.22581        1.91242       -1.36024
| 13> H          1.73350        2.55528       -2.00274
| 14> *
| 15>
| 16> %MaxCore 64000
| 17>
| 18> %pal nprocs 4
| 19> end
| 20>
| 21> %scf
| 22>   MaxIter 150
| 23> end
| 24>
| 25>
| 26>                          ****END OF INPUT****

CARTESIAN COORDINATES (ANGSTROEM)
---------------------------------
  C      2.495560    1.816150   -2.136360
  C      1.872180    0.427900   -2.077500
  H      2.614270   -0.365830   -2.198890
  H      1.389950    0.273090   -1.112360
  S      0.579020    0.140470   -3.297940
  O      0.228860   -1.246870   -3.127870
  F     -0.439270    1.118970   -3.014550
  O      1.247880    0.403470   -4.595650
  H      2.965350    1.956130   -3.087470
  H      3.225810    1.912420   -1.360240
  H      1.733500    2.555280   -2.002740

 Total Charge           Charge          ....    0
 Multiplicity           Mult            ....    1
 Number of Electrons    NEL             ....   58
 Basis Dimension        Dim             ....  222

ORBITAL ENERGIES
----------------

  NO   OCC          E(Eh)            E(eV)
   0   2.0000     -88.517876     -2408.6939
   1   2.0000     -24.577283      -668.7819
   2   2.0000     -18.952538      -515.7248
   3   2.0000     -18.937602      -515.3184
   4   2.0000     -10.128865      -275.6204
   5   2.0000     -10.086794      -274.4756
   6   2.0000      -8.060454      -219.3361
   7   2.0000      -6.092263      -165.7789
   8   2.0000      -6.085248      -165.5880
   9   2.0000      -6.084960      -165.5802
  10   2.0000      -1.467990       -39.9460
  11   2.0000      -1.201299       -32.6890
  12   2.0000      -1.098997       -29.9052
  13   2.0000      -0.933983       -25.4150
  14   2.0000      -0.838738       -22.8232
  15   2.0000      -0.786611       -21.4048
  16   2.0000      -0.704490       -19.1701
  17   2.0000      -0.692111       -18.8333
  18   2.0000      -0.651634       -17.7319
  19   2.0000      -0.600025       -16.3275
  20   2.0000      -0.583123       -15.8676
  21   2.0000      -0.555280       -15.1099
  22   2.0000      -0.534899       -14.5553
  23   2.0000      -0.510114       -13.8809
  24   2.0000      -0.499375       -13.5887
  25   2.0000      -0.479482       -13.0474
  26   2.0000      -0.434245       -11.8164
  27   2.0000      -0.420939       -11.4543
  28   2.0000      -0.407493       -11.0884
  29   0.0000       0.079219         2.1557
  30   0.0000       0.116829         3.1791
  31   0.0000       0.130106         3.5404
  32   0.0000       0.134958         3.6724
  33   0.0000       0.150367         4.0917

MULLIKEN ATOMIC CHARGES
-----------------------
   0 C :   -0.398228
   1 C :   -0.298504
   2 H :    0.183381
   3 H :    0.159733
   4 S :    0.742411
   5 O :   -0.356085
   6 F :   -0.069139
   7 O :   -0.415403
   8 H :    0.168997
   9 H :    0.146100
  10 H :    0.136737
Sum of atomic charges:    0.0000000

LOEWDIN ATOMIC CHARGES
----------------------
   0 C :   -0.331409
   1 C :   -0.404545
   2 H :    0.153854
   3 H :    0.140440
   4 S :    0.497468
   5 O :   -0.250563
   6 F :    0.114524
   7 O :   -0.303616
   8 H :    0.131451
   9 H :    0.129071
  10 H :    0.123325

  Mayer bond orders larger than 0.100000
B(  0-C ,  1-C ) :   0.9183 B(  0-C ,  8-H ) :   0.9630 B(  0-C ,  9-H ) :   0.9649
B(  0-C , 10-H ) :   0.9692 B(  1-C ,  2-H ) :   0.9418 B(  1-C ,  3-H ) :   0.9444
B(  1-C ,  4-S ) :   0.9170 B(  4-S ,  5-O ) :   2.0020 B(  4-S ,  6-F ) :   1.1725
B(  4-S ,  7-O ) :   1.9089

FINAL SINGLE POINT ENERGY      -726.982879798368

DIPOLE MOMENT
-------------
                                X             Y             Z
Electronic contribution:     -7.94874      -2.41266      -3.88522
Nuclear contribution   :      8.30151       3.35500       5.26935
                        -----------------------------------------
Total Dipole Moment    :      0.35277       0.94234       1.38413
                        -----------------------------------------
Magnitude (a.u.)       :      1.71122
Magnitude (Debye)      :      4.34957

Rotational constants in cm-1:     0.152913     0.083043     0.080351
Rotational constants in MHz :  4584.227971  2489.580280  2408.872860

                             ****ORCA TERMINATED NORMALLY****
TOTAL RUN TIME: 0 days 0 hours 0 minutes 23 seconds 254 msec
