                         Program Version 5.0.0 -  RELEASE  -
|  1> !LC-BLYP RIJCOSX def2-TZVP def2/J TightSCF
|  2> *xyz 0 1
|  3> C          3.38093        2.08304       -3.35013
|  4> N          4.53592        1.18245       -3.42852
|  5> C          2.49556        1.81615       -2.13636
|  6> C          4.67196        0.12227       -4.22060
|  7> C          5.86602       -0.50785       -4.22428
|  8> N          3.69888       -0.31284       -4.98699
|  9> H          2.73141       -0.05009       -4.84900
| 10> H          3.89005       -1.05517       -5.64373
| 11> H          5.25193        1.30346       -2.72101
| 12> H          6.69516       -0.06232       -3.85160
| 13> H          5.97538       -1.39688       -4.69141
| 14> H          2.80646        1.98651       -4.26848
| 15> H          3.77871        3.09828       -3.30738
| 16> H          2.11090        0.81901       -2.18783
| 17> H          1.68276        2.51198       -2.12786
| 18> H          3.07216        1.93031       -1.24227
| 19> *
| 20>
| 21> %MaxCore 64000
| 22>
| 23> %pal nprocs 4
| 24> end
| 25>
| 26> %scf
| 27>   MaxIter 150
| 28> end
| 29>
| 30>
| 31>                          ****END OF INPUT****

CARTESIAN COORDINATES (ANGSTROEM)
---------------------------------
  C      3.380930    2.083040   -3.350130
  N      4.535920    1.182450   -3.428520
  C      2.495560    1.816150   -2.136360
  C      4.671960    0.122270   -4.220600
  C      5.866020   -0.507850   -4.224280
  N      3.698880   -0.312840   -4.986990
  H      2.731410   -0.050090   -4.849000
  H      3.890050   -1.055170   -5.643730
  H      5.251930    1.303460   -2.721010
  H      6.695160   -0.062320   -3.851600
  H      5.975380   -1.396880   -4.691410
  H      2.806460    1.986510   -4.268480
  H      3.778710    3.098280   -3.307380
  H      2.110900    0.819010   -2.187830
  H      1.682760    2.511980   -2.127860
  H      3.072160    1.930310   -1.242270

 Total Charge           Charge          ....    0
 Multiplicity           Mult            ....    1
 Number of Electrons    NEL             ....   48
 Basis Dimension        Dim             ....  246

ORBITAL ENERGIES
----------------

  NO   OCC          E(Eh)            E(eV)
   0   2.0000     -14.170683      -385.6039
   1   2.0000     -14.168019      -385.5314
   2   2.0000     -10.117358      -275.3073
   3   2.0000     -10.107928      -275.0507
   4   2.0000     -10.060174      -273.7513
   5   2.0000      -9.973819      -271.4014
   6   2.0000      -1.069219       -29.0949
   7   2.0000      -0.988339       -26.8941
   8   2.0000      -0.880116       -23.9492
   9   2.0000      -0.803271       -21.8581
  10   2.0000      -0.734277       -19.9807
  11   2.0000      -0.708520       -19.2798
  12   2.0000      -0.648858       -17.6563
  13   2.0000      -0.601701       -16.3731
  14   2.0000      -0.583542       -15.8790
  15   2.0000      -0.549713       -14.9585
  16   2.0000      -0.532912       -14.5013
  17   2.0000      -0.504298       -13.7226
  18   2.0000      -0.489217       -13.3123
  19   2.0000      -0.466655       -12.6983
  20   2.0000      -0.461770       -12.5654
  21   2.0000      -0.452610       -12.3161
  22   2.0000      -0.351576        -9.5669
  23   2.0000      -0.250087        -6.8052
  24   0.0000       0.082424         2.2429
  25   0.0000       0.113764         3.0957
  26   0.0000       0.124350         3.3837
  27   0.0000       0.144039         3.9195
  28   0.0000       0.155890         4.2420

MULLIKEN ATOMIC CHARGES
-----------------------
   0 C :   -0.237257
   1 N :   -0.282904
   2 C :   -0.324528
   3 C :    0.412062
   4 C :   -0.631300
   5 N :   -0.458557
   6 H :    0.223652
   7 H :    0.240904
   8 H :    0.222238
   9 H :    0.106945
  10 H :    0.092978
  11 H :    0.127251
  12 H :    0.137801
  13 H :    0.121427
  14 H :    0.125320
  15 H :    0.123967
Sum of atomic charges:   -0.0000000

LOEWDIN ATOMIC CHARGES
----------------------
   0 C :   -0.320877
   1 N :    0.121373
   2 C :   -0.321614
   3 C :   -0.469268
   4 C :   -0.370782
   5 N :    0.004785
   6 H :    0.163110
   7 H :    0.181976
   8 H :    0.195467
   9 H :    0.096085
  10 H :    0.094031
  11 H :    0.132051
  12 H :    0.133937
  13 H :    0.118988
  14 H :    0.121047
  15 H :    0.119691

  Mayer bond orders larger than 0.100000
B(  0-C ,  1-N ) :   0.9265 B(  0-C ,  2-C ) :   0.9222 B(  0-C , 11-H ) :   0.9884
B(  0-C , 12-H ) :   0.9835 B(  1-N ,  3-C ) :   1.1776 B(  1-N ,  8-H ) :   0.9313
B(  2-C , 13-H ) :   0.9693 B(  2-C , 14-H ) :   0.9763 B(  2-C , 15-H ) :   0.9752
B(  3-C ,  4-C ) :   1.5264 B(  3-C ,  5-N ) :   1.1365 B(  4-C ,  9-H ) :   1.0103
B(  4-C , 10-H ) :   1.0164 B(  5-N ,  6-H ) :   0.9318 B(  5-N ,  7-H ) :   0.9278

FINAL SINGLE POINT ENERGY      -267.289727109196

DIPOLE MOMENT
-------------
                                X             Y             Z
Electronic contribution:      1.46544      -1.09334      -2.05138
Nuclear contribution   :     -2.56090       1.59955       2.15496
                        -----------------------------------------
Total Dipole Moment    :     -1.09547       0.50621       0.10358
                        -----------------------------------------
Magnitude (a.u.)       :      1.21121
Magnitude (Debye)      :      3.07864

Rotational constants in cm-1:     0.249834     0.071381     0.061833
Rotational constants in MHz :  7489.842787  2139.945635  1853.706310

                             ****ORCA TERMINATED NORMALLY****
TOTAL RUN TIME: 0 days 0 hours 0 minutes 32 seconds 561 msec
