                         Program Version 5.0.0 -  RELEASE  -
|  1> !LC-BLYP RIJCOSX def2-TZVP def2/J TightSCF
|  2> *xyz 0 1
|  3> C          2.49556        1.81615       -2.13636
|  4> C          1.87218        0.42790       -2.07750
|  5> H          2.61427       -0.36583       -2.19889
|  6> H          1.38995        0.27309       -1.11236
|  7> S          0.57902        0.14047       -3.29794
|  8> O          0.22886       -1.24687       -3.12787
|  9> O         -0.43927        1.11897       -3.01455
| 10> F          1.24788        0.40347       -4.59565
| 11> H          2.96535        1.95613       -3.08747
| 12> H          3.22581        1.91242       -1.36024
| 13> H          1.73350        2.55528       -2.00274
| 14> *
| 15>
| 16> %MaxCore 64000
| 17>
| 18> %pal nprocs 4
| 19> end
| 20>
| 21> %scf
| 22>   MaxIter 150
| 23> end
| 24>
| 25>
| 26>                          ****END OF INPUT****

CARTESIAN COORDINATES (ANGSTROEM)
---------------------------------
  C      2.495560    1.816150   -2.136360
  C      1.872180    0.427900   -2.077500
  H      2.614270   -0.365830   -2.198890
  H      1.389950    0.273090   -1.112360
  S      0.579020    0.140470   -3.297940
  O      0.228860   -1.246870   -3.127870
  O     -0.439270    1.118970   -3.014550
  F      1.247880    0.403470   -4.595650
  H      2.965350    1.956130   -3.087470
  H      3.225810    1.912420   -1.360240
  H      1.733500    2.555280   -2.002740

 Total Charge           Charge          ....    0
 Multiplicity           Mult            ....    1
 Number of Electrons    NEL             ....   58
 Basis Dimension        Dim             ....  222

ORBITAL ENERGIES
----------------

  NO   OCC          E(Eh)            E(eV)
   0   2.0000     -88.515532     -2408.6301
   1   2.0000     -24.554869      -668.1720
   2   2.0000     -18.952325      -515.7190
   3   2.0000     -18.952065      -515.7119
   4   2.0000     -10.127883      -275.5937
   5   2.0000     -10.087401      -274.4921
   6   2.0000      -8.058145      -219.2733
   7   2.0000      -6.090022      -165.7179
   8   2.0000      -6.083071      -165.5288
   9   2.0000      -6.082598      -165.5159
  10   2.0000      -1.432547       -38.9816
  11   2.0000      -1.211530       -32.9674
  12   2.0000      -1.119579       -30.4653
  13   2.0000      -0.933515       -25.4022
  14   2.0000      -0.826098       -22.4793
  15   2.0000      -0.779103       -21.2005
  16   2.0000      -0.687686       -18.7129
  17   2.0000      -0.667463       -18.1626
  18   2.0000      -0.649110       -17.6632
  19   2.0000      -0.601310       -16.3625
  20   2.0000      -0.579933       -15.7808
  21   2.0000      -0.558276       -15.1915
  22   2.0000      -0.539714       -14.6864
  23   2.0000      -0.512222       -13.9383
  24   2.0000      -0.504739       -13.7346
  25   2.0000      -0.481245       -13.0954
  26   2.0000      -0.443108       -12.0576
  27   2.0000      -0.430742       -11.7211
  28   2.0000      -0.422646       -11.5008
  29   0.0000       0.080301         2.1851
  30   0.0000       0.122671         3.3381
  31   0.0000       0.131629         3.5818
  32   0.0000       0.136785         3.7221
  33   0.0000       0.149491         4.0679

MULLIKEN ATOMIC CHARGES
-----------------------
   0 C :   -0.403161
   1 C :   -0.300019
   2 H :    0.167881
   3 H :    0.177291
   4 S :    0.743422
   5 O :   -0.363601
   6 O :   -0.369774
   7 F :   -0.106198
   8 H :    0.141991
   9 H :    0.146856
  10 H :    0.165311
Sum of atomic charges:   -0.0000000

LOEWDIN ATOMIC CHARGES
----------------------
   0 C :   -0.332128
   1 C :   -0.404066
   2 H :    0.142509
   3 H :    0.152876
   4 S :    0.503781
   5 O :   -0.254420
   6 O :   -0.254443
   7 F :    0.061985
   8 H :    0.123842
   9 H :    0.129439
  10 H :    0.130625

  Mayer bond orders larger than 0.100000
B(  0-C ,  1-C ) :   0.9177 B(  0-C ,  8-H ) :   0.9693 B(  0-C ,  9-H ) :   0.9655
B(  0-C , 10-H ) :   0.9637 B(  1-C ,  2-H ) :   0.9444 B(  1-C ,  3-H ) :   0.9420
B(  1-C ,  4-S ) :   0.9176 B(  4-S ,  5-O ) :   2.0018 B(  4-S ,  6-O ) :   1.9652
B(  4-S ,  7-F ) :   1.1299

FINAL SINGLE POINT ENERGY      -727.001380551292

DIPOLE MOMENT
-------------
                                X             Y             Z
Electronic contribution:     -5.07231      -3.61969      -6.58131
Nuclear contribution   :      6.54345       4.10057       6.91691
                        -----------------------------------------
Total Dipole Moment    :      1.47114       0.48089       0.33560
                        -----------------------------------------
Magnitude (a.u.)       :      1.58371
Magnitude (Debye)      :      4.02547

Rotational constants in cm-1:     0.152835     0.082826     0.080611
Rotational constants in MHz :  4581.878371  2483.049050  2416.647141

                             ****ORCA TERMINATED NORMALLY****
TOTAL RUN TIME: 0 days 0 hours 0 minutes 23 seconds 80 msec
