                         Program Version 5.0.0 -  RELEASE  -
|  1> !LC-BLYP RIJCOSX def2-TZVP def2/J TightSCF
|  2> *xyz 0 1
|  3> C          3.38093        2.08304       -3.35013
|  4> N          4.53592        1.18245       -3.42852
|  5> C          2.49556        1.81615       -2.13636
|  6> C          4.67196        0.12227       -4.22060
|  7> N          5.86602       -0.50785       -4.22428
|  8> C          3.69888       -0.31284       -4.98699
|  9> H          2.73141       -0.05009       -4.84900
| 10> H          3.89005       -1.05517       -5.64373
| 11> H          5.25193        1.30346       -2.72101
| 12> H          6.69516       -0.06232       -3.85160
| 13> H          5.97538       -1.39688       -4.69141
| 14> H          2.80646        1.98651       -4.26848
| 15> H          3.77871        3.09828       -3.30738
| 16> H          2.11090        0.81901       -2.18783
| 17> H          1.68276        2.51198       -2.12786
| 18> H          3.07216        1.93031       -1.24227
| 19> *
| 20>
| 21> %MaxCore 64000
| 22>
| 23> %pal nprocs 4
| 24> end
| 25>
| 26> %scf
| 27>   MaxIter 150
| 28> end
| 29>
| 30>
| 31>                          ****END OF INPUT****

CARTESIAN COORDINATES (ANGSTROEM)
---------------------------------
  C      3.380930    2.083040   -3.350130
  N      4.535920    1.182450   -3.428520
  C      2.495560    1.816150   -2.136360
  C      4.671960    0.122270   -4.220600
  N      5.866020   -0.507850   -4.224280
  C      3.698880   -0.312840   -4.986990
  H      2.731410   -0.050090   -4.849000
  H      3.890050   -1.055170   -5.643730
  H      5.251930    1.303460   -2.721010
  H      6.695160   -0.062320   -3.851600
  H      5.975380   -1.396880   -4.691410
  H      2.806460    1.986510   -4.268480
  H      3.778710    3.098280   -3.307380
  H      2.110900    0.819010   -2.187830
  H      1.682760    2.511980   -2.127860
  H      3.072160    1.930310   -1.242270

 Total Charge           Charge          ....    0
 Multiplicity           Mult            ....    1
 Number of Electrons    NEL             ....   48
 Basis Dimension        Dim             ....  246

ORBITAL ENERGIES
----------------

  NO   OCC          E(Eh)            E(eV)
   0   2.0000     -14.168004      -385.5310
   1   2.0000     -14.163388      -385.4054
   2   2.0000     -10.114244      -275.2226
   3   2.0000     -10.099087      -274.8101
   4   2.0000     -10.052163      -273.5333
   5   2.0000      -9.977905      -271.5126
   6   2.0000      -1.062583       -28.9143
   7   2.0000      -0.979567       -26.6554
   8   2.0000      -0.864097       -23.5133
   9   2.0000      -0.817317       -22.2403
  10   2.0000      -0.746121       -20.3030
  11   2.0000      -0.669231       -18.2107
  12   2.0000      -0.648594       -17.6491
  13   2.0000      -0.617472       -16.8023
  14   2.0000      -0.559778       -15.2323
  15   2.0000      -0.553250       -15.0547
  16   2.0000      -0.525971       -14.3124
  17   2.0000      -0.501500       -13.6465
  18   2.0000      -0.479695       -13.0532
  19   2.0000      -0.473934       -12.8964
  20   2.0000      -0.454137       -12.3577
  21   2.0000      -0.446893       -12.1606
  22   2.0000      -0.343879        -9.3574
  23   2.0000      -0.262528        -7.1438
  24   0.0000       0.088285         2.4023
  25   0.0000       0.111861         3.0439
  26   0.0000       0.130992         3.5645
  27   0.0000       0.149155         4.0587
  28   0.0000       0.155569         4.2332

MULLIKEN ATOMIC CHARGES
-----------------------
   0 C :   -0.189406
   1 N :   -0.304233
   2 C :   -0.351354
   3 C :    0.437496
   4 N :   -0.492556
   5 C :   -0.612233
   6 H :    0.114096
   7 H :    0.089684
   8 H :    0.190493
   9 H :    0.213718
  10 H :    0.238865
  11 H :    0.154481
  12 H :    0.129413
  13 H :    0.141896
  14 H :    0.125351
  15 H :    0.114288
Sum of atomic charges:    0.0000000

LOEWDIN ATOMIC CHARGES
----------------------
   0 C :   -0.304871
   1 N :    0.114614
   2 C :   -0.320114
   3 C :   -0.465049
   4 N :   -0.028445
   5 C :   -0.345446
   6 H :    0.101229
   7 H :    0.101175
   8 H :    0.177884
   9 H :    0.158777
  10 H :    0.173910
  11 H :    0.142648
  12 H :    0.131643
  13 H :    0.124337
  14 H :    0.121466
  15 H :    0.116243

  Mayer bond orders larger than 0.100000
B(  0-C ,  1-N ) :   0.8948 B(  0-C ,  2-C ) :   0.9284 B(  0-C , 11-H ) :   0.9777
B(  0-C , 12-H ) :   0.9839 B(  1-N ,  3-C ) :   1.1519 B(  1-N ,  8-H ) :   0.9397
B(  2-C , 13-H ) :   0.9731 B(  2-C , 14-H ) :   0.9779 B(  2-C , 15-H ) :   0.9753
B(  3-C ,  4-N ) :   1.0867 B(  3-C ,  5-C ) :   1.5846 B(  4-N ,  9-H ) :   0.9347
B(  4-N , 10-H ) :   0.9309 B(  5-C ,  6-H ) :   1.0047 B(  5-C ,  7-H ) :   1.0157

FINAL SINGLE POINT ENERGY      -267.294793097933

DIPOLE MOMENT
-------------
                                X             Y             Z
Electronic contribution:      3.72707      -1.31771      -1.32662
Nuclear contribution   :     -3.02065       1.64092       1.99316
                        -----------------------------------------
Total Dipole Moment    :      0.70642       0.32321       0.66654
                        -----------------------------------------
Magnitude (a.u.)       :      1.02361
Magnitude (Debye)      :      2.60180

Rotational constants in cm-1:     0.259304     0.069422     0.060943
Rotational constants in MHz :  7773.747720  2081.225169  1827.013389

                             ****ORCA TERMINATED NORMALLY****
TOTAL RUN TIME: 0 days 0 hours 0 minutes 32 seconds 350 msec
