                         Program Version 5.0.0 -  RELEASE  -
|  1> !LC-BLYP RIJCOSX def2-TZVP def2/J TightSCF xyzfile
|  2>
|  3> *xyzfile 0 1 D1.xyz
|  4>
|  5> %MaxCore 64000
|  6>
|  7> %pal nprocs 18
|  8> end
|  9>
| 10> %scf
| 11>   MaxIter 150
| 12> end
| 13>
| 14>
| 15>                          ****END OF INPUT****

CARTESIAN COORDINATES (ANGSTROEM)
---------------------------------
  C      3.380928    2.083045   -3.350127
  C      4.535924    1.182447   -3.428518
  C      2.495557    1.816150   -2.136364
  C      1.872181    0.427903   -2.077497
  H      2.614270   -0.365825   -2.198894
  H      1.389953    0.273087   -1.112360
  S      0.579024    0.140472   -3.297943
  C      4.671956    0.122273   -4.220598
  N      5.866023   -0.507849   -4.224284
  N      3.698881   -0.312844   -4.986988
  H      2.731405   -0.050091   -4.849000
  H      3.890046   -1.055172   -5.643730
  H      5.251933    1.303459   -2.721014
  H      6.695165   -0.062322   -3.851596
  H      5.975383   -1.396884   -4.691414
  F      0.228860   -1.246868   -3.127871
  O     -0.439269    1.118966   -3.014550
  O      1.247881    0.403474   -4.595647
  H      1.697003    2.561969   -2.141109
  H      3.080787    1.987436   -1.225838
  H      2.806463    1.986511   -4.268484
  H      3.778714    3.098282   -3.307383

 Total Charge           Charge          ....    0
 Multiplicity           Mult            ....    1
 Number of Electrons    NEL             ....   96
 Basis Dimension        Dim             ....  413

ORBITAL ENERGIES
----------------

  NO   OCC          E(Eh)            E(eV)
   0   2.0000     -88.527661     -2408.9601
   1   2.0000     -24.584484      -668.9778
   2   2.0000     -18.959964      -515.9269
   3   2.0000     -18.955040      -515.7929
   4   2.0000     -14.159597      -385.3022
   5   2.0000     -14.143234      -384.8570
   6   2.0000     -10.120696      -275.3981
   7   2.0000     -10.109297      -275.0880
   8   2.0000     -10.076442      -274.1939
   9   2.0000     -10.042084      -273.2590
  10   2.0000      -9.985825      -271.7281
  11   2.0000      -8.070548      -219.6108
  12   2.0000      -6.102167      -166.0484
  13   2.0000      -6.095655      -165.8712
  14   2.0000      -6.094842      -165.8491
  15   2.0000      -1.475046       -40.1380
  16   2.0000      -1.214396       -33.0454
  17   2.0000      -1.117825       -30.4176
  18   2.0000      -1.051754       -28.6197
  19   2.0000      -0.959061       -26.0974
  20   2.0000      -0.934341       -25.4247
  21   2.0000      -0.871636       -23.7184
  22   2.0000      -0.831591       -22.6288
  23   2.0000      -0.787908       -21.4401
  24   2.0000      -0.734940       -19.9987
  25   2.0000      -0.704666       -19.1749
  26   2.0000      -0.695382       -18.9223
  27   2.0000      -0.683872       -18.6091
  28   2.0000      -0.656646       -17.8682
  29   2.0000      -0.640551       -17.4303
  30   2.0000      -0.619191       -16.8490
  31   2.0000      -0.592832       -16.1318
  32   2.0000      -0.590331       -16.0637
  33   2.0000      -0.570259       -15.5175
  34   2.0000      -0.555268       -15.1096
  35   2.0000      -0.537145       -14.6164
  36   2.0000      -0.508508       -13.8372
  37   2.0000      -0.507178       -13.8010
  38   2.0000      -0.495133       -13.4732
  39   2.0000      -0.483478       -13.1561
  40   2.0000      -0.457956       -12.4616
  41   2.0000      -0.452140       -12.3034
  42   2.0000      -0.436093       -11.8667
  43   2.0000      -0.432510       -11.7692
  44   2.0000      -0.416212       -11.3257
  45   2.0000      -0.406992       -11.0748
  46   2.0000      -0.352969        -9.6048
  47   2.0000      -0.248989        -6.7753
  48   0.0000       0.086709         2.3595
  49   0.0000       0.098158         2.6710
  50   0.0000       0.106574         2.9000
  51   0.0000       0.130907         3.5622
  52   0.0000       0.132987         3.6187

MULLIKEN ATOMIC CHARGES
-----------------------
   0 C :   -0.385708
   1 C :   -0.392421
   2 C :   -0.190157
   3 C :   -0.385622
   4 H :    0.206323
   5 H :    0.177496
   6 S :    0.777798
   7 C :    0.340432
   8 N :   -0.475368
   9 N :   -0.435706
  10 H :    0.248441
  11 H :    0.200791
  12 H :    0.101052
  13 H :    0.238066
  14 H :    0.207086
  15 F :   -0.063274
  16 O :   -0.347130
  17 O :   -0.421828
  18 H :    0.154876
  19 H :    0.135749
  20 H :    0.182551
  21 H :    0.126551
Sum of atomic charges:   -0.0000000

LOEWDIN ATOMIC CHARGES
----------------------
   0 C :   -0.292123
   1 C :   -0.298553
   2 C :   -0.284150
   3 C :   -0.379282
   4 H :    0.150804
   5 H :    0.144587
   6 S :    0.522561
   7 C :   -0.472727
   8 N :   -0.030962
   9 N :   -0.000357
  10 H :    0.131154
  11 H :    0.160696
  12 H :    0.120172
  13 H :    0.173399
  14 H :    0.156570
  15 F :    0.117251
  16 O :   -0.238820
  17 O :   -0.273346
  18 H :    0.147927
  19 H :    0.150541
  20 H :    0.148652
  21 H :    0.146007

  Mayer bond orders larger than 0.100000
B(  0-C ,  1-C ) :   0.9428 B(  0-C ,  2-C ) :   0.9082 B(  0-C , 20-H ) :   0.9933
B(  0-C , 21-H ) :   0.9987 B(  1-C ,  7-C ) :   1.5871 B(  1-C , 12-H ) :   0.9949
B(  2-C ,  3-C ) :   0.9092 B(  2-C , 18-H ) :   0.9715 B(  2-C , 19-H ) :   0.9652
B(  3-C ,  4-H ) :   0.9260 B(  3-C ,  5-H ) :   0.9462 B(  3-C ,  6-S ) :   0.9455
B(  6-S , 15-F ) :   1.1930 B(  6-S , 16-O ) :   2.0016 B(  6-S , 17-O ) :   1.7471
B(  7-C ,  8-N ) :   1.1084 B(  7-C ,  9-N ) :   1.1822 B(  8-N , 13-H ) :   0.9284
B(  8-N , 14-H ) :   0.9355 B(  9-N , 10-H ) :   0.8436 B(  9-N , 11-H ) :   0.9369
B( 10-H , 17-O ) :   0.1485

FINAL SINGLE POINT ENERGY      -953.907181039729

DIPOLE MOMENT
-------------
                                X             Y             Z
Electronic contribution:    -15.29415      -6.78565      -1.16848
Nuclear contribution   :     15.92508       5.34175       1.81950
                        -----------------------------------------
Total Dipole Moment    :      0.63093      -1.44390       0.65102
                        -----------------------------------------
Magnitude (a.u.)       :      1.70492
Magnitude (Debye)      :      4.33356

Rotational constants in cm-1:     0.058561     0.020662     0.017762
Rotational constants in MHz :  1755.621534   619.433801   532.501507

                             ****ORCA TERMINATED NORMALLY****
TOTAL RUN TIME: 0 days 0 hours 0 minutes 37 seconds 150 msec
