                         Program Version 5.0.0 -  RELEASE  -
|  1> !LC-BLYP RIJCOSX def2-TZVP def2/J TightSCF xyzfile
|  2>
|  3> *xyzfile 0 1 D2.xyz
|  4>
|  5> %MaxCore 64000
|  6>
|  7> %pal nprocs 18
|  8> end
|  9>
| 10> %scf
| 11>   MaxIter 150
| 12> end
| 13>
| 14>
| 15>                          ****END OF INPUT****

CARTESIAN COORDINATES (ANGSTROEM)
---------------------------------
  C      3.380928    2.083045   -3.350127
  N      4.535924    1.182447   -3.428518
  C      2.495557    1.816150   -2.136364
  C      1.872181    0.427903   -2.077497
  H      2.614270   -0.365825   -2.198894
  H      1.389953    0.273087   -1.112360
  S      0.579024    0.140472   -3.297943
  C      4.671956    0.122273   -4.220598
  C      5.866023   -0.507849   -4.224284
  N      3.698881   -0.312844   -4.986988
  H      2.731405   -0.050091   -4.849000
  H      3.890046   -1.055172   -5.643730
  H      5.251933    1.303459   -2.721014
  H      6.695165   -0.062322   -3.851596
  H      5.975383   -1.396884   -4.691414
  F      0.228860   -1.246868   -3.127871
  O     -0.439269    1.118966   -3.014550
  O      1.247881    0.403474   -4.595647
  H      1.697003    2.561969   -2.141109
  H      3.080787    1.987436   -1.225838
  H      2.806463    1.986511   -4.268484
  H      3.778714    3.098282   -3.307383

 Total Charge           Charge          ....    0
 Multiplicity           Mult            ....    1
 Number of Electrons    NEL             ....   96
 Basis Dimension        Dim             ....  413

ORBITAL ENERGIES
----------------

  NO   OCC          E(Eh)            E(eV)
   0   2.0000     -88.542086     -2409.3527
   1   2.0000     -24.596405      -669.3022
   2   2.0000     -18.973512      -516.2955
   3   2.0000     -18.967666      -516.1364
   4   2.0000     -14.169526      -385.5724
   5   2.0000     -14.141236      -384.8026
   6   2.0000     -10.140312      -275.9319
   7   2.0000     -10.110911      -275.1319
   8   2.0000     -10.109908      -275.1046
   9   2.0000     -10.105300      -274.9792
  10   2.0000      -9.967656      -271.2337
  11   2.0000      -8.084792      -219.9984
  12   2.0000      -6.116344      -166.4342
  13   2.0000      -6.109897      -166.2587
  14   2.0000      -6.109231      -166.2406
  15   2.0000      -1.486803       -40.4580
  16   2.0000      -1.227859       -33.4117
  17   2.0000      -1.130946       -30.7746
  18   2.0000      -1.063128       -28.9292
  19   2.0000      -0.982521       -26.7357
  20   2.0000      -0.945223       -25.7208
  21   2.0000      -0.879112       -23.9218
  22   2.0000      -0.833317       -22.6757
  23   2.0000      -0.795428       -21.6447
  24   2.0000      -0.745432       -20.2842
  25   2.0000      -0.714796       -19.4506
  26   2.0000      -0.703916       -19.1545
  27   2.0000      -0.701808       -19.0972
  28   2.0000      -0.687236       -18.7006
  29   2.0000      -0.651661       -17.7326
  30   2.0000      -0.617018       -16.7899
  31   2.0000      -0.595342       -16.2001
  32   2.0000      -0.591207       -16.0875
  33   2.0000      -0.585589       -15.9347
  34   2.0000      -0.566078       -15.4038
  35   2.0000      -0.548212       -14.9176
  36   2.0000      -0.520698       -14.1689
  37   2.0000      -0.512414       -13.9435
  38   2.0000      -0.507614       -13.8129
  39   2.0000      -0.489479       -13.3194
  40   2.0000      -0.484223       -13.1764
  41   2.0000      -0.469154       -12.7663
  42   2.0000      -0.456575       -12.4240
  43   2.0000      -0.447864       -12.1870
  44   2.0000      -0.437923       -11.9165
  45   2.0000      -0.424394       -11.5483
  46   2.0000      -0.345051        -9.3893
  47   2.0000      -0.244776        -6.6607
  48   0.0000       0.076205         2.0737
  49   0.0000       0.083937         2.2840
  50   0.0000       0.115114         3.1324
  51   0.0000       0.117431         3.1955
  52   0.0000       0.123824         3.3694

MULLIKEN ATOMIC CHARGES
-----------------------
   0 C :   -0.332296
   1 N :   -0.287534
   2 C :   -0.211863
   3 C :   -0.378744
   4 H :    0.210311
   5 H :    0.185192
   6 S :    0.784415
   7 C :    0.378505
   8 C :   -0.639335
   9 N :   -0.451175
  10 H :    0.236125
  11 H :    0.227766
  12 H :    0.219246
  13 H :    0.103149
  14 H :    0.091930
  15 F :   -0.057614
  16 O :   -0.346225
  17 O :   -0.418027
  18 H :    0.162719
  19 H :    0.149156
  20 H :    0.220761
  21 H :    0.153534
Sum of atomic charges:    0.0000000

LOEWDIN ATOMIC CHARGES
----------------------
   0 C :   -0.297108
   1 N :    0.119776
   2 C :   -0.291842
   3 C :   -0.378976
   4 H :    0.153678
   5 H :    0.147810
   6 S :    0.523746
   7 C :   -0.483103
   8 C :   -0.382077
   9 N :    0.000350
  10 H :    0.122911
  11 H :    0.176835
  12 H :    0.193368
  13 H :    0.093639
  14 H :    0.093324
  15 F :    0.123013
  16 O :   -0.237057
  17 O :   -0.271965
  18 H :    0.154735
  19 H :    0.151589
  20 H :    0.147572
  21 H :    0.139781

  Mayer bond orders larger than 0.100000
B(  0-C ,  1-N ) :   0.8876 B(  0-C ,  2-C ) :   0.9030 B(  0-C , 20-H ) :   0.9764
B(  0-C , 21-H ) :   0.9894 B(  1-N ,  7-C ) :   1.1496 B(  1-N , 12-H ) :   0.9323
B(  2-C ,  3-C ) :   0.9065 B(  2-C , 18-H ) :   0.9647 B(  2-C , 19-H ) :   0.9633
B(  3-C ,  4-H ) :   0.9240 B(  3-C ,  5-H ) :   0.9434 B(  3-C ,  6-S ) :   0.9411
B(  6-S , 15-F ) :   1.2027 B(  6-S , 16-O ) :   1.9973 B(  6-S , 17-O ) :   1.7500
B(  7-C ,  8-C ) :   1.5246 B(  7-C ,  9-N ) :   1.1826 B(  8-C , 13-H ) :   1.0104
B(  8-C , 14-H ) :   1.0154 B(  9-N , 10-H ) :   0.8559 B(  9-N , 11-H ) :   0.9348
B( 10-H , 17-O ) :   0.1334

FINAL SINGLE POINT ENERGY      -953.892720201237

DIPOLE MOMENT
-------------
                                X             Y             Z
Electronic contribution:    -16.80523      -5.25681      -0.35524
Nuclear contribution   :     16.05479       5.17692       1.74190
                        -----------------------------------------
Total Dipole Moment    :     -0.75044      -0.07989       1.38666
                        -----------------------------------------
Magnitude (a.u.)       :      1.57873
Magnitude (Debye)      :      4.01280

Rotational constants in cm-1:     0.058652     0.021107     0.018077
Rotational constants in MHz :  1758.344290   632.763813   541.920558

                             ****ORCA TERMINATED NORMALLY****
TOTAL RUN TIME: 0 days 0 hours 0 minutes 37 seconds 691 msec
