                         Program Version 5.0.0 -  RELEASE  -
|  1> !LC-BLYP RIJCOSX def2-TZVP def2/J TightSCF xyzfile
|  2>
|  3> *xyzfile 0 1 D4.xyz
|  4>
|  5> %MaxCore 64000
|  6>
|  7> %pal nprocs 18
|  8> end
|  9>
| 10> %scf
| 11>   MaxIter 150
| 12> end
| 13>
| 14>
| 15>                          ****END OF INPUT****

CARTESIAN COORDINATES (ANGSTROEM)
---------------------------------
  C      3.380928    2.083045   -3.350127
  C      4.535924    1.182447   -3.428518
  C      2.495557    1.816150   -2.136364
  C      1.872181    0.427903   -2.077497
  H      2.614270   -0.365825   -2.198894
  H      1.389953    0.273087   -1.112360
  S      0.579024    0.140472   -3.297943
  C      4.671956    0.122273   -4.220598
  N      5.866023   -0.507849   -4.224284
  N      3.698881   -0.312844   -4.986988
  H      2.731405   -0.050091   -4.849000
  H      3.890046   -1.055172   -5.643730
  H      5.251933    1.303459   -2.721014
  H      6.695165   -0.062322   -3.851596
  H      5.975383   -1.396884   -4.691414
  O      0.228860   -1.246868   -3.127871
  F     -0.439269    1.118966   -3.014550
  O      1.247881    0.403474   -4.595647
  H      1.697003    2.561969   -2.141109
  H      3.080787    1.987436   -1.225838
  H      2.806463    1.986511   -4.268484
  H      3.778714    3.098282   -3.307383

 Total Charge           Charge          ....    0
 Multiplicity           Mult            ....    1
 Number of Electrons    NEL             ....   96
 Basis Dimension        Dim             ....  413

ORBITAL ENERGIES
----------------

  NO   OCC          E(Eh)            E(eV)
   0   2.0000     -88.527976     -2408.9687
   1   2.0000     -24.583936      -668.9629
   2   2.0000     -18.960495      -515.9413
   3   2.0000     -18.954392      -515.7752
   4   2.0000     -14.158876      -385.2826
   5   2.0000     -14.142460      -384.8359
   6   2.0000     -10.120152      -275.3833
   7   2.0000     -10.109463      -275.0925
   8   2.0000     -10.079008      -274.2637
   9   2.0000     -10.044294      -273.3191
  10   2.0000      -9.986062      -271.7346
  11   2.0000      -8.070711      -219.6152
  12   2.0000      -6.102436      -166.0557
  13   2.0000      -6.095842      -165.8763
  14   2.0000      -6.094925      -165.8513
  15   2.0000      -1.474532       -40.1241
  16   2.0000      -1.214096       -33.0372
  17   2.0000      -1.117944       -30.4208
  18   2.0000      -1.050917       -28.5969
  19   2.0000      -0.958112       -26.0715
  20   2.0000      -0.937122       -25.5004
  21   2.0000      -0.869401       -23.6576
  22   2.0000      -0.831031       -22.6135
  23   2.0000      -0.789973       -21.4962
  24   2.0000      -0.733555       -19.9610
  25   2.0000      -0.708725       -19.2854
  26   2.0000      -0.697907       -18.9910
  27   2.0000      -0.684908       -18.6373
  28   2.0000      -0.652486       -17.7551
  29   2.0000      -0.637282       -17.3413
  30   2.0000      -0.618205       -16.8222
  31   2.0000      -0.592469       -16.1219
  32   2.0000      -0.583470       -15.8770
  33   2.0000      -0.577765       -15.7218
  34   2.0000      -0.556748       -15.1499
  35   2.0000      -0.540602       -14.7105
  36   2.0000      -0.511287       -13.9128
  37   2.0000      -0.504548       -13.7294
  38   2.0000      -0.501737       -13.6530
  39   2.0000      -0.481253       -13.0956
  40   2.0000      -0.459903       -12.5146
  41   2.0000      -0.447073       -12.1655
  42   2.0000      -0.439097       -11.9484
  43   2.0000      -0.431910       -11.7529
  44   2.0000      -0.424071       -11.5396
  45   2.0000      -0.403946       -10.9919
  46   2.0000      -0.351743        -9.5714
  47   2.0000      -0.249058        -6.7772
  48   0.0000       0.082567         2.2468
  49   0.0000       0.099631         2.7111
  50   0.0000       0.108597         2.9551
  51   0.0000       0.128517         3.4971
  52   0.0000       0.134045         3.6476

MULLIKEN ATOMIC CHARGES
-----------------------
   0 C :   -0.368869
   1 C :   -0.398949
   2 C :   -0.199427
   3 C :   -0.391366
   4 H :    0.224232
   5 H :    0.178997
   6 S :    0.778792
   7 C :    0.339485
   8 N :   -0.474724
   9 N :   -0.429808
  10 H :    0.259612
  11 H :    0.203329
  12 H :    0.101940
  13 H :    0.237494
  14 H :    0.209336
  15 O :   -0.348821
  16 F :   -0.061577
  17 O :   -0.430250
  18 H :    0.131810
  19 H :    0.136635
  20 H :    0.176458
  21 H :    0.125670
Sum of atomic charges:    0.0000000

LOEWDIN ATOMIC CHARGES
----------------------
   0 C :   -0.296142
   1 C :   -0.300463
   2 C :   -0.296286
   3 C :   -0.373764
   4 H :    0.162854
   5 H :    0.144533
   6 S :    0.523448
   7 C :   -0.470132
   8 N :   -0.029266
   9 N :    0.006939
  10 H :    0.136391
  11 H :    0.162613
  12 H :    0.120265
  13 H :    0.173342
  14 H :    0.157616
  15 O :   -0.243125
  16 F :    0.121856
  17 O :   -0.279447
  18 H :    0.137557
  19 H :    0.149445
  20 H :    0.146665
  21 H :    0.145102

  Mayer bond orders larger than 0.100000
B(  0-C ,  1-C ) :   0.9483 B(  0-C ,  2-C ) :   0.8923 B(  0-C , 20-H ) :   0.9932
B(  0-C , 21-H ) :   0.9978 B(  1-C ,  7-C ) :   1.5791 B(  1-C , 12-H ) :   0.9948
B(  2-C ,  3-C ) :   0.8896 B(  2-C , 18-H ) :   0.9818 B(  2-C , 19-H ) :   0.9675
B(  3-C ,  4-H ) :   0.9284 B(  3-C ,  5-H ) :   0.9553 B(  3-C ,  6-S ) :   0.9412
B(  6-S , 15-O ) :   2.0129 B(  6-S , 16-F ) :   1.1922 B(  6-S , 17-O ) :   1.7489
B(  7-C ,  8-N ) :   1.1098 B(  7-C ,  9-N ) :   1.1930 B(  8-N , 13-H ) :   0.9282
B(  8-N , 14-H ) :   0.9349 B(  9-N , 10-H ) :   0.8524 B(  9-N , 11-H ) :   0.9363
B( 10-H , 17-O ) :   0.1240

FINAL SINGLE POINT ENERGY      -953.907661785381

DIPOLE MOMENT
-------------
                                X             Y             Z
Electronic contribution:    -16.41177      -2.72061      -0.99102
Nuclear contribution   :     16.65743       2.74852       1.69529
                        -----------------------------------------
Total Dipole Moment    :      0.24566       0.02791       0.70427
                        -----------------------------------------
Magnitude (a.u.)       :      0.74640
Magnitude (Debye)      :      1.89721

Rotational constants in cm-1:     0.059907     0.020458     0.017675
Rotational constants in MHz :  1795.978106   613.328205   529.885290

                             ****ORCA TERMINATED NORMALLY****
TOTAL RUN TIME: 0 days 0 hours 0 minutes 38 seconds 456 msec
