                         Program Version 5.0.0 -  RELEASE  -
|  1> !LC-BLYP RIJCOSX def2-TZVP def2/J TightSCF xyzfile
|  2>
|  3> *xyzfile 0 1 D6.xyz
|  4>
|  5> %MaxCore 64000
|  6>
|  7> %pal nprocs 18
|  8> end
|  9>
| 10> %scf
| 11>   MaxIter 150
| 12> end
| 13>
| 14>
| 15>                          ****END OF INPUT****

CARTESIAN COORDINATES (ANGSTROEM)
---------------------------------
  C      3.380928    2.083045   -3.350127
  N      4.535924    1.182447   -3.428518
  C      2.495557    1.816150   -2.136364
  C      1.872181    0.427903   -2.077497
  H      2.614270   -0.365825   -2.198894
  H      1.389953    0.273087   -1.112360
  S      0.579024    0.140472   -3.297943
  C      4.671956    0.122273   -4.220598
  N      5.866023   -0.507849   -4.224284
  C      3.698881   -0.312844   -4.986988
  H      2.731405   -0.050091   -4.849000
  H      3.890046   -1.055172   -5.643730
  H      5.251933    1.303459   -2.721014
  H      6.695165   -0.062322   -3.851596
  H      5.975383   -1.396884   -4.691414
  O      0.228860   -1.246868   -3.127871
  F     -0.439269    1.118966   -3.014550
  O      1.247881    0.403474   -4.595647
  H      1.697003    2.561969   -2.141109
  H      3.080787    1.987436   -1.225838
  H      2.806463    1.986511   -4.268484
  H      3.778714    3.098282   -3.307383

 Total Charge           Charge          ....    0
 Multiplicity           Mult            ....    1
 Number of Electrons    NEL             ....   96
 Basis Dimension        Dim             ....  413

ORBITAL ENERGIES
----------------

  NO   OCC          E(Eh)            E(eV)
   0   2.0000     -88.518039     -2408.6983
   1   2.0000     -24.576607      -668.7635
   2   2.0000     -18.951995      -515.7100
   3   2.0000     -18.938535      -515.3437
   4   2.0000     -14.169818      -385.5804
   5   2.0000     -14.156771      -385.2253
   6   2.0000     -10.125015      -275.5157
   7   2.0000     -10.105967      -274.9974
   8   2.0000     -10.104249      -274.9506
   9   2.0000     -10.099095      -274.8103
  10   2.0000      -9.954851      -270.8853
  11   2.0000      -8.060797      -219.3454
  12   2.0000      -6.092585      -165.7877
  13   2.0000      -6.085541      -165.5960
  14   2.0000      -6.085360      -165.5911
  15   2.0000      -1.467597       -39.9354
  16   2.0000      -1.203177       -32.7401
  17   2.0000      -1.104858       -30.0647
  18   2.0000      -1.061038       -28.8723
  19   2.0000      -0.981148       -26.6984
  20   2.0000      -0.933986       -25.4151
  21   2.0000      -0.856869       -23.3166
  22   2.0000      -0.823312       -22.4035
  23   2.0000      -0.800968       -21.7955
  24   2.0000      -0.751520       -20.4499
  25   2.0000      -0.704608       -19.1733
  26   2.0000      -0.694451       -18.8970
  27   2.0000      -0.671743       -18.2791
  28   2.0000      -0.658209       -17.9108
  29   2.0000      -0.636608       -17.3230
  30   2.0000      -0.618398       -16.8275
  31   2.0000      -0.601143       -16.3579
  32   2.0000      -0.589840       -16.0504
  33   2.0000      -0.566133       -15.4053
  34   2.0000      -0.551508       -15.0073
  35   2.0000      -0.544817       -14.8252
  36   2.0000      -0.519370       -14.1328
  37   2.0000      -0.500921       -13.6307
  38   2.0000      -0.493048       -13.4165
  39   2.0000      -0.485205       -13.2031
  40   2.0000      -0.474820       -12.9205
  41   2.0000      -0.467169       -12.7123
  42   2.0000      -0.451310       -12.2808
  43   2.0000      -0.421661       -11.4740
  44   2.0000      -0.408260       -11.1093
  45   2.0000      -0.392105       -10.6697
  46   2.0000      -0.344603        -9.3771
  47   2.0000      -0.253308        -6.8929
  48   0.0000       0.076274         2.0755
  49   0.0000       0.097467         2.6522
  50   0.0000       0.105722         2.8768
  51   0.0000       0.125927         3.4266
  52   0.0000       0.128197         3.4884

MULLIKEN ATOMIC CHARGES
-----------------------
   0 C :   -0.263905
   1 N :   -0.313557
   2 C :   -0.243677
   3 C :   -0.363946
   4 H :    0.223172
   5 H :    0.178383
   6 S :    0.757623
   7 C :    0.416818
   8 N :   -0.500783
   9 C :   -0.576770
  10 H :    0.116660
  11 H :    0.087203
  12 H :    0.187650
  13 H :    0.208407
  14 H :    0.238748
  15 O :   -0.348800
  16 F :   -0.067636
  17 O :   -0.384685
  18 H :    0.140459
  19 H :    0.141381
  20 H :    0.222106
  21 H :    0.145148
Sum of atomic charges:    0.0000000

LOEWDIN ATOMIC CHARGES
----------------------
   0 C :   -0.285148
   1 N :    0.109903
   2 C :   -0.304148
   3 C :   -0.373754
   4 H :    0.164458
   5 H :    0.144239
   6 S :    0.511656
   7 C :   -0.484796
   8 N :   -0.034431
   9 C :   -0.330671
  10 H :    0.083123
  11 H :    0.100102
  12 H :    0.175464
  13 H :    0.155376
  14 H :    0.173550
  15 O :   -0.242829
  16 F :    0.114135
  17 O :   -0.258357
  18 H :    0.144841
  19 H :    0.146978
  20 H :    0.153134
  21 H :    0.137176

  Mayer bond orders larger than 0.100000
B(  0-C ,  1-N ) :   0.8659 B(  0-C ,  2-C ) :   0.9041 B(  0-C , 20-H ) :   0.9709
B(  0-C , 21-H ) :   0.9878 B(  1-N ,  7-C ) :   1.1157 B(  1-N , 12-H ) :   0.9380
B(  2-C ,  3-C ) :   0.8957 B(  2-C , 18-H ) :   0.9777 B(  2-C , 19-H ) :   0.9666
B(  3-C ,  4-H ) :   0.9325 B(  3-C ,  5-H ) :   0.9535 B(  3-C ,  6-S ) :   0.9335
B(  6-S , 15-O ) :   2.0128 B(  6-S , 16-F ) :   1.1748 B(  6-S , 17-O ) :   1.8146
B(  7-C ,  8-N ) :   1.0614 B(  7-C ,  9-C ) :   1.5922 B(  8-N , 13-H ) :   0.9372
B(  8-N , 14-H ) :   0.9313 B(  9-C , 10-H ) :   1.0205 B(  9-C , 11-H ) :   1.0154

FINAL SINGLE POINT ENERGY      -953.875629003843

DIPOLE MOMENT
-------------
                                X             Y             Z
Electronic contribution:    -15.79336      -1.42782       0.27919
Nuclear contribution   :     16.57580       2.60270       1.54331
                        -----------------------------------------
Total Dipole Moment    :      0.78244       1.17488       1.82249
                        -----------------------------------------
Magnitude (a.u.)       :      2.30522
Magnitude (Debye)      :      5.85940

Rotational constants in cm-1:     0.060402     0.020377     0.017632
Rotational constants in MHz :  1810.792194   610.900365   528.582827

                             ****ORCA TERMINATED NORMALLY****
TOTAL RUN TIME: 0 days 0 hours 0 minutes 38 seconds 2 msec
