                         Program Version 5.0.0 -  RELEASE  -
|  1> !LC-BLYP RIJCOSX def2-TZVP def2/J TightSCF xyzfile
|  2>
|  3> *xyzfile 0 1 D8.xyz
|  4>
|  5> %MaxCore 64000
|  6>
|  7> %pal nprocs 18
|  8> end
|  9>
| 10> %scf
| 11>   MaxIter 150
| 12> end
| 13>
| 14>
| 15>                          ****END OF INPUT****

CARTESIAN COORDINATES (ANGSTROEM)
---------------------------------
  C      3.380928    2.083045   -3.350127
  N      4.535924    1.182447   -3.428518
  C      2.495557    1.816150   -2.136364
  C      1.872181    0.427903   -2.077497
  H      2.614270   -0.365825   -2.198894
  H      1.389953    0.273087   -1.112360
  S      0.579024    0.140472   -3.297943
  C      4.671956    0.122273   -4.220598
  C      5.866023   -0.507849   -4.224284
  N      3.698881   -0.312844   -4.986988
  H      2.731405   -0.050091   -4.849000
  H      3.890046   -1.055172   -5.643730
  H      5.251933    1.303459   -2.721014
  H      6.695165   -0.062322   -3.851596
  H      5.975383   -1.396884   -4.691414
  O      0.228860   -1.246868   -3.127871
  O     -0.439269    1.118966   -3.014550
  F      1.247881    0.403474   -4.595647
  H      1.697003    2.561969   -2.141109
  H      3.080787    1.987436   -1.225838
  H      2.806463    1.986511   -4.268484
  H      3.778714    3.098282   -3.307383

 Total Charge           Charge          ....    0
 Multiplicity           Mult            ....    1
 Number of Electrons    NEL             ....   96
 Basis Dimension        Dim             ....  413

ORBITAL ENERGIES
----------------

  NO   OCC          E(Eh)            E(eV)
   0   2.0000     -88.530780     -2409.0450
   1   2.0000     -24.583743      -668.9577
   2   2.0000     -18.967458      -516.1308
   3   2.0000     -18.966557      -516.1062
   4   2.0000     -14.183324      -385.9479
   5   2.0000     -14.171366      -385.6225
   6   2.0000     -10.135721      -275.8070
   7   2.0000     -10.127113      -275.5727
   8   2.0000     -10.126580      -275.5582
   9   2.0000     -10.106447      -275.0104
  10   2.0000      -9.983123      -271.6546
  11   2.0000      -8.073890      -219.7017
  12   2.0000      -6.106154      -166.1569
  13   2.0000      -6.098474      -165.9479
  14   2.0000      -6.098083      -165.9373
  15   2.0000      -1.465462       -39.8773
  16   2.0000      -1.227969       -33.4147
  17   2.0000      -1.133980       -30.8572
  18   2.0000      -1.081967       -29.4418
  19   2.0000      -1.002120       -27.2691
  20   2.0000      -0.948692       -25.8152
  21   2.0000      -0.880924       -23.9712
  22   2.0000      -0.833155       -22.6713
  23   2.0000      -0.812125       -22.0991
  24   2.0000      -0.752472       -20.4758
  25   2.0000      -0.723106       -19.6767
  26   2.0000      -0.716331       -19.4924
  27   2.0000      -0.699476       -19.0337
  28   2.0000      -0.667410       -18.1611
  29   2.0000      -0.643014       -17.4973
  30   2.0000      -0.623037       -16.9537
  31   2.0000      -0.604035       -16.4366
  32   2.0000      -0.596786       -16.2394
  33   2.0000      -0.587946       -15.9988
  34   2.0000      -0.572070       -15.5668
  35   2.0000      -0.561124       -15.2690
  36   2.0000      -0.534327       -14.5398
  37   2.0000      -0.512988       -13.9591
  38   2.0000      -0.510492       -13.8912
  39   2.0000      -0.495349       -13.4791
  40   2.0000      -0.487465       -13.2646
  41   2.0000      -0.479778       -13.0554
  42   2.0000      -0.463663       -12.6169
  43   2.0000      -0.455189       -12.3863
  44   2.0000      -0.441909       -12.0250
  45   2.0000      -0.435436       -11.8488
  46   2.0000      -0.363881        -9.9017
  47   2.0000      -0.260491        -7.0883
  48   0.0000       0.070486         1.9180
  49   0.0000       0.090507         2.4628
  50   0.0000       0.106827         2.9069
  51   0.0000       0.116207         3.1622
  52   0.0000       0.129509         3.5241

MULLIKEN ATOMIC CHARGES
-----------------------
   0 C :   -0.346970
   1 N :   -0.275564
   2 C :   -0.208935
   3 C :   -0.385941
   4 H :    0.215789
   5 H :    0.198924
   6 S :    0.755684
   7 C :    0.382675
   8 C :   -0.626440
   9 N :   -0.448526
  10 H :    0.216685
  11 H :    0.242004
  12 H :    0.225959
  13 H :    0.109809
  14 H :    0.099525
  15 O :   -0.351361
  16 O :   -0.356407
  17 F :   -0.113907
  18 H :    0.166996
  19 H :    0.147237
  20 H :    0.191106
  21 H :    0.161658
Sum of atomic charges:    0.0000000

LOEWDIN ATOMIC CHARGES
----------------------
   0 C :   -0.300479
   1 N :    0.122108
   2 C :   -0.303063
   3 C :   -0.374240
   4 H :    0.154650
   5 H :    0.158796
   6 S :    0.512280
   7 C :   -0.481320
   8 C :   -0.363739
   9 N :   -0.000130
  10 H :    0.129364
  11 H :    0.183181
  12 H :    0.196642
  13 H :    0.096510
  14 H :    0.095852
  15 O :   -0.242048
  16 O :   -0.244500
  17 F :    0.077215
  18 H :    0.153261
  19 H :    0.150287
  20 H :    0.136863
  21 H :    0.142510

  Mayer bond orders larger than 0.100000
B(  0-C ,  1-N ) :   0.8875 B(  0-C ,  2-C ) :   0.8973 B(  0-C , 20-H ) :   0.9865
B(  0-C , 21-H ) :   0.9901 B(  1-N ,  7-C ) :   1.1545 B(  1-N , 12-H ) :   0.9301
B(  2-C ,  3-C ) :   0.8842 B(  2-C , 18-H ) :   0.9673 B(  2-C , 19-H ) :   0.9617
B(  3-C ,  4-H ) :   0.9304 B(  3-C ,  5-H ) :   0.9451 B(  3-C ,  6-S ) :   0.9285
B(  6-S , 15-O ) :   2.0087 B(  6-S , 16-O ) :   1.9866 B(  6-S , 17-F ) :   1.0411
B(  7-C ,  8-C ) :   1.5391 B(  7-C ,  9-N ) :   1.1559 B(  8-C , 13-H ) :   1.0095
B(  8-C , 14-H ) :   1.0146 B(  9-N , 10-H ) :   0.9089 B(  9-N , 11-H ) :   0.9280

FINAL SINGLE POINT ENERGY      -953.898422820668

DIPOLE MOMENT
-------------
                                X             Y             Z
Electronic contribution:    -14.66559      -2.42357      -2.89527
Nuclear contribution   :     14.93782       3.36795       3.35075
                        -----------------------------------------
Total Dipole Moment    :      0.27223       0.94438       0.45549
                        -----------------------------------------
Magnitude (a.u.)       :      1.08325
Magnitude (Debye)      :      2.75341

Rotational constants in cm-1:     0.059219     0.021387     0.018380
Rotational constants in MHz :  1775.354399   641.172207   551.019443

                             ****ORCA TERMINATED NORMALLY****
TOTAL RUN TIME: 0 days 0 hours 0 minutes 40 seconds 214 msec
