                         Program Version 5.0.0 -  RELEASE  -
|  1> !LC-BLYP RIJCOSX def2-TZVP def2/J TightSCF xyzfile
|  2>
|  3> *xyzfile 0 1 D9.xyz
|  4>
|  5> %MaxCore 64000
|  6>
|  7> %pal nprocs 18
|  8> end
|  9>
| 10> %scf
| 11>   MaxIter 150
| 12> end
| 13>
| 14>
| 15>                          ****END OF INPUT****

CARTESIAN COORDINATES (ANGSTROEM)
---------------------------------
  C      3.380928    2.083045   -3.350127
  N      4.535924    1.182447   -3.428518
  C      2.495557    1.816150   -2.136364
  C      1.872181    0.427903   -2.077497
  H      2.614270   -0.365825   -2.198894
  H      1.389953    0.273087   -1.112360
  S      0.579024    0.140472   -3.297943
  C      4.671956    0.122273   -4.220598
  N      5.866023   -0.507849   -4.224284
  C      3.698881   -0.312844   -4.986988
  H      2.731405   -0.050091   -4.849000
  H      3.890046   -1.055172   -5.643730
  H      5.251933    1.303459   -2.721014
  H      6.695165   -0.062322   -3.851596
  H      5.975383   -1.396884   -4.691414
  O      0.228860   -1.246868   -3.127871
  O     -0.439269    1.118966   -3.014550
  F      1.247881    0.403474   -4.595647
  H      1.697003    2.561969   -2.141109
  H      3.080787    1.987436   -1.225838
  H      2.806463    1.986511   -4.268484
  H      3.778714    3.098282   -3.307383

 Total Charge           Charge          ....    0
 Multiplicity           Mult            ....    1
 Number of Electrons    NEL             ....   96
 Basis Dimension        Dim             ....  413

ORBITAL ENERGIES
----------------

  NO   OCC          E(Eh)            E(eV)
   0   2.0000     -88.512403     -2408.5449
   1   2.0000     -24.551936      -668.0921
   2   2.0000     -18.949856      -515.6518
   3   2.0000     -18.948163      -515.6057
   4   2.0000     -14.184669      -385.9845
   5   2.0000     -14.172999      -385.6669
   6   2.0000     -10.125522      -275.5295
   7   2.0000     -10.121677      -275.4248
   8   2.0000     -10.119979      -275.3786
   9   2.0000     -10.098363      -274.7904
  10   2.0000      -9.981631      -271.6140
  11   2.0000      -8.055178      -219.1925
  12   2.0000      -6.087141      -165.6395
  13   2.0000      -6.080067      -165.4470
  14   2.0000      -6.079530      -165.4324
  15   2.0000      -1.435512       -39.0623
  16   2.0000      -1.209141       -32.9024
  17   2.0000      -1.116266       -30.3751
  18   2.0000      -1.077389       -29.3172
  19   2.0000      -0.995511       -27.0892
  20   2.0000      -0.934451       -25.4277
  21   2.0000      -0.857466       -23.3328
  22   2.0000      -0.837776       -22.7971
  23   2.0000      -0.800582       -21.7849
  24   2.0000      -0.760806       -20.7026
  25   2.0000      -0.695673       -18.9302
  26   2.0000      -0.688152       -18.7256
  27   2.0000      -0.668168       -18.1818
  28   2.0000      -0.660119       -17.9628
  29   2.0000      -0.645842       -17.5742
  30   2.0000      -0.621064       -16.9000
  31   2.0000      -0.603251       -16.4153
  32   2.0000      -0.584556       -15.9066
  33   2.0000      -0.570185       -15.5155
  34   2.0000      -0.564627       -15.3643
  35   2.0000      -0.547163       -14.8891
  36   2.0000      -0.522491       -14.2177
  37   2.0000      -0.511222       -13.9111
  38   2.0000      -0.502831       -13.6827
  39   2.0000      -0.484494       -13.1838
  40   2.0000      -0.480325       -13.0703
  41   2.0000      -0.472380       -12.8541
  42   2.0000      -0.456347       -12.4178
  43   2.0000      -0.438476       -11.9315
  44   2.0000      -0.425842       -11.5877
  45   2.0000      -0.417920       -11.3722
  46   2.0000      -0.358522        -9.7559
  47   2.0000      -0.274380        -7.4663
  48   0.0000       0.072977         1.9858
  49   0.0000       0.094246         2.5646
  50   0.0000       0.107738         2.9317
  51   0.0000       0.125840         3.4243
  52   0.0000       0.131983         3.5914

MULLIKEN ATOMIC CHARGES
-----------------------
   0 C :   -0.294811
   1 N :   -0.298365
   2 C :   -0.233301
   3 C :   -0.364913
   4 H :    0.210638
   5 H :    0.191263
   6 S :    0.760129
   7 C :    0.438030
   8 N :   -0.496324
   9 C :   -0.576579
  10 H :    0.065252
  11 H :    0.098593
  12 H :    0.195427
  13 H :    0.215492
  14 H :    0.242422
  15 O :   -0.360992
  16 O :   -0.369159
  17 F :   -0.085641
  18 H :    0.166407
  19 H :    0.138554
  20 H :    0.203940
  21 H :    0.153939
Sum of atomic charges:   -0.0000000

LOEWDIN ATOMIC CHARGES
----------------------
   0 C :   -0.284181
   1 N :    0.115656
   2 C :   -0.303222
   3 C :   -0.373421
   4 H :    0.153900
   5 H :    0.155189
   6 S :    0.516558
   7 C :   -0.475329
   8 N :   -0.025802
   9 C :   -0.347636
  10 H :    0.079361
  11 H :    0.103182
  12 H :    0.179562
  13 H :    0.159322
  14 H :    0.175698
  15 O :   -0.248371
  16 O :   -0.254754
  17 F :    0.087939
  18 H :    0.153370
  19 H :    0.146820
  20 H :    0.145439
  21 H :    0.140720

  Mayer bond orders larger than 0.100000
B(  0-C ,  1-N ) :   0.8587 B(  0-C ,  2-C ) :   0.9151 B(  0-C , 20-H ) :   0.9801
B(  0-C , 21-H ) :   0.9890 B(  1-N ,  7-C ) :   1.1395 B(  1-N , 12-H ) :   0.9353
B(  2-C ,  3-C ) :   0.8953 B(  2-C , 18-H ) :   0.9691 B(  2-C , 19-H ) :   0.9646
B(  3-C ,  4-H ) :   0.9377 B(  3-C ,  5-H ) :   0.9472 B(  3-C ,  6-S ) :   0.9266
B(  6-S , 15-O ) :   2.0028 B(  6-S , 16-O ) :   1.9762 B(  6-S , 17-F ) :   1.0874
B(  7-C ,  8-N ) :   1.0792 B(  7-C ,  9-C ) :   1.5589 B(  8-N , 13-H ) :   0.9351
B(  8-N , 14-H ) :   0.9296 B(  9-C , 10-H ) :   1.0503 B(  9-C , 11-H ) :   1.0106

FINAL SINGLE POINT ENERGY      -953.895855348657

DIPOLE MOMENT
-------------
                                X             Y             Z
Electronic contribution:    -12.58156      -2.63928      -2.39872
Nuclear contribution   :     14.72648       3.38697       3.27638
                        -----------------------------------------
Total Dipole Moment    :      2.14492       0.74768       0.87765
                        -----------------------------------------
Magnitude (a.u.)       :      2.43516
Magnitude (Debye)      :      6.18968

Rotational constants in cm-1:     0.059651     0.020833     0.018010
Rotational constants in MHz :  1788.283887   624.555661   539.921162

                             ****ORCA TERMINATED NORMALLY****
TOTAL RUN TIME: 0 days 0 hours 0 minutes 34 seconds 573 msec
