                         Program Version 5.0.0 -  RELEASE  -
|  1> !DLPNO-CCSD(T) aug-cc-pVTZ aug-cc-pVTZ/C TightSCF TightPNO RIJCOSX def2/J
|  2> *xyz -1 1
|  3> C         -1.36646        2.47911       -4.31393
|  4> C         -2.35773        2.30686       -3.13675
|  5> O         -3.44376        2.84652       -3.25274
|  6> O         -1.97092        1.58304       -2.15123
|  7> H         -1.80853        3.10058       -5.06443
|  8> H         -1.13980        1.52081       -4.73248
|  9> H         -0.46612        2.93495       -3.95827
| 10> *
| 11> %MaxCore 64000
| 12>
| 13> %pal nprocs 8
| 14> end
| 15>
| 16> %scf
| 17>   MaxIter 150
| 18> end
| 19>
| 20>
| 21>                          ****END OF INPUT****

CARTESIAN COORDINATES (ANGSTROEM)
---------------------------------
  C     -1.366460    2.479110   -4.313930
  C     -2.357730    2.306860   -3.136750
  O     -3.443760    2.846520   -3.252740
  O     -1.970920    1.583040   -2.151230
  H     -1.808530    3.100580   -5.064430
  H     -1.139800    1.520810   -4.732480
  H     -0.466120    2.934950   -3.958270

 Total Charge           Charge          ....   -1
 Multiplicity           Mult            ....    1
 Number of Electrons    NEL             ....   32
 Basis Dimension        Dim             ....  253

ORBITAL ENERGIES
----------------

  NO   OCC          E(Eh)            E(eV)
   0   2.0000     -20.288288      -552.0724
   1   2.0000     -20.273399      -551.6672
   2   2.0000     -11.124274      -302.7069
   3   2.0000     -11.037053      -300.3335
   4   2.0000      -1.169234       -31.8165
   5   2.0000      -1.051361       -28.6090
   6   2.0000      -0.799361       -21.7517
   7   2.0000      -0.509123       -13.8539
   8   2.0000      -0.419386       -11.4121
   9   2.0000      -0.418730       -11.3942
  10   2.0000      -0.414993       -11.2925
  11   2.0000      -0.358582        -9.7575
  12   2.0000      -0.321576        -8.7505
  13   2.0000      -0.197253        -5.3675
  14   2.0000      -0.190065        -5.1719
  15   2.0000      -0.183012        -4.9800
  16   0.0000       0.132945         3.6176
  17   0.0000       0.143844         3.9142
  18   0.0000       0.145013         3.9460
  19   0.0000       0.184708         5.0262
  20   0.0000       0.220648         6.0041

MULLIKEN ATOMIC CHARGES
-----------------------
   0 C :   -0.679412
   1 C :    0.450638
   2 O :   -0.740383
   3 O :   -0.824760
   4 H :    0.303562
   5 H :    0.237615
   6 H :    0.252739
Sum of atomic charges:   -1.0000000

LOEWDIN ATOMIC CHARGES
----------------------
   0 C :    0.488684
   1 C :   -1.232369
   2 O :    0.261151
   3 O :    0.187675
   4 H :   -0.245479
   5 H :   -0.229138
   6 H :   -0.230524

  Mayer bond orders larger than 0.100000
B(  0-C ,  1-C ) :   0.7490 B(  0-C ,  4-H ) :   0.9073 B(  0-C ,  5-H ) :   0.9649
B(  0-C ,  6-H ) :   0.9496 B(  1-C ,  2-O ) :   1.4743 B(  1-C ,  3-O ) :   1.4535

E(0)                                       ...   -227.326883938
E(0)                                       ...   -227.326883938
E(CORR)(strong-pairs)                      ...     -0.835897253
E(CORR)(weak-pairs)                        ...     -0.000618527
E(CORR)(corrected)                         ...     -0.836515780
E(TOT)                                     ...   -228.163399717
E(CCSD(T))                                 ...   -228.199329882
FINAL SINGLE POINT ENERGY      -228.199329881555

DIPOLE MOMENT
-------------
                                X             Y             Z
Electronic contribution:     -2.35207      -0.30532       2.58871
Nuclear contribution   :      3.20990       0.60513      -3.84153
                        -----------------------------------------
Total Dipole Moment    :      0.85783       0.29981      -1.25282
                        -----------------------------------------
Magnitude (a.u.)       :      1.54768
Magnitude (Debye)      :      3.93390

Rotational constants in cm-1:     0.394521     0.330294     0.185888
Rotational constants in MHz : 11827.441786  9901.964904  5572.768963

                             ****ORCA TERMINATED NORMALLY****
TOTAL RUN TIME: 0 days 0 hours 3 minutes 46 seconds 774 msec
