                         Program Version 5.0.0 -  RELEASE  -
|  1> !DLPNO-CCSD(T) aug-cc-pVTZ aug-cc-pVTZ/C TightSCF TightPNO RIJCOSX def2/J
|  2> *xyz 1 1
|  3> C          0.64866        1.00359       -3.64560
|  4> N          0.28128        0.67645       -2.24018
|  5> H          0.39079       -0.31925       -2.02649
|  6> H         -0.69269        0.99010       -2.13812
|  7> H          0.85421        1.21221       -1.57528
|  8> H          0.03905        0.43387       -4.31545
|  9> H          1.67860        0.76457       -3.80989
| 10> H          0.49232        2.04741       -3.82138
| 11> *
| 12> %MaxCore 64000
| 13>
| 14> %pal nprocs 8
| 15> end
| 16>
| 17> %scf
| 18>   MaxIter 150
| 19> end
| 20>
| 21>
| 22>                          ****END OF INPUT****

CARTESIAN COORDINATES (ANGSTROEM)
---------------------------------
  C      0.648660    1.003590   -3.645600
  N      0.281280    0.676450   -2.240180
  H      0.390790   -0.319250   -2.026490
  H     -0.692690    0.990100   -2.138120
  H      0.854210    1.212210   -1.575280
  H      0.039050    0.433870   -4.315450
  H      1.678600    0.764570   -3.809890
  H      0.492320    2.047410   -3.821380

 Total Charge           Charge          ....    1
 Multiplicity           Mult            ....    1
 Number of Electrons    NEL             ....   18
 Basis Dimension        Dim             ....  230

ORBITAL ENERGIES
----------------

  NO   OCC          E(Eh)            E(eV)
   0   2.0000     -15.914400      -433.0528
   1   2.0000     -11.483774      -312.4894
   2   2.0000      -1.530394       -41.6441
   3   2.0000      -1.179682       -32.1008
   4   2.0000      -0.996730       -27.1224
   5   2.0000      -0.986098       -26.8331
   6   2.0000      -0.870269       -23.6812
   7   2.0000      -0.785378       -21.3712
   8   2.0000      -0.782873       -21.3031
   9   0.0000      -0.127485        -3.4690
  10   0.0000      -0.086498        -2.3537
  11   0.0000      -0.085876        -2.3368
  12   0.0000      -0.082898        -2.2558
  13   0.0000      -0.047222        -1.2850

MULLIKEN ATOMIC CHARGES
-----------------------
   0 C :   -0.820832
   1 N :    0.062356
   2 H :    0.178703
   3 H :    0.203304
   4 H :    0.182185
   5 H :    0.401492
   6 H :    0.401750
   7 H :    0.391042
Sum of atomic charges:    1.0000000

LOEWDIN ATOMIC CHARGES
----------------------
   0 C :    0.690471
   1 N :    1.098516
   2 H :   -0.122992
   3 H :   -0.131722
   4 H :   -0.123184
   5 H :   -0.136518
   6 H :   -0.138541
   7 H :   -0.136030

  Mayer bond orders larger than 0.100000
B(  0-C ,  1-N ) :   0.8184 B(  0-C ,  5-H ) :   0.8402 B(  0-C ,  6-H ) :   0.8429
B(  0-C ,  7-H ) :   0.8547 B(  1-N ,  2-H ) :   0.9830 B(  1-N ,  3-H ) :   0.9621
B(  1-N ,  4-H ) :   0.9766

E(0)                                       ...    -95.616402006
E(0)                                       ...    -95.616402006
E(CORR)(strong-pairs)                      ...     -0.429339104
E(CORR)(weak-pairs)                        ...     -0.000231640
E(CORR)(corrected)                         ...     -0.429570744
E(TOT)                                     ...    -96.045972750
E(CCSD(T))                                 ...    -96.059448640
FINAL SINGLE POINT ENERGY       -96.059448639936

DIPOLE MOMENT
-------------
                                X             Y             Z
Electronic contribution:     -0.25836      -0.27341       1.04387
Nuclear contribution   :      0.04246       0.12404      -0.26487
                        -----------------------------------------
Total Dipole Moment    :     -0.21591      -0.14937       0.77900
                        -----------------------------------------
Magnitude (a.u.)       :      0.82205
Magnitude (Debye)      :      2.08949

Rotational constants in cm-1:     2.856727     0.687609     0.685111
Rotational constants in MHz : 85642.512409 20614.005719 20539.101620

                             ****ORCA TERMINATED NORMALLY****
TOTAL RUN TIME: 0 days 0 hours 1 minutes 27 seconds 477 msec
