                         Program Version 5.0.0 -  RELEASE  -
|  1> !DLPNO-CCSD(T) aug-cc-pVTZ aug-cc-pVTZ/C TightSCF TightPNO RIJCOSX def2/J
|  2> *xyz 0 1
|  3> C         -1.36646        2.47911       -4.31393
|  4> C         -2.35773        2.30686       -3.13675
|  5> F         -3.44376        2.84652       -3.25274
|  6> O         -1.97092        1.58304       -2.15123
|  7> H         -1.80853        3.10058       -5.06443
|  8> H         -1.13980        1.52081       -4.73248
|  9> H         -0.46612        2.93495       -3.95827
| 10> *
| 11> %MaxCore 64000
| 12>
| 13> %pal nprocs 8
| 14> end
| 15>
| 16> %scf
| 17>   MaxIter 150
| 18> end
| 19>
| 20>
| 21>                          ****END OF INPUT****

CARTESIAN COORDINATES (ANGSTROEM)
---------------------------------
  C     -1.366460    2.479110   -4.313930
  C     -2.357730    2.306860   -3.136750
  F     -3.443760    2.846520   -3.252740
  O     -1.970920    1.583040   -2.151230
  H     -1.808530    3.100580   -5.064430
  H     -1.139800    1.520810   -4.732480
  H     -0.466120    2.934950   -3.958270

 Total Charge           Charge          ....    0
 Multiplicity           Mult            ....    1
 Number of Electrons    NEL             ....   32
 Basis Dimension        Dim             ....  253

ORBITAL ENERGIES
----------------

  NO   OCC          E(Eh)            E(eV)
   0   2.0000     -26.393923      -718.2152
   1   2.0000     -20.559539      -559.4535
   2   2.0000     -11.440021      -311.2988
   3   2.0000     -11.256885      -306.3154
   4   2.0000      -1.764525       -48.0152
   5   2.0000      -1.355757       -36.8920
   6   2.0000      -1.040113       -28.3029
   7   2.0000      -0.922483       -25.1020
   8   2.0000      -0.798692       -21.7335
   9   2.0000      -0.791785       -21.5456
  10   2.0000      -0.706226       -19.2174
  11   2.0000      -0.611821       -16.6485
  12   2.0000      -0.598876       -16.2962
  13   2.0000      -0.576515       -15.6878
  14   2.0000      -0.485431       -13.2092
  15   2.0000      -0.464115       -12.6292
  16   0.0000       0.025280         0.6879
  17   0.0000       0.044483         1.2105
  18   0.0000       0.045065         1.2263
  19   0.0000       0.062287         1.6949
  20   0.0000       0.097136         2.6432

MULLIKEN ATOMIC CHARGES
-----------------------
   0 C :   -0.723055
   1 C :    0.553011
   2 F :   -0.184091
   3 O :   -0.601783
   4 H :    0.333593
   5 H :    0.305082
   6 H :    0.317243
Sum of atomic charges:    0.0000000

LOEWDIN ATOMIC CHARGES
----------------------
   0 C :    0.592330
   1 C :   -0.938008
   2 F :    0.612242
   3 O :    0.337454
   4 H :   -0.213662
   5 H :   -0.194782
   6 H :   -0.195573

  Mayer bond orders larger than 0.100000
B(  0-C ,  1-C ) :   0.8255 B(  0-C ,  4-H ) :   0.8928 B(  0-C ,  5-H ) :   0.9135
B(  0-C ,  6-H ) :   0.9007 B(  1-C ,  2-F ) :   0.9935 B(  1-C ,  3-O ) :   1.7148

E(0)                                       ...   -251.867959869
E(0)                                       ...   -251.867959869
E(CORR)(strong-pairs)                      ...     -0.838377875
E(CORR)(weak-pairs)                        ...     -0.000613675
E(CORR)(corrected)                         ...     -0.838991550
E(TOT)                                     ...   -252.706951419
E(CCSD(T))                                 ...   -252.739850655
FINAL SINGLE POINT ENERGY      -252.739850655375

DIPOLE MOMENT
-------------
                                X             Y             Z
Electronic contribution:     -4.28842       0.58726       2.55520
Nuclear contribution   :      4.40923       0.04336      -3.80230
                        -----------------------------------------
Total Dipole Moment    :      0.12081       0.63061      -1.24711
                        -----------------------------------------
Magnitude (a.u.)       :      1.40269
Magnitude (Debye)      :      3.56536

Rotational constants in cm-1:     0.364425     0.322930     0.176742
Rotational constants in MHz : 10925.196996  9681.206479  5298.597717

                             ****ORCA TERMINATED NORMALLY****
TOTAL RUN TIME: 0 days 0 hours 3 minutes 9 seconds 269 msec
