                         Program Version 5.0.0 -  RELEASE  -
|  1> !DLPNO-CCSD(T) aug-cc-pVTZ aug-cc-pVTZ/C TightSCF TightPNO RIJCOSX def2/J
|  2> *xyz 0 1
|  3> C          0.64866        1.00359       -3.64560
|  4> C          0.28128        0.67645       -2.24018
|  5> H          0.39079       -0.31925       -2.02649
|  6> H         -0.69269        0.99010       -2.13812
|  7> H          0.85421        1.21221       -1.57528
|  8> H          0.03905        0.43387       -4.31545
|  9> H          1.67860        0.76457       -3.80989
| 10> H          0.49232        2.04741       -3.82138
| 11> *
| 12> %MaxCore 64000
| 13>
| 14> %pal nprocs 8
| 15> end
| 16>
| 17> %scf
| 18>   MaxIter 150
| 19> end
| 20>
| 21>
| 22>                          ****END OF INPUT****

CARTESIAN COORDINATES (ANGSTROEM)
---------------------------------
  C      0.648660    1.003590   -3.645600
  C      0.281280    0.676450   -2.240180
  H      0.390790   -0.319250   -2.026490
  H     -0.692690    0.990100   -2.138120
  H      0.854210    1.212210   -1.575280
  H      0.039050    0.433870   -4.315450
  H      1.678600    0.764570   -3.809890
  H      0.492320    2.047410   -3.821380

 Total Charge           Charge          ....    0
 Multiplicity           Mult            ....    1
 Number of Electrons    NEL             ....   18
 Basis Dimension        Dim             ....  230

ORBITAL ENERGIES
----------------

  NO   OCC          E(Eh)            E(eV)
   0   2.0000     -11.196726      -304.6784
   1   2.0000     -11.180968      -304.2496
   2   2.0000      -1.039970       -28.2990
   3   2.0000      -0.850308       -23.1381
   4   2.0000      -0.620726       -16.8908
   5   2.0000      -0.613447       -16.6927
   6   2.0000      -0.511349       -13.9145
   7   2.0000      -0.495720       -13.4892
   8   2.0000      -0.489234       -13.3127
   9   0.0000       0.033225         0.9041
  10   0.0000       0.043458         1.1826
  11   0.0000       0.043861         1.1935
  12   0.0000       0.044064         1.1991
  13   0.0000       0.068617         1.8672

MULLIKEN ATOMIC CHARGES
-----------------------
   0 C :   -0.880988
   1 C :   -0.988688
   2 H :    0.302926
   3 H :    0.338985
   4 H :    0.329920
   5 H :    0.297009
   6 H :    0.314158
   7 H :    0.286678
Sum of atomic charges:   -0.0000000

LOEWDIN ATOMIC CHARGES
----------------------
   0 C :    0.581455
   1 C :    0.601832
   2 H :   -0.209718
   3 H :   -0.217035
   4 H :   -0.210841
   5 H :   -0.181255
   6 H :   -0.184010
   7 H :   -0.180428

  Mayer bond orders larger than 0.100000
B(  0-C ,  1-C ) :   0.7708 B(  0-C ,  5-H ) :   0.9301 B(  0-C ,  6-H ) :   0.9096
B(  0-C ,  7-H ) :   0.9462 B(  1-C ,  2-H ) :   0.9394 B(  1-C ,  3-H ) :   0.9053
B(  1-C ,  4-H ) :   0.9054

E(0)                                       ...    -79.249906878
E(0)                                       ...    -79.249906878
E(CORR)(strong-pairs)                      ...     -0.403728774
E(CORR)(weak-pairs)                        ...     -0.000232416
E(CORR)(corrected)                         ...     -0.403961190
E(TOT)                                     ...    -79.653868067
E(CCSD(T))                                 ...    -79.666885531
FINAL SINGLE POINT ENERGY       -79.666885530993

DIPOLE MOMENT
-------------
                                X             Y             Z
Electronic contribution:      0.01311      -0.06668       0.04775
Nuclear contribution   :     -0.02064       0.06655      -0.02194
                        -----------------------------------------
Total Dipole Moment    :     -0.00754      -0.00013       0.02581
                        -----------------------------------------
Magnitude (a.u.)       :      0.02689
Magnitude (Debye)      :      0.06835

Rotational constants in cm-1:     2.856742     0.718110     0.715385
Rotational constants in MHz : 85642.970161 21528.388214 21446.695095

                             ****ORCA TERMINATED NORMALLY****
TOTAL RUN TIME: 0 days 0 hours 1 minutes 41 seconds 473 msec
