                         Program Version 5.0.0 -  RELEASE  -
|  1> !DLPNO-CCSD(T) aug-cc-pVTZ aug-cc-pVTZ/C TightSCF TightPNO RIJCOSX def2/J
|  2> *xyz 0 1
|  3> C         -1.36646        2.47911       -4.31393
|  4> C         -2.35773        2.30686       -3.13675
|  5> O         -3.44376        2.84652       -3.25274
|  6> F         -1.97092        1.58304       -2.15123
|  7> H         -1.80853        3.10058       -5.06443
|  8> H         -1.13980        1.52081       -4.73248
|  9> H         -0.46612        2.93495       -3.95827
| 10> *
| 11> %MaxCore 64000
| 12>
| 13> %pal nprocs 8
| 14> end
| 15>
| 16> %scf
| 17>   MaxIter 150
| 18> end
| 19>
| 20>
| 21>                          ****END OF INPUT****

CARTESIAN COORDINATES (ANGSTROEM)
---------------------------------
  C     -1.366460    2.479110   -4.313930
  C     -2.357730    2.306860   -3.136750
  O     -3.443760    2.846520   -3.252740
  F     -1.970920    1.583040   -2.151230
  H     -1.808530    3.100580   -5.064430
  H     -1.139800    1.520810   -4.732480
  H     -0.466120    2.934950   -3.958270

 Total Charge           Charge          ....    0
 Multiplicity           Mult            ....    1
 Number of Electrons    NEL             ....   32
 Basis Dimension        Dim             ....  253

ORBITAL ENERGIES
----------------

  NO   OCC          E(Eh)            E(eV)
   0   2.0000     -26.368610      -717.5264
   1   2.0000     -20.571243      -559.7720
   2   2.0000     -11.431460      -311.0658
   3   2.0000     -11.255652      -306.2818
   4   2.0000      -1.711261       -46.5658
   5   2.0000      -1.404682       -38.2233
   6   2.0000      -1.034008       -28.1368
   7   2.0000      -0.888600       -24.1800
   8   2.0000      -0.767268       -20.8784
   9   2.0000      -0.759848       -20.6765
  10   2.0000      -0.715653       -19.4739
  11   2.0000      -0.611888       -16.6503
  12   2.0000      -0.607587       -16.5333
  13   2.0000      -0.588865       -16.0238
  14   2.0000      -0.515403       -14.0248
  15   2.0000      -0.472066       -12.8456
  16   0.0000       0.025902         0.7048
  17   0.0000       0.042177         1.1477
  18   0.0000       0.047986         1.3058
  19   0.0000       0.063870         1.7380
  20   0.0000       0.097757         2.6601

MULLIKEN ATOMIC CHARGES
-----------------------
   0 C :   -0.757528
   1 C :    0.617124
   2 O :   -0.547877
   3 F :   -0.266152
   4 H :    0.345150
   5 H :    0.296934
   6 H :    0.312349
Sum of atomic charges:    0.0000000

LOEWDIN ATOMIC CHARGES
----------------------
   0 C :    0.589934
   1 C :   -0.920960
   2 O :    0.399341
   3 F :    0.537822
   4 H :   -0.202903
   5 H :   -0.200927
   6 H :   -0.202308

  Mayer bond orders larger than 0.100000
B(  0-C ,  1-C ) :   0.8682 B(  0-C ,  4-H ) :   0.8871 B(  0-C ,  5-H ) :   0.9234
B(  0-C ,  6-H ) :   0.9075 B(  1-C ,  2-O ) :   1.7255 B(  1-C ,  3-F ) :   0.8921

E(0)                                       ...   -251.887735419
E(0)                                       ...   -251.887735419
E(CORR)(strong-pairs)                      ...     -0.836491509
E(CORR)(weak-pairs)                        ...     -0.000607608
E(CORR)(corrected)                         ...     -0.837099117
E(TOT)                                     ...   -252.724834536
E(CCSD(T))                                 ...   -252.757061311
FINAL SINGLE POINT ENERGY      -252.757061310560

DIPOLE MOMENT
-------------
                                X             Y             Z
Electronic contribution:     -1.79457      -1.55842       4.43190
Nuclear contribution   :      2.88734       1.34891      -4.94049
                        -----------------------------------------
Total Dipole Moment    :      1.09277      -0.20951      -0.50859
                        -----------------------------------------
Magnitude (a.u.)       :      1.22340
Magnitude (Debye)      :      3.10965

Rotational constants in cm-1:     0.375207     0.313199     0.176202
Rotational constants in MHz : 11248.433436  9389.476975  5282.390844

                             ****ORCA TERMINATED NORMALLY****
TOTAL RUN TIME: 0 days 0 hours 3 minutes 4 seconds 927 msec
