                         Program Version 5.0.0 -  RELEASE  -
|  1> !wB97X-D3 RIJCOSX def2-SVPD def2/J TightSCF
|  2> *xyz -1 1
|  3> C          1.87218        0.42790       -2.07750
|  4> S          0.57902        0.14047       -3.29794
|  5> O          0.22886       -1.24687       -3.12787
|  6> O         -0.43927        1.11897       -3.01455
|  7> O          1.24788        0.40347       -4.59565
|  8> H          2.66832       -0.27048       -2.23022
|  9> H          1.46951        0.30034       -1.09440
| 10> H          2.24690        1.42458       -2.18288
| 11> *
| 12>
| 13> %MaxCore 64000
| 14>
| 15> %pal nprocs 8
| 16> end
| 17>
| 18> %scf
| 19>   MaxIter 150
| 20> end
| 21>
| 22>
| 23>                          ****END OF INPUT****

CARTESIAN COORDINATES (ANGSTROEM)
---------------------------------
  C      1.872180    0.427900   -2.077500
  S      0.579020    0.140470   -3.297940
  O      0.228860   -1.246870   -3.127870
  O     -0.439270    1.118970   -3.014550
  O      1.247880    0.403470   -4.595650
  H      2.668320   -0.270480   -2.230220
  H      1.469510    0.300340   -1.094400
  H      2.246900    1.424580   -2.182880

 Total Charge           Charge          ....   -1
 Multiplicity           Mult            ....    1
 Number of Electrons    NEL             ....   50
 Basis Dimension        Dim             ....  140

ORBITAL ENERGIES
----------------

  NO   OCC          E(Eh)            E(eV)
   0   2.0000     -88.977168     -2421.1918
   1   2.0000     -19.026200      -517.7292
   2   2.0000     -19.026115      -517.7269
   3   2.0000     -19.011948      -517.3414
   4   2.0000     -10.139483      -275.9094
   5   2.0000      -8.050643      -219.0691
   6   2.0000      -6.010108      -163.5434
   7   2.0000      -6.010055      -163.5419
   8   2.0000      -6.009881      -163.5372
   9   2.0000      -1.049347       -28.5542
  10   2.0000      -0.909350       -24.7447
  11   2.0000      -0.882119       -24.0037
  12   2.0000      -0.691453       -18.8154
  13   2.0000      -0.492385       -13.3985
  14   2.0000      -0.408798       -11.1240
  15   2.0000      -0.391305       -10.6480
  16   2.0000      -0.390253       -10.6193
  17   2.0000      -0.349482        -9.5099
  18   2.0000      -0.346993        -9.4422
  19   2.0000      -0.252406        -6.8683
  20   2.0000      -0.250574        -6.8185
  21   2.0000      -0.213890        -5.8202
  22   2.0000      -0.204344        -5.5605
  23   2.0000      -0.195525        -5.3205
  24   2.0000      -0.160084        -4.3561
  25   0.0000       0.215065         5.8522
  26   0.0000       0.237270         6.4565
  27   0.0000       0.237777         6.4702
  28   0.0000       0.240736         6.5508
  29   0.0000       0.276003         7.5104

MULLIKEN ATOMIC CHARGES
-----------------------
   0 C :    0.406271
   1 S :    1.118587
   2 O :   -0.768872
   3 O :   -0.766130
   4 O :   -0.812929
   5 H :   -0.056365
   6 H :   -0.061524
   7 H :   -0.059036
Sum of atomic charges:   -1.0000000

LOEWDIN ATOMIC CHARGES
----------------------
   0 C :    0.049758
   1 S :    0.839056
   2 O :   -0.585313
   3 O :   -0.584305
   4 O :   -0.608221
   5 H :   -0.036176
   6 H :   -0.038239
   7 H :   -0.036560

  Mayer bond orders larger than 0.100000
B(  0-C ,  1-S ) :   0.9441 B(  0-C ,  5-H ) :   0.9304 B(  0-C ,  6-H ) :   0.9289
B(  0-C ,  7-H ) :   0.9314 B(  1-S ,  2-O ) :   1.3554 B(  1-S ,  3-O ) :   1.3560
B(  1-S ,  4-O ) :   1.3190 B(  1-S ,  5-H ) :   0.1136 B(  1-S ,  6-H ) :   0.1050
B(  1-S ,  7-H ) :   0.1140

Dispersion correction           -0.001525153
FINAL SINGLE POINT ENERGY      -663.413557996391

DIPOLE MOMENT
-------------
                                X             Y             Z
Electronic contribution:     -3.16891      -0.71475      -2.80274
Nuclear contribution   :      4.08143       0.90272       3.93680
                        -----------------------------------------
Total Dipole Moment    :      0.91252       0.18796       1.13407
                        -----------------------------------------
Magnitude (a.u.)       :      1.46770
Magnitude (Debye)      :      3.73059

Rotational constants in cm-1:     0.171796     0.158241     0.155560
Rotational constants in MHz :  5150.307583  4743.954688  4663.569252

                             ****ORCA TERMINATED NORMALLY****
TOTAL RUN TIME: 0 days 0 hours 0 minutes 10 seconds 607 msec
