                         Program Version 5.0.0 -  RELEASE  -
|  1> !wB97X-D3 RIJCOSX def2-SVPD def2/J TightSCF
|  2> *xyz 1 1
|  3> C          3.38093        2.08304       -3.35013
|  4> N          4.53592        1.18245       -3.42852
|  5> C          4.67196        0.12227       -4.22060
|  6> N          5.86602       -0.50785       -4.22428
|  7> N          3.69888       -0.31284       -4.98699
|  8> H          2.73141       -0.05009       -4.84900
|  9> H          3.89005       -1.05517       -5.64373
| 10> H          5.25193        1.30346       -2.72101
| 11> H          6.69516       -0.06232       -3.85160
| 12> H          5.97538       -1.39688       -4.69141
| 13> H          2.69962        1.85926       -4.14426
| 14> H          3.71221        3.09654       -3.43937
| 15> H          2.88835        1.95032       -2.40957
| 16> *
| 17>
| 18> %MaxCore 64000
| 19>
| 20> %pal nprocs 8
| 21> end
| 22>
| 23> %scf
| 24>   MaxIter 150
| 25> end
| 26>
| 27>
| 28>                          ****END OF INPUT****

CARTESIAN COORDINATES (ANGSTROEM)
---------------------------------
  C      3.380930    2.083040   -3.350130
  N      4.535920    1.182450   -3.428520
  C      4.671960    0.122270   -4.220600
  N      5.866020   -0.507850   -4.224280
  N      3.698880   -0.312840   -4.986990
  H      2.731410   -0.050090   -4.849000
  H      3.890050   -1.055170   -5.643730
  H      5.251930    1.303460   -2.721010
  H      6.695160   -0.062320   -3.851600
  H      5.975380   -1.396880   -4.691410
  H      2.699620    1.859260   -4.144260
  H      3.712210    3.096540   -3.439370
  H      2.888350    1.950320   -2.409570

 Total Charge           Charge          ....    1
 Multiplicity           Mult            ....    1
 Number of Electrons    NEL             ....   40
 Basis Dimension        Dim             ....  164

ORBITAL ENERGIES
----------------

  NO   OCC          E(Eh)            E(eV)
   0   2.0000     -14.668284      -399.1443
   1   2.0000     -14.667273      -399.1168
   2   2.0000     -14.660316      -398.9275
   3   2.0000     -10.634802      -289.3877
   4   2.0000     -10.495252      -285.5903
   5   2.0000      -1.329719       -36.1835
   6   2.0000      -1.216943       -33.1147
   7   2.0000      -1.201143       -32.6848
   8   2.0000      -1.016069       -27.6486
   9   2.0000      -0.938483       -25.5374
  10   2.0000      -0.896986       -24.4082
  11   2.0000      -0.858553       -23.3624
  12   2.0000      -0.802697       -21.8425
  13   2.0000      -0.798314       -21.7232
  14   2.0000      -0.753880       -20.5141
  15   2.0000      -0.736542       -20.0423
  16   2.0000      -0.693232       -18.8638
  17   2.0000      -0.680364       -18.5136
  18   2.0000      -0.578111       -15.7312
  19   2.0000      -0.548599       -14.9281
  20   0.0000      -0.090085        -2.4513
  21   0.0000      -0.077821        -2.1176
  22   0.0000      -0.041990        -1.1426
  23   0.0000      -0.035859        -0.9758
  24   0.0000      -0.011217        -0.3052

MULLIKEN ATOMIC CHARGES
-----------------------
   0 C :    1.041523
   1 N :   -0.639512
   2 C :    1.414165
   3 N :   -0.160142
   4 N :   -0.082538
   5 H :   -0.034442
   6 H :   -0.028283
   7 H :   -0.207732
   8 H :   -0.037080
   9 H :    0.003143
  10 H :   -0.148627
  11 H :   -0.056701
  12 H :   -0.063773
Sum of atomic charges:    1.0000000

LOEWDIN ATOMIC CHARGES
----------------------
   0 C :    0.267951
   1 N :    0.008038
   2 C :   -0.022749
   3 N :    0.250122
   4 N :    0.268469
   5 H :    0.034669
   6 H :    0.045623
   7 H :    0.060882
   8 H :    0.039284
   9 H :    0.036269
  10 H :   -0.012129
  11 H :    0.012397
  12 H :    0.011175

  Mayer bond orders larger than 0.100000
B(  0-C ,  1-N ) :   0.8766 B(  0-C ,  7-H ) :  -0.1498 B(  0-C , 10-H ) :   0.8711
B(  0-C , 11-H ) :   0.8279 B(  0-C , 12-H ) :   0.8418 B(  1-N ,  2-C ) :   1.0190
B(  1-N ,  3-N ) :   0.2403 B(  1-N ,  4-N ) :   0.2280 B(  1-N ,  7-H ) :   1.3301
B(  1-N , 10-H ) :   0.1737 B(  1-N , 11-H ) :   0.1670 B(  1-N , 12-H ) :   0.1470
B(  2-C ,  3-N ) :   0.8061 B(  2-C ,  4-N ) :   0.9818 B(  2-C ,  5-H ) :  -0.1374
B(  2-C ,  6-H ) :  -0.1230 B(  2-C ,  7-H ) :  -0.2086 B(  2-C ,  8-H ) :  -0.1522
B(  3-N ,  4-N ) :   0.1753 B(  3-N ,  8-H ) :   1.1925 B(  3-N ,  9-H ) :   1.1569
B(  4-N ,  5-H ) :   1.1591 B(  4-N ,  6-H ) :   1.1807 B(  5-H ,  6-H ) :  -0.1720
B(  8-H ,  9-H ) :  -0.1573

Dispersion correction           -0.002351678
FINAL SINGLE POINT ENERGY      -244.856472346877

DIPOLE MOMENT
-------------
                                X             Y             Z
Electronic contribution:      1.69182      -1.98377      -0.72778
Nuclear contribution   :     -1.49827       1.51766       0.59175
                        -----------------------------------------
Total Dipole Moment    :      0.19355      -0.46610      -0.13603
                        -----------------------------------------
Magnitude (a.u.)       :      0.52270
Magnitude (Debye)      :      1.32860

Rotational constants in cm-1:     0.316446     0.130424     0.094259
Rotational constants in MHz :  9486.821695  3910.013387  2825.801764

                             ****ORCA TERMINATED NORMALLY****
TOTAL RUN TIME: 0 days 0 hours 0 minutes 13 seconds 844 msec
