                         Program Version 5.0.0 -  RELEASE  -
|  1> !wB97X-D3 RIJCOSX def2-SVPD def2/J TightSCF xyzfile
|  2>
|  3> *xyzfile 0 1 B.xyz
|  4>
|  5> %MaxCore 64000
|  6>
|  7> %pal nprocs 18
|  8> end
|  9>
| 10> %scf
| 11>   MaxIter 150
| 12> end
| 13>
| 14>
| 15>                          ****END OF INPUT****

CARTESIAN COORDINATES (ANGSTROEM)
---------------------------------
  C      3.380928    2.083045   -3.350127
  N      4.535924    1.182447   -3.428518
  C      2.495557    1.816150   -2.136364
  C      1.872181    0.427903   -2.077497
  H      2.614270   -0.365825   -2.198894
  H      1.389953    0.273087   -1.112360
  S      0.579024    0.140472   -3.297943
  C      4.671956    0.122273   -4.220598
  N      5.866023   -0.507849   -4.224284
  N      3.698881   -0.312844   -4.986988
  H      2.731405   -0.050091   -4.849000
  H      3.890046   -1.055172   -5.643730
  H      5.251933    1.303459   -2.721014
  H      6.695165   -0.062322   -3.851596
  H      5.975383   -1.396884   -4.691414
  O      0.228860   -1.246868   -3.127871
  O     -0.439269    1.118966   -3.014550
  O      1.247881    0.403474   -4.595647
  H      1.697003    2.561969   -2.141109
  H      3.080787    1.987436   -1.225838
  H      2.806463    1.986511   -4.268484
  H      3.778714    3.098282   -3.307383

 Total Charge           Charge          ....    0
 Multiplicity           Mult            ....    1
 Number of Electrons    NEL             ....   96
 Basis Dimension        Dim             ....  324

ORBITAL ENERGIES
----------------

  NO   OCC          E(Eh)            E(eV)
   0   2.0000     -89.123514     -2425.1741
   1   2.0000     -19.179302      -521.8953
   2   2.0000     -19.164333      -521.4880
   3   2.0000     -19.164091      -521.4814
   4   2.0000     -14.535151      -395.5216
   5   2.0000     -14.529400      -395.3651
   6   2.0000     -14.498310      -394.5191
   7   2.0000     -10.492770      -285.5228
   8   2.0000     -10.356110      -281.8041
   9   2.0000     -10.307769      -280.4887
  10   2.0000     -10.293997      -280.1139
  11   2.0000      -8.196398      -223.0353
  12   2.0000      -6.156639      -167.5307
  13   2.0000      -6.155449      -167.4983
  14   2.0000      -6.155288      -167.4939
  15   2.0000      -1.197462       -32.5846
  16   2.0000      -1.189171       -32.3590
  17   2.0000      -1.078691       -29.3527
  18   2.0000      -1.063048       -28.9270
  19   2.0000      -1.047043       -28.4915
  20   2.0000      -1.043885       -28.4056
  21   2.0000      -0.923268       -25.1234
  22   2.0000      -0.850768       -23.1506
  23   2.0000      -0.794470       -21.6186
  24   2.0000      -0.759568       -20.6689
  25   2.0000      -0.750036       -20.4095
  26   2.0000      -0.712012       -19.3748
  27   2.0000      -0.670362       -18.2415
  28   2.0000      -0.654937       -17.8217
  29   2.0000      -0.636218       -17.3124
  30   2.0000      -0.615504       -16.7487
  31   2.0000      -0.591549       -16.0969
  32   2.0000      -0.578193       -15.7334
  33   2.0000      -0.556067       -15.1314
  34   2.0000      -0.542297       -14.7567
  35   2.0000      -0.525044       -14.2872
  36   2.0000      -0.504629       -13.7316
  37   2.0000      -0.480352       -13.0710
  38   2.0000      -0.474271       -12.9056
  39   2.0000      -0.461323       -12.5532
  40   2.0000      -0.437584       -11.9073
  41   2.0000      -0.407231       -11.0813
  42   2.0000      -0.401321       -10.9205
  43   2.0000      -0.394140       -10.7251
  44   2.0000      -0.360478        -9.8091
  45   2.0000      -0.351232        -9.5575
  46   2.0000      -0.340038        -9.2529
  47   2.0000      -0.311027        -8.4635
  48   0.0000       0.034325         0.9340
  49   0.0000       0.045031         1.2254
  50   0.0000       0.069903         1.9021
  51   0.0000       0.087731         2.3873
  52   0.0000       0.104927         2.8552

MULLIKEN ATOMIC CHARGES
-----------------------
   0 C :    0.861487
   1 N :   -0.579804
   2 C :    0.125841
   3 C :    0.064681
   4 H :    0.076876
   5 H :   -0.127860
   6 S :    1.462994
   7 C :    1.393553
   8 N :   -0.138614
   9 N :    0.305284
  10 H :   -0.307614
  11 H :   -0.115539
  12 H :   -0.197210
  13 H :   -0.076179
  14 H :   -0.015984
  15 O :   -0.777020
  16 O :   -0.813407
  17 O :   -0.924150
  18 H :    0.045993
  19 H :   -0.039781
  20 H :    0.029012
  21 H :   -0.252559
Sum of atomic charges:    0.0000000

LOEWDIN ATOMIC CHARGES
----------------------
   0 C :    0.089933
   1 N :    0.034250
   2 C :   -0.019460
   3 C :   -0.074603
   4 H :    0.003009
   5 H :    0.020699
   6 S :    0.935662
   7 C :   -0.031293
   8 N :    0.226745
   9 N :    0.306102
  10 H :   -0.131242
  11 H :    0.040307
  12 H :    0.049624
  13 H :    0.020739
  14 H :    0.022377
  15 O :   -0.531913
  16 O :   -0.523874
  17 O :   -0.540215
  18 H :    0.037287
  19 H :    0.022844
  20 H :    0.011553
  21 H :    0.031469

  Mayer bond orders larger than 0.100000
B(  0-C ,  1-N ) :   0.8552 B(  0-C ,  2-C ) :   1.1124 B(  0-C , 12-H ) :  -0.1712
B(  0-C , 18-H ) :   0.1366 B(  0-C , 19-H ) :   0.1285 B(  0-C , 20-H ) :   0.7505
B(  0-C , 21-H ) :   0.8779 B(  1-N ,  7-C ) :   0.9421 B(  1-N ,  8-N ) :   0.2482
B(  1-N ,  9-N ) :   0.1731 B(  1-N , 12-H ) :   1.3383 B(  1-N , 20-H ) :   0.1929
B(  1-N , 21-H ) :   0.1378 B(  2-C ,  3-C ) :   1.2133 B(  2-C ,  4-H ) :   0.1313
B(  2-C ,  5-H ) :   0.1518 B(  2-C , 18-H ) :   0.8491 B(  2-C , 19-H ) :   0.7997
B(  2-C , 20-H ) :   0.1406 B(  3-C ,  4-H ) :   0.9235 B(  3-C ,  5-H ) :   0.8699
B(  3-C ,  6-S ) :   0.9189 B(  3-C , 17-O ) :   0.1510 B(  3-C , 18-H ) :   0.1533
B(  3-C , 19-H ) :   0.1209 B(  5-H ,  6-S ) :   0.1026 B(  6-S , 15-O ) :   1.3528
B(  6-S , 16-O ) :   1.3581 B(  6-S , 17-O ) :   1.1196 B(  7-C ,  8-N ) :   0.7957
B(  7-C ,  9-N ) :   1.0727 B(  7-C , 10-H ) :  -0.2358 B(  7-C , 11-H ) :  -0.1624
B(  7-C , 12-H ) :  -0.2259 B(  7-C , 13-H ) :  -0.1513 B(  8-N ,  9-N ) :   0.1562
B(  8-N , 13-H ) :   1.2148 B(  8-N , 14-H ) :   1.1713 B(  9-N , 10-H ) :   1.1227
B(  9-N , 11-H ) :   1.2171 B( 10-H , 11-H ) :  -0.2398 B( 10-H , 17-O ) :   0.2243
B( 13-H , 14-H ) :  -0.1653 B( 20-H , 21-H ) :  -0.1190

Dispersion correction           -0.009899726
FINAL SINGLE POINT ENERGY      -946.505599201869

DIPOLE MOMENT
-------------
                                X             Y             Z
Electronic contribution:     -6.96979      -3.18015      -2.40950
Nuclear contribution   :     13.40759       3.44219       2.21042
                        -----------------------------------------
Total Dipole Moment    :      6.43781       0.26204      -0.19908
                        -----------------------------------------
Magnitude (a.u.)       :      6.44621
Magnitude (Debye)      :     16.38497

Rotational constants in cm-1:     0.059860     0.020817     0.017914
Rotational constants in MHz :  1794.564877   624.092098   537.039275

                             ****ORCA TERMINATED NORMALLY****
TOTAL RUN TIME: 0 days 0 hours 0 minutes 39 seconds 293 msec
