                         Program Version 5.0.0 -  RELEASE  -
|  1> !wB97X-D3 RIJCOSX def2-SVPD def2/J TightSCF
|  2> *xyz 0 1
|  3> C          1.87218        0.42790       -2.07750
|  4> S          0.57902        0.14047       -3.29794
|  5> F          0.22886       -1.24687       -3.12787
|  6> O         -0.43927        1.11897       -3.01455
|  7> O          1.24788        0.40347       -4.59565
|  8> H          2.66832       -0.27048       -2.23022
|  9> H          1.46951        0.30034       -1.09440
| 10> H          2.24690        1.42458       -2.18288
| 11> *
| 12>
| 13> %MaxCore 64000
| 14>
| 15> %pal nprocs 8
| 16> end
| 17>
| 18> %scf
| 19>   MaxIter 150
| 20> end
| 21>
| 22>
| 23>                          ****END OF INPUT****

CARTESIAN COORDINATES (ANGSTROEM)
---------------------------------
  C      1.872180    0.427900   -2.077500
  S      0.579020    0.140470   -3.297940
  F      0.228860   -1.246870   -3.127870
  O     -0.439270    1.118970   -3.014550
  O      1.247880    0.403470   -4.595650
  H      2.668320   -0.270480   -2.230220
  H      1.469510    0.300340   -1.094400
  H      2.246900    1.424580   -2.182880

 Total Charge           Charge          ....    0
 Multiplicity           Mult            ....    1
 Number of Electrons    NEL             ....   50
 Basis Dimension        Dim             ....  140

ORBITAL ENERGIES
----------------

  NO   OCC          E(Eh)            E(eV)
   0   2.0000     -89.244273     -2428.4601
   1   2.0000     -24.929253      -678.3595
   2   2.0000     -19.266060      -524.2561
   3   2.0000     -19.251448      -523.8585
   4   2.0000     -10.350052      -281.6392
   5   2.0000      -8.318373      -226.3544
   6   2.0000      -6.282140      -170.9457
   7   2.0000      -6.275483      -170.7646
   8   2.0000      -6.274509      -170.7381
   9   2.0000      -1.502961       -40.8977
  10   2.0000      -1.232005       -33.5245
  11   2.0000      -1.123308       -30.5668
  12   2.0000      -0.916657       -24.9435
  13   2.0000      -0.834824       -22.7167
  14   2.0000      -0.718513       -19.5517
  15   2.0000      -0.704199       -19.1622
  16   2.0000      -0.665994       -18.1226
  17   2.0000      -0.584906       -15.9161
  18   2.0000      -0.581916       -15.8347
  19   2.0000      -0.568102       -15.4588
  20   2.0000      -0.542104       -14.7514
  21   2.0000      -0.493315       -13.4238
  22   2.0000      -0.440132       -11.9766
  23   2.0000      -0.426148       -11.5961
  24   2.0000      -0.408371       -11.1123
  25   0.0000       0.059588         1.6215
  26   0.0000       0.092410         2.5146
  27   0.0000       0.099675         2.7123
  28   0.0000       0.100895         2.7455
  29   0.0000       0.117032         3.1846

MULLIKEN ATOMIC CHARGES
-----------------------
   0 C :    0.323463
   1 S :    1.290291
   2 F :   -0.374541
   3 O :   -0.628544
   4 O :   -0.671991
   5 H :    0.023074
   6 H :    0.021925
   7 H :    0.016322
Sum of atomic charges:    0.0000000

LOEWDIN ATOMIC CHARGES
----------------------
   0 C :    0.118606
   1 S :    1.113914
   2 F :   -0.256397
   3 O :   -0.466714
   4 O :   -0.489083
   5 H :   -0.010805
   6 H :   -0.011988
   7 H :    0.002467

  Mayer bond orders larger than 0.100000
B(  0-C ,  1-S ) :   1.0013 B(  0-C ,  5-H ) :   0.9298 B(  0-C ,  6-H ) :   0.9289
B(  0-C ,  7-H ) :   0.9342 B(  1-S ,  2-F ) :   0.7088 B(  1-S ,  3-O ) :   1.5590
B(  1-S ,  4-O ) :   1.5236 B(  1-S ,  7-H ) :   0.1099

Dispersion correction           -0.001537553
FINAL SINGLE POINT ENERGY      -687.894126805127

DIPOLE MOMENT
-------------
                                X             Y             Z
Electronic contribution:     -3.77062      -3.04115      -2.48786
Nuclear contribution   :      4.52607       2.31146       3.82544
                        -----------------------------------------
Total Dipole Moment    :      0.75545      -0.72969       1.33759
                        -----------------------------------------
Magnitude (a.u.)       :      1.70067
Magnitude (Debye)      :      4.32277

Rotational constants in cm-1:     0.162724     0.156586     0.147157
Rotational constants in MHz :  4878.333818  4694.318771  4411.658495

                             ****ORCA TERMINATED NORMALLY****
TOTAL RUN TIME: 0 days 0 hours 0 minutes 9 seconds 820 msec
