                         Program Version 5.0.0 -  RELEASE  -
|  1> !wB97X-D3 RIJCOSX def2-SVPD def2/J TightSCF
|  2> *xyz 0 1
|  3> C          3.38093        2.08304       -3.35013
|  4> C          4.53592        1.18245       -3.42852
|  5> C          4.67196        0.12227       -4.22060
|  6> N          5.86602       -0.50785       -4.22428
|  7> N          3.69888       -0.31284       -4.98699
|  8> H          2.73141       -0.05009       -4.84900
|  9> H          3.89005       -1.05517       -5.64373
| 10> H          5.25193        1.30346       -2.72101
| 11> H          6.69516       -0.06232       -3.85160
| 12> H          5.97538       -1.39688       -4.69141
| 13> H          2.69962        1.85926       -4.14426
| 14> H          3.71221        3.09654       -3.43937
| 15> H          2.88835        1.95032       -2.40957
| 16> *
| 17>
| 18> %MaxCore 64000
| 19>
| 20> %pal nprocs 8
| 21> end
| 22>
| 23> %scf
| 24>   MaxIter 150
| 25> end
| 26>
| 27>
| 28>                          ****END OF INPUT****

CARTESIAN COORDINATES (ANGSTROEM)
---------------------------------
  C      3.380930    2.083040   -3.350130
  C      4.535920    1.182450   -3.428520
  C      4.671960    0.122270   -4.220600
  N      5.866020   -0.507850   -4.224280
  N      3.698880   -0.312840   -4.986990
  H      2.731410   -0.050090   -4.849000
  H      3.890050   -1.055170   -5.643730
  H      5.251930    1.303460   -2.721010
  H      6.695160   -0.062320   -3.851600
  H      5.975380   -1.396880   -4.691410
  H      2.699620    1.859260   -4.144260
  H      3.712210    3.096540   -3.439370
  H      2.888350    1.950320   -2.409570

 Total Charge           Charge          ....    0
 Multiplicity           Mult            ....    1
 Number of Electrons    NEL             ....   40
 Basis Dimension        Dim             ....  164

ORBITAL ENERGIES
----------------

  NO   OCC          E(Eh)            E(eV)
   0   2.0000     -14.439023      -392.9058
   1   2.0000     -14.431721      -392.7071
   2   2.0000     -10.332268      -281.1553
   3   2.0000     -10.252901      -278.9956
   4   2.0000     -10.210667      -277.8464
   5   2.0000      -1.069406       -29.1000
   6   2.0000      -0.974319       -26.5126
   7   2.0000      -0.857677       -23.3386
   8   2.0000      -0.763325       -20.7711
   9   2.0000      -0.689948       -18.7744
  10   2.0000      -0.646250       -17.5854
  11   2.0000      -0.606941       -16.5157
  12   2.0000      -0.578649       -15.7458
  13   2.0000      -0.526399       -14.3241
  14   2.0000      -0.503559       -13.7025
  15   2.0000      -0.471523       -12.8308
  16   2.0000      -0.456385       -12.4189
  17   2.0000      -0.433650       -11.8002
  18   2.0000      -0.359266        -9.7761
  19   2.0000      -0.242201        -6.5906
  20   0.0000       0.090207         2.4547
  21   0.0000       0.117316         3.1923
  22   0.0000       0.128460         3.4956
  23   0.0000       0.157091         4.2747
  24   0.0000       0.158554         4.3145

MULLIKEN ATOMIC CHARGES
-----------------------
   0 C :    0.851955
   1 C :   -0.705477
   2 C :    1.012630
   3 N :   -0.047818
   4 N :    0.004402
   5 H :   -0.081430
   6 H :   -0.190095
   7 H :   -0.382282
   8 H :   -0.076838
   9 H :   -0.108684
  10 H :   -0.204770
  11 H :   -0.017539
  12 H :   -0.054054
Sum of atomic charges:    0.0000000

LOEWDIN ATOMIC CHARGES
----------------------
   0 C :    0.096609
   1 C :   -0.070940
   2 C :   -0.227614
   3 N :    0.167727
   4 N :    0.182882
   5 H :    0.000963
   6 H :   -0.004092
   7 H :   -0.052315
   8 H :    0.004008
   9 H :   -0.014727
  10 H :   -0.040947
  11 H :   -0.021023
  12 H :   -0.020531

  Mayer bond orders larger than 0.100000
B(  0-C ,  1-C ) :   1.1091 B(  0-C ,  7-H ) :   0.1507 B(  0-C , 10-H ) :   0.8091
B(  0-C , 11-H ) :   0.7343 B(  0-C , 12-H ) :   0.7345 B(  1-C ,  2-C ) :   1.6354
B(  1-C ,  3-N ) :   0.4346 B(  1-C ,  4-N ) :   0.2814 B(  1-C ,  7-H ) :   0.9538
B(  1-C , 10-H ) :   0.3490 B(  1-C , 11-H ) :   0.1931 B(  1-C , 12-H ) :   0.1759
B(  2-C ,  3-N ) :   0.7569 B(  2-C ,  4-N ) :   0.9967 B(  2-C ,  6-H ) :  -0.1308
B(  2-C ,  7-H ) :   0.1317 B(  2-C ,  8-H ) :  -0.1223 B(  2-C , 10-H ) :  -0.1068
B(  3-N ,  4-N ) :   0.1156 B(  3-N ,  8-H ) :   1.1982 B(  3-N ,  9-H ) :   1.1393
B(  4-N ,  5-H ) :   1.1527 B(  4-N ,  6-H ) :   1.2648 B(  5-H ,  6-H ) :  -0.1670
B(  8-H ,  9-H ) :  -0.1511 B( 10-H , 11-H ) :   0.1336

Dispersion correction           -0.002353165
FINAL SINGLE POINT ENERGY      -228.390511965378

DIPOLE MOMENT
-------------
                                X             Y             Z
Electronic contribution:      1.56347      -2.46178      -1.22436
Nuclear contribution   :     -1.47697       1.65537       0.71722
                        -----------------------------------------
Total Dipole Moment    :      0.08650      -0.80641      -0.50715
                        -----------------------------------------
Magnitude (a.u.)       :      0.95655
Magnitude (Debye)      :      2.43135

Rotational constants in cm-1:     0.321284     0.131400     0.095192
Rotational constants in MHz :  9631.850868  3939.260061  2853.789421

                             ****ORCA TERMINATED NORMALLY****
TOTAL RUN TIME: 0 days 0 hours 0 minutes 14 seconds 621 msec
