                         Program Version 5.0.0 -  RELEASE  -
|  1> !wB97X-D3 RIJCOSX def2-SVPD def2/J TightSCF
|  2> *xyz 0 1
|  3> C          1.87218        0.42790       -2.07750
|  4> S          0.57902        0.14047       -3.29794
|  5> O          0.22886       -1.24687       -3.12787
|  6> F         -0.43927        1.11897       -3.01455
|  7> O          1.24788        0.40347       -4.59565
|  8> H          2.66832       -0.27048       -2.23022
|  9> H          1.46951        0.30034       -1.09440
| 10> H          2.24690        1.42458       -2.18288
| 11> *
| 12>
| 13> %MaxCore 64000
| 14>
| 15> %pal nprocs 8
| 16> end
| 17>
| 18> %scf
| 19>   MaxIter 150
| 20> end
| 21>
| 22>
| 23>                          ****END OF INPUT****

CARTESIAN COORDINATES (ANGSTROEM)
---------------------------------
  C      1.872180    0.427900   -2.077500
  S      0.579020    0.140470   -3.297940
  O      0.228860   -1.246870   -3.127870
  F     -0.439270    1.118970   -3.014550
  O      1.247880    0.403470   -4.595650
  H      2.668320   -0.270480   -2.230220
  H      1.469510    0.300340   -1.094400
  H      2.246900    1.424580   -2.182880

 Total Charge           Charge          ....    0
 Multiplicity           Mult            ....    1
 Number of Electrons    NEL             ....   50
 Basis Dimension        Dim             ....  140

ORBITAL ENERGIES
----------------

  NO   OCC          E(Eh)            E(eV)
   0   2.0000     -89.244405     -2428.4637
   1   2.0000     -24.929424      -678.3641
   2   2.0000     -19.266166      -524.2590
   3   2.0000     -19.251598      -523.8626
   4   2.0000     -10.349909      -281.6354
   5   2.0000      -8.318478      -226.3573
   6   2.0000      -6.282251      -170.9487
   7   2.0000      -6.275564      -170.7668
   8   2.0000      -6.274638      -170.7416
   9   2.0000      -1.503236       -40.9051
  10   2.0000      -1.231572       -33.5128
  11   2.0000      -1.124154       -30.5898
  12   2.0000      -0.915848       -24.9215
  13   2.0000      -0.834960       -22.7204
  14   2.0000      -0.718756       -19.5583
  15   2.0000      -0.704090       -19.1593
  16   2.0000      -0.666277       -18.1303
  17   2.0000      -0.584307       -15.8998
  18   2.0000      -0.581965       -15.8361
  19   2.0000      -0.568805       -15.4780
  20   2.0000      -0.542225       -14.7547
  21   2.0000      -0.492627       -13.4051
  22   2.0000      -0.439535       -11.9603
  23   2.0000      -0.426021       -11.5926
  24   2.0000      -0.409405       -11.1405
  25   0.0000       0.059561         1.6207
  26   0.0000       0.092463         2.5161
  27   0.0000       0.099735         2.7139
  28   0.0000       0.100772         2.7421
  29   0.0000       0.115840         3.1522

MULLIKEN ATOMIC CHARGES
-----------------------
   0 C :    0.324294
   1 S :    1.292272
   2 O :   -0.631152
   3 F :   -0.372874
   4 O :   -0.673667
   5 H :    0.018827
   6 H :    0.020748
   7 H :    0.021553
Sum of atomic charges:    0.0000000

LOEWDIN ATOMIC CHARGES
----------------------
   0 C :    0.118512
   1 S :    1.114172
   2 O :   -0.467756
   3 F :   -0.255259
   4 O :   -0.489179
   5 H :    0.002716
   6 H :   -0.012396
   7 H :   -0.010811

  Mayer bond orders larger than 0.100000
B(  0-C ,  1-S ) :   1.0021 B(  0-C ,  5-H ) :   0.9325 B(  0-C ,  6-H ) :   0.9281
B(  0-C ,  7-H ) :   0.9321 B(  1-S ,  2-O ) :   1.5592 B(  1-S ,  3-F ) :   0.7071
B(  1-S ,  4-O ) :   1.5226 B(  1-S ,  5-H ) :   0.1094

Dispersion correction           -0.001534974
FINAL SINGLE POINT ENERGY      -687.894102121771

DIPOLE MOMENT
-------------
                                X             Y             Z
Electronic contribution:     -4.88923       0.91618      -2.29550
Nuclear contribution   :      5.19357      -0.05217       3.71223
                        -----------------------------------------
Total Dipole Moment    :      0.30434       0.86400       1.41673
                        -----------------------------------------
Magnitude (a.u.)       :      1.68708
Magnitude (Debye)      :      4.28822

Rotational constants in cm-1:     0.163837     0.155047     0.147593
Rotational constants in MHz :  4911.724022  4648.196128  4424.713532

                             ****ORCA TERMINATED NORMALLY****
TOTAL RUN TIME: 0 days 0 hours 0 minutes 10 seconds 47 msec
