                         Program Version 5.0.0 -  RELEASE  -
|  1> !wB97X-D3 RIJCOSX def2-SVPD def2/J TightSCF
|  2> *xyz 0 1
|  3> C          3.38093        2.08304       -3.35013
|  4> N          4.53592        1.18245       -3.42852
|  5> C          4.67196        0.12227       -4.22060
|  6> C          5.86602       -0.50785       -4.22428
|  7> N          3.69888       -0.31284       -4.98699
|  8> H          2.73141       -0.05009       -4.84900
|  9> H          3.89005       -1.05517       -5.64373
| 10> H          5.25193        1.30346       -2.72101
| 11> H          6.69516       -0.06232       -3.85160
| 12> H          5.97538       -1.39688       -4.69141
| 13> H          2.69962        1.85926       -4.14426
| 14> H          3.71221        3.09654       -3.43937
| 15> H          2.88835        1.95032       -2.40957
| 16> *
| 17>
| 18> %MaxCore 64000
| 19>
| 20> %pal nprocs 8
| 21> end
| 22>
| 23> %scf
| 24>   MaxIter 150
| 25> end
| 26>
| 27>
| 28>                          ****END OF INPUT****

CARTESIAN COORDINATES (ANGSTROEM)
---------------------------------
  C      3.380930    2.083040   -3.350130
  N      4.535920    1.182450   -3.428520
  C      4.671960    0.122270   -4.220600
  C      5.866020   -0.507850   -4.224280
  N      3.698880   -0.312840   -4.986990
  H      2.731410   -0.050090   -4.849000
  H      3.890050   -1.055170   -5.643730
  H      5.251930    1.303460   -2.721010
  H      6.695160   -0.062320   -3.851600
  H      5.975380   -1.396880   -4.691410
  H      2.699620    1.859260   -4.144260
  H      3.712210    3.096540   -3.439370
  H      2.888350    1.950320   -2.409570

 Total Charge           Charge          ....    0
 Multiplicity           Mult            ....    1
 Number of Electrons    NEL             ....   40
 Basis Dimension        Dim             ....  164

ORBITAL ENERGIES
----------------

  NO   OCC          E(Eh)            E(eV)
   0   2.0000     -14.440770      -392.9533
   1   2.0000     -14.438487      -392.8912
   2   2.0000     -10.339342      -281.3478
   3   2.0000     -10.322908      -280.9006
   4   2.0000     -10.195393      -277.4308
   5   2.0000      -1.078326       -29.3427
   6   2.0000      -0.993584       -27.0368
   7   2.0000      -0.849459       -23.1150
   8   2.0000      -0.770248       -20.9595
   9   2.0000      -0.708305       -19.2740
  10   2.0000      -0.647586       -17.6217
  11   2.0000      -0.594525       -16.1778
  12   2.0000      -0.579052       -15.7568
  13   2.0000      -0.552719       -15.0403
  14   2.0000      -0.505345       -13.7511
  15   2.0000      -0.492203       -13.3935
  16   2.0000      -0.478879       -13.0310
  17   2.0000      -0.453809       -12.3488
  18   2.0000      -0.348868        -9.4932
  19   2.0000      -0.243952        -6.6383
  20   0.0000       0.084325         2.2946
  21   0.0000       0.118588         3.2269
  22   0.0000       0.122261         3.3269
  23   0.0000       0.149159         4.0588
  24   0.0000       0.159517         4.3407

MULLIKEN ATOMIC CHARGES
-----------------------
   0 C :    1.110215
   1 N :   -0.586918
   2 C :    0.749192
   3 C :    0.402403
   4 N :    0.044771
   5 H :   -0.147778
   6 H :   -0.061743
   7 H :   -0.258215
   8 H :   -0.414121
   9 H :   -0.377003
  10 H :   -0.196210
  11 H :   -0.128505
  12 H :   -0.136088
Sum of atomic charges:   -0.0000000

LOEWDIN ATOMIC CHARGES
----------------------
   0 C :    0.216274
   1 N :   -0.049156
   2 C :   -0.236060
   3 C :    0.129532
   4 N :    0.184109
   5 H :   -0.011615
   6 H :    0.013981
   7 H :    0.035115
   8 H :   -0.106665
   9 H :   -0.110406
  10 H :   -0.030318
  11 H :   -0.016824
  12 H :   -0.017968

  Mayer bond orders larger than 0.100000
B(  0-C ,  1-N ) :   0.8695 B(  0-C ,  7-H ) :  -0.1535 B(  0-C , 10-H ) :   0.8622
B(  0-C , 11-H ) :   0.8186 B(  0-C , 12-H ) :   0.8316 B(  1-N ,  2-C ) :   1.0274
B(  1-N ,  3-C ) :   0.2413 B(  1-N ,  4-N ) :   0.1738 B(  1-N ,  7-H ) :   1.2903
B(  1-N , 10-H ) :   0.1946 B(  1-N , 11-H ) :   0.1719 B(  1-N , 12-H ) :   0.1641
B(  2-C ,  3-C ) :   1.4842 B(  2-C ,  4-N ) :   1.0578 B(  2-C ,  7-H ) :  -0.1915
B(  2-C ,  9-H ) :   0.1502 B(  3-C ,  4-N ) :   0.2002 B(  3-C ,  8-H ) :   0.9139
B(  3-C ,  9-H ) :   0.8127 B(  4-N ,  5-H ) :   1.1775 B(  4-N ,  6-H ) :   1.1573
B(  5-H ,  6-H ) :  -0.1684

Dispersion correction           -0.002365903
FINAL SINGLE POINT ENERGY      -228.375937544487

DIPOLE MOMENT
-------------
                                X             Y             Z
Electronic contribution:      0.14136      -0.79986      -0.45842
Nuclear contribution   :     -1.20756       1.31300       0.55604
                        -----------------------------------------
Total Dipole Moment    :     -1.06620       0.51314       0.09762
                        -----------------------------------------
Magnitude (a.u.)       :      1.18727
Magnitude (Debye)      :      3.01781

Rotational constants in cm-1:     0.323683     0.135884     0.097747
Rotational constants in MHz :  9703.770798  4073.695357  2930.389562

                             ****ORCA TERMINATED NORMALLY****
TOTAL RUN TIME: 0 days 0 hours 0 minutes 13 seconds 880 msec
