                         Program Version 5.0.0 -  RELEASE  -
|  1> !wB97X-D3 RIJCOSX def2-SVPD def2/J TightSCF
|  2> *xyz 0 1
|  3> C          1.87218        0.42790       -2.07750
|  4> S          0.57902        0.14047       -3.29794
|  5> O          0.22886       -1.24687       -3.12787
|  6> O         -0.43927        1.11897       -3.01455
|  7> F          1.24788        0.40347       -4.59565
|  8> H          2.66832       -0.27048       -2.23022
|  9> H          1.46951        0.30034       -1.09440
| 10> H          2.24690        1.42458       -2.18288
| 11> *
| 12>
| 13> %MaxCore 64000
| 14>
| 15> %pal nprocs 8
| 16> end
| 17>
| 18> %scf
| 19>   MaxIter 150
| 20> end
| 21>
| 22>
| 23>                          ****END OF INPUT****

CARTESIAN COORDINATES (ANGSTROEM)
---------------------------------
  C      1.872180    0.427900   -2.077500
  S      0.579020    0.140470   -3.297940
  O      0.228860   -1.246870   -3.127870
  O     -0.439270    1.118970   -3.014550
  F      1.247880    0.403470   -4.595650
  H      2.668320   -0.270480   -2.230220
  H      1.469510    0.300340   -1.094400
  H      2.246900    1.424580   -2.182880

 Total Charge           Charge          ....    0
 Multiplicity           Mult            ....    1
 Number of Electrons    NEL             ....   50
 Basis Dimension        Dim             ....  140

ORBITAL ENERGIES
----------------

  NO   OCC          E(Eh)            E(eV)
   0   2.0000     -89.242167     -2428.4028
   1   2.0000     -24.907790      -677.7754
   2   2.0000     -19.265675      -524.2457
   3   2.0000     -19.265637      -524.2446
   4   2.0000     -10.348879      -281.6073
   5   2.0000      -8.316148      -226.2939
   6   2.0000      -6.279688      -170.8790
   7   2.0000      -6.273445      -170.7091
   8   2.0000      -6.272550      -170.6848
   9   2.0000      -1.466757       -39.9125
  10   2.0000      -1.241834       -33.7920
  11   2.0000      -1.145742       -31.1772
  12   2.0000      -0.913390       -24.8546
  13   2.0000      -0.816714       -22.2239
  14   2.0000      -0.701219       -19.0811
  15   2.0000      -0.678781       -18.4706
  16   2.0000      -0.663112       -18.0442
  17   2.0000      -0.586834       -15.9686
  18   2.0000      -0.582299       -15.8452
  19   2.0000      -0.566715       -15.4211
  20   2.0000      -0.548677       -14.9303
  21   2.0000      -0.498907       -13.5759
  22   2.0000      -0.446464       -12.1489
  23   2.0000      -0.437563       -11.9067
  24   2.0000      -0.424684       -11.5562
  25   0.0000       0.062289         1.6950
  26   0.0000       0.094002         2.5579
  27   0.0000       0.100795         2.7428
  28   0.0000       0.100996         2.7482
  29   0.0000       0.115061         3.1310

MULLIKEN ATOMIC CHARGES
-----------------------
   0 C :    0.321799
   1 S :    1.300030
   2 O :   -0.643423
   3 O :   -0.642339
   4 F :   -0.395149
   5 H :    0.023779
   6 H :    0.015547
   7 H :    0.019755
Sum of atomic charges:   -0.0000000

LOEWDIN ATOMIC CHARGES
----------------------
   0 C :    0.118788
   1 S :    1.111455
   2 O :   -0.468253
   3 O :   -0.467401
   4 F :   -0.273986
   5 H :   -0.010515
   6 H :    0.001241
   7 H :   -0.011329

  Mayer bond orders larger than 0.100000
B(  0-C ,  1-S ) :   1.0019 B(  0-C ,  5-H ) :   0.9319 B(  0-C ,  6-H ) :   0.9301
B(  0-C ,  7-H ) :   0.9321 B(  1-S ,  2-O ) :   1.5561 B(  1-S ,  3-O ) :   1.5557
B(  1-S ,  4-F ) :   0.6620 B(  1-S ,  6-H ) :   0.1035

Dispersion correction           -0.001534362
FINAL SINGLE POINT ENERGY      -687.912780337546

DIPOLE MOMENT
-------------
                                X             Y             Z
Electronic contribution:     -2.04872      -0.27668      -4.96768
Nuclear contribution   :      3.50800       0.66266       5.29185
                        -----------------------------------------
Total Dipole Moment    :      1.45928       0.38598       0.32417
                        -----------------------------------------
Magnitude (a.u.)       :      1.54388
Magnitude (Debye)      :      3.92424

Rotational constants in cm-1:     0.163942     0.153101     0.149133
Rotational constants in MHz :  4914.860621  4589.839477  4470.901507

                             ****ORCA TERMINATED NORMALLY****
TOTAL RUN TIME: 0 days 0 hours 0 minutes 9 seconds 916 msec
