                         Program Version 5.0.0 -  RELEASE  -
|  1> !wB97X-D3 RIJCOSX def2-SVPD def2/J TightSCF
|  2> *xyz 0 1
|  3> C          3.38093        2.08304       -3.35013
|  4> N          4.53592        1.18245       -3.42852
|  5> C          4.67196        0.12227       -4.22060
|  6> N          5.86602       -0.50785       -4.22428
|  7> C          3.69888       -0.31284       -4.98699
|  8> H          2.73141       -0.05009       -4.84900
|  9> H          3.89005       -1.05517       -5.64373
| 10> H          5.25193        1.30346       -2.72101
| 11> H          6.69516       -0.06232       -3.85160
| 12> H          5.97538       -1.39688       -4.69141
| 13> H          2.69962        1.85926       -4.14426
| 14> H          3.71221        3.09654       -3.43937
| 15> H          2.88835        1.95032       -2.40957
| 16> *
| 17>
| 18> %MaxCore 64000
| 19>
| 20> %pal nprocs 8
| 21> end
| 22>
| 23> %scf
| 24>   MaxIter 150
| 25> end
| 26>
| 27>
| 28>                          ****END OF INPUT****

CARTESIAN COORDINATES (ANGSTROEM)
---------------------------------
  C      3.380930    2.083040   -3.350130
  N      4.535920    1.182450   -3.428520
  C      4.671960    0.122270   -4.220600
  N      5.866020   -0.507850   -4.224280
  C      3.698880   -0.312840   -4.986990
  H      2.731410   -0.050090   -4.849000
  H      3.890050   -1.055170   -5.643730
  H      5.251930    1.303460   -2.721010
  H      6.695160   -0.062320   -3.851600
  H      5.975380   -1.396880   -4.691410
  H      2.699620    1.859260   -4.144260
  H      3.712210    3.096540   -3.439370
  H      2.888350    1.950320   -2.409570

 Total Charge           Charge          ....    0
 Multiplicity           Mult            ....    1
 Number of Electrons    NEL             ....   40
 Basis Dimension        Dim             ....  164

ORBITAL ENERGIES
----------------

  NO   OCC          E(Eh)            E(eV)
   0   2.0000     -14.438857      -392.9013
   1   2.0000     -14.434308      -392.7775
   2   2.0000     -10.336669      -281.2751
   3   2.0000     -10.314085      -280.6605
   4   2.0000     -10.200138      -277.5599
   5   2.0000      -1.071738       -29.1635
   6   2.0000      -0.984252       -26.7829
   7   2.0000      -0.831204       -22.6182
   8   2.0000      -0.804075       -21.8800
   9   2.0000      -0.671160       -18.2632
  10   2.0000      -0.649096       -17.6628
  11   2.0000      -0.617333       -16.7985
  12   2.0000      -0.554844       -15.0981
  13   2.0000      -0.539081       -14.6691
  14   2.0000      -0.517108       -14.0712
  15   2.0000      -0.483679       -13.1616
  16   2.0000      -0.479895       -13.0586
  17   2.0000      -0.453505       -12.3405
  18   2.0000      -0.341476        -9.2920
  19   2.0000      -0.256849        -6.9892
  20   0.0000       0.091610         2.4928
  21   0.0000       0.111719         3.0400
  22   0.0000       0.125876         3.4253
  23   0.0000       0.152198         4.1415
  24   0.0000       0.157820         4.2945

MULLIKEN ATOMIC CHARGES
-----------------------
   0 C :    1.075155
   1 N :   -0.548186
   2 C :    0.922709
   3 N :   -0.030868
   4 C :    0.115431
   5 H :   -0.231544
   6 H :   -0.387887
   7 H :   -0.337784
   8 H :   -0.171218
   9 H :   -0.017658
  10 H :   -0.132136
  11 H :   -0.113840
  12 H :   -0.142173
Sum of atomic charges:   -0.0000000

LOEWDIN ATOMIC CHARGES
----------------------
   0 C :    0.225237
   1 N :   -0.059071
   2 C :   -0.236923
   3 N :    0.172155
   4 C :    0.140239
   5 H :   -0.102464
   6 H :   -0.096420
   7 H :    0.019944
   8 H :   -0.010459
   9 H :    0.003314
  10 H :   -0.025111
  11 H :   -0.015846
  12 H :   -0.014596

  Mayer bond orders larger than 0.100000
B(  0-C ,  1-N ) :   0.8749 B(  0-C ,  7-H ) :  -0.1405 B(  0-C , 10-H ) :   0.8804
B(  0-C , 11-H ) :   0.8023 B(  0-C , 12-H ) :   0.8141 B(  1-N ,  2-C ) :   0.9380
B(  1-N ,  3-N ) :   0.1636 B(  1-N ,  4-C ) :   0.3185 B(  1-N ,  7-H ) :   1.3526
B(  1-N , 10-H ) :   0.1547 B(  1-N , 11-H ) :   0.1754 B(  1-N , 12-H ) :   0.1792
B(  2-C ,  3-N ) :   0.8950 B(  2-C ,  4-C ) :   1.5873 B(  2-C ,  5-H ) :   0.1011
B(  2-C ,  6-H ) :   0.1129 B(  2-C ,  7-H ) :  -0.2116 B(  2-C ,  8-H ) :  -0.1079
B(  3-N ,  4-C ) :   0.2510 B(  3-N ,  8-H ) :   1.2245 B(  3-N ,  9-H ) :   1.1342
B(  4-C ,  5-H ) :   0.7778 B(  4-C ,  6-H ) :   0.9618 B(  8-H ,  9-H ) :  -0.1562

Dispersion correction           -0.002350795
FINAL SINGLE POINT ENERGY      -228.380610837433

DIPOLE MOMENT
-------------
                                X             Y             Z
Electronic contribution:      2.31021      -1.00945       0.24148
Nuclear contribution   :     -1.64651       1.35250       0.40156
                        -----------------------------------------
Total Dipole Moment    :      0.66370       0.34306       0.64304
                        -----------------------------------------
Magnitude (a.u.)       :      0.98574
Magnitude (Debye)      :      2.50555

Rotational constants in cm-1:     0.339624     0.131069     0.096565
Rotational constants in MHz : 10181.679558  3929.342810  2894.941560

                             ****ORCA TERMINATED NORMALLY****
TOTAL RUN TIME: 0 days 0 hours 0 minutes 13 seconds 756 msec
