                         Program Version 5.0.0 -  RELEASE  -
|  1> !wB97X-D3 RIJCOSX def2-SVPD def2/J TightSCF xyzfile
|  2>
|  3> *xyzfile 0 1 D6.xyz
|  4>
|  5> %MaxCore 64000
|  6>
|  7> %pal nprocs 18
|  8> end
|  9>
| 10> %scf
| 11>   MaxIter 150
| 12> end
| 13>
| 14>
| 15>                          ****END OF INPUT****

CARTESIAN COORDINATES (ANGSTROEM)
---------------------------------
  C      3.380928    2.083045   -3.350127
  N      4.535924    1.182447   -3.428518
  C      2.495557    1.816150   -2.136364
  C      1.872181    0.427903   -2.077497
  H      2.614270   -0.365825   -2.198894
  H      1.389953    0.273087   -1.112360
  S      0.579024    0.140472   -3.297943
  C      4.671956    0.122273   -4.220598
  N      5.866023   -0.507849   -4.224284
  C      3.698881   -0.312844   -4.986988
  H      2.731405   -0.050091   -4.849000
  H      3.890046   -1.055172   -5.643730
  H      5.251933    1.303459   -2.721014
  H      6.695165   -0.062322   -3.851596
  H      5.975383   -1.396884   -4.691414
  O      0.228860   -1.246868   -3.127871
  F     -0.439269    1.118966   -3.014550
  O      1.247881    0.403474   -4.595647
  H      1.697003    2.561969   -2.141109
  H      3.080787    1.987436   -1.225838
  H      2.806463    1.986511   -4.268484
  H      3.778714    3.098282   -3.307383

 Total Charge           Charge          ....    0
 Multiplicity           Mult            ....    1
 Number of Electrons    NEL             ....   96
 Basis Dimension        Dim             ....  324

ORBITAL ENERGIES
----------------

  NO   OCC          E(Eh)            E(eV)
   0   2.0000     -89.238499     -2428.3030
   1   2.0000     -24.925694      -678.2626
   2   2.0000     -19.262645      -524.1632
   3   2.0000     -19.248343      -523.7740
   4   2.0000     -14.440115      -392.9355
   5   2.0000     -14.428574      -392.6215
   6   2.0000     -10.350870      -281.6615
   7   2.0000     -10.329988      -281.0933
   8   2.0000     -10.327203      -281.0175
   9   2.0000     -10.323702      -280.9222
  10   2.0000     -10.177715      -276.9497
  11   2.0000      -8.312241      -226.1876
  12   2.0000      -6.276106      -170.7815
  13   2.0000      -6.269582      -170.6040
  14   2.0000      -6.268056      -170.5625
  15   2.0000      -1.498970       -40.7890
  16   2.0000      -1.229428       -33.4544
  17   2.0000      -1.126081       -30.6422
  18   2.0000      -1.071484       -29.1566
  19   2.0000      -0.988797       -26.9065
  20   2.0000      -0.940368       -25.5887
  21   2.0000      -0.863770       -23.5044
  22   2.0000      -0.829811       -22.5803
  23   2.0000      -0.805431       -21.9169
  24   2.0000      -0.754345       -20.5268
  25   2.0000      -0.709454       -19.3052
  26   2.0000      -0.701005       -19.0753
  27   2.0000      -0.674189       -18.3456
  28   2.0000      -0.660512       -17.9734
  29   2.0000      -0.638575       -17.3765
  30   2.0000      -0.618899       -16.8411
  31   2.0000      -0.599775       -16.3207
  32   2.0000      -0.591302       -16.0901
  33   2.0000      -0.567875       -15.4527
  34   2.0000      -0.554116       -15.0783
  35   2.0000      -0.546440       -14.8694
  36   2.0000      -0.517556       -14.0834
  37   2.0000      -0.499881       -13.6024
  38   2.0000      -0.492550       -13.4030
  39   2.0000      -0.483990       -13.1700
  40   2.0000      -0.473257       -12.8780
  41   2.0000      -0.465708       -12.6726
  42   2.0000      -0.449870       -12.2416
  43   2.0000      -0.419453       -11.4139
  44   2.0000      -0.406824       -11.0703
  45   2.0000      -0.391426       -10.6512
  46   2.0000      -0.342215        -9.3121
  47   2.0000      -0.248395        -6.7592
  48   0.0000       0.063138         1.7181
  49   0.0000       0.083791         2.2801
  50   0.0000       0.094544         2.5727
  51   0.0000       0.096671         2.6306
  52   0.0000       0.108997         2.9660

MULLIKEN ATOMIC CHARGES
-----------------------
   0 C :    0.900736
   1 N :   -0.586912
   2 C :    0.121904
   3 C :    0.084843
   4 H :    0.120348
   5 H :   -0.087429
   6 S :    1.630584
   7 C :    0.954573
   8 N :   -0.023144
   9 C :    0.731246
  10 H :   -0.733570
  11 H :   -0.385453
  12 H :   -0.287459
  13 H :   -0.141819
  14 H :   -0.008794
  15 O :   -0.663914
  16 F :   -0.478727
  17 O :   -0.873476
  18 H :   -0.016831
  19 H :   -0.032239
  20 H :    0.055277
  21 H :   -0.279745
Sum of atomic charges:    0.0000000

LOEWDIN ATOMIC CHARGES
----------------------
   0 C :    0.081191
   1 N :   -0.022813
   2 C :   -0.024361
   3 C :   -0.030681
   4 H :    0.034790
   5 H :    0.020712
   6 S :    1.169675
   7 C :   -0.228211
   8 N :    0.170132
   9 C :    0.186345
  10 H :   -0.202865
  11 H :   -0.080132
  12 H :    0.021969
  13 H :   -0.014114
  14 H :    0.002823
  15 O :   -0.451396
  16 F :   -0.249977
  17 O :   -0.473304
  18 H :    0.025843
  19 H :    0.031155
  20 H :    0.007949
  21 H :    0.025268

  Mayer bond orders larger than 0.100000
B(  0-C ,  1-N ) :   0.8586 B(  0-C ,  2-C ) :   1.0891 B(  0-C , 12-H ) :  -0.1643
B(  0-C , 18-H ) :   0.1381 B(  0-C , 19-H ) :   0.1159 B(  0-C , 20-H ) :   0.7211
B(  0-C , 21-H ) :   0.9088 B(  1-N ,  7-C ) :   0.8103 B(  1-N ,  8-N ) :   0.1920
B(  1-N ,  9-C ) :   0.2941 B(  1-N , 12-H ) :   1.4247 B(  1-N , 20-H ) :   0.1772
B(  1-N , 21-H ) :   0.1379 B(  2-C ,  3-C ) :   1.2048 B(  2-C ,  4-H ) :   0.1298
B(  2-C ,  5-H ) :   0.1584 B(  2-C , 18-H ) :   0.8494 B(  2-C , 19-H ) :   0.8322
B(  2-C , 20-H ) :   0.1313 B(  3-C ,  4-H ) :   0.9565 B(  3-C ,  5-H ) :   0.8100
B(  3-C ,  6-S ) :   0.9970 B(  3-C , 17-O ) :   0.1193 B(  3-C , 18-H ) :   0.1206
B(  3-C , 19-H ) :   0.1060 B(  6-S , 15-O ) :   1.5258 B(  6-S , 16-F ) :   0.5924
B(  6-S , 17-O ) :   1.4076 B(  7-C ,  8-N ) :   0.8603 B(  7-C ,  9-C ) :   1.8101
B(  7-C , 11-H ) :   0.3235 B(  7-C , 12-H ) :  -0.2908 B(  8-N ,  9-C ) :   0.3501
B(  8-N , 13-H ) :   1.1790 B(  8-N , 14-H ) :   1.1294 B(  9-C , 10-H ) :   0.1218
B(  9-C , 11-H ) :   0.7401 B( 10-H , 17-O ) :   0.1850 B( 10-H , 20-H ) :   0.1080
B( 13-H , 14-H ) :  -0.1634 B( 20-H , 21-H ) :  -0.1530

Dispersion correction           -0.009822600
FINAL SINGLE POINT ENERGY      -954.345728904988

DIPOLE MOMENT
-------------
                                X             Y             Z
Electronic contribution:    -15.80273      -1.40094       0.27389
Nuclear contribution   :     16.57580       2.60270       1.54331
                        -----------------------------------------
Total Dipole Moment    :      0.77308       1.20176       1.81719
                        -----------------------------------------
Magnitude (a.u.)       :      2.31172
Magnitude (Debye)      :      5.87593

Rotational constants in cm-1:     0.060402     0.020377     0.017632
Rotational constants in MHz :  1810.792194   610.900365   528.582827

                             ****ORCA TERMINATED NORMALLY****
TOTAL RUN TIME: 0 days 0 hours 0 minutes 39 seconds 487 msec
