                         Program Version 5.0.0 -  RELEASE  -
|  1> !wB97X-D3 RIJCOSX def2-SVPD def2/J TightSCF xyzfile
|  2>
|  3> *xyzfile 0 1 D9.xyz
|  4>
|  5> %MaxCore 64000
|  6>
|  7> %pal nprocs 18
|  8> end
|  9>
| 10> %scf
| 11>   MaxIter 150
| 12> end
| 13>
| 14>
| 15>                          ****END OF INPUT****

CARTESIAN COORDINATES (ANGSTROEM)
---------------------------------
  C      3.380928    2.083045   -3.350127
  N      4.535924    1.182447   -3.428518
  C      2.495557    1.816150   -2.136364
  C      1.872181    0.427903   -2.077497
  H      2.614270   -0.365825   -2.198894
  H      1.389953    0.273087   -1.112360
  S      0.579024    0.140472   -3.297943
  C      4.671956    0.122273   -4.220598
  N      5.866023   -0.507849   -4.224284
  C      3.698881   -0.312844   -4.986988
  H      2.731405   -0.050091   -4.849000
  H      3.890046   -1.055172   -5.643730
  H      5.251933    1.303459   -2.721014
  H      6.695165   -0.062322   -3.851596
  H      5.975383   -1.396884   -4.691414
  O      0.228860   -1.246868   -3.127871
  O     -0.439269    1.118966   -3.014550
  F      1.247881    0.403474   -4.595647
  H      1.697003    2.561969   -2.141109
  H      3.080787    1.987436   -1.225838
  H      2.806463    1.986511   -4.268484
  H      3.778714    3.098282   -3.307383

 Total Charge           Charge          ....    0
 Multiplicity           Mult            ....    1
 Number of Electrons    NEL             ....   96
 Basis Dimension        Dim             ....  324

ORBITAL ENERGIES
----------------

  NO   OCC          E(Eh)            E(eV)
   0   2.0000     -89.233254     -2428.1603
   1   2.0000     -24.901635      -677.6079
   2   2.0000     -19.260508      -524.1051
   3   2.0000     -19.258846      -524.0598
   4   2.0000     -14.454684      -393.3319
   5   2.0000     -14.444480      -393.0543
   6   2.0000     -10.348304      -281.5917
   7   2.0000     -10.347355      -281.5658
   8   2.0000     -10.343914      -281.4722
   9   2.0000     -10.322907      -280.9006
  10   2.0000     -10.204252      -277.6718
  11   2.0000      -8.306904      -226.0423
  12   2.0000      -6.270668      -170.6335
  13   2.0000      -6.264273      -170.4595
  14   2.0000      -6.262972      -170.4241
  15   2.0000      -1.465519       -39.8788
  16   2.0000      -1.236048       -33.6346
  17   2.0000      -1.139166       -30.9983
  18   2.0000      -1.087648       -29.5964
  19   2.0000      -1.003088       -27.2954
  20   2.0000      -0.940356       -25.5884
  21   2.0000      -0.862738       -23.4763
  22   2.0000      -0.842778       -22.9332
  23   2.0000      -0.806749       -21.9528
  24   2.0000      -0.763472       -20.7751
  25   2.0000      -0.698030       -18.9944
  26   2.0000      -0.691764       -18.8239
  27   2.0000      -0.672067       -18.2879
  28   2.0000      -0.662811       -18.0360
  29   2.0000      -0.650250       -17.6942
  30   2.0000      -0.621813       -16.9204
  31   2.0000      -0.603038       -16.4095
  32   2.0000      -0.585448       -15.9309
  33   2.0000      -0.572420       -15.5763
  34   2.0000      -0.565874       -15.3982
  35   2.0000      -0.550441       -14.9783
  36   2.0000      -0.520090       -14.1524
  37   2.0000      -0.510980       -13.9045
  38   2.0000      -0.500641       -13.6231
  39   2.0000      -0.483908       -13.1678
  40   2.0000      -0.479183       -13.0392
  41   2.0000      -0.471404       -12.8275
  42   2.0000      -0.454757       -12.3746
  43   2.0000      -0.438272       -11.9260
  44   2.0000      -0.423148       -11.5144
  45   2.0000      -0.416821       -11.3423
  46   2.0000      -0.355953        -9.6860
  47   2.0000      -0.269254        -7.3268
  48   0.0000       0.071335         1.9411
  49   0.0000       0.084988         2.3126
  50   0.0000       0.093974         2.5572
  51   0.0000       0.096464         2.6249
  52   0.0000       0.116588         3.1725

MULLIKEN ATOMIC CHARGES
-----------------------
   0 C :    0.891347
   1 N :   -0.573885
   2 C :    0.106414
   3 C :    0.131942
   4 H :    0.110307
   5 H :   -0.095165
   6 S :    1.520062
   7 C :    0.985903
   8 N :   -0.021440
   9 C :    0.766493
  10 H :   -0.723138
  11 H :   -0.404861
  12 H :   -0.285288
  13 H :   -0.135380
  14 H :   -0.003537
  15 O :   -0.690624
  16 O :   -0.731597
  17 F :   -0.582860
  18 H :    0.019883
  19 H :   -0.013338
  20 H :    0.003427
  21 H :   -0.274665
Sum of atomic charges:   -0.0000000

LOEWDIN ATOMIC CHARGES
----------------------
   0 C :    0.080508
   1 N :   -0.019977
   2 C :   -0.022571
   3 C :   -0.032605
   4 H :    0.022925
   5 H :    0.033512
   6 S :    1.134388
   7 C :   -0.221318
   8 N :    0.177015
   9 C :    0.180276
  10 H :   -0.172740
  11 H :   -0.079739
  12 H :    0.026821
  13 H :   -0.008688
  14 H :    0.006221
  15 O :   -0.454666
  16 O :   -0.458677
  17 F :   -0.292259
  18 H :    0.029941
  19 H :    0.032201
  20 H :    0.011243
  21 H :    0.028190

  Mayer bond orders larger than 0.100000
B(  0-C ,  1-N ) :   0.8598 B(  0-C ,  2-C ) :   1.0807 B(  0-C , 12-H ) :  -0.1707
B(  0-C , 18-H ) :   0.1316 B(  0-C , 19-H ) :   0.1241 B(  0-C , 20-H ) :   0.7330
B(  0-C , 21-H ) :   0.9146 B(  1-N ,  7-C ) :   0.8296 B(  1-N ,  8-N ) :   0.1911
B(  1-N ,  9-C ) :   0.2977 B(  1-N , 12-H ) :   1.4229 B(  1-N , 20-H ) :   0.1762
B(  1-N , 21-H ) :   0.1370 B(  2-C ,  3-C ) :   1.2196 B(  2-C ,  4-H ) :   0.1390
B(  2-C ,  5-H ) :   0.1632 B(  2-C , 18-H ) :   0.8680 B(  2-C , 19-H ) :   0.8170
B(  2-C , 20-H ) :   0.1290 B(  3-C ,  4-H ) :   0.9510 B(  3-C ,  5-H ) :   0.7914
B(  3-C ,  6-S ) :   1.0226 B(  3-C , 17-F ) :   0.1052 B(  3-C , 18-H ) :   0.1358
B(  3-C , 19-H ) :   0.1154 B(  6-S , 15-O ) :   1.5227 B(  6-S , 16-O ) :   1.5032
B(  6-S , 17-F ) :   0.6531 B(  7-C ,  8-N ) :   0.8730 B(  7-C ,  9-C ) :   1.7885
B(  7-C , 11-H ) :   0.3203 B(  7-C , 12-H ) :  -0.2953 B(  8-N ,  9-C ) :   0.3372
B(  8-N , 13-H ) :   1.1748 B(  8-N , 14-H ) :   1.1243 B(  9-C , 11-H ) :   0.7773
B( 10-H , 11-H ) :  -0.1251 B( 10-H , 17-F ) :   0.1964 B( 10-H , 20-H ) :   0.1007
B( 13-H , 14-H ) :  -0.1632 B( 20-H , 21-H ) :  -0.1597

Dispersion correction           -0.009826618
FINAL SINGLE POINT ENERGY      -954.366341655116

DIPOLE MOMENT
-------------
                                X             Y             Z
Electronic contribution:    -12.59020      -2.61771      -2.40761
Nuclear contribution   :     14.72648       3.38697       3.27638
                        -----------------------------------------
Total Dipole Moment    :      2.13628       0.76925       0.86876
                        -----------------------------------------
Magnitude (a.u.)       :      2.43109
Magnitude (Debye)      :      6.17934

Rotational constants in cm-1:     0.059651     0.020833     0.018010
Rotational constants in MHz :  1788.283887   624.555661   539.921162

                             ****ORCA TERMINATED NORMALLY****
TOTAL RUN TIME: 0 days 0 hours 0 minutes 38 seconds 368 msec
