                         Program Version 5.0.0 -  RELEASE  -
|  1> !LC-BLYP RIJCOSX def2-TZVPD def2/J TightSCF
|  2> *xyz -1 1
|  3> C         -5.57236       -5.80780       -0.81644
|  4> S         -6.90318       -4.61903       -0.52846
|  5> O         -8.11485       -5.25093       -0.95701
|  6> O         -6.53271       -3.42684       -1.31485
|  7> O         -6.86563       -4.29496        0.91412
|  8> C         -4.45780       -5.94187        0.22919
|  9> H         -5.17735       -5.54257       -1.79771
| 10> H         -6.07420       -6.76889       -0.92127
| 11> H         -3.75515       -6.68239       -0.09144
| 12> H         -4.88182       -6.23486        1.16689
| 13> H         -3.95908       -5.00189        0.34143
| 14> *
| 15> %MaxCore 64000
| 16>
| 17> %pal nprocs 4
| 18> end
| 19>
| 20> %scf
| 21>   MaxIter 150
| 22> end
| 23>
| 24>                          ****END OF INPUT****

CARTESIAN COORDINATES (ANGSTROEM)
---------------------------------
  C     -5.572360   -5.807800   -0.816440
  S     -6.903180   -4.619030   -0.528460
  O     -8.114850   -5.250930   -0.957010
  O     -6.532710   -3.426840   -1.314850
  O     -6.865630   -4.294960    0.914120
  C     -4.457800   -5.941870    0.229190
  H     -5.177350   -5.542570   -1.797710
  H     -6.074200   -6.768890   -0.921270
  H     -3.755150   -6.682390   -0.091440
  H     -4.881820   -6.234860    1.166890
  H     -3.959080   -5.001890    0.341430

 Total Charge           Charge          ....   -1
 Multiplicity           Mult            ....    1
 Number of Electrons    NEL             ....   58
 Basis Dimension        Dim             ....  285

ORBITAL ENERGIES
----------------

  NO   OCC          E(Eh)            E(eV)
   0   2.0000     -88.261422     -2401.7154
   1   2.0000     -18.725555      -509.5483
   2   2.0000     -18.711768      -509.1731
   3   2.0000     -18.710983      -509.1517
   4   2.0000      -9.933939      -270.3162
   5   2.0000      -9.928366      -270.1646
   6   2.0000      -7.803455      -212.3428
   7   2.0000      -5.831639      -158.6870
   8   2.0000      -5.830467      -158.6551
   9   2.0000      -5.830207      -158.6480
  10   2.0000      -1.021386       -27.7933
  11   2.0000      -0.885756       -24.1026
  12   2.0000      -0.862863       -23.4797
  13   2.0000      -0.744615       -20.2620
  14   2.0000      -0.620771       -16.8920
  15   2.0000      -0.488177       -13.2840
  16   2.0000      -0.427498       -11.6328
  17   2.0000      -0.420452       -11.4411
  18   2.0000      -0.382052       -10.3962
  19   2.0000      -0.363959        -9.9038
  20   2.0000      -0.360979        -9.8227
  21   2.0000      -0.328379        -8.9356
  22   2.0000      -0.320824        -8.7301
  23   2.0000      -0.255115        -6.9420
  24   2.0000      -0.253807        -6.9064
  25   2.0000      -0.217778        -5.9260
  26   2.0000      -0.206400        -5.6164
  27   2.0000      -0.201630        -5.4866
  28   2.0000      -0.162646        -4.4258
  29   0.0000       0.160223         4.3599
  30   0.0000       0.174448         4.7470
  31   0.0000       0.176909         4.8139
  32   0.0000       0.184291         5.0148
  33   0.0000       0.206598         5.6218

MULLIKEN ATOMIC CHARGES
-----------------------
   0 C :   -0.747305
   1 S :    1.097773
   2 O :   -0.650250
   3 O :   -0.697700
   4 O :   -0.699572
   5 C :   -1.247729
   6 H :    0.399122
   7 H :    0.398791
   8 H :    0.434104
   9 H :    0.360087
  10 H :    0.352679
Sum of atomic charges:   -1.0000000

LOEWDIN ATOMIC CHARGES
----------------------
   0 C :   -0.332701
   1 S :    0.320596
   2 O :   -0.371472
   3 O :   -0.408057
   4 O :   -0.401265
   5 C :   -0.155128
   6 H :    0.084073
   7 H :    0.080115
   8 H :    0.054431
   9 H :    0.061704
  10 H :    0.067705

  Mayer bond orders larger than 0.100000
B(  0-C ,  1-S ) :   0.9540 B(  0-C ,  2-O ) :   0.1140 B(  0-C ,  3-O ) :   0.1218
B(  0-C ,  5-C ) :   0.3797 B(  0-C ,  6-H ) :   0.9132 B(  0-C ,  7-H ) :   0.8994
B(  1-S ,  2-O ) :   1.5273 B(  1-S ,  3-O ) :   1.4925 B(  1-S ,  4-O ) :   1.4848
B(  5-C ,  8-H ) :   0.8550 B(  5-C ,  9-H ) :   0.9547 B(  5-C , 10-H ) :   0.9521

FINAL SINGLE POINT ENERGY      -702.480386043893

DIPOLE MOMENT
-------------
                                X             Y             Z
Electronic contribution:     -6.63923       4.27377      -0.92598
Nuclear contribution   :      8.13140      -5.68016       0.80206
                        -----------------------------------------
Total Dipole Moment    :      1.49217      -1.40639      -0.12392
                        -----------------------------------------
Magnitude (a.u.)       :      2.05423
Magnitude (Debye)      :      5.22145

Rotational constants in cm-1:     0.162101     0.080498     0.079099
Rotational constants in MHz :  4859.669771  2413.267251  2371.338602

                             ****ORCA TERMINATED NORMALLY****
TOTAL RUN TIME: 0 days 0 hours 0 minutes 49 seconds 430 msec
