                         Program Version 5.0.0 -  RELEASE  -
|  1> !LC-BLYP RIJCOSX def2-TZVPD def2/J TightSCF
|  2> *xyz 1 1
|  3> C         -4.38262       -1.67089        1.21620
|  4> N         -5.76354       -1.91517        0.70501
|  5> C         -3.28173       -2.19127        0.29436
|  6> H         -5.84081       -2.11520       -0.30065
|  7> H         -6.40882       -1.14866        0.93612
|  8> H         -6.17478       -2.79061        1.05143
|  9> H         -4.32862       -2.13922        2.19810
| 10> H         -4.26158       -0.59740        1.35725
| 11> H         -3.36057       -1.71407       -0.66008
| 12> H         -3.38775       -3.24919        0.17403
| 13> H         -2.32559       -1.97514        0.72329
| 14> *
| 15> %MaxCore 64000
| 16>
| 17> %pal nprocs 4
| 18> end
| 19>
| 20> %scf
| 21>   MaxIter 150
| 22> end
| 23>
| 24>                          ****END OF INPUT****

CARTESIAN COORDINATES (ANGSTROEM)
---------------------------------
  C     -4.382620   -1.670890    1.216200
  N     -5.763540   -1.915170    0.705010
  C     -3.281730   -2.191270    0.294360
  H     -5.840810   -2.115200   -0.300650
  H     -6.408820   -1.148660    0.936120
  H     -6.174780   -2.790610    1.051430
  H     -4.328620   -2.139220    2.198100
  H     -4.261580   -0.597400    1.357250
  H     -3.360570   -1.714070   -0.660080
  H     -3.387750   -3.249190    0.174030
  H     -2.325590   -1.975140    0.723290

 Total Charge           Charge          ....    1
 Multiplicity           Mult            ....    1
 Number of Electrons    NEL             ....   26
 Basis Dimension        Dim             ....  183

ORBITAL ENERGIES
----------------

  NO   OCC          E(Eh)            E(eV)
   0   2.0000     -14.503129      -394.6502
   1   2.0000     -10.322344      -280.8852
   2   2.0000     -10.241074      -278.6738
   3   2.0000      -1.316498       -35.8237
   4   2.0000      -1.075875       -29.2761
   5   2.0000      -0.957661       -26.0593
   6   2.0000      -0.901001       -24.5175
   7   2.0000      -0.880091       -23.9485
   8   2.0000      -0.805581       -21.9210
   9   2.0000      -0.743998       -20.2452
  10   2.0000      -0.683801       -18.6072
  11   2.0000      -0.666272       -18.1302
  12   2.0000      -0.646365       -17.5885
  13   0.0000      -0.142122        -3.8673
  14   0.0000      -0.087497        -2.3809
  15   0.0000      -0.083191        -2.2637
  16   0.0000      -0.075529        -2.0552
  17   0.0000      -0.046670        -1.2700

MULLIKEN ATOMIC CHARGES
-----------------------
   0 C :   -0.426713
   1 N :   -0.414548
   2 C :   -1.406027
   3 H :    0.366392
   4 H :    0.370489
   5 H :    0.388022
   6 H :    0.392763
   7 H :    0.397717
   8 H :    0.455700
   9 H :    0.446772
  10 H :    0.429432
Sum of atomic charges:    1.0000000

LOEWDIN ATOMIC CHARGES
----------------------
   0 C :   -0.207449
   1 N :    0.179445
   2 C :   -0.067540
   3 H :    0.180341
   4 H :    0.184698
   5 H :    0.182345
   6 H :    0.139389
   7 H :    0.138264
   8 H :    0.087251
   9 H :    0.086721
  10 H :    0.096536

  Mayer bond orders larger than 0.100000
B(  0-C ,  1-N ) :   0.8731 B(  0-C ,  2-C ) :   0.4800 B(  0-C ,  6-H ) :   0.8863
B(  0-C ,  7-H ) :   0.8640 B(  1-N ,  3-H ) :   0.8505 B(  1-N ,  4-H ) :   0.8647
B(  1-N ,  5-H ) :   0.8443 B(  2-C ,  8-H ) :   0.8484 B(  2-C ,  9-H ) :   0.8712
B(  2-C , 10-H ) :   0.8836

FINAL SINGLE POINT ENERGY      -135.187625689588

DIPOLE MOMENT
-------------
                                X             Y             Z
Electronic contribution:     -1.79763       0.23955       0.30812
Nuclear contribution   :      0.19437      -0.25358      -0.32106
                        -----------------------------------------
Total Dipole Moment    :     -1.60327      -0.01403      -0.01294
                        -----------------------------------------
Magnitude (a.u.)       :      1.60338
Magnitude (Debye)      :      4.07547

Rotational constants in cm-1:     1.030014     0.272489     0.242697
Rotational constants in MHz : 30879.030706  8169.007780  7275.865152

                             ****ORCA TERMINATED NORMALLY****
TOTAL RUN TIME: 0 days 0 hours 0 minutes 20 seconds 9 msec
