                         Program Version 5.0.0 -  RELEASE  -
|  1> !LC-BLYP RIJCOSX def2-TZVPD def2/J TightSCF xyzfile
|  2>
|  3> *xyzfile 0 1 B.xyz
|  4>
|  5> %MaxCore 64000
|  6>
|  7> %pal nprocs 4
|  8> end
|  9>
| 10> %scf
| 11>   MaxIter 150
| 12> end
| 13>
| 14>
| 15>                          ****END OF INPUT****

CARTESIAN COORDINATES (ANGSTROEM)
---------------------------------
  C     -4.382623   -1.670889    1.216201
  N     -5.763539   -1.915170    0.705012
  C     -3.281728   -2.191272    0.294361
  C     -5.572364   -5.807798   -0.816445
  S     -6.903179   -4.619033   -0.528458
  H     -5.840812   -2.115205   -0.300646
  H     -6.408823   -1.148656    0.936124
  H     -6.174781   -2.790606    1.051433
  O     -8.114853   -5.250932   -0.957007
  O     -6.532715   -3.426838   -1.314848
  H     -4.328618   -2.139223    2.198103
  H     -4.261583   -0.597399    1.357248
  O     -6.865632   -4.294957    0.914118
  C     -3.474641   -3.605898   -0.259608
  H     -2.354548   -2.127602    0.871433
  H     -3.166611   -1.499693   -0.545037
  C     -3.827078   -4.661097    0.786174
  H     -2.560559   -3.889391   -0.788050
  H     -4.255932   -3.570040   -1.019300
  C     -4.457800   -5.941875    0.229195
  H     -5.177347   -5.542575   -1.797714
  H     -6.074202   -6.768894   -0.921272
  H     -4.530506   -4.253640    1.511979
  H     -2.933400   -4.932302    1.356825
  H     -3.681064   -6.562236   -0.229885
  H     -4.843942   -6.512728    1.075805

 Total Charge           Charge          ....    0
 Multiplicity           Mult            ....    1
 Number of Electrons    NEL             ....   98
 Basis Dimension        Dim             ....  560

ORBITAL ENERGIES
----------------

  NO   OCC          E(Eh)            E(eV)
   0   2.0000     -88.430477     -2406.3156
   1   2.0000     -18.896263      -514.1935
   2   2.0000     -18.892382      -514.0878
   3   2.0000     -18.880686      -513.7696
   4   2.0000     -14.274847      -388.4383
   5   2.0000     -10.156652      -276.3766
   6   2.0000     -10.103538      -274.9313
   7   2.0000     -10.077796      -274.2308
   8   2.0000     -10.076347      -274.1913
   9   2.0000     -10.073757      -274.1209
  10   2.0000     -10.072081      -274.0753
  11   2.0000      -7.973250      -216.9632
  12   2.0000      -6.001411      -163.3067
  13   2.0000      -6.000698      -163.2873
  14   2.0000      -5.999351      -163.2506
  15   2.0000      -1.196649       -32.5625
  16   2.0000      -1.109262       -30.1845
  17   2.0000      -1.054373       -28.6909
  18   2.0000      -1.051117       -28.6024
  19   2.0000      -0.943292       -25.6683
  20   2.0000      -0.903112       -24.5749
  21   2.0000      -0.852914       -23.2090
  22   2.0000      -0.801896       -21.8207
  23   2.0000      -0.747633       -20.3441
  24   2.0000      -0.708859       -19.2890
  25   2.0000      -0.696195       -18.9444
  26   2.0000      -0.683110       -18.5884
  27   2.0000      -0.644725       -17.5439
  28   2.0000      -0.616753       -16.7827
  29   2.0000      -0.599100       -16.3024
  30   2.0000      -0.592415       -16.1204
  31   2.0000      -0.576971       -15.7002
  32   2.0000      -0.554272       -15.0825
  33   2.0000      -0.544911       -14.8278
  34   2.0000      -0.536268       -14.5926
  35   2.0000      -0.524008       -14.2590
  36   2.0000      -0.521110       -14.1801
  37   2.0000      -0.488535       -13.2937
  38   2.0000      -0.477316       -12.9884
  39   2.0000      -0.473311       -12.8795
  40   2.0000      -0.446549       -12.1512
  41   2.0000      -0.438780       -11.9398
  42   2.0000      -0.432923       -11.7804
  43   2.0000      -0.423030       -11.5112
  44   2.0000      -0.421459       -11.4685
  45   2.0000      -0.383241       -10.4285
  46   2.0000      -0.376341       -10.2408
  47   2.0000      -0.368227       -10.0200
  48   2.0000      -0.344086        -9.3631
  49   0.0000       0.018863         0.5133
  50   0.0000       0.046131         1.2553
  51   0.0000       0.049600         1.3497
  52   0.0000       0.056623         1.5408
  53   0.0000       0.069810         1.8996

MULLIKEN ATOMIC CHARGES
-----------------------
   0 C :   -0.907947
   1 N :   -0.322729
   2 C :   -0.804841
   3 C :   -1.153589
   4 S :    1.275488
   5 H :    0.376166
   6 H :    0.334189
   7 H :    0.390045
   8 O :   -0.586494
   9 O :   -0.814893
  10 H :    0.457730
  11 H :    0.442575
  12 O :   -0.813832
  13 C :   -0.804637
  14 H :    0.418392
  15 H :    0.405708
  16 C :   -0.664131
  17 H :    0.461229
  18 H :    0.506792
  19 C :   -0.877606
  20 H :    0.499207
  21 H :    0.492428
  22 H :    0.403915
  23 H :    0.436834
  24 H :    0.418963
  25 H :    0.431040
Sum of atomic charges:    0.0000000

LOEWDIN ATOMIC CHARGES
----------------------
   0 C :   -0.173753
   1 N :    0.153607
   2 C :   -0.192030
   3 C :   -0.245390
   4 S :    0.432231
   5 H :    0.099213
   6 H :    0.174905
   7 H :    0.059336
   8 O :   -0.296087
   9 O :   -0.373697
  10 H :    0.128943
  11 H :    0.126305
  12 O :   -0.354760
  13 C :   -0.211098
  14 H :    0.123906
  15 H :    0.122281
  16 C :   -0.221110
  17 H :    0.127334
  18 H :    0.089259
  19 C :   -0.224631
  20 H :    0.103105
  21 H :    0.102206
  22 H :    0.088629
  23 H :    0.123587
  24 H :    0.118612
  25 H :    0.119098

  Mayer bond orders larger than 0.100000
B(  0-C ,  1-N ) :   0.8431 B(  0-C ,  2-C ) :   0.6072 B(  0-C , 10-H ) :   0.9070
B(  0-C , 11-H ) :   0.8403 B(  1-N ,  5-H ) :   0.8020 B(  1-N ,  6-H ) :   0.8642
B(  1-N ,  7-H ) :   0.8109 B(  2-C , 13-C ) :   0.6620 B(  2-C , 14-H ) :   0.9127
B(  2-C , 15-H ) :   0.9483 B(  3-C ,  4-S ) :   0.9588 B(  3-C ,  8-O ) :   0.1657
B(  3-C ,  9-O ) :   0.1215 B(  3-C , 19-C ) :   0.4678 B(  3-C , 20-H ) :   0.8360
B(  3-C , 21-H ) :   0.8570 B(  4-S ,  8-O ) :   1.4281 B(  4-S ,  9-O ) :   1.3140
B(  4-S , 12-O ) :   1.3274 B(  7-H , 12-O ) :   0.1082 B(  9-O , 12-O ) :   0.1132
B(  9-O , 18-H ) :  -0.1034 B( 13-C , 16-C ) :   0.1742 B( 13-C , 17-H ) :   0.8405
B( 13-C , 18-H ) :   0.9742 B( 13-C , 22-H ) :  -0.1330 B( 16-C , 18-H ) :  -0.1170
B( 16-C , 19-C ) :   0.7103 B( 16-C , 22-H ) :   1.0120 B( 16-C , 23-H ) :   0.8564
B( 19-C , 24-H ) :   0.9264 B( 19-C , 25-H ) :   0.9032

FINAL SINGLE POINT ENERGY      -915.096989741220

DIPOLE MOMENT
-------------
                                X             Y             Z
Electronic contribution:    -13.49646      -2.94206      -3.67504
Nuclear contribution   :     16.18863       5.15617       4.97370
                        -----------------------------------------
Total Dipole Moment    :      2.69217       2.21411       1.29866
                        -----------------------------------------
Magnitude (a.u.)       :      3.71976
Magnitude (Debye)      :      9.45487

Rotational constants in cm-1:     0.048546     0.025588     0.020102
Rotational constants in MHz :  1455.374030   767.095631   602.645620

                             ****ORCA TERMINATED NORMALLY****
TOTAL RUN TIME: 0 days 0 hours 3 minutes 58 seconds 928 msec
