                         Program Version 5.0.0 -  RELEASE  -
|  1> !LC-BLYP RIJCOSX def2-TZVPD def2/J TightSCF
|  2> *xyz 0 1
|  3> C         -5.57236       -5.80780       -0.81644
|  4> S         -6.90318       -4.61903       -0.52846
|  5> F         -8.11485       -5.25093       -0.95701
|  6> O         -6.53271       -3.42684       -1.31485
|  7> O         -6.86563       -4.29496        0.91412
|  8> C         -4.45780       -5.94187        0.22919
|  9> H         -5.17735       -5.54257       -1.79771
| 10> H         -6.07420       -6.76889       -0.92127
| 11> H         -3.75515       -6.68239       -0.09144
| 12> H         -4.88182       -6.23486        1.16689
| 13> H         -3.95908       -5.00189        0.34143
| 14> *
| 15> %MaxCore 64000
| 16>
| 17> %pal nprocs 4
| 18> end
| 19>
| 20> %scf
| 21>   MaxIter 150
| 22> end
| 23>
| 24>                          ****END OF INPUT****

CARTESIAN COORDINATES (ANGSTROEM)
---------------------------------
  C     -5.572360   -5.807800   -0.816440
  S     -6.903180   -4.619030   -0.528460
  F     -8.114850   -5.250930   -0.957010
  O     -6.532710   -3.426840   -1.314850
  O     -6.865630   -4.294960    0.914120
  C     -4.457800   -5.941870    0.229190
  H     -5.177350   -5.542570   -1.797710
  H     -6.074200   -6.768890   -0.921270
  H     -3.755150   -6.682390   -0.091440
  H     -4.881820   -6.234860    1.166890
  H     -3.959080   -5.001890    0.341430

 Total Charge           Charge          ....    0
 Multiplicity           Mult            ....    1
 Number of Electrons    NEL             ....   58
 Basis Dimension        Dim             ....  285

ORBITAL ENERGIES
----------------

  NO   OCC          E(Eh)            E(eV)
   0   2.0000     -88.522635     -2408.8234
   1   2.0000     -24.583463      -668.9500
   2   2.0000     -18.945067      -515.5215
   3   2.0000     -18.944889      -515.5166
   4   2.0000     -10.135121      -275.7907
   5   2.0000     -10.089221      -274.5417
   6   2.0000      -8.065147      -219.4638
   7   2.0000      -6.096855      -165.9039
   8   2.0000      -6.090060      -165.7189
   9   2.0000      -6.089711      -165.7095
  10   2.0000      -1.476375       -40.1742
  11   2.0000      -1.191899       -32.4332
  12   2.0000      -1.092194       -29.7201
  13   2.0000      -0.933949       -25.4141
  14   2.0000      -0.847986       -23.0749
  15   2.0000      -0.789090       -21.4722
  16   2.0000      -0.700843       -19.0709
  17   2.0000      -0.698366       -19.0035
  18   2.0000      -0.661208       -17.9924
  19   2.0000      -0.601744       -16.3743
  20   2.0000      -0.585609       -15.9352
  21   2.0000      -0.547054       -14.8861
  22   2.0000      -0.531890       -14.4735
  23   2.0000      -0.508929       -13.8487
  24   2.0000      -0.492387       -13.3985
  25   2.0000      -0.485229       -13.2037
  26   2.0000      -0.427159       -11.6236
  27   2.0000      -0.424741       -11.5578
  28   2.0000      -0.402621       -10.9559
  29   0.0000       0.032193         0.8760
  30   0.0000       0.048553         1.3212
  31   0.0000       0.055995         1.5237
  32   0.0000       0.061250         1.6667
  33   0.0000       0.084775         2.3068

MULLIKEN ATOMIC CHARGES
-----------------------
   0 C :   -0.739457
   1 S :    1.082417
   2 F :   -0.091405
   3 O :   -0.547556
   4 O :   -0.555082
   5 C :   -1.287678
   6 H :    0.448298
   7 H :    0.456004
   8 H :    0.445206
   9 H :    0.396562
  10 H :    0.392690
Sum of atomic charges:   -0.0000000

LOEWDIN ATOMIC CHARGES
----------------------
   0 C :   -0.289939
   1 S :    0.567561
   2 F :   -0.031637
   3 O :   -0.288173
   4 O :   -0.286342
   5 C :   -0.111780
   6 H :    0.104188
   7 H :    0.097021
   8 H :    0.079346
   9 H :    0.076456
  10 H :    0.083297

  Mayer bond orders larger than 0.100000
B(  0-C ,  1-S ) :   0.9353 B(  0-C ,  5-C ) :   0.4540 B(  0-C ,  6-H ) :   0.8686
B(  0-C ,  7-H ) :   0.8045 B(  1-S ,  2-F ) :   1.0465 B(  1-S ,  3-O ) :   1.6876
B(  1-S ,  4-O ) :   1.6793 B(  5-C ,  8-H ) :   0.8455 B(  5-C ,  9-H ) :   0.9121
B(  5-C , 10-H ) :   0.9170

FINAL SINGLE POINT ENERGY      -726.977235197337

DIPOLE MOMENT
-------------
                                X             Y             Z
Electronic contribution:     -9.38239       3.55129      -1.86743
Nuclear contribution   :      9.80704      -5.24335       1.35017
                        -----------------------------------------
Total Dipole Moment    :      0.42464      -1.69206      -0.51726
                        -----------------------------------------
Magnitude (a.u.)       :      1.81960
Magnitude (Debye)      :      4.62506

Rotational constants in cm-1:     0.156316     0.078308     0.076228
Rotational constants in MHz :  4686.224999  2347.601204  2285.245115

                             ****ORCA TERMINATED NORMALLY****
TOTAL RUN TIME: 0 days 0 hours 0 minutes 52 seconds 241 msec
