                         Program Version 5.0.0 -  RELEASE  -
|  1> !LC-BLYP RIJCOSX def2-TZVPD def2/J TightSCF
|  2> *xyz 0 1
|  3> C         -4.38262       -1.67089        1.21620
|  4> C         -5.76354       -1.91517        0.70501
|  5> C         -3.28173       -2.19127        0.29436
|  6> H         -5.84081       -2.11520       -0.30065
|  7> H         -6.40882       -1.14866        0.93612
|  8> H         -6.17478       -2.79061        1.05143
|  9> H         -4.32862       -2.13922        2.19810
| 10> H         -4.26158       -0.59740        1.35725
| 11> H         -3.36057       -1.71407       -0.66008
| 12> H         -3.38775       -3.24919        0.17403
| 13> H         -2.32559       -1.97514        0.72329
| 14> *
| 15> %MaxCore 64000
| 16>
| 17> %pal nprocs 4
| 18> end
| 19>
| 20> %scf
| 21>   MaxIter 150
| 22> end
| 23>
| 24>                          ****END OF INPUT****

CARTESIAN COORDINATES (ANGSTROEM)
---------------------------------
  C     -4.382620   -1.670890    1.216200
  C     -5.763540   -1.915170    0.705010
  C     -3.281730   -2.191270    0.294360
  H     -5.840810   -2.115200   -0.300650
  H     -6.408820   -1.148660    0.936120
  H     -6.174780   -2.790610    1.051430
  H     -4.328620   -2.139220    2.198100
  H     -4.261580   -0.597400    1.357250
  H     -3.360570   -1.714070   -0.660080
  H     -3.387750   -3.249190    0.174030
  H     -2.325590   -1.975140    0.723290

 Total Charge           Charge          ....    0
 Multiplicity           Mult            ....    1
 Number of Electrons    NEL             ....   26
 Basis Dimension        Dim             ....  183

ORBITAL ENERGIES
----------------

  NO   OCC          E(Eh)            E(eV)
   0   2.0000     -10.055138      -273.6142
   1   2.0000     -10.045198      -273.3437
   2   2.0000     -10.026905      -272.8460
   3   2.0000      -0.898070       -24.4377
   4   2.0000      -0.800600       -21.7854
   5   2.0000      -0.697810       -18.9884
   6   2.0000      -0.569930       -15.5086
   7   2.0000      -0.547766       -14.9055
   8   2.0000      -0.512357       -13.9419
   9   2.0000      -0.486379       -13.2350
  10   2.0000      -0.438980       -11.9452
  11   2.0000      -0.432135       -11.7590
  12   2.0000      -0.417827       -11.3696
  13   0.0000       0.060045         1.6339
  14   0.0000       0.079835         2.1724
  15   0.0000       0.082765         2.2521
  16   0.0000       0.111684         3.0391
  17   0.0000       0.134350         3.6558

MULLIKEN ATOMIC CHARGES
-----------------------
   0 C :   -0.402950
   1 C :   -1.390025
   2 C :   -1.334879
   3 H :    0.430912
   4 H :    0.405032
   5 H :    0.426103
   6 H :    0.342453
   7 H :    0.351646
   8 H :    0.394660
   9 H :    0.376004
  10 H :    0.401045
Sum of atomic charges:    0.0000000

LOEWDIN ATOMIC CHARGES
----------------------
   0 C :   -0.322462
   1 C :   -0.138122
   2 C :   -0.128345
   3 H :    0.056147
   4 H :    0.056906
   5 H :    0.056110
   6 H :    0.107083
   7 H :    0.105390
   8 H :    0.070847
   9 H :    0.071276
  10 H :    0.065171

  Mayer bond orders larger than 0.100000
B(  0-C ,  1-C ) :   0.5356 B(  0-C ,  2-C ) :   0.4901 B(  0-C ,  6-H ) :   0.9433
B(  0-C ,  7-H ) :   0.9328 B(  1-C ,  3-H ) :   0.8441 B(  1-C ,  4-H ) :   0.8895
B(  1-C ,  5-H ) :   0.9093 B(  2-C ,  8-H ) :   0.9175 B(  2-C ,  9-H ) :   0.9366
B(  2-C , 10-H ) :   0.9195

FINAL SINGLE POINT ENERGY      -118.780941898460

DIPOLE MOMENT
-------------
                                X             Y             Z
Electronic contribution:      0.18514       0.23736       0.34018
Nuclear contribution   :     -0.21528      -0.24783      -0.32864
                        -----------------------------------------
Total Dipole Moment    :     -0.03014      -0.01046       0.01154
                        -----------------------------------------
Magnitude (a.u.)       :      0.03392
Magnitude (Debye)      :      0.08623

Rotational constants in cm-1:     1.037566     0.286459     0.254172
Rotational constants in MHz : 31105.431429  8587.814531  7619.871198

                             ****ORCA TERMINATED NORMALLY****
TOTAL RUN TIME: 0 days 0 hours 0 minutes 19 seconds 812 msec
