                         Program Version 5.0.0 -  RELEASE  -
|  1> !LC-BLYP RIJCOSX def2-TZVPD def2/J TightSCF
|  2> *xyz 0 1
|  3> C         -5.57236       -5.80780       -0.81644
|  4> S         -6.90318       -4.61903       -0.52846
|  5> O         -8.11485       -5.25093       -0.95701
|  6> F         -6.53271       -3.42684       -1.31485
|  7> O         -6.86563       -4.29496        0.91412
|  8> C         -4.45780       -5.94187        0.22919
|  9> H         -5.17735       -5.54257       -1.79771
| 10> H         -6.07420       -6.76889       -0.92127
| 11> H         -3.75515       -6.68239       -0.09144
| 12> H         -4.88182       -6.23486        1.16689
| 13> H         -3.95908       -5.00189        0.34143
| 14> *
| 15> %MaxCore 64000
| 16>
| 17> %pal nprocs 4
| 18> end
| 19>
| 20> %scf
| 21>   MaxIter 150
| 22> end
| 23>
| 24>                          ****END OF INPUT****

CARTESIAN COORDINATES (ANGSTROEM)
---------------------------------
  C     -5.572360   -5.807800   -0.816440
  S     -6.903180   -4.619030   -0.528460
  O     -8.114850   -5.250930   -0.957010
  F     -6.532710   -3.426840   -1.314850
  O     -6.865630   -4.294960    0.914120
  C     -4.457800   -5.941870    0.229190
  H     -5.177350   -5.542570   -1.797710
  H     -6.074200   -6.768890   -0.921270
  H     -3.755150   -6.682390   -0.091440
  H     -4.881820   -6.234860    1.166890
  H     -3.959080   -5.001890    0.341430

 Total Charge           Charge          ....    0
 Multiplicity           Mult            ....    1
 Number of Electrons    NEL             ....   58
 Basis Dimension        Dim             ....  285

ORBITAL ENERGIES
----------------

  NO   OCC          E(Eh)            E(eV)
   0   2.0000     -88.520188     -2408.7568
   1   2.0000     -24.561181      -668.3437
   2   2.0000     -18.959138      -515.9044
   3   2.0000     -18.944651      -515.5102
   4   2.0000     -10.134404      -275.7711
   5   2.0000     -10.088864      -274.5319
   6   2.0000      -8.062737      -219.3982
   7   2.0000      -6.094585      -165.8421
   8   2.0000      -6.087772      -165.6567
   9   2.0000      -6.087187      -165.6408
  10   2.0000      -1.440366       -39.1944
  11   2.0000      -1.207875       -32.8680
  12   2.0000      -1.107366       -30.1329
  13   2.0000      -0.933711       -25.4076
  14   2.0000      -0.835038       -22.7225
  15   2.0000      -0.780938       -21.2504
  16   2.0000      -0.686221       -18.6730
  17   2.0000      -0.672778       -18.3072
  18   2.0000      -0.656157       -17.8549
  19   2.0000      -0.600156       -16.3311
  20   2.0000      -0.585974       -15.9452
  21   2.0000      -0.558305       -15.1923
  22   2.0000      -0.535249       -14.5649
  23   2.0000      -0.506029       -13.7697
  24   2.0000      -0.504680       -13.7331
  25   2.0000      -0.485487       -13.2108
  26   2.0000      -0.439595       -11.9620
  27   2.0000      -0.428708       -11.6657
  28   2.0000      -0.415312       -11.3012
  29   0.0000       0.034337         0.9344
  30   0.0000       0.050941         1.3862
  31   0.0000       0.055901         1.5211
  32   0.0000       0.060387         1.6432
  33   0.0000       0.085283         2.3207

MULLIKEN ATOMIC CHARGES
-----------------------
   0 C :   -0.741550
   1 S :    1.088684
   2 O :   -0.518789
   3 F :   -0.136736
   4 O :   -0.556244
   5 C :   -1.258660
   6 H :    0.467416
   7 H :    0.431036
   8 H :    0.446291
   9 H :    0.394393
  10 H :    0.384159
Sum of atomic charges:   -0.0000000

LOEWDIN ATOMIC CHARGES
----------------------
   0 C :   -0.284888
   1 S :    0.568396
   2 O :   -0.255640
   3 F :   -0.066734
   4 O :   -0.285333
   5 C :   -0.117238
   6 H :    0.101108
   7 H :    0.105906
   8 H :    0.078287
   9 H :    0.077678
  10 H :    0.078458

  Mayer bond orders larger than 0.100000
B(  0-C ,  1-S ) :   0.9345 B(  0-C ,  5-C ) :   0.4356 B(  0-C ,  6-H ) :   0.8040
B(  0-C ,  7-H ) :   0.8714 B(  1-S ,  2-O ) :   1.7205 B(  1-S ,  3-F ) :   1.0048
B(  1-S ,  4-O ) :   1.6748 B(  5-C ,  8-H ) :   0.8524 B(  5-C ,  9-H ) :   0.9308
B(  5-C , 10-H ) :   0.9114

FINAL SINGLE POINT ENERGY      -726.995723012362

DIPOLE MOMENT
-------------
                                X             Y             Z
Electronic contribution:     -6.69553       6.66318      -2.49483
Nuclear contribution   :      8.15840      -7.14411       1.72305
                        -----------------------------------------
Total Dipole Moment    :      1.46287      -0.48093      -0.77178
                        -----------------------------------------
Magnitude (a.u.)       :      1.72248
Magnitude (Debye)      :      4.37819

Rotational constants in cm-1:     0.153926     0.078297     0.077402
Rotational constants in MHz :  4614.585804  2347.272644  2320.438903

                             ****ORCA TERMINATED NORMALLY****
TOTAL RUN TIME: 0 days 0 hours 0 minutes 48 seconds 945 msec
