                         Program Version 5.0.0 -  RELEASE  -
|  1> !LC-BLYP RIJCOSX def2-TZVPD def2/J TightSCF
|  2> *xyz 0 1
|  3> C         -5.57236       -5.80780       -0.81644
|  4> S         -6.90318       -4.61903       -0.52846
|  5> O         -8.11485       -5.25093       -0.95701
|  6> O         -6.53271       -3.42684       -1.31485
|  7> F         -6.86563       -4.29496        0.91412
|  8> C         -4.45780       -5.94187        0.22919
|  9> H         -5.17735       -5.54257       -1.79771
| 10> H         -6.07420       -6.76889       -0.92127
| 11> H         -3.75515       -6.68239       -0.09144
| 12> H         -4.88182       -6.23486        1.16689
| 13> H         -3.95908       -5.00189        0.34143
| 14> *
| 15> %MaxCore 64000
| 16>
| 17> %pal nprocs 4
| 18> end
| 19>
| 20> %scf
| 21>   MaxIter 150
| 22> end
| 23>
| 24>                          ****END OF INPUT****

CARTESIAN COORDINATES (ANGSTROEM)
---------------------------------
  C     -5.572360   -5.807800   -0.816440
  S     -6.903180   -4.619030   -0.528460
  O     -8.114850   -5.250930   -0.957010
  O     -6.532710   -3.426840   -1.314850
  F     -6.865630   -4.294960    0.914120
  C     -4.457800   -5.941870    0.229190
  H     -5.177350   -5.542570   -1.797710
  H     -6.074200   -6.768890   -0.921270
  H     -3.755150   -6.682390   -0.091440
  H     -4.881820   -6.234860    1.166890
  H     -3.959080   -5.001890    0.341430

 Total Charge           Charge          ....    0
 Multiplicity           Mult            ....    1
 Number of Electrons    NEL             ....   58
 Basis Dimension        Dim             ....  285

ORBITAL ENERGIES
----------------

  NO   OCC          E(Eh)            E(eV)
   0   2.0000     -88.519664     -2408.7425
   1   2.0000     -24.560001      -668.3116
   2   2.0000     -18.958826      -515.8959
   3   2.0000     -18.943919      -515.4903
   4   2.0000     -10.133596      -275.7492
   5   2.0000     -10.096162      -274.7305
   6   2.0000      -8.062252      -219.3850
   7   2.0000      -6.094189      -165.8313
   8   2.0000      -6.087076      -165.6378
   9   2.0000      -6.086840      -165.6313
  10   2.0000      -1.437627       -39.1198
  11   2.0000      -1.208433       -32.8831
  12   2.0000      -1.107969       -30.1494
  13   2.0000      -0.936636       -25.4871
  14   2.0000      -0.831989       -22.6396
  15   2.0000      -0.785589       -21.3770
  16   2.0000      -0.692181       -18.8352
  17   2.0000      -0.672097       -18.2887
  18   2.0000      -0.647512       -17.6197
  19   2.0000      -0.604711       -16.4550
  20   2.0000      -0.578388       -15.7387
  21   2.0000      -0.556999       -15.1567
  22   2.0000      -0.547797       -14.9063
  23   2.0000      -0.517009       -14.0685
  24   2.0000      -0.499646       -13.5961
  25   2.0000      -0.491012       -13.3611
  26   2.0000      -0.440121       -11.9763
  27   2.0000      -0.426853       -11.6153
  28   2.0000      -0.414758       -11.2861
  29   0.0000       0.033309         0.9064
  30   0.0000       0.051504         1.4015
  31   0.0000       0.057064         1.5528
  32   0.0000       0.059738         1.6255
  33   0.0000       0.086490         2.3535

MULLIKEN ATOMIC CHARGES
-----------------------
   0 C :   -0.676409
   1 S :    1.096995
   2 O :   -0.516584
   3 O :   -0.555755
   4 F :   -0.149146
   5 C :   -1.338263
   6 H :    0.438311
   7 H :    0.450210
   8 H :    0.427642
   9 H :    0.417239
  10 H :    0.405761
Sum of atomic charges:    0.0000000

LOEWDIN ATOMIC CHARGES
----------------------
   0 C :   -0.281501
   1 S :    0.567151
   2 O :   -0.255467
   3 O :   -0.289761
   4 F :   -0.065853
   5 C :   -0.119239
   6 H :    0.110192
   7 H :    0.102058
   8 H :    0.079068
   9 H :    0.073914
  10 H :    0.079438

  Mayer bond orders larger than 0.100000
B(  0-C ,  1-S ) :   0.9264 B(  0-C ,  5-C ) :   0.3853 B(  0-C ,  6-H ) :   0.8632
B(  0-C ,  7-H ) :   0.8483 B(  1-S ,  2-O ) :   1.7205 B(  1-S ,  3-O ) :   1.6828
B(  1-S ,  4-F ) :   1.0031 B(  5-C ,  8-H ) :   0.8801 B(  5-C ,  9-H ) :   0.8808
B(  5-C , 10-H ) :   0.9076

FINAL SINGLE POINT ENERGY      -726.995900587077

DIPOLE MOMENT
-------------
                                X             Y             Z
Electronic contribution:     -7.24147       5.15227       1.30337
Nuclear contribution   :      8.50531      -6.23950      -0.59960
                        -----------------------------------------
Total Dipole Moment    :      1.26384      -1.08722       0.70377
                        -----------------------------------------
Magnitude (a.u.)       :      1.80960
Magnitude (Debye)      :      4.59963

Rotational constants in cm-1:     0.152799     0.080212     0.076962
Rotational constants in MHz :  4580.804531  2404.707790  2307.252710

                             ****ORCA TERMINATED NORMALLY****
TOTAL RUN TIME: 0 days 0 hours 0 minutes 49 seconds 43 msec
