                         Program Version 5.0.0 -  RELEASE  -
|  1> !LC-BLYP RIJCOSX def2-TZVPD def2/J TightSCF xyzfile
|  2>
|  3> *xyzfile 0 1 D1.xyz
|  4>
|  5> %MaxCore 64000
|  6>
|  7> %pal nprocs 4
|  8> end
|  9>
| 10> %scf
| 11>   MaxIter 150
| 12> end
| 13>
| 14>
| 15>                          ****END OF INPUT****

CARTESIAN COORDINATES (ANGSTROEM)
---------------------------------
  C     -4.382623   -1.670889    1.216201
  C     -5.763539   -1.915170    0.705012
  C     -3.281728   -2.191272    0.294361
  C     -5.572364   -5.807798   -0.816445
  S     -6.903179   -4.619033   -0.528458
  H     -5.840812   -2.115205   -0.300646
  H     -6.408823   -1.148656    0.936124
  H     -6.174781   -2.790606    1.051433
  F     -8.114853   -5.250932   -0.957007
  O     -6.532715   -3.426838   -1.314848
  H     -4.328618   -2.139223    2.198103
  H     -4.261583   -0.597399    1.357248
  O     -6.865632   -4.294957    0.914118
  C     -3.474641   -3.605898   -0.259608
  H     -2.354548   -2.127602    0.871433
  H     -3.166611   -1.499693   -0.545037
  C     -3.827078   -4.661097    0.786174
  H     -2.560559   -3.889391   -0.788050
  H     -4.255932   -3.570040   -1.019300
  C     -4.457800   -5.941875    0.229195
  H     -5.177347   -5.542575   -1.797714
  H     -6.074202   -6.768894   -0.921272
  H     -4.530506   -4.253640    1.511979
  H     -2.933400   -4.932302    1.356825
  H     -3.681064   -6.562236   -0.229885
  H     -4.843942   -6.512728    1.075805

 Total Charge           Charge          ....    0
 Multiplicity           Mult            ....    1
 Number of Electrons    NEL             ....   98
 Basis Dimension        Dim             ....  560

ORBITAL ENERGIES
----------------

  NO   OCC          E(Eh)            E(eV)
   0   2.0000     -88.529668     -2409.0147
   1   2.0000     -24.588085      -669.0758
   2   2.0000     -18.952866      -515.7337
   3   2.0000     -18.951797      -515.7046
   4   2.0000     -10.135888      -275.8115
   5   2.0000     -10.097384      -274.7638
   6   2.0000     -10.064277      -273.8629
   7   2.0000     -10.053624      -273.5730
   8   2.0000     -10.045181      -273.3433
   9   2.0000     -10.031013      -272.9578
  10   2.0000      -9.973735      -271.3991
  11   2.0000      -8.072478      -219.6633
  12   2.0000      -6.104059      -166.0999
  13   2.0000      -6.097429      -165.9195
  14   2.0000      -6.097086      -165.9101
  15   2.0000      -1.481330       -40.3090
  16   2.0000      -1.205273       -32.7972
  17   2.0000      -1.105633       -30.0858
  18   2.0000      -0.947834       -25.7919
  19   2.0000      -0.906603       -24.6699
  20   2.0000      -0.863646       -23.5010
  21   2.0000      -0.836396       -22.7595
  22   2.0000      -0.800983       -21.7959
  23   2.0000      -0.755845       -20.5676
  24   2.0000      -0.722440       -19.6586
  25   2.0000      -0.707401       -19.2494
  26   2.0000      -0.692395       -18.8410
  27   2.0000      -0.661428       -17.9984
  28   2.0000      -0.647671       -17.6240
  29   2.0000      -0.604922       -16.4608
  30   2.0000      -0.601825       -16.3765
  31   2.0000      -0.578291       -15.7361
  32   2.0000      -0.572438       -15.5768
  33   2.0000      -0.547059       -14.8862
  34   2.0000      -0.538530       -14.6541
  35   2.0000      -0.521722       -14.1968
  36   2.0000      -0.512709       -13.9515
  37   2.0000      -0.489114       -13.3095
  38   2.0000      -0.481168       -13.0932
  39   2.0000      -0.476714       -12.9721
  40   2.0000      -0.446835       -12.1590
  41   2.0000      -0.441973       -12.0267
  42   2.0000      -0.436809       -11.8862
  43   2.0000      -0.432021       -11.7559
  44   2.0000      -0.421778       -11.4772
  45   2.0000      -0.408302       -11.1105
  46   2.0000      -0.390506       -10.6262
  47   2.0000      -0.384583       -10.4650
  48   2.0000      -0.362820        -9.8728
  49   0.0000       0.024750         0.6735
  50   0.0000       0.046254         1.2586
  51   0.0000       0.049079         1.3355
  52   0.0000       0.060952         1.6586
  53   0.0000       0.076237         2.0745

MULLIKEN ATOMIC CHARGES
-----------------------
   0 C :   -0.623995
   1 C :   -1.986901
   2 C :   -0.945268
   3 C :   -1.176029
   4 S :    1.148295
   5 H :    0.734742
   6 H :    0.536534
   7 H :    0.650687
   8 F :   -0.032020
   9 O :   -0.648228
  10 H :    0.407104
  11 H :    0.422687
  12 O :   -0.641964
  13 C :   -0.687910
  14 H :    0.377558
  15 H :    0.398606
  16 C :   -0.697358
  17 H :    0.439706
  18 H :    0.418012
  19 C :   -0.859984
  20 H :    0.518993
  21 H :    0.550420
  22 H :    0.422329
  23 H :    0.426717
  24 H :    0.416893
  25 H :    0.430375
Sum of atomic charges:   -0.0000000

LOEWDIN ATOMIC CHARGES
----------------------
   0 C :   -0.253555
   1 C :   -0.137675
   2 C :   -0.215621
   3 C :   -0.226354
   4 S :    0.632823
   5 H :    0.022840
   6 H :    0.072301
   7 H :   -0.007956
   8 F :   -0.018152
   9 O :   -0.291626
  10 H :    0.108892
  11 H :    0.109358
  12 O :   -0.280834
  13 C :   -0.212460
  14 H :    0.111339
  15 H :    0.118593
  16 C :   -0.210729
  17 H :    0.120619
  18 H :    0.088254
  19 C :   -0.215157
  20 H :    0.111157
  21 H :    0.103306
  22 H :    0.098430
  23 H :    0.126677
  24 H :    0.125281
  25 H :    0.120247

  Mayer bond orders larger than 0.100000
B(  0-C ,  2-C ) :   0.5948 B(  0-C , 10-H ) :   0.9314 B(  0-C , 11-H ) :   0.8982
B(  1-C ,  5-H ) :   0.3451 B(  1-C ,  6-H ) :   0.7644 B(  1-C ,  7-H ) :   0.5162
B(  1-C ,  9-O ) :   0.1413 B(  1-C , 12-O ) :   0.1667 B(  2-C , 13-C ) :   0.7451
B(  2-C , 14-H ) :   0.9477 B(  2-C , 15-H ) :   0.9234 B(  3-C ,  4-S ) :   0.9561
B(  3-C ,  9-O ) :   0.1204 B(  3-C , 19-C ) :   0.5226 B(  3-C , 20-H ) :   0.8204
B(  3-C , 21-H ) :   0.7470 B(  4-S ,  8-F ) :   0.9205 B(  4-S ,  9-O ) :   1.6530
B(  4-S , 12-O ) :   1.6913 B(  5-H ,  9-O ) :  -0.1582 B(  7-H , 12-O ) :  -0.2731
B(  9-O , 12-O ) :   0.1686 B( 13-C , 16-C ) :   0.2197 B( 13-C , 17-H ) :   0.8745
B( 13-C , 18-H ) :   1.0197 B( 13-C , 22-H ) :  -0.1090 B( 16-C , 18-H ) :  -0.1320
B( 16-C , 19-C ) :   0.6717 B( 16-C , 22-H ) :   0.9898 B( 16-C , 23-H ) :   0.8698
B( 17-H , 18-H ) :   0.1003 B( 19-C , 24-H ) :   0.9266 B( 19-C , 25-H ) :   0.8952

FINAL SINGLE POINT ENERGY      -922.967038636553

DIPOLE MOMENT
-------------
                                X             Y             Z
Electronic contribution:    -18.95148      -8.68855      -6.73709
Nuclear contribution   :     19.08524       6.89775       6.14221
                        -----------------------------------------
Total Dipole Moment    :      0.13376      -1.79080      -0.59488
                        -----------------------------------------
Magnitude (a.u.)       :      1.89175
Magnitude (Debye)      :      4.80845

Rotational constants in cm-1:     0.049343     0.024787     0.019726
Rotational constants in MHz :  1479.262779   743.087234   591.370705

                             ****ORCA TERMINATED NORMALLY****
TOTAL RUN TIME: 0 days 0 hours 3 minutes 59 seconds 906 msec
