                         Program Version 5.0.0 -  RELEASE  -
|  1> !LC-BLYP RIJCOSX def2-TZVPD def2/J TightSCF xyzfile
|  2>
|  3> *xyzfile 0 1 D2.xyz
|  4>
|  5> %MaxCore 64000
|  6>
|  7> %pal nprocs 4
|  8> end
|  9>
| 10> %scf
| 11>   MaxIter 150
| 12> end
| 13>
| 14>
| 15>                          ****END OF INPUT****

CARTESIAN COORDINATES (ANGSTROEM)
---------------------------------
  C     -4.382623   -1.670889    1.216201
  C     -5.763539   -1.915170    0.705012
  C     -3.281728   -2.191272    0.294361
  C     -5.572364   -5.807798   -0.816445
  S     -6.903179   -4.619033   -0.528458
  H     -5.840812   -2.115205   -0.300646
  H     -6.408823   -1.148656    0.936124
  H     -6.174781   -2.790606    1.051433
  O     -8.114853   -5.250932   -0.957007
  F     -6.532715   -3.426838   -1.314848
  H     -4.328618   -2.139223    2.198103
  H     -4.261583   -0.597399    1.357248
  O     -6.865632   -4.294957    0.914118
  C     -3.474641   -3.605898   -0.259608
  H     -2.354548   -2.127602    0.871433
  H     -3.166611   -1.499693   -0.545037
  C     -3.827078   -4.661097    0.786174
  H     -2.560559   -3.889391   -0.788050
  H     -4.255932   -3.570040   -1.019300
  C     -4.457800   -5.941875    0.229195
  H     -5.177347   -5.542575   -1.797714
  H     -6.074202   -6.768894   -0.921272
  H     -4.530506   -4.253640    1.511979
  H     -2.933400   -4.932302    1.356825
  H     -3.681064   -6.562236   -0.229885
  H     -4.843942   -6.512728    1.075805

 Total Charge           Charge          ....    0
 Multiplicity           Mult            ....    1
 Number of Electrons    NEL             ....   98
 Basis Dimension        Dim             ....  560

ORBITAL ENERGIES
----------------

  NO   OCC          E(Eh)            E(eV)
   0   2.0000     -88.524512     -2408.8744
   1   2.0000     -24.564536      -668.4350
   2   2.0000     -18.962597      -515.9985
   3   2.0000     -18.948096      -515.6039
   4   2.0000     -10.134043      -275.7613
   5   2.0000     -10.097186      -274.7584
   6   2.0000     -10.071475      -274.0588
   7   2.0000     -10.070110      -274.0216
   8   2.0000     -10.059230      -273.7256
   9   2.0000     -10.046303      -273.3738
  10   2.0000      -9.996743      -272.0252
  11   2.0000      -8.067363      -219.5241
  12   2.0000      -6.099159      -165.9666
  13   2.0000      -6.092392      -165.7824
  14   2.0000      -6.091750      -165.7650
  15   2.0000      -1.448070       -39.4040
  16   2.0000      -1.213694       -33.0263
  17   2.0000      -1.117169       -30.3997
  18   2.0000      -0.950579       -25.8666
  19   2.0000      -0.915756       -24.9190
  20   2.0000      -0.866148       -23.5691
  21   2.0000      -0.839176       -22.8351
  22   2.0000      -0.802388       -21.8341
  23   2.0000      -0.767212       -20.8769
  24   2.0000      -0.727286       -19.7905
  25   2.0000      -0.690532       -18.7903
  26   2.0000      -0.677692       -18.4409
  27   2.0000      -0.662786       -18.0353
  28   2.0000      -0.661311       -17.9952
  29   2.0000      -0.607423       -16.5288
  30   2.0000      -0.598892       -16.2967
  31   2.0000      -0.577493       -15.7144
  32   2.0000      -0.567976       -15.4554
  33   2.0000      -0.563003       -15.3201
  34   2.0000      -0.542647       -14.7662
  35   2.0000      -0.528845       -14.3906
  36   2.0000      -0.508927       -13.8486
  37   2.0000      -0.500095       -13.6083
  38   2.0000      -0.493794       -13.4368
  39   2.0000      -0.489301       -13.3146
  40   2.0000      -0.460313       -12.5258
  41   2.0000      -0.455623       -12.3981
  42   2.0000      -0.453004       -12.3269
  43   2.0000      -0.437163       -11.8958
  44   2.0000      -0.426265       -11.5993
  45   2.0000      -0.420019       -11.4293
  46   2.0000      -0.408715       -11.1217
  47   2.0000      -0.407210       -11.0807
  48   2.0000      -0.373413       -10.1611
  49   0.0000       0.034358         0.9349
  50   0.0000       0.046131         1.2553
  51   0.0000       0.054425         1.4810
  52   0.0000       0.057729         1.5709
  53   0.0000       0.074747         2.0340

MULLIKEN ATOMIC CHARGES
-----------------------
   0 C :   -0.608324
   1 C :   -2.079873
   2 C :   -0.930750
   3 C :   -1.142157
   4 S :    1.138069
   5 H :    0.728723
   6 H :    0.533358
   7 H :    0.747754
   8 O :   -0.504050
   9 F :   -0.218386
  10 H :    0.411288
  11 H :    0.420791
  12 O :   -0.629202
  13 C :   -0.674380
  14 H :    0.374512
  15 H :    0.400691
  16 C :   -0.697159
  17 H :    0.437373
  18 H :    0.367246
  19 C :   -0.841535
  20 H :    0.550183
  21 H :    0.488087
  22 H :    0.428482
  23 H :    0.426980
  24 H :    0.429093
  25 H :    0.443188
Sum of atomic charges:   -0.0000000

LOEWDIN ATOMIC CHARGES
----------------------
   0 C :   -0.250257
   1 C :   -0.134355
   2 C :   -0.215854
   3 C :   -0.223387
   4 S :    0.615071
   5 H :    0.035135
   6 H :    0.074483
   7 H :   -0.009295
   8 O :   -0.238117
   9 F :   -0.089293
  10 H :    0.112152
  11 H :    0.111292
  12 O :   -0.278658
  13 C :   -0.213858
  14 H :    0.114056
  15 H :    0.118499
  16 C :   -0.212534
  17 H :    0.122883
  18 H :    0.086811
  19 C :   -0.217074
  20 H :    0.108023
  21 H :    0.111921
  22 H :    0.098347
  23 H :    0.127732
  24 H :    0.123974
  25 H :    0.122303

  Mayer bond orders larger than 0.100000
B(  0-C ,  2-C ) :   0.6026 B(  0-C , 10-H ) :   0.9306 B(  0-C , 11-H ) :   0.9014
B(  1-C ,  4-S ) :   0.1197 B(  1-C ,  5-H ) :   0.2893 B(  1-C ,  6-H ) :   0.7572
B(  1-C ,  7-H ) :   0.3485 B(  1-C ,  9-F ) :   0.1751 B(  1-C , 12-O ) :   0.2115
B(  2-C , 13-C ) :   0.7357 B(  2-C , 14-H ) :   0.9430 B(  2-C , 15-H ) :   0.9287
B(  3-C ,  4-S ) :   0.9641 B(  3-C ,  8-O ) :   0.1345 B(  3-C , 19-C ) :   0.4756
B(  3-C , 20-H ) :   0.7516 B(  3-C , 21-H ) :   0.8499 B(  4-S ,  8-O ) :   1.5085
B(  4-S ,  9-F ) :   1.0223 B(  4-S , 12-O ) :   1.6402 B(  5-H ,  9-F ) :  -0.1179
B(  7-H , 12-O ) :  -0.2690 B( 13-C , 16-C ) :   0.2225 B( 13-C , 17-H ) :   0.8700
B( 13-C , 18-H ) :   1.0654 B( 13-C , 22-H ) :  -0.1065 B( 16-C , 18-H ) :  -0.1485
B( 16-C , 19-C ) :   0.6731 B( 16-C , 22-H ) :   0.9827 B( 16-C , 23-H ) :   0.8637
B( 19-C , 24-H ) :   0.9235 B( 19-C , 25-H ) :   0.8944

FINAL SINGLE POINT ENERGY      -922.984973609430

DIPOLE MOMENT
-------------
                                X             Y             Z
Electronic contribution:    -15.95401      -5.37420      -7.21870
Nuclear contribution   :     17.25367       4.78608       6.55647
                        -----------------------------------------
Total Dipole Moment    :      1.29966      -0.58812      -0.66224
                        -----------------------------------------
Magnitude (a.u.)       :      1.57275
Magnitude (Debye)      :      3.99762

Rotational constants in cm-1:     0.048508     0.025517     0.020225
Rotational constants in MHz :  1454.219007   764.979652   606.316599

                             ****ORCA TERMINATED NORMALLY****
TOTAL RUN TIME: 0 days 0 hours 5 minutes 2 seconds 396 msec
