                         Program Version 5.0.0 -  RELEASE  -
|  1> !LC-BLYP RIJCOSX def2-TZVPD def2/J TightSCF xyzfile
|  2>
|  3> *xyzfile 0 1 D3.xyz
|  4>
|  5> %MaxCore 64000
|  6>
|  7> %pal nprocs 4
|  8> end
|  9>
| 10> %scf
| 11>   MaxIter 150
| 12> end
| 13>
| 14>
| 15>                          ****END OF INPUT****

CARTESIAN COORDINATES (ANGSTROEM)
---------------------------------
  C     -4.382623   -1.670889    1.216201
  C     -5.763539   -1.915170    0.705012
  C     -3.281728   -2.191272    0.294361
  C     -5.572364   -5.807798   -0.816445
  S     -6.903179   -4.619033   -0.528458
  H     -5.840812   -2.115205   -0.300646
  H     -6.408823   -1.148656    0.936124
  H     -6.174781   -2.790606    1.051433
  O     -8.114853   -5.250932   -0.957007
  O     -6.532715   -3.426838   -1.314848
  H     -4.328618   -2.139223    2.198103
  H     -4.261583   -0.597399    1.357248
  F     -6.865632   -4.294957    0.914118
  C     -3.474641   -3.605898   -0.259608
  H     -2.354548   -2.127602    0.871433
  H     -3.166611   -1.499693   -0.545037
  C     -3.827078   -4.661097    0.786174
  H     -2.560559   -3.889391   -0.788050
  H     -4.255932   -3.570040   -1.019300
  C     -4.457800   -5.941875    0.229195
  H     -5.177347   -5.542575   -1.797714
  H     -6.074202   -6.768894   -0.921272
  H     -4.530506   -4.253640    1.511979
  H     -2.933400   -4.932302    1.356825
  H     -3.681064   -6.562236   -0.229885
  H     -4.843942   -6.512728    1.075805

 Total Charge           Charge          ....    0
 Multiplicity           Mult            ....    1
 Number of Electrons    NEL             ....   98
 Basis Dimension        Dim             ....  560

ORBITAL ENERGIES
----------------

  NO   OCC          E(Eh)            E(eV)
   0   2.0000     -88.523645     -2408.8509
   1   2.0000     -24.564437      -668.4323
   2   2.0000     -18.962177      -515.9871
   3   2.0000     -18.946326      -515.5557
   4   2.0000     -10.133102      -275.7357
   5   2.0000     -10.102037      -274.8904
   6   2.0000     -10.078349      -274.2458
   7   2.0000     -10.063236      -273.8346
   8   2.0000     -10.056396      -273.6484
   9   2.0000     -10.046754      -273.3861
  10   2.0000      -9.998643      -272.0769
  11   2.0000      -8.066573      -219.5026
  12   2.0000      -6.098523      -165.9492
  13   2.0000      -6.091358      -165.7543
  14   2.0000      -6.091044      -165.7457
  15   2.0000      -1.447557       -39.3900
  16   2.0000      -1.213792       -33.0290
  17   2.0000      -1.115910       -30.3655
  18   2.0000      -0.953438       -25.9444
  19   2.0000      -0.914640       -24.8886
  20   2.0000      -0.865951       -23.5637
  21   2.0000      -0.838551       -22.8181
  22   2.0000      -0.803322       -21.8595
  23   2.0000      -0.766882       -20.8679
  24   2.0000      -0.731663       -19.9096
  25   2.0000      -0.693137       -18.8612
  26   2.0000      -0.687318       -18.7029
  27   2.0000      -0.659756       -17.9529
  28   2.0000      -0.649957       -17.6862
  29   2.0000      -0.604943       -16.4613
  30   2.0000      -0.599422       -16.3111
  31   2.0000      -0.580718       -15.8021
  32   2.0000      -0.563583       -15.3359
  33   2.0000      -0.558201       -15.1894
  34   2.0000      -0.552662       -15.0387
  35   2.0000      -0.531416       -14.4606
  36   2.0000      -0.510019       -13.8783
  37   2.0000      -0.496972       -13.5233
  38   2.0000      -0.492726       -13.4078
  39   2.0000      -0.492488       -13.4013
  40   2.0000      -0.461954       -12.5704
  41   2.0000      -0.455596       -12.3974
  42   2.0000      -0.447959       -12.1896
  43   2.0000      -0.432675       -11.7737
  44   2.0000      -0.431058       -11.7297
  45   2.0000      -0.422018       -11.4837
  46   2.0000      -0.403816       -10.9884
  47   2.0000      -0.400390       -10.8952
  48   2.0000      -0.385042       -10.4775
  49   0.0000       0.032530         0.8852
  50   0.0000       0.047033         1.2798
  51   0.0000       0.053581         1.4580
  52   0.0000       0.057331         1.5601
  53   0.0000       0.074868         2.0373

MULLIKEN ATOMIC CHARGES
-----------------------
   0 C :   -0.595095
   1 C :   -2.119203
   2 C :   -0.947586
   3 C :   -1.063929
   4 S :    1.182750
   5 H :    0.825053
   6 H :    0.552905
   7 H :    0.662871
   8 O :   -0.515832
   9 O :   -0.634499
  10 H :    0.406407
  11 H :    0.422849
  12 F :   -0.238942
  13 C :   -0.663828
  14 H :    0.381705
  15 H :    0.404753
  16 C :   -0.673137
  17 H :    0.437141
  18 H :    0.432140
  19 C :   -0.906908
  20 H :    0.508201
  21 H :    0.490273
  22 H :    0.369460
  23 H :    0.431250
  24 H :    0.413076
  25 H :    0.438125
Sum of atomic charges:    0.0000000

LOEWDIN ATOMIC CHARGES
----------------------
   0 C :   -0.252295
   1 C :   -0.132471
   2 C :   -0.213702
   3 C :   -0.217744
   4 S :    0.613726
   5 H :    0.022989
   6 H :    0.074713
   7 H :    0.010289
   8 O :   -0.238110
   9 O :   -0.292198
  10 H :    0.108531
  11 H :    0.112098
  12 F :   -0.084752
  13 C :   -0.212439
  14 H :    0.112763
  15 H :    0.120468
  16 C :   -0.213863
  17 H :    0.122947
  18 H :    0.088974
  19 C :   -0.222954
  20 H :    0.117214
  21 H :    0.108082
  22 H :    0.096591
  23 H :    0.127800
  24 H :    0.124713
  25 H :    0.118630

  Mayer bond orders larger than 0.100000
B(  0-C ,  2-C ) :   0.5904 B(  0-C , 10-H ) :   0.9355 B(  0-C , 11-H ) :   0.8935
B(  1-C ,  5-H ) :   0.1722 B(  1-C ,  6-H ) :   0.7065 B(  1-C ,  7-H ) :   0.4426
B(  1-C ,  9-O ) :   0.2048 B(  1-C , 12-F ) :   0.2131 B(  2-C , 13-C ) :   0.7460
B(  2-C , 14-H ) :   0.9489 B(  2-C , 15-H ) :   0.9176 B(  3-C ,  4-S ) :   0.9201
B(  3-C ,  8-O ) :   0.1480 B(  3-C ,  9-O ) :   0.1264 B(  3-C , 19-C ) :   0.4779
B(  3-C , 20-H ) :   0.8198 B(  3-C , 21-H ) :   0.8762 B(  4-S ,  8-O ) :   1.5065
B(  4-S ,  9-O ) :   1.6006 B(  4-S , 12-F ) :   1.0764 B(  5-H ,  9-O ) :  -0.1895
B(  7-H , 12-F ) :  -0.2130 B( 13-C , 16-C ) :   0.1915 B( 13-C , 17-H ) :   0.8747
B( 13-C , 18-H ) :   1.0160 B( 13-C , 22-H ) :  -0.1258 B( 16-C , 18-H ) :  -0.1363
B( 16-C , 19-C ) :   0.6186 B( 16-C , 22-H ) :   1.0337 B( 16-C , 23-H ) :   0.8586
B( 19-C , 24-H ) :   0.9224 B( 19-C , 25-H ) :   0.9269

FINAL SINGLE POINT ENERGY      -922.984396683537

DIPOLE MOMENT
-------------
                                X             Y             Z
Electronic contribution:    -16.51339      -6.85875      -3.44426
Nuclear contribution   :     17.63907       5.79106       3.97609
                        -----------------------------------------
Total Dipole Moment    :      1.12568      -1.06768       0.53183
                        -----------------------------------------
Magnitude (a.u.)       :      1.64011
Magnitude (Debye)      :      4.16882

Rotational constants in cm-1:     0.048663     0.025472     0.020259
Rotational constants in MHz :  1458.892793   763.621130   607.350055

                             ****ORCA TERMINATED NORMALLY****
TOTAL RUN TIME: 0 days 0 hours 5 minutes 2 seconds 281 msec
