                         Program Version 5.0.0 -  RELEASE  -
|  1> !wB97X-D3 RIJCOSX def2-SVPD def2/J TightSCF CPCM(Water)
|  2> *xyz -1 1
|  3> C         -0.01741        0.08059       -2.77841
|  4> C         -0.90349       -0.87394       -1.98739
|  5> H         -0.50255       -1.89210       -2.08120
|  6> H         -1.91704       -0.89543       -2.40628
|  7> C         -0.96015       -0.52236       -0.48987
|  8> H         -1.69039       -1.20813       -0.02168
|  9> H         -1.41449        0.48633       -0.40668
| 10> O          0.26170       -0.58031        0.13861
| 11> H         -0.01329       -0.20776       -3.80881
| 12> H          0.98025        0.04284       -2.39348
| 13> H         -0.39697        1.07694       -2.68836
| 14> *
| 15>
| 16> %MaxCore 64000
| 17>
| 18> %pal nprocs 18
| 19> end
| 20>
| 21> %scf
| 22>   MaxIter 150
| 23> end
| 24>
| 25>
| 26>                          ****END OF INPUT****

CARTESIAN COORDINATES (ANGSTROEM)
---------------------------------
  C     -0.017410    0.080590   -2.778410
  C     -0.903490   -0.873940   -1.987390
  H     -0.502550   -1.892100   -2.081200
  H     -1.917040   -0.895430   -2.406280
  C     -0.960150   -0.522360   -0.489870
  H     -1.690390   -1.208130   -0.021680
  H     -1.414490    0.486330   -0.406680
  O      0.261700   -0.580310    0.138610
  H     -0.013290   -0.207760   -3.808810
  H      0.980250    0.042840   -2.393480
  H     -0.396970    1.076940   -2.688360

 Total Charge           Charge          ....   -1
 Multiplicity           Mult            ....    1
 Number of Electrons    NEL             ....   34
 Basis Dimension        Dim             ....  139

ORBITAL ENERGIES
----------------

  NO   OCC          E(Eh)            E(eV)
   0   2.0000     -19.118878      -520.2511
   1   2.0000     -10.283915      -279.8396
   2   2.0000     -10.256323      -279.0887
   3   2.0000     -10.254216      -279.0314
   4   2.0000      -0.986641       -26.8479
   5   2.0000      -0.852135       -23.1878
   6   2.0000      -0.736060       -20.0292
   7   2.0000      -0.639733       -17.4080
   8   2.0000      -0.534161       -14.5353
   9   2.0000      -0.528147       -14.3716
  10   2.0000      -0.482662       -13.1339
  11   2.0000      -0.449680       -12.2364
  12   2.0000      -0.422094       -11.4858
  13   2.0000      -0.412908       -11.2358
  14   2.0000      -0.399228       -10.8635
  15   2.0000      -0.270714        -7.3665
  16   2.0000      -0.268997        -7.3198
  17   0.0000       0.103962         2.8290
  18   0.0000       0.127180         3.4607
  19   0.0000       0.135438         3.6855
  20   0.0000       0.146325         3.9817
  21   0.0000       0.174565         4.7502

MULLIKEN ATOMIC CHARGES
-----------------------
   0 C :    0.589067
   1 C :   -0.428837
   2 H :   -0.076697
   3 H :   -0.075006
   4 C :    0.421572
   5 H :   -0.168998
   6 H :   -0.121162
   7 O :   -0.966636
   8 H :   -0.051961
   9 H :   -0.066402
  10 H :   -0.054940
Sum of atomic charges:   -1.0000000

LOEWDIN ATOMIC CHARGES
----------------------
   0 C :    0.094035
   1 C :   -0.107523
   2 H :    0.009737
   3 H :    0.010675
   4 C :   -0.226956
   5 H :   -0.017923
   6 H :   -0.011782
   7 O :   -0.665827
   8 H :   -0.025584
   9 H :   -0.037020
  10 H :   -0.021833

  Mayer bond orders larger than 0.100000
B(  0-C ,  1-C ) :   1.2627 B(  0-C ,  8-H ) :   0.8224 B(  0-C ,  9-H ) :   0.8394
B(  0-C , 10-H ) :   0.8305 B(  1-C ,  2-H ) :   0.9557 B(  1-C ,  3-H ) :   0.9787
B(  1-C ,  4-C ) :   1.0762 B(  1-C ,  5-H ) :   0.1110 B(  1-C ,  8-H ) :   0.1757
B(  1-C ,  9-H ) :   0.1881 B(  1-C , 10-H ) :   0.1648 B(  2-H ,  4-C ) :   0.1060
B(  4-C ,  5-H ) :   0.9382 B(  4-C ,  6-H ) :   0.9329 B(  4-C ,  7-O ) :   1.2728

Dispersion correction           -0.001939174
FINAL SINGLE POINT ENERGY      -193.668357629622

DIPOLE MOMENT
-------------
                                X             Y             Z
Electronic contribution:      0.61938      -0.43704       1.94129
Nuclear contribution   :     -2.03764       0.64089      -4.61583
                        -----------------------------------------
Total Dipole Moment    :     -1.41827       0.20385      -2.67453
                        -----------------------------------------
Magnitude (a.u.)       :      3.03417
Magnitude (Debye)      :      7.71224

Rotational constants in cm-1:     0.508897     0.174909     0.148249
Rotational constants in MHz : 15256.351998  5243.652192  4444.387232

                             ****ORCA TERMINATED NORMALLY****
TOTAL RUN TIME: 0 days 0 hours 0 minutes 7 seconds 333 msec
