                         Program Version 5.0.0 -  RELEASE  -
|  1> !wB97X-D3 RIJCOSX def2-SVPD def2/J TightSCF CPCM(Water)
|  2> *xyz 1 1
|  3> C          4.36645       -0.13321       -1.41606
|  4> C          4.50829       -0.93187       -2.72425
|  5> H          4.75372       -1.97205       -2.48841
|  6> C          3.29416       -0.91821       -3.65657
|  7> H          5.38564       -0.53624       -3.24264
|  8> C          3.05650       -0.32080       -0.70738
|  9> N          2.38983        0.71129       -0.24391
| 10> N          2.51600       -1.50772       -0.55023
| 11> H          2.96768       -2.32291       -0.95631
| 12> H          1.54987       -1.49063       -0.24988
| 13> H          2.74307        1.64947       -0.41280
| 14> H          1.44036        0.50278        0.03703
| 15> H          4.48784        0.93300       -1.61157
| 16> H          5.16967       -0.41443       -0.72982
| 17> H          3.50670       -1.50229       -4.52754
| 18> H          3.07837        0.08892       -3.94644
| 19> H          2.44880       -1.33173       -3.14739
| 20> *
| 21>
| 22> %MaxCore 64000
| 23>
| 24> %pal nprocs 18
| 25> end
| 26>
| 27> %scf
| 28>   MaxIter 150
| 29> end
| 30>
| 31>
| 32>                          ****END OF INPUT****

CARTESIAN COORDINATES (ANGSTROEM)
---------------------------------
  C      4.366450   -0.133210   -1.416060
  C      4.508290   -0.931870   -2.724250
  H      4.753720   -1.972050   -2.488410
  C      3.294160   -0.918210   -3.656570
  H      5.385640   -0.536240   -3.242640
  C      3.056500   -0.320800   -0.707380
  N      2.389830    0.711290   -0.243910
  N      2.516000   -1.507720   -0.550230
  H      2.967680   -2.322910   -0.956310
  H      1.549870   -1.490630   -0.249880
  H      2.743070    1.649470   -0.412800
  H      1.440360    0.502780    0.037030
  H      4.487840    0.933000   -1.611570
  H      5.169670   -0.414430   -0.729820
  H      3.506700   -1.502290   -4.527540
  H      3.078370    0.088920   -3.946440
  H      2.448800   -1.331730   -3.147390

 Total Charge           Charge          ....    1
 Multiplicity           Mult            ....    1
 Number of Electrons    NEL             ....   48
 Basis Dimension        Dim             ....  208

ORBITAL ENERGIES
----------------

  NO   OCC          E(Eh)            E(eV)
   0   2.0000     -14.499180      -394.5428
   1   2.0000     -14.498428      -394.5223
   2   2.0000     -10.435016      -283.9512
   3   2.0000     -10.321377      -280.8590
   4   2.0000     -10.302145      -280.3356
   5   2.0000     -10.275945      -279.6227
   6   2.0000      -1.140353       -31.0306
   7   2.0000      -1.030200       -28.0332
   8   2.0000      -0.924231       -25.1496
   9   2.0000      -0.840325       -22.8664
  10   2.0000      -0.761171       -20.7125
  11   2.0000      -0.729506       -19.8509
  12   2.0000      -0.688399       -18.7323
  13   2.0000      -0.669350       -18.2139
  14   2.0000      -0.618432       -16.8284
  15   2.0000      -0.593787       -16.1578
  16   2.0000      -0.572002       -15.5650
  17   2.0000      -0.528267       -14.3749
  18   2.0000      -0.522563       -14.2197
  19   2.0000      -0.501258       -13.6399
  20   2.0000      -0.452217       -12.3054
  21   2.0000      -0.447446       -12.1756
  22   2.0000      -0.434986       -11.8366
  23   2.0000      -0.403834       -10.9889
  24   0.0000       0.045066         1.2263
  25   0.0000       0.086974         2.3667
  26   0.0000       0.115612         3.1460
  27   0.0000       0.124948         3.4000
  28   0.0000       0.128231         3.4893

MULLIKEN ATOMIC CHARGES
-----------------------
   0 C :    0.155975
   1 C :   -0.508388
   2 H :    0.027192
   3 C :    0.623068
   4 H :   -0.119782
   5 C :    0.463419
   6 N :   -0.014488
   7 N :   -0.039321
   8 H :    0.107223
   9 H :   -0.000556
  10 H :    0.077623
  11 H :    0.002028
  12 H :    0.225112
  13 H :    0.049169
  14 H :   -0.016522
  15 H :    0.010543
  16 H :   -0.042296
Sum of atomic charges:    1.0000000

LOEWDIN ATOMIC CHARGES
----------------------
   0 C :    0.055205
   1 C :   -0.053779
   2 H :    0.025663
   3 C :    0.129064
   4 H :    0.030699
   5 C :   -0.042879
   6 N :    0.284982
   7 N :    0.288636
   8 H :    0.060348
   9 H :    0.056970
  10 H :    0.063864
  11 H :    0.054643
  12 H :    0.041500
  13 H :    0.054651
  14 H :   -0.009689
  15 H :   -0.008842
  16 H :   -0.031036

  Mayer bond orders larger than 0.100000
B(  0-C ,  1-C ) :   1.2355 B(  0-C ,  2-H ) :   0.1041 B(  0-C ,  4-H ) :   0.1216
B(  0-C ,  5-C ) :   1.1908 B(  0-C , 12-H ) :   0.7911 B(  0-C , 13-H ) :   0.7866
B(  1-C ,  2-H ) :   0.9335 B(  1-C ,  3-C ) :   1.3337 B(  1-C ,  4-H ) :   1.0021
B(  1-C , 12-H ) :   0.1264 B(  1-C , 13-H ) :   0.1046 B(  1-C , 14-H ) :   0.2097
B(  1-C , 15-H ) :   0.1962 B(  1-C , 16-H ) :   0.2005 B(  3-C , 14-H ) :   0.7738
B(  3-C , 15-H ) :   0.8081 B(  3-C , 16-H ) :   0.8405 B(  5-C ,  6-N ) :   1.1054
B(  5-C ,  7-N ) :   1.1431 B(  5-C ,  9-H ) :  -0.1148 B(  5-C , 12-H ) :   0.1320
B(  5-C , 13-H ) :   0.1759 B(  6-N ,  7-N ) :   0.1993 B(  6-N , 10-H ) :   1.0999
B(  6-N , 11-H ) :   1.1690 B(  7-N ,  8-H ) :   0.9879 B(  7-N ,  9-H ) :   1.2422
B(  8-H ,  9-H ) :  -0.1652 B( 10-H , 11-H ) :  -0.1410

Dispersion correction           -0.004608190
FINAL SINGLE POINT ENERGY      -268.191834089567

DIPOLE MOMENT
-------------
                                X             Y             Z
Electronic contribution:     -2.05440       0.93975       5.36175
Nuclear contribution   :      0.92830      -0.63755      -3.99475
                        -----------------------------------------
Total Dipole Moment    :     -1.12610       0.30220       1.36699
                        -----------------------------------------
Magnitude (a.u.)       :      1.79669
Magnitude (Debye)      :      4.56683

Rotational constants in cm-1:     0.183706     0.077449     0.071296
Rotational constants in MHz :  5507.368439  2321.870034  2137.394204

                             ****ORCA TERMINATED NORMALLY****
TOTAL RUN TIME: 0 days 0 hours 0 minutes 13 seconds 621 msec
