                         Program Version 5.0.0 -  RELEASE  -
|  1> !wB97X-D3 RIJCOSX def2-SVPD def2/J TightSCF CPCM(Water) xyzfile
|  2>
|  3> *xyzfile 0 1 B.xyz
|  4>
|  5> %MaxCore 64000
|  6>
|  7> %pal nprocs 18
|  8> end
|  9>
| 10> %scf
| 11>   MaxIter 150
| 12> end
| 13>
| 14>
| 15>                          ****END OF INPUT****

CARTESIAN COORDINATES (ANGSTROEM)
---------------------------------
  C      4.366454   -0.133215   -1.416062
  C      4.508292   -0.931872   -2.724249
  H      4.753716   -1.972051   -2.488408
  C      3.294164   -0.918214   -3.656570
  H      5.385637   -0.536236   -3.242640
  H      2.483463   -1.477378   -3.185764
  H      3.553092   -1.478495   -4.560331
  C      2.772335    0.460100   -4.051448
  H      2.608762    1.065107   -3.155194
  C      1.465354    0.410537   -4.853644
  H      3.532940    0.988848   -4.635671
  C      0.326171   -0.375613   -4.192580
  H      1.666704   -0.022269   -5.839323
  H      1.138198    1.439246   -5.035449
  C     -0.017405    0.080588   -2.778406
  H      0.585573   -1.439385   -4.168057
  H     -0.560005   -0.311425   -4.831461
  H      0.902090    0.201296   -2.206729
  C     -0.903495   -0.873945   -1.987388
  H     -0.479549    1.074657   -2.811915
  H     -0.502554   -1.892096   -2.081204
  H     -1.917039   -0.895427   -2.406277
  C     -0.960148   -0.522365   -0.489867
  H     -1.690392   -1.208130   -0.021677
  H     -1.414490    0.486329   -0.406677
  O      0.261703   -0.580307    0.138611
  C      3.056503   -0.320797   -0.707384
  N      2.389825    0.711285   -0.243909
  N      2.515999   -1.507721   -0.550229
  H      2.967683   -2.322915   -0.956305
  H      1.549872   -1.490634   -0.249876
  H      2.743071    1.649471   -0.412802
  H      1.440364    0.502778    0.037031
  H      4.487835    0.932997   -1.611569
  H      5.169672   -0.414432   -0.729817

 Total Charge           Charge          ....    0
 Multiplicity           Mult            ....    1
 Number of Electrons    NEL             ....  104
 Basis Dimension        Dim             ....  439

ORBITAL ENERGIES
----------------

  NO   OCC          E(Eh)            E(eV)
   0   2.0000     -19.143694      -520.9264
   1   2.0000     -14.452648      -393.2766
   2   2.0000     -14.452458      -393.2714
   3   2.0000     -10.403552      -283.0950
   4   2.0000     -10.307529      -280.4821
   5   2.0000     -10.297524      -280.2099
   6   2.0000     -10.293465      -280.0994
   7   2.0000     -10.279360      -279.7156
   8   2.0000     -10.276958      -279.6502
   9   2.0000     -10.276069      -279.6261
  10   2.0000     -10.272382      -279.5257
  11   2.0000     -10.265586      -279.3408
  12   2.0000     -10.261806      -279.2379
  13   2.0000      -1.106895       -30.1201
  14   2.0000      -1.019819       -27.7507
  15   2.0000      -0.994830       -27.0707
  16   2.0000      -0.927950       -25.2508
  17   2.0000      -0.900417       -24.5016
  18   2.0000      -0.865212       -23.5436
  19   2.0000      -0.821022       -22.3411
  20   2.0000      -0.785560       -21.3762
  21   2.0000      -0.735675       -20.0187
  22   2.0000      -0.722571       -19.6621
  23   2.0000      -0.705072       -19.1860
  24   2.0000      -0.668087       -18.1796
  25   2.0000      -0.653260       -17.7761
  26   2.0000      -0.647120       -17.6090
  27   2.0000      -0.634090       -17.2545
  28   2.0000      -0.590202       -16.0602
  29   2.0000      -0.586464       -15.9585
  30   2.0000      -0.573249       -15.5989
  31   2.0000      -0.556088       -15.1319
  32   2.0000      -0.540037       -14.6951
  33   2.0000      -0.525532       -14.3005
  34   2.0000      -0.515942       -14.0395
  35   2.0000      -0.507623       -13.8131
  36   2.0000      -0.505143       -13.7457
  37   2.0000      -0.496919       -13.5218
  38   2.0000      -0.472733       -12.8637
  39   2.0000      -0.462303       -12.5799
  40   2.0000      -0.447590       -12.1796
  41   2.0000      -0.443923       -12.0798
  42   2.0000      -0.433001       -11.7826
  43   2.0000      -0.424452       -11.5499
  44   2.0000      -0.418023       -11.3750
  45   2.0000      -0.405257       -11.0276
  46   2.0000      -0.400081       -10.8867
  47   2.0000      -0.393857       -10.7174
  48   2.0000      -0.392257       -10.6739
  49   2.0000      -0.367842       -10.0095
  50   2.0000      -0.301662        -8.2086
  51   2.0000      -0.298191        -8.1142
  52   0.0000       0.068264         1.8576
  53   0.0000       0.094891         2.5821
  54   0.0000       0.106215         2.8903
  55   0.0000       0.106998         2.9116
  56   0.0000       0.111150         3.0245

MULLIKEN ATOMIC CHARGES
-----------------------
   0 C :    0.236123
   1 C :    0.322799
   2 H :    0.046458
   3 C :   -0.124707
   4 H :   -0.085600
   5 H :   -0.006964
   6 H :   -0.117711
   7 C :   -0.075855
   8 H :    0.086441
   9 C :    0.676220
  10 H :   -0.333163
  11 C :    0.045008
  12 H :   -0.003375
  13 H :    0.018080
  14 C :    0.519650
  15 H :    0.154338
  16 H :   -0.398896
  17 H :   -0.858050
  18 C :    0.077339
  19 H :    0.018608
  20 H :   -0.008870
  21 H :   -0.179655
  22 C :    0.879291
  23 H :   -0.159624
  24 H :   -0.091541
  25 O :   -1.115294
  26 C :    0.185587
  27 N :    0.313660
  28 N :    0.345647
  29 H :    0.009266
  30 H :   -0.305163
  31 H :    0.010193
  32 H :   -0.213308
  33 H :    0.301870
  34 H :   -0.168800
Sum of atomic charges:    0.0000000

LOEWDIN ATOMIC CHARGES
----------------------
   0 C :    0.051656
   1 C :   -0.010977
   2 H :    0.025894
   3 C :   -0.029034
   4 H :    0.030187
   5 H :   -0.007271
   6 H :    0.033270
   7 C :   -0.031122
   8 H :    0.001862
   9 C :   -0.029095
  10 H :    0.027609
  11 C :   -0.039688
  12 H :    0.022205
  13 H :    0.022591
  14 C :   -0.034701
  15 H :    0.011311
  16 H :    0.021496
  17 H :   -0.029524
  18 C :   -0.037661
  19 H :    0.034691
  20 H :    0.020770
  21 H :    0.020276
  22 C :   -0.075511
  23 H :   -0.000262
  24 H :    0.008656
  25 O :   -0.483895
  26 C :   -0.056219
  27 N :    0.279390
  28 N :    0.289336
  29 H :    0.047076
  30 H :   -0.103385
  31 H :    0.051642
  32 H :   -0.109191
  33 H :    0.031756
  34 H :    0.045864

  Mayer bond orders larger than 0.100000
B(  0-C ,  1-C ) :   1.2228 B(  0-C ,  4-H ) :   0.1533 B(  0-C , 26-C ) :   1.2094
B(  0-C , 33-H ) :   0.7195 B(  0-C , 34-H ) :   0.7406 B(  1-C ,  2-H ) :   0.7179
B(  1-C ,  3-C ) :   1.2909 B(  1-C ,  4-H ) :   0.8280 B(  1-C ,  5-H ) :   0.1005
B(  1-C , 33-H ) :   0.1217 B(  1-C , 34-H ) :   0.1140 B(  2-H ,  3-C ) :   0.2278
B(  2-H ,  4-H ) :  -0.1193 B(  3-C ,  4-H ) :   0.1745 B(  3-C ,  5-H ) :   0.8572
B(  3-C ,  6-H ) :   0.8630 B(  3-C ,  7-C ) :   1.2495 B(  3-C ,  8-H ) :   0.1086
B(  3-C , 10-H ) :   0.1720 B(  5-H ,  7-C ) :   0.1260 B(  5-H , 15-H ) :   0.1701
B(  6-H ,  7-C ) :   0.1461 B(  7-C ,  8-H ) :   0.8376 B(  7-C ,  9-C ) :   1.1334
B(  7-C , 10-H ) :   1.0172 B(  7-C , 11-C ) :   0.1108 B(  7-C , 12-H ) :   0.1215
B(  7-C , 13-H ) :   0.2378 B(  8-H , 17-H ) :   0.2044 B(  9-C , 11-C ) :   1.1307
B(  9-C , 12-H ) :   0.7280 B(  9-C , 13-H ) :   0.6924 B( 11-C , 12-H ) :   0.1836
B( 11-C , 13-H ) :   0.1390 B( 11-C , 14-C ) :   1.1409 B( 11-C , 15-H ) :   0.8171
B( 11-C , 16-H ) :   1.0147 B( 11-C , 17-H ) :   0.1616 B( 11-C , 19-H ) :   0.1126
B( 12-H , 13-H ) :  -0.1076 B( 14-C , 15-H ) :   0.1302 B( 14-C , 16-H ) :   0.2220
B( 14-C , 17-H ) :   0.3275 B( 14-C , 18-C ) :   1.1650 B( 14-C , 19-H ) :   0.6630
B( 14-C , 20-H ) :   0.1318 B( 14-C , 21-H ) :   0.2348 B( 17-H , 18-C ) :   0.1620
B( 17-H , 19-H ) :   0.2372 B( 17-H , 26-C ) :   0.1221 B( 18-C , 19-H ) :   0.1027
B( 18-C , 20-H ) :   0.8942 B( 18-C , 21-H ) :   0.8766 B( 18-C , 22-C ) :   1.0388
B( 18-C , 23-H ) :   0.1998 B( 18-C , 25-O ) :   0.1041 B( 22-C , 23-H ) :   0.7619
B( 22-C , 24-H ) :   0.8216 B( 22-C , 25-O ) :   1.0344 B( 24-H , 25-O ) :   0.1592
B( 25-O , 30-H ) :   0.3295 B( 25-O , 32-H ) :   0.2839 B( 26-C , 27-N ) :   1.0736
B( 26-C , 28-N ) :   1.0796 B( 26-C , 33-H ) :   0.1741 B( 26-C , 34-H ) :   0.2964
B( 27-N , 28-N ) :   0.1843 B( 27-N , 31-H ) :   1.1309 B( 27-N , 32-H ) :   1.0406
B( 28-N , 29-H ) :   1.0955 B( 28-N , 30-H ) :   1.1035 B( 29-H , 30-H ) :  -0.2292
B( 31-H , 32-H ) :  -0.1715

Dispersion correction           -0.017913791
FINAL SINGLE POINT ENERGY      -578.538352972715

DIPOLE MOMENT
-------------
                                X             Y             Z
Electronic contribution:      3.57318      -0.17073       7.03870
Nuclear contribution   :     -0.17996       0.53390      -8.68067
                        -----------------------------------------
Total Dipole Moment    :      3.39322       0.36318      -1.64197
                        -----------------------------------------
Magnitude (a.u.)       :      3.78707
Magnitude (Debye)      :      9.62597

Rotational constants in cm-1:     0.028240     0.022734     0.014600
Rotational constants in MHz :   846.611263   681.554306   437.693928

                             ****ORCA TERMINATED NORMALLY****
TOTAL RUN TIME: 0 days 0 hours 1 minutes 16 seconds 123 msec
