                         Program Version 5.0.0 -  RELEASE  -
|  1> !wB97X-D3 RIJCOSX def2-SVPD def2/J TightSCF CPCM(Water)
|  2> *xyz 0 1
|  3> C         -0.01741        0.08059       -2.77841
|  4> C         -0.90349       -0.87394       -1.98739
|  5> H         -0.50255       -1.89210       -2.08120
|  6> H         -1.91704       -0.89543       -2.40628
|  7> C         -0.96015       -0.52236       -0.48987
|  8> H         -1.69039       -1.20813       -0.02168
|  9> H         -1.41449        0.48633       -0.40668
| 10> F          0.26170       -0.58031        0.13861
| 11> H         -0.01329       -0.20776       -3.80881
| 12> H          0.98025        0.04284       -2.39348
| 13> H         -0.39697        1.07694       -2.68836
| 14> *
| 15>
| 16> %MaxCore 64000
| 17>
| 18> %pal nprocs 18
| 19> end
| 20>
| 21> %scf
| 22>   MaxIter 150
| 23> end
| 24>
| 25>
| 26>                          ****END OF INPUT****

CARTESIAN COORDINATES (ANGSTROEM)
---------------------------------
  C     -0.017410    0.080590   -2.778410
  C     -0.903490   -0.873940   -1.987390
  H     -0.502550   -1.892100   -2.081200
  H     -1.917040   -0.895430   -2.406280
  C     -0.960150   -0.522360   -0.489870
  H     -1.690390   -1.208130   -0.021680
  H     -1.414490    0.486330   -0.406680
  F      0.261700   -0.580310    0.138610
  H     -0.013290   -0.207760   -3.808810
  H      0.980250    0.042840   -2.393480
  H     -0.396970    1.076940   -2.688360

 Total Charge           Charge          ....    0
 Multiplicity           Mult            ....    1
 Number of Electrons    NEL             ....   34
 Basis Dimension        Dim             ....  139

ORBITAL ENERGIES
----------------

  NO   OCC          E(Eh)            E(eV)
   0   2.0000     -24.796881      -674.7574
   1   2.0000     -10.361930      -281.9625
   2   2.0000     -10.288117      -279.9539
   3   2.0000     -10.268559      -279.4217
   4   2.0000      -1.304507       -35.4974
   5   2.0000      -0.894106       -24.3299
   6   2.0000      -0.792786       -21.5728
   7   2.0000      -0.698168       -18.9981
   8   2.0000      -0.613971       -16.7070
   9   2.0000      -0.597185       -16.2502
  10   2.0000      -0.572497       -15.5784
  11   2.0000      -0.532156       -14.4807
  12   2.0000      -0.499839       -13.6013
  13   2.0000      -0.470495       -12.8028
  14   2.0000      -0.441141       -12.0040
  15   2.0000      -0.417961       -11.3733
  16   2.0000      -0.416946       -11.3457
  17   0.0000       0.099047         2.6952
  18   0.0000       0.125379         3.4117
  19   0.0000       0.132053         3.5933
  20   0.0000       0.149390         4.0651
  21   0.0000       0.175753         4.7825

MULLIKEN ATOMIC CHARGES
-----------------------
   0 C :    0.523538
   1 C :   -0.577179
   2 H :   -0.022432
   3 H :   -0.015898
   4 C :    0.659445
   5 H :   -0.022185
   6 H :    0.014144
   7 F :   -0.482473
   8 H :   -0.029473
   9 H :   -0.017777
  10 H :   -0.029711
Sum of atomic charges:    0.0000000

LOEWDIN ATOMIC CHARGES
----------------------
   0 C :    0.112110
   1 C :   -0.067038
   2 H :    0.026786
   3 H :    0.034169
   4 C :    0.104844
   5 H :    0.035597
   6 H :    0.040516
   7 F :   -0.239913
   8 H :   -0.015633
   9 H :   -0.017429
  10 H :   -0.014009

  Mayer bond orders larger than 0.100000
B(  0-C ,  1-C ) :   1.2752 B(  0-C ,  8-H ) :   0.8431 B(  0-C ,  9-H ) :   0.8425
B(  0-C , 10-H ) :   0.8473 B(  1-C ,  2-H ) :   0.9819 B(  1-C ,  3-H ) :   0.9901
B(  1-C ,  4-C ) :   1.1672 B(  1-C ,  5-H ) :   0.1016 B(  1-C ,  8-H ) :   0.1681
B(  1-C ,  9-H ) :   0.1704 B(  1-C , 10-H ) :   0.1578 B(  4-C ,  5-H ) :   0.9353
B(  4-C ,  6-H ) :   0.9293 B(  4-C ,  7-F ) :   0.6919

Dispersion correction           -0.001913354
FINAL SINGLE POINT ENERGY      -218.170897063252

DIPOLE MOMENT
-------------
                                X             Y             Z
Electronic contribution:      2.04753      -0.77286       5.79878
Nuclear contribution   :     -2.83598       0.77614      -6.32113
                        -----------------------------------------
Total Dipole Moment    :     -0.78845       0.00328      -0.52235
                        -----------------------------------------
Magnitude (a.u.)       :      0.94579
Magnitude (Debye)      :      2.40401

Rotational constants in cm-1:     0.494803     0.164634     0.139827
Rotational constants in MHz : 14833.819345  4935.593559  4191.919783

                             ****ORCA TERMINATED NORMALLY****
TOTAL RUN TIME: 0 days 0 hours 0 minutes 7 seconds 68 msec
