                         Program Version 5.0.0 -  RELEASE  -
|  1> !wB97X-D3 RIJCOSX def2-SVPD def2/J TightSCF CPCM(Water)
|  2> *xyz 0 1
|  3> C          4.36645       -0.13321       -1.41606
|  4> C          4.50829       -0.93187       -2.72425
|  5> H          4.75372       -1.97205       -2.48841
|  6> C          3.29416       -0.91821       -3.65657
|  7> H          5.38564       -0.53624       -3.24264
|  8> C          3.05650       -0.32080       -0.70738
|  9> C          2.38983        0.71129       -0.24391
| 10> N          2.51600       -1.50772       -0.55023
| 11> H          2.96768       -2.32291       -0.95631
| 12> H          1.54987       -1.49063       -0.24988
| 13> H          2.74307        1.64947       -0.41280
| 14> H          1.44036        0.50278        0.03703
| 15> H          4.48784        0.93300       -1.61157
| 16> H          5.16967       -0.41443       -0.72982
| 17> H          3.50670       -1.50229       -4.52754
| 18> H          3.07837        0.08892       -3.94644
| 19> H          2.44880       -1.33173       -3.14739
| 20> *
| 21>
| 22> %MaxCore 64000
| 23>
| 24> %pal nprocs 18
| 25> end
| 26>
| 27> %scf
| 28>   MaxIter 150
| 29> end
| 30>
| 31>
| 32>                          ****END OF INPUT****

CARTESIAN COORDINATES (ANGSTROEM)
---------------------------------
  C      4.366450   -0.133210   -1.416060
  C      4.508290   -0.931870   -2.724250
  H      4.753720   -1.972050   -2.488410
  C      3.294160   -0.918210   -3.656570
  H      5.385640   -0.536240   -3.242640
  C      3.056500   -0.320800   -0.707380
  C      2.389830    0.711290   -0.243910
  N      2.516000   -1.507720   -0.550230
  H      2.967680   -2.322910   -0.956310
  H      1.549870   -1.490630   -0.249880
  H      2.743070    1.649470   -0.412800
  H      1.440360    0.502780    0.037030
  H      4.487840    0.933000   -1.611570
  H      5.169670   -0.414430   -0.729820
  H      3.506700   -1.502290   -4.527540
  H      3.078370    0.088920   -3.946440
  H      2.448800   -1.331730   -3.147390

 Total Charge           Charge          ....    0
 Multiplicity           Mult            ....    1
 Number of Electrons    NEL             ....   48
 Basis Dimension        Dim             ....  208

ORBITAL ENERGIES
----------------

  NO   OCC          E(Eh)            E(eV)
   0   2.0000     -14.430768      -392.6812
   1   2.0000     -10.312276      -280.6113
   2   2.0000     -10.285440      -279.8810
   3   2.0000     -10.284020      -279.8424
   4   2.0000     -10.266228      -279.3583
   5   2.0000     -10.222547      -278.1696
   6   2.0000      -1.040611       -28.3165
   7   2.0000      -0.897996       -24.4357
   8   2.0000      -0.845355       -23.0033
   9   2.0000      -0.791637       -21.5415
  10   2.0000      -0.703852       -19.1528
  11   2.0000      -0.659263       -17.9394
  12   2.0000      -0.629955       -17.1419
  13   2.0000      -0.561496       -15.2791
  14   2.0000      -0.552530       -15.0351
  15   2.0000      -0.548906       -14.9365
  16   2.0000      -0.494628       -13.4595
  17   2.0000      -0.488284       -13.2869
  18   2.0000      -0.475347       -12.9349
  19   2.0000      -0.457588       -12.4516
  20   2.0000      -0.424283       -11.5453
  21   2.0000      -0.420141       -11.4326
  22   2.0000      -0.411506       -11.1977
  23   2.0000      -0.282373        -7.6838
  24   0.0000       0.094271         2.5652
  25   0.0000       0.108738         2.9589
  26   0.0000       0.119780         3.2594
  27   0.0000       0.134647         3.6639
  28   0.0000       0.135716         3.6930

MULLIKEN ATOMIC CHARGES
-----------------------
   0 C :    0.315699
   1 C :   -0.466445
   2 H :   -0.005702
   3 C :    0.677739
   4 H :   -0.131185
   5 C :   -0.464848
   6 C :    0.359606
   7 N :    0.165391
   8 H :   -0.006539
   9 H :   -0.046401
  10 H :   -0.146442
  11 H :   -0.301821
  12 H :    0.231814
  13 H :   -0.049795
  14 H :   -0.005809
  15 H :   -0.031517
  16 H :   -0.093745
Sum of atomic charges:    0.0000000

LOEWDIN ATOMIC CHARGES
----------------------
   0 C :    0.012008
   1 C :   -0.068681
   2 H :    0.016980
   3 C :    0.120139
   4 H :    0.019559
   5 C :   -0.277615
   6 C :    0.144899
   7 N :    0.175738
   8 H :    0.019717
   9 H :    0.019430
  10 H :   -0.084933
  11 H :   -0.085756
  12 H :    0.024762
  13 H :    0.030330
  14 H :   -0.015844
  15 H :   -0.014667
  16 H :   -0.036065

  Mayer bond orders larger than 0.100000
B(  0-C ,  1-C ) :   1.2155 B(  0-C ,  2-H ) :   0.1424 B(  0-C ,  4-H ) :   0.1523
B(  0-C ,  5-C ) :   1.2292 B(  0-C , 12-H ) :   0.7764 B(  0-C , 13-H ) :   0.7339
B(  1-C ,  2-H ) :   0.9026 B(  1-C ,  3-C ) :   1.3101 B(  1-C ,  4-H ) :   0.9681
B(  1-C , 12-H ) :   0.1363 B(  1-C , 14-H ) :   0.2107 B(  1-C , 15-H ) :   0.2050
B(  1-C , 16-H ) :   0.2072 B(  3-C , 14-H ) :   0.7540 B(  3-C , 15-H ) :   0.7941
B(  3-C , 16-H ) :   0.8439 B(  5-C ,  6-C ) :   1.9317 B(  5-C ,  7-N ) :   1.2327
B(  5-C , 11-H ) :   0.3316 B(  5-C , 13-H ) :   0.2472 B(  6-C ,  7-N ) :   0.2958
B(  6-C , 10-H ) :   0.9826 B(  6-C , 11-H ) :   0.6454 B(  7-N ,  8-H ) :   0.9917
B(  7-N ,  9-H ) :   1.1156 B(  8-H ,  9-H ) :  -0.1435

Dispersion correction           -0.004632034
FINAL SINGLE POINT ENERGY      -251.642950391750

DIPOLE MOMENT
-------------
                                X             Y             Z
Electronic contribution:     -0.58392      -0.60419       3.13320
Nuclear contribution   :      0.70803      -0.34641      -3.68680
                        -----------------------------------------
Total Dipole Moment    :      0.12411      -0.95061      -0.55360
                        -----------------------------------------
Magnitude (a.u.)       :      1.10704
Magnitude (Debye)      :      2.81386

Rotational constants in cm-1:     0.186653     0.080341     0.073591
Rotational constants in MHz :  5595.710092  2408.571280  2206.200061

                             ****ORCA TERMINATED NORMALLY****
TOTAL RUN TIME: 0 days 0 hours 0 minutes 15 seconds 546 msec
