                         Program Version 5.0.0 -  RELEASE  -
|  1> !wB97X-D3 RIJCOSX def2-SVPD def2/J TightSCF CPCM(Water)
|  2> *xyz 0 1
|  3> C          4.36645       -0.13321       -1.41606
|  4> C          4.50829       -0.93187       -2.72425
|  5> H          4.75372       -1.97205       -2.48841
|  6> C          3.29416       -0.91821       -3.65657
|  7> H          5.38564       -0.53624       -3.24264
|  8> C          3.05650       -0.32080       -0.70738
|  9> N          2.38983        0.71129       -0.24391
| 10> C          2.51600       -1.50772       -0.55023
| 11> H          2.96768       -2.32291       -0.95631
| 12> H          1.54987       -1.49063       -0.24988
| 13> H          2.74307        1.64947       -0.41280
| 14> H          1.44036        0.50278        0.03703
| 15> H          4.48784        0.93300       -1.61157
| 16> H          5.16967       -0.41443       -0.72982
| 17> H          3.50670       -1.50229       -4.52754
| 18> H          3.07837        0.08892       -3.94644
| 19> H          2.44880       -1.33173       -3.14739
| 20> *
| 21>
| 22> %MaxCore 64000
| 23>
| 24> %pal nprocs 18
| 25> end
| 26>
| 27> %scf
| 28>   MaxIter 150
| 29> end
| 30>
| 31>
| 32>                          ****END OF INPUT****

CARTESIAN COORDINATES (ANGSTROEM)
---------------------------------
  C      4.366450   -0.133210   -1.416060
  C      4.508290   -0.931870   -2.724250
  H      4.753720   -1.972050   -2.488410
  C      3.294160   -0.918210   -3.656570
  H      5.385640   -0.536240   -3.242640
  C      3.056500   -0.320800   -0.707380
  N      2.389830    0.711290   -0.243910
  C      2.516000   -1.507720   -0.550230
  H      2.967680   -2.322910   -0.956310
  H      1.549870   -1.490630   -0.249880
  H      2.743070    1.649470   -0.412800
  H      1.440360    0.502780    0.037030
  H      4.487840    0.933000   -1.611570
  H      5.169670   -0.414430   -0.729820
  H      3.506700   -1.502290   -4.527540
  H      3.078370    0.088920   -3.946440
  H      2.448800   -1.331730   -3.147390

 Total Charge           Charge          ....    0
 Multiplicity           Mult            ....    1
 Number of Electrons    NEL             ....   48
 Basis Dimension        Dim             ....  208

ORBITAL ENERGIES
----------------

  NO   OCC          E(Eh)            E(eV)
   0   2.0000     -14.430934      -392.6857
   1   2.0000     -10.311048      -280.5779
   2   2.0000     -10.285675      -279.8874
   3   2.0000     -10.282931      -279.8128
   4   2.0000     -10.263301      -279.2786
   5   2.0000     -10.219177      -278.0779
   6   2.0000      -1.039990       -28.2996
   7   2.0000      -0.900969       -24.5166
   8   2.0000      -0.833126       -22.6705
   9   2.0000      -0.796582       -21.6761
  10   2.0000      -0.709529       -19.3073
  11   2.0000      -0.649457       -17.6726
  12   2.0000      -0.623488       -16.9660
  13   2.0000      -0.582090       -15.8395
  14   2.0000      -0.553013       -15.0482
  15   2.0000      -0.529574       -14.4104
  16   2.0000      -0.498443       -13.5633
  17   2.0000      -0.489242       -13.3130
  18   2.0000      -0.465509       -12.6671
  19   2.0000      -0.456741       -12.4286
  20   2.0000      -0.427712       -11.6386
  21   2.0000      -0.416124       -11.3233
  22   2.0000      -0.413373       -11.2485
  23   2.0000      -0.278776        -7.5859
  24   0.0000       0.097082         2.6417
  25   0.0000       0.106924         2.9096
  26   0.0000       0.123017         3.3475
  27   0.0000       0.126796         3.4503
  28   0.0000       0.140279         3.8172

MULLIKEN ATOMIC CHARGES
-----------------------
   0 C :    0.466940
   1 C :   -0.481653
   2 H :    0.019932
   3 C :    0.673246
   4 H :   -0.152116
   5 C :   -0.380830
   6 N :    0.128968
   7 C :    0.488358
   8 H :   -0.125832
   9 H :   -0.465153
  10 H :   -0.064645
  11 H :   -0.012929
  12 H :    0.083288
  13 H :   -0.061587
  14 H :   -0.031691
  15 H :   -0.018699
  16 H :   -0.065596
Sum of atomic charges:   -0.0000000

LOEWDIN ATOMIC CHARGES
----------------------
   0 C :    0.015107
   1 C :   -0.066478
   2 H :    0.017172
   3 C :    0.120417
   4 H :    0.019044
   5 C :   -0.264938
   6 N :    0.169745
   7 C :    0.139028
   8 H :   -0.080136
   9 H :   -0.084930
  10 H :    0.018631
  11 H :    0.016593
  12 H :    0.020893
  13 H :    0.031409
  14 H :   -0.017017
  15 H :   -0.014433
  16 H :   -0.040110

  Mayer bond orders larger than 0.100000
B(  0-C ,  1-C ) :   1.2145 B(  0-C ,  2-H ) :   0.1030 B(  0-C ,  4-H ) :   0.1554
B(  0-C ,  5-C ) :   1.0953 B(  0-C , 12-H ) :   0.6789 B(  0-C , 13-H ) :   0.8030
B(  1-C ,  2-H ) :   0.9012 B(  1-C ,  3-C ) :   1.3241 B(  1-C ,  4-H ) :   0.9686
B(  1-C , 12-H ) :   0.1221 B(  1-C , 13-H ) :   0.1288 B(  1-C , 14-H ) :   0.2197
B(  1-C , 15-H ) :   0.2083 B(  1-C , 16-H ) :   0.2248 B(  3-C , 14-H ) :   0.7535
B(  3-C , 15-H ) :   0.7991 B(  3-C , 16-H ) :   0.8365 B(  5-C ,  6-N ) :   1.1939
B(  5-C ,  7-C ) :   2.0062 B(  5-C ,  8-H ) :   0.1660 B(  5-C ,  9-H ) :   0.2902
B(  5-C , 12-H ) :   0.2087 B(  5-C , 13-H ) :   0.1623 B(  6-N ,  7-C ) :   0.2343
B(  6-N , 10-H ) :   1.1208 B(  6-N , 11-H ) :   1.0781 B(  7-C ,  8-H ) :   0.7333
B(  7-C ,  9-H ) :   0.7478 B( 10-H , 11-H ) :  -0.1169

Dispersion correction           -0.004569653
FINAL SINGLE POINT ENERGY      -251.640710908331

DIPOLE MOMENT
-------------
                                X             Y             Z
Electronic contribution:     -0.72399       1.89490       3.46302
Nuclear contribution   :      0.73787      -0.87128      -3.75926
                        -----------------------------------------
Total Dipole Moment    :      0.01388       1.02362      -0.29623
                        -----------------------------------------
Magnitude (a.u.)       :      1.06571
Magnitude (Debye)      :      2.70882

Rotational constants in cm-1:     0.191039     0.078358     0.072723
Rotational constants in MHz :  5727.202281  2349.118247  2180.181745

                             ****ORCA TERMINATED NORMALLY****
TOTAL RUN TIME: 0 days 0 hours 0 minutes 15 seconds 367 msec
