                         Program Version 5.0.0 -  RELEASE  -
|  1> !wB97X-D3 RIJCOSX def2-SVP def2/J TightSCF
|  2> *xyz -1 1
|  3> C          4.08422        1.74208       -2.11472
|  4> C          4.26524        2.50052       -0.79589
|  5> H          4.86853        3.39267       -0.98113
|  6> H          3.30764        2.82457       -0.38781
|  7> C          4.98224        1.65026        0.24742
|  8> O          4.36806        1.38927        1.31371
|  9> O          6.12892        1.23351       -0.04562
| 10> C          3.41275        0.37689       -1.96550
| 11> H          5.06847        1.59850       -2.56573
| 12> H          3.50336        2.36394       -2.80457
| 13> H          3.32456       -0.08422       -2.92701
| 14> H          2.43923        0.50287       -1.53972
| 15> H          4.00446       -0.24355       -1.32531
| 16> *
| 17> %MaxCore 64000
| 18> %pal nprocs 8
| 19> end
| 20> %scf
| 21>   MaxIter 150
| 22> end
| 23>
| 24>
| 25>                          ****END OF INPUT****

CARTESIAN COORDINATES (ANGSTROEM)
---------------------------------
  C      4.084220    1.742080   -2.114720
  C      4.265240    2.500520   -0.795890
  H      4.868530    3.392670   -0.981130
  H      3.307640    2.824570   -0.387810
  C      4.982240    1.650260    0.247420
  O      4.368060    1.389270    1.313710
  O      6.128920    1.233510   -0.045620
  C      3.412750    0.376890   -1.965500
  H      5.068470    1.598500   -2.565730
  H      3.503360    2.363940   -2.804570
  H      3.324560   -0.084220   -2.927010
  H      2.439230    0.502870   -1.539720
  H      4.004460   -0.243550   -1.325310

 Total Charge           Charge          ....   -1
 Multiplicity           Mult            ....    1
 Number of Electrons    NEL             ....   48
 Basis Dimension        Dim             ....  119

ORBITAL ENERGIES
----------------

  NO   OCC          E(Eh)            E(eV)
   0   2.0000     -18.941892      -515.4351
   1   2.0000     -18.941250      -515.4176
   2   2.0000     -10.145739      -276.0796
   3   2.0000     -10.132843      -275.7287
   4   2.0000     -10.128458      -275.6094
   5   2.0000     -10.099432      -274.8195
   6   2.0000      -0.895762       -24.3749
   7   2.0000      -0.798048       -21.7160
   8   2.0000      -0.739072       -20.1112
   9   2.0000      -0.639505       -17.4018
  10   2.0000      -0.539924       -14.6921
  11   2.0000      -0.418999       -11.4015
  12   2.0000      -0.396658       -10.7936
  13   2.0000      -0.373747       -10.1702
  14   2.0000      -0.342215        -9.3121
  15   2.0000      -0.310924        -8.4607
  16   2.0000      -0.295984        -8.0541
  17   2.0000      -0.287746        -7.8300
  18   2.0000      -0.274754        -7.4764
  19   2.0000      -0.249077        -6.7777
  20   2.0000      -0.237546        -6.4640
  21   2.0000      -0.109477        -2.9790
  22   2.0000      -0.107085        -2.9139
  23   2.0000      -0.092012        -2.5038
  24   0.0000       0.284940         7.7536
  25   0.0000       0.328154         8.9295
  26   0.0000       0.337845         9.1932
  27   0.0000       0.358257         9.7487
  28   0.0000       0.363932         9.9031

MULLIKEN ATOMIC CHARGES
-----------------------
   0 C :   -0.085624
   1 C :    0.020890
   2 H :   -0.024517
   3 H :   -0.038303
   4 C :    0.039427
   5 O :   -0.447183
   6 O :   -0.454362
   7 C :   -0.003905
   8 H :    0.004993
   9 H :   -0.035159
  10 H :   -0.025384
  11 H :   -0.003627
  12 H :    0.052755
Sum of atomic charges:   -1.0000000

LOEWDIN ATOMIC CHARGES
----------------------
   0 C :   -0.044575
   1 C :   -0.091541
   2 H :    0.007968
   3 H :   -0.001803
   4 C :   -0.045824
   5 O :   -0.403814
   6 O :   -0.410233
   7 C :   -0.061135
   8 H :    0.013112
   9 H :   -0.005706
  10 H :    0.000806
  11 H :    0.011311
  12 H :    0.031434

  Mayer bond orders larger than 0.100000
B(  0-C ,  1-C ) :   1.0725 B(  0-C ,  7-C ) :   1.0890 B(  0-C ,  8-H ) :   0.9467
B(  0-C ,  9-H ) :   0.9549 B(  1-C ,  2-H ) :   0.9354 B(  1-C ,  3-H ) :   0.9372
B(  1-C ,  4-C ) :   0.9206 B(  4-C ,  5-O ) :   1.8628 B(  4-C ,  6-O ) :   1.8230
B(  5-O ,  6-O ) :   0.1072 B(  7-C , 10-H ) :   0.9695 B(  7-C , 11-H ) :   0.9723
B(  7-C , 12-H ) :   0.9664

Dispersion correction           -0.003443983
FINAL SINGLE POINT ENERGY      -306.822312256710

DIPOLE MOMENT
-------------
                                X             Y             Z
Electronic contribution:      3.80865       0.28572       6.16372
Nuclear contribution   :     -4.94481       0.08097      -8.10693
                        -----------------------------------------
Total Dipole Moment    :     -1.13615       0.36669      -1.94320
                        -----------------------------------------
Magnitude (a.u.)       :      2.28065
Magnitude (Debye)      :      5.79694

Rotational constants in cm-1:     0.192263     0.082741     0.079730
Rotational constants in MHz :  5763.914333  2480.509926  2390.233107

                             ****ORCA TERMINATED NORMALLY****
TOTAL RUN TIME: 0 days 0 hours 0 minutes 10 seconds 478 msec
