                         Program Version 5.0.0 -  RELEASE  -
|  1> !wB97X-D3 RIJCOSX def2-SVP def2/J TightSCF
|  2> *xyz 1 1
|  3> C          3.91385       -1.65829        3.01513
|  4> N          5.03927       -0.90115        2.49282
|  5> C          6.21038       -1.41726        2.17824
|  6> N          6.53591       -2.67712        2.55608
|  7> N          7.07675       -0.70082        1.47891
|  8> H          7.95464       -1.12155        1.20755
|  9> H          6.75616        0.10664        0.96028
| 10> H          4.84217        0.01761        2.11519
| 11> H          5.99388       -3.12692        3.28278
| 12> H          7.49844       -2.97548        2.46878
| 13> C          3.13916       -2.37657        1.91061
| 14> H          3.26723       -0.93940        3.52069
| 15> H          4.24720       -2.35509        3.79006
| 16> C          2.39995       -1.38958        1.00949
| 17> H          2.44075       -3.08712        2.36298
| 18> H          3.84448       -2.97046        1.31868
| 19> H          1.87065       -1.92698        0.25058
| 20> H          3.10498       -0.72749        0.55181
| 21> H          1.70633       -0.82279        1.59477
| 22> *
| 23> %MaxCore 64000
| 24> %pal nprocs 8
| 25> end
| 26> %scf
| 27>   MaxIter 150
| 28> end
| 29>
| 30>
| 31>                          ****END OF INPUT****

CARTESIAN COORDINATES (ANGSTROEM)
---------------------------------
  C      3.913850   -1.658290    3.015130
  N      5.039270   -0.901150    2.492820
  C      6.210380   -1.417260    2.178240
  N      6.535910   -2.677120    2.556080
  N      7.076750   -0.700820    1.478910
  H      7.954640   -1.121550    1.207550
  H      6.756160    0.106640    0.960280
  H      4.842170    0.017610    2.115190
  H      5.993880   -3.126920    3.282780
  H      7.498440   -2.975480    2.468780
  C      3.139160   -2.376570    1.910610
  H      3.267230   -0.939400    3.520690
  H      4.247200   -2.355090    3.790060
  C      2.399950   -1.389580    1.009490
  H      2.440750   -3.087120    2.362980
  H      3.844480   -2.970460    1.318680
  H      1.870650   -1.926980    0.250580
  H      3.104980   -0.727490    0.551810
  H      1.706330   -0.822790    1.594770

 Total Charge           Charge          ....    1
 Multiplicity           Mult            ....    1
 Number of Electrons    NEL             ....   56
 Basis Dimension        Dim             ....  158

ORBITAL ENERGIES
----------------

  NO   OCC          E(Eh)            E(eV)
   0   2.0000     -14.659130      -398.8952
   1   2.0000     -14.658516      -398.8785
   2   2.0000     -14.655663      -398.8009
   3   2.0000     -10.626180      -289.1531
   4   2.0000     -10.491868      -285.4983
   5   2.0000     -10.429377      -283.7978
   6   2.0000     -10.403124      -283.0834
   7   2.0000      -1.326683       -36.1009
   8   2.0000      -1.214505       -33.0484
   9   2.0000      -1.196479       -32.5578
  10   2.0000      -1.050474       -28.5849
  11   2.0000      -0.970016       -26.3955
  12   2.0000      -0.928052       -25.2536
  13   2.0000      -0.890506       -24.2319
  14   2.0000      -0.868292       -23.6274
  15   2.0000      -0.831368       -22.6227
  16   2.0000      -0.791665       -21.5423
  17   2.0000      -0.783802       -21.3283
  18   2.0000      -0.757530       -20.6134
  19   2.0000      -0.729700       -19.8561
  20   2.0000      -0.697545       -18.9812
  21   2.0000      -0.678341       -18.4586
  22   2.0000      -0.647319       -17.6144
  23   2.0000      -0.598994       -16.2995
  24   2.0000      -0.582225       -15.8432
  25   2.0000      -0.577943       -15.7266
  26   2.0000      -0.567406       -15.4399
  27   2.0000      -0.536307       -14.5937
  28   0.0000      -0.076369        -2.0781
  29   0.0000      -0.048378        -1.3164
  30   0.0000      -0.018050        -0.4912
  31   0.0000      -0.003977        -0.1082
  32   0.0000       0.015049         0.4095

MULLIKEN ATOMIC CHARGES
-----------------------
   0 C :    0.024632
   1 N :   -0.156128
   2 C :    0.103891
   3 N :   -0.094831
   4 N :   -0.058954
   5 H :    0.182946
   6 H :    0.184906
   7 H :    0.176684
   8 H :    0.178418
   9 H :    0.179918
  10 C :   -0.092335
  11 H :    0.082574
  12 H :    0.067421
  13 C :   -0.034311
  14 H :    0.078322
  15 H :    0.043756
  16 H :    0.075021
  17 H :    0.006929
  18 H :    0.051140
Sum of atomic charges:    1.0000000

LOEWDIN ATOMIC CHARGES
----------------------
   0 C :    0.039529
   1 N :    0.031192
   2 C :    0.160580
   3 N :    0.026117
   4 N :    0.042586
   5 H :    0.113011
   6 H :    0.113816
   7 H :    0.107242
   8 H :    0.106690
   9 H :    0.110893
  10 C :   -0.049217
  11 H :    0.049426
  12 H :    0.033916
  13 C :   -0.049310
  14 H :    0.046424
  15 H :    0.027198
  16 H :    0.044139
  17 H :    0.012901
  18 H :    0.032867

  Mayer bond orders larger than 0.100000
B(  0-C ,  1-N ) :   0.9227 B(  0-C , 10-C ) :   1.0475 B(  0-C , 11-H ) :   0.9505
B(  0-C , 12-H ) :   0.9586 B(  1-N ,  2-C ) :   1.3864 B(  1-N ,  7-H ) :   0.9086
B(  2-C ,  3-N ) :   1.3681 B(  2-C ,  4-N ) :   1.4007 B(  3-N ,  8-H ) :   0.9234
B(  3-N ,  9-H ) :   0.9263 B(  4-N ,  5-H ) :   0.9261 B(  4-N ,  6-H ) :   0.9244
B( 10-C , 13-C ) :   1.0696 B( 10-C , 14-H ) :   0.9495 B( 10-C , 15-H ) :   0.9516
B( 13-C , 16-H ) :   0.9712 B( 13-C , 17-H ) :   0.9760 B( 13-C , 18-H ) :   0.9771

Dispersion correction           -0.005320907
FINAL SINGLE POINT ENERGY      -323.396844523269

DIPOLE MOMENT
-------------
                                X             Y             Z
Electronic contribution:      6.98479       1.03015       1.46737
Nuclear contribution   :     -5.22950      -0.81973      -1.43960
                        -----------------------------------------
Total Dipole Moment    :      1.75528       0.21042       0.02777
                        -----------------------------------------
Magnitude (a.u.)       :      1.76807
Magnitude (Debye)      :      4.49407

Rotational constants in cm-1:     0.158118     0.049676     0.044442
Rotational constants in MHz :  4740.256785  1489.254255  1332.331442

                             ****ORCA TERMINATED NORMALLY****
TOTAL RUN TIME: 0 days 0 hours 0 minutes 16 seconds 456 msec
