                         Program Version 5.0.0 -  RELEASE  -
|  1> !wB97X-D3 RIJCOSX def2-SVP def2/J TightSCF
|  2> *xyz 0 1
|  3> C          4.08422        1.74208       -2.11472
|  4> C          4.26524        2.50052       -0.79589
|  5> H          4.86853        3.39267       -0.98113
|  6> H          3.30764        2.82457       -0.38781
|  7> C          4.98224        1.65026        0.24742
|  8> F          4.36806        1.38927        1.31371
|  9> O          6.12892        1.23351       -0.04562
| 10> C          3.41275        0.37689       -1.96550
| 11> H          5.06847        1.59850       -2.56573
| 12> H          3.50336        2.36394       -2.80457
| 13> H          3.32456       -0.08422       -2.92701
| 14> H          2.43923        0.50287       -1.53972
| 15> H          4.00446       -0.24355       -1.32531
| 16> *
| 17> %MaxCore 64000
| 18> %pal nprocs 8
| 19> end
| 20> %scf
| 21>   MaxIter 150
| 22> end
| 23>
| 24>
| 25>                          ****END OF INPUT****

CARTESIAN COORDINATES (ANGSTROEM)
---------------------------------
  C      4.084220    1.742080   -2.114720
  C      4.265240    2.500520   -0.795890
  H      4.868530    3.392670   -0.981130
  H      3.307640    2.824570   -0.387810
  C      4.982240    1.650260    0.247420
  F      4.368060    1.389270    1.313710
  O      6.128920    1.233510   -0.045620
  C      3.412750    0.376890   -1.965500
  H      5.068470    1.598500   -2.565730
  H      3.503360    2.363940   -2.804570
  H      3.324560   -0.084220   -2.927010
  H      2.439230    0.502870   -1.539720
  H      4.004460   -0.243550   -1.325310

 Total Charge           Charge          ....    0
 Multiplicity           Mult            ....    1
 Number of Electrons    NEL             ....   48
 Basis Dimension        Dim             ....  119

ORBITAL ENERGIES
----------------

  NO   OCC          E(Eh)            E(eV)
   0   2.0000     -24.857380      -676.4037
   1   2.0000     -19.239895      -523.5441
   2   2.0000     -10.462315      -284.6941
   3   2.0000     -10.315175      -280.6902
   4   2.0000     -10.302468      -280.3444
   5   2.0000     -10.282689      -279.8062
   6   2.0000      -1.411885       -38.4193
   7   2.0000      -1.132663       -30.8213
   8   2.0000      -0.924164       -25.1478
   9   2.0000      -0.836224       -22.7548
  10   2.0000      -0.762840       -20.7579
  11   2.0000      -0.713840       -19.4246
  12   2.0000      -0.648450       -17.6452
  13   2.0000      -0.631102       -17.1732
  14   2.0000      -0.607552       -16.5323
  15   2.0000      -0.563517       -15.3341
  16   2.0000      -0.553963       -15.0741
  17   2.0000      -0.516456       -14.0535
  18   2.0000      -0.496871       -13.5205
  19   2.0000      -0.466743       -12.7007
  20   2.0000      -0.450268       -12.2524
  21   2.0000      -0.441231       -12.0065
  22   2.0000      -0.433951       -11.8084
  23   2.0000      -0.382917       -10.4197
  24   0.0000       0.063102         1.7171
  25   0.0000       0.142612         3.8807
  26   0.0000       0.181605         4.9417
  27   0.0000       0.185887         5.0582
  28   0.0000       0.201443         5.4815

MULLIKEN ATOMIC CHARGES
-----------------------
   0 C :   -0.105782
   1 C :   -0.063705
   2 H :    0.076076
   3 H :    0.038892
   4 C :    0.245250
   5 F :   -0.084407
   6 O :   -0.272950
   7 C :   -0.039908
   8 H :    0.054329
   9 H :    0.039478
  10 H :    0.039200
  11 H :    0.026615
  12 H :    0.046911
Sum of atomic charges:    0.0000000

LOEWDIN ATOMIC CHARGES
----------------------
   0 C :   -0.032343
   1 C :   -0.073092
   2 H :    0.053685
   3 H :    0.027952
   4 C :    0.112591
   5 F :    0.038276
   6 O :   -0.206175
   7 C :   -0.057315
   8 H :    0.032314
   9 H :    0.028345
  10 H :    0.029649
  11 H :    0.021459
  12 H :    0.024652

  Mayer bond orders larger than 0.100000
B(  0-C ,  1-C ) :   1.0663 B(  0-C ,  7-C ) :   1.0856 B(  0-C ,  8-H ) :   0.9528
B(  0-C ,  9-H ) :   0.9586 B(  1-C ,  2-H ) :   0.9337 B(  1-C ,  3-H ) :   0.9408
B(  1-C ,  4-C ) :   0.9850 B(  4-C ,  5-F ) :   1.1904 B(  4-C ,  6-O ) :   2.0601
B(  7-C , 10-H ) :   0.9713 B(  7-C , 11-H ) :   0.9756 B(  7-C , 12-H ) :   0.9685

Dispersion correction           -0.003354679
FINAL SINGLE POINT ENERGY      -331.374107054583

DIPOLE MOMENT
-------------
                                X             Y             Z
Electronic contribution:      3.82800       0.33055       9.84882
Nuclear contribution   :     -4.74589       0.16790     -10.21257
                        -----------------------------------------
Total Dipole Moment    :     -0.91789       0.49845      -0.36375
                        -----------------------------------------
Magnitude (a.u.)       :      1.10602
Magnitude (Debye)      :      2.81129

Rotational constants in cm-1:     0.185977     0.079908     0.076069
Rotational constants in MHz :  5575.451195  2395.576856  2280.481791

                             ****ORCA TERMINATED NORMALLY****
TOTAL RUN TIME: 0 days 0 hours 0 minutes 10 seconds 30 msec
