                         Program Version 5.0.0 -  RELEASE  -
|  1> !wB97X-D3 RIJCOSX def2-SVP def2/J TightSCF
|  2> *xyz 0 1
|  3> C          3.91385       -1.65829        3.01513
|  4> C          5.03927       -0.90115        2.49282
|  5> C          6.21038       -1.41726        2.17824
|  6> N          6.53591       -2.67712        2.55608
|  7> N          7.07675       -0.70082        1.47891
|  8> H          7.95464       -1.12155        1.20755
|  9> H          6.75616        0.10664        0.96028
| 10> H          4.84217        0.01761        2.11519
| 11> H          5.99388       -3.12692        3.28278
| 12> H          7.49844       -2.97548        2.46878
| 13> C          3.13916       -2.37657        1.91061
| 14> H          3.26723       -0.93940        3.52069
| 15> H          4.24720       -2.35509        3.79006
| 16> C          2.39995       -1.38958        1.00949
| 17> H          2.44075       -3.08712        2.36298
| 18> H          3.84448       -2.97046        1.31868
| 19> H          1.87065       -1.92698        0.25058
| 20> H          3.10498       -0.72749        0.55181
| 21> H          1.70633       -0.82279        1.59477
| 22> *
| 23> %MaxCore 64000
| 24> %pal nprocs 8
| 25> end
| 26> %scf
| 27>   MaxIter 150
| 28> end
| 29>
| 30>
| 31>                          ****END OF INPUT****

CARTESIAN COORDINATES (ANGSTROEM)
---------------------------------
  C      3.913850   -1.658290    3.015130
  C      5.039270   -0.901150    2.492820
  C      6.210380   -1.417260    2.178240
  N      6.535910   -2.677120    2.556080
  N      7.076750   -0.700820    1.478910
  H      7.954640   -1.121550    1.207550
  H      6.756160    0.106640    0.960280
  H      4.842170    0.017610    2.115190
  H      5.993880   -3.126920    3.282780
  H      7.498440   -2.975480    2.468780
  C      3.139160   -2.376570    1.910610
  H      3.267230   -0.939400    3.520690
  H      4.247200   -2.355090    3.790060
  C      2.399950   -1.389580    1.009490
  H      2.440750   -3.087120    2.362980
  H      3.844480   -2.970460    1.318680
  H      1.870650   -1.926980    0.250580
  H      3.104980   -0.727490    0.551810
  H      1.706330   -0.822790    1.594770

 Total Charge           Charge          ....    0
 Multiplicity           Mult            ....    1
 Number of Electrons    NEL             ....   56
 Basis Dimension        Dim             ....  158

ORBITAL ENERGIES
----------------

  NO   OCC          E(Eh)            E(eV)
   0   2.0000     -14.429882      -392.6570
   1   2.0000     -14.428183      -392.6108
   2   2.0000     -10.327135      -281.0156
   3   2.0000     -10.259634      -279.1788
   4   2.0000     -10.256952      -279.1059
   5   2.0000     -10.253462      -279.0109
   6   2.0000     -10.200291      -277.5640
   7   2.0000      -1.063059       -28.9273
   8   2.0000      -0.969744       -26.3881
   9   2.0000      -0.891710       -24.2647
  10   2.0000      -0.823605       -22.4114
  11   2.0000      -0.758379       -20.6365
  12   2.0000      -0.694106       -18.8876
  13   2.0000      -0.666921       -18.1478
  14   2.0000      -0.637059       -17.3352
  15   2.0000      -0.603769       -16.4294
  16   2.0000      -0.566687       -15.4203
  17   2.0000      -0.535715       -14.5775
  18   2.0000      -0.532534       -14.4910
  19   2.0000      -0.501099       -13.6356
  20   2.0000      -0.484535       -13.1849
  21   2.0000      -0.461303       -12.5527
  22   2.0000      -0.449783       -12.2392
  23   2.0000      -0.418349       -11.3839
  24   2.0000      -0.402027       -10.9397
  25   2.0000      -0.398012       -10.8305
  26   2.0000      -0.354289        -9.6407
  27   2.0000      -0.238641        -6.4938
  28   0.0000       0.131377         3.5749
  29   0.0000       0.161329         4.3900
  30   0.0000       0.161999         4.4082
  31   0.0000       0.186509         5.0752
  32   0.0000       0.194040         5.2801

MULLIKEN ATOMIC CHARGES
-----------------------
   0 C :    0.042376
   1 C :   -0.211272
   2 C :   -0.005551
   3 N :   -0.130730
   4 N :   -0.097915
   5 H :    0.110230
   6 H :    0.134057
   7 H :   -0.080131
   8 H :    0.127964
   9 H :    0.112233
  10 C :   -0.039003
  11 H :    0.002098
  12 H :   -0.015231
  13 C :   -0.016024
  14 H :    0.005222
  15 H :    0.012934
  16 H :    0.018092
  17 H :    0.016864
  18 H :    0.013785
Sum of atomic charges:    0.0000000

LOEWDIN ATOMIC CHARGES
----------------------
   0 C :   -0.041056
   1 C :   -0.224128
   2 C :    0.035424
   3 N :   -0.042304
   4 N :   -0.027576
   5 H :    0.066118
   6 H :    0.084807
   7 H :   -0.010387
   8 H :    0.077974
   9 H :    0.065931
  10 C :   -0.043300
  11 H :    0.022863
  12 H :    0.008233
  13 C :   -0.055790
  14 H :    0.011192
  15 H :    0.017055
  16 H :    0.019134
  17 H :    0.017788
  18 H :    0.018021

  Mayer bond orders larger than 0.100000
B(  0-C ,  1-C ) :   1.0625 B(  0-C , 10-C ) :   1.0550 B(  0-C , 11-H ) :   0.9300
B(  0-C , 12-H ) :   0.9422 B(  1-C ,  2-C ) :   1.7091 B(  1-C ,  7-H ) :   0.9591
B(  2-C ,  3-N ) :   1.2296 B(  2-C ,  4-N ) :   1.2319 B(  3-N ,  8-H ) :   0.9413
B(  3-N ,  9-H ) :   0.9511 B(  4-N ,  5-H ) :   0.9526 B(  4-N ,  6-H ) :   0.9422
B( 10-C , 13-C ) :   1.0831 B( 10-C , 14-H ) :   0.9537 B( 10-C , 15-H ) :   0.9552
B( 13-C , 16-H ) :   0.9726 B( 13-C , 17-H ) :   0.9746 B( 13-C , 18-H ) :   0.9743

Dispersion correction           -0.005293992
FINAL SINGLE POINT ENERGY      -306.922898201589

DIPOLE MOMENT
-------------
                                X             Y             Z
Electronic contribution:      6.28915       0.35757       1.04778
Nuclear contribution   :     -5.20491      -0.66934      -1.34917
                        -----------------------------------------
Total Dipole Moment    :      1.08424      -0.31177      -0.30139
                        -----------------------------------------
Magnitude (a.u.)       :      1.16774
Magnitude (Debye)      :      2.96817

Rotational constants in cm-1:     0.160002     0.049848     0.044470
Rotational constants in MHz :  4796.743477  1494.412607  1333.165890

                             ****ORCA TERMINATED NORMALLY****
TOTAL RUN TIME: 0 days 0 hours 0 minutes 16 seconds 621 msec
