                         Program Version 5.0.0 -  RELEASE  -
|  1> !wB97X-D3 RIJCOSX def2-SVP def2/J TightSCF
|  2> *xyz 0 1
|  3> C          4.08422        1.74208       -2.11472
|  4> C          4.26524        2.50052       -0.79589
|  5> H          4.86853        3.39267       -0.98113
|  6> H          3.30764        2.82457       -0.38781
|  7> C          4.98224        1.65026        0.24742
|  8> O          4.36806        1.38927        1.31371
|  9> F          6.12892        1.23351       -0.04562
| 10> C          3.41275        0.37689       -1.96550
| 11> H          5.06847        1.59850       -2.56573
| 12> H          3.50336        2.36394       -2.80457
| 13> H          3.32456       -0.08422       -2.92701
| 14> H          2.43923        0.50287       -1.53972
| 15> H          4.00446       -0.24355       -1.32531
| 16> *
| 17> %MaxCore 64000
| 18> %pal nprocs 8
| 19> end
| 20> %scf
| 21>   MaxIter 150
| 22> end
| 23>
| 24>
| 25>                          ****END OF INPUT****

CARTESIAN COORDINATES (ANGSTROEM)
---------------------------------
  C      4.084220    1.742080   -2.114720
  C      4.265240    2.500520   -0.795890
  H      4.868530    3.392670   -0.981130
  H      3.307640    2.824570   -0.387810
  C      4.982240    1.650260    0.247420
  O      4.368060    1.389270    1.313710
  F      6.128920    1.233510   -0.045620
  C      3.412750    0.376890   -1.965500
  H      5.068470    1.598500   -2.565730
  H      3.503360    2.363940   -2.804570
  H      3.324560   -0.084220   -2.927010
  H      2.439230    0.502870   -1.539720
  H      4.004460   -0.243550   -1.325310

 Total Charge           Charge          ....    0
 Multiplicity           Mult            ....    1
 Number of Electrons    NEL             ....   48
 Basis Dimension        Dim             ....  119

ORBITAL ENERGIES
----------------

  NO   OCC          E(Eh)            E(eV)
   0   2.0000     -24.859338      -676.4570
   1   2.0000     -19.238935      -523.5180
   2   2.0000     -10.461441      -284.6703
   3   2.0000     -10.314365      -280.6681
   4   2.0000     -10.306488      -280.4538
   5   2.0000     -10.284535      -279.8564
   6   2.0000      -1.415090       -38.5066
   7   2.0000      -1.129013       -30.7220
   8   2.0000      -0.927986       -25.2518
   9   2.0000      -0.836375       -22.7589
  10   2.0000      -0.761798       -20.7296
  11   2.0000      -0.718609       -19.5543
  12   2.0000      -0.652619       -17.7587
  13   2.0000      -0.640321       -17.4240
  14   2.0000      -0.590725       -16.0745
  15   2.0000      -0.571306       -15.5460
  16   2.0000      -0.556365       -15.1395
  17   2.0000      -0.515716       -14.0334
  18   2.0000      -0.494111       -13.4454
  19   2.0000      -0.467975       -12.7343
  20   2.0000      -0.459064       -12.4918
  21   2.0000      -0.444127       -12.0853
  22   2.0000      -0.435854       -11.8602
  23   2.0000      -0.377309       -10.2671
  24   0.0000       0.067428         1.8348
  25   0.0000       0.138532         3.7696
  26   0.0000       0.181366         4.9352
  27   0.0000       0.184418         5.0183
  28   0.0000       0.201480         5.4826

MULLIKEN ATOMIC CHARGES
-----------------------
   0 C :   -0.137338
   1 C :   -0.052741
   2 H :    0.060680
   3 H :    0.064561
   4 C :    0.240308
   5 O :   -0.268120
   6 F :   -0.084881
   7 C :   -0.025515
   8 H :    0.040790
   9 H :    0.044666
  10 H :    0.038161
  11 H :    0.037053
  12 H :    0.042377
Sum of atomic charges:   -0.0000000

LOEWDIN ATOMIC CHARGES
----------------------
   0 C :   -0.042658
   1 C :   -0.069112
   2 H :    0.042745
   3 H :    0.044628
   4 C :    0.109264
   5 O :   -0.203726
   6 F :    0.039688
   7 C :   -0.054705
   8 H :    0.024769
   9 H :    0.030283
  10 H :    0.028411
  11 H :    0.027101
  12 H :    0.023313

  Mayer bond orders larger than 0.100000
B(  0-C ,  1-C ) :   1.0516 B(  0-C ,  7-C ) :   1.0808 B(  0-C ,  8-H ) :   0.9565
B(  0-C ,  9-H ) :   0.9576 B(  1-C ,  2-H ) :   0.9352 B(  1-C ,  3-H ) :   0.9497
B(  1-C ,  4-C ) :   0.9951 B(  4-C ,  5-O ) :   2.0802 B(  4-C ,  6-F ) :   1.1788
B(  7-C , 10-H ) :   0.9718 B(  7-C , 11-H ) :   0.9751 B(  7-C , 12-H ) :   0.9674

Dispersion correction           -0.003364086
FINAL SINGLE POINT ENERGY      -331.373145599558

DIPOLE MOMENT
-------------
                                X             Y             Z
Electronic contribution:      6.77304       0.06345       7.55011
Nuclear contribution   :     -6.73491       0.34384      -8.67711
                        -----------------------------------------
Total Dipole Moment    :      0.03813       0.40730      -1.12700
                        -----------------------------------------
Magnitude (a.u.)       :      1.19894
Magnitude (Debye)      :      3.04747

Rotational constants in cm-1:     0.183378     0.080817     0.077085
Rotational constants in MHz :  5497.543257  2422.830825  2310.936171

                             ****ORCA TERMINATED NORMALLY****
TOTAL RUN TIME: 0 days 0 hours 0 minutes 10 seconds 40 msec
