                         Program Version 5.0.0 -  RELEASE  -
|  1> !wB97X-D3 RIJCOSX def2-SVP def2/J TightSCF
|  2> *xyz 0 1
|  3> C          3.91385       -1.65829        3.01513
|  4> N          5.03927       -0.90115        2.49282
|  5> C          6.21038       -1.41726        2.17824
|  6> C          6.53591       -2.67712        2.55608
|  7> N          7.07675       -0.70082        1.47891
|  8> H          7.95464       -1.12155        1.20755
|  9> H          6.75616        0.10664        0.96028
| 10> H          4.84217        0.01761        2.11519
| 11> H          5.99388       -3.12692        3.28278
| 12> H          7.49844       -2.97548        2.46878
| 13> C          3.13916       -2.37657        1.91061
| 14> H          3.26723       -0.93940        3.52069
| 15> H          4.24720       -2.35509        3.79006
| 16> C          2.39995       -1.38958        1.00949
| 17> H          2.44075       -3.08712        2.36298
| 18> H          3.84448       -2.97046        1.31868
| 19> H          1.87065       -1.92698        0.25058
| 20> H          3.10498       -0.72749        0.55181
| 21> H          1.70633       -0.82279        1.59477
| 22> *
| 23> %MaxCore 64000
| 24> %pal nprocs 8
| 25> end
| 26> %scf
| 27>   MaxIter 150
| 28> end
| 29>
| 30>
| 31>                          ****END OF INPUT****

CARTESIAN COORDINATES (ANGSTROEM)
---------------------------------
  C      3.913850   -1.658290    3.015130
  N      5.039270   -0.901150    2.492820
  C      6.210380   -1.417260    2.178240
  C      6.535910   -2.677120    2.556080
  N      7.076750   -0.700820    1.478910
  H      7.954640   -1.121550    1.207550
  H      6.756160    0.106640    0.960280
  H      4.842170    0.017610    2.115190
  H      5.993880   -3.126920    3.282780
  H      7.498440   -2.975480    2.468780
  C      3.139160   -2.376570    1.910610
  H      3.267230   -0.939400    3.520690
  H      4.247200   -2.355090    3.790060
  C      2.399950   -1.389580    1.009490
  H      2.440750   -3.087120    2.362980
  H      3.844480   -2.970460    1.318680
  H      1.870650   -1.926980    0.250580
  H      3.104980   -0.727490    0.551810
  H      1.706330   -0.822790    1.594770

 Total Charge           Charge          ....    0
 Multiplicity           Mult            ....    1
 Number of Electrons    NEL             ....   56
 Basis Dimension        Dim             ....  158

ORBITAL ENERGIES
----------------

  NO   OCC          E(Eh)            E(eV)
   0   2.0000     -14.434446      -392.7812
   1   2.0000     -14.431757      -392.7081
   2   2.0000     -10.333214      -281.1811
   3   2.0000     -10.316967      -280.7390
   4   2.0000     -10.277868      -279.6750
   5   2.0000     -10.273442      -279.5546
   6   2.0000     -10.192484      -277.3516
   7   2.0000      -1.078229       -29.3401
   8   2.0000      -0.992637       -27.0110
   9   2.0000      -0.886655       -24.1271
  10   2.0000      -0.811063       -22.0701
  11   2.0000      -0.794056       -21.6074
  12   2.0000      -0.710229       -19.3263
  13   2.0000      -0.655816       -17.8457
  14   2.0000      -0.649940       -17.6858
  15   2.0000      -0.617623       -16.8064
  16   2.0000      -0.572640       -15.5823
  17   2.0000      -0.548180       -14.9167
  18   2.0000      -0.528276       -14.3751
  19   2.0000      -0.501654       -13.6507
  20   2.0000      -0.492795       -13.4096
  21   2.0000      -0.473974       -12.8975
  22   2.0000      -0.458452       -12.4751
  23   2.0000      -0.441228       -12.0064
  24   2.0000      -0.431194       -11.7334
  25   2.0000      -0.427254       -11.6262
  26   2.0000      -0.339232        -9.2310
  27   2.0000      -0.242543        -6.5999
  28   0.0000       0.125454         3.4138
  29   0.0000       0.158457         4.3118
  30   0.0000       0.168593         4.5876
  31   0.0000       0.180610         4.9147
  32   0.0000       0.191592         5.2135

MULLIKEN ATOMIC CHARGES
-----------------------
   0 C :    0.090337
   1 N :   -0.199308
   2 C :   -0.004176
   3 C :   -0.137738
   4 N :   -0.110473
   5 H :    0.136438
   6 H :    0.111678
   7 H :    0.111691
   8 H :   -0.041140
   9 H :   -0.049816
  10 C :   -0.066951
  11 H :    0.016875
  12 H :    0.047858
  13 C :   -0.028478
  14 H :    0.024687
  15 H :    0.043021
  16 H :    0.033754
  17 H :    0.005458
  18 H :    0.016281
Sum of atomic charges:   -0.0000000

LOEWDIN ATOMIC CHARGES
----------------------
   0 C :    0.043972
   1 N :   -0.028050
   2 C :    0.045047
   3 C :   -0.282739
   4 N :   -0.024285
   5 H :    0.086612
   6 H :    0.065901
   7 H :    0.065668
   8 H :   -0.009812
   9 H :   -0.010779
  10 C :   -0.052857
  11 H :    0.020072
  12 H :    0.030101
  13 C :   -0.058980
  14 H :    0.023115
  15 H :    0.030651
  16 H :    0.025676
  17 H :    0.012444
  18 H :    0.018241

  Mayer bond orders larger than 0.100000
B(  0-C ,  1-N ) :   0.9912 B(  0-C , 10-C ) :   1.0620 B(  0-C , 11-H ) :   0.9600
B(  0-C , 12-H ) :   0.9506 B(  1-N ,  2-C ) :   1.1842 B(  1-N ,  7-H ) :   0.9377
B(  2-C ,  3-C ) :   1.7205 B(  2-C ,  4-N ) :   1.2388 B(  3-C ,  8-H ) :   0.9496
B(  3-C ,  9-H ) :   0.9507 B(  4-N ,  5-H ) :   0.9447 B(  4-N ,  6-H ) :   0.9523
B( 10-C , 13-C ) :   1.0724 B( 10-C , 14-H ) :   0.9534 B( 10-C , 15-H ) :   0.9477
B( 13-C , 16-H ) :   0.9744 B( 13-C , 17-H ) :   0.9742 B( 13-C , 18-H ) :   0.9763

Dispersion correction           -0.005320703
FINAL SINGLE POINT ENERGY      -306.914669641136

DIPOLE MOMENT
-------------
                                X             Y             Z
Electronic contribution:      4.56830       2.07830       0.83712
Nuclear contribution   :     -4.87706      -1.05838      -1.33532
                        -----------------------------------------
Total Dipole Moment    :     -0.30876       1.01992      -0.49820
                        -----------------------------------------
Magnitude (a.u.)       :      1.17634
Magnitude (Debye)      :      2.99002

Rotational constants in cm-1:     0.163042     0.050484     0.045356
Rotational constants in MHz :  4887.864082  1513.473419  1359.735450

                             ****ORCA TERMINATED NORMALLY****
TOTAL RUN TIME: 0 days 0 hours 0 minutes 16 seconds 674 msec
