                         Program Version 5.0.0 -  RELEASE  -
|  1> !wB97X-D3 RIJCOSX def2-SVP def2/J TightSCF
|  2> *xyz 0 1
|  3> C          3.91385       -1.65829        3.01513
|  4> N          5.03927       -0.90115        2.49282
|  5> C          6.21038       -1.41726        2.17824
|  6> N          6.53591       -2.67712        2.55608
|  7> C          7.07675       -0.70082        1.47891
|  8> H          7.95464       -1.12155        1.20755
|  9> H          6.75616        0.10664        0.96028
| 10> H          4.84217        0.01761        2.11519
| 11> H          5.99388       -3.12692        3.28278
| 12> H          7.49844       -2.97548        2.46878
| 13> C          3.13916       -2.37657        1.91061
| 14> H          3.26723       -0.93940        3.52069
| 15> H          4.24720       -2.35509        3.79006
| 16> C          2.39995       -1.38958        1.00949
| 17> H          2.44075       -3.08712        2.36298
| 18> H          3.84448       -2.97046        1.31868
| 19> H          1.87065       -1.92698        0.25058
| 20> H          3.10498       -0.72749        0.55181
| 21> H          1.70633       -0.82279        1.59477
| 22> *
| 23> %MaxCore 64000
| 24> %pal nprocs 8
| 25> end
| 26> %scf
| 27>   MaxIter 150
| 28> end
| 29>
| 30>
| 31>                          ****END OF INPUT****

CARTESIAN COORDINATES (ANGSTROEM)
---------------------------------
  C      3.913850   -1.658290    3.015130
  N      5.039270   -0.901150    2.492820
  C      6.210380   -1.417260    2.178240
  N      6.535910   -2.677120    2.556080
  C      7.076750   -0.700820    1.478910
  H      7.954640   -1.121550    1.207550
  H      6.756160    0.106640    0.960280
  H      4.842170    0.017610    2.115190
  H      5.993880   -3.126920    3.282780
  H      7.498440   -2.975480    2.468780
  C      3.139160   -2.376570    1.910610
  H      3.267230   -0.939400    3.520690
  H      4.247200   -2.355090    3.790060
  C      2.399950   -1.389580    1.009490
  H      2.440750   -3.087120    2.362980
  H      3.844480   -2.970460    1.318680
  H      1.870650   -1.926980    0.250580
  H      3.104980   -0.727490    0.551810
  H      1.706330   -0.822790    1.594770

 Total Charge           Charge          ....    0
 Multiplicity           Mult            ....    1
 Number of Electrons    NEL             ....   56
 Basis Dimension        Dim             ....  158

ORBITAL ENERGIES
----------------

  NO   OCC          E(Eh)            E(eV)
   0   2.0000     -14.430431      -392.6720
   1   2.0000     -14.428739      -392.6259
   2   2.0000     -10.329896      -281.0908
   3   2.0000     -10.326122      -280.9881
   4   2.0000     -10.285954      -279.8950
   5   2.0000     -10.276539      -279.6388
   6   2.0000     -10.192366      -277.3484
   7   2.0000      -1.073298       -29.2059
   8   2.0000      -0.984498       -26.7896
   9   2.0000      -0.897301       -24.4168
  10   2.0000      -0.829764       -22.5790
  11   2.0000      -0.772715       -21.0266
  12   2.0000      -0.712876       -19.3983
  13   2.0000      -0.688658       -18.7393
  14   2.0000      -0.631569       -17.1859
  15   2.0000      -0.599173       -16.3043
  16   2.0000      -0.572190       -15.5701
  17   2.0000      -0.557652       -15.1745
  18   2.0000      -0.537203       -14.6180
  19   2.0000      -0.507545       -13.8110
  20   2.0000      -0.489189       -13.3115
  21   2.0000      -0.483175       -13.1479
  22   2.0000      -0.458507       -12.4766
  23   2.0000      -0.443105       -12.0575
  24   2.0000      -0.439851       -11.9690
  25   2.0000      -0.434736       -11.8298
  26   2.0000      -0.342429        -9.3180
  27   2.0000      -0.243031        -6.6132
  28   0.0000       0.129627         3.5273
  29   0.0000       0.149695         4.0734
  30   0.0000       0.165105         4.4927
  31   0.0000       0.180423         4.9095
  32   0.0000       0.187408         5.0996

MULLIKEN ATOMIC CHARGES
-----------------------
   0 C :    0.061594
   1 N :   -0.180754
   2 C :    0.007421
   3 N :   -0.139955
   4 C :   -0.123064
   5 H :   -0.047442
   6 H :   -0.043666
   7 H :    0.132799
   8 H :    0.109950
   9 H :    0.133891
  10 C :   -0.063502
  11 H :    0.024155
  12 H :    0.023136
  13 C :   -0.032200
  14 H :    0.022353
  15 H :    0.037005
  16 H :    0.035418
  17 H :    0.024051
  18 H :    0.018810
Sum of atomic charges:   -0.0000000

LOEWDIN ATOMIC CHARGES
----------------------
   0 C :    0.029866
   1 N :   -0.028774
   2 C :    0.047374
   3 N :   -0.040074
   4 C :   -0.263576
   5 H :   -0.008915
   6 H :   -0.008528
   7 H :    0.084456
   8 H :    0.062177
   9 H :    0.084580
  10 C :   -0.057081
  11 H :    0.023865
  12 H :    0.016854
  13 C :   -0.056402
  14 H :    0.021144
  15 H :    0.027018
  16 H :    0.026653
  17 H :    0.019800
  18 H :    0.019563

  Mayer bond orders larger than 0.100000
B(  0-C ,  1-N ) :   1.0123 B(  0-C , 10-C ) :   1.0429 B(  0-C , 11-H ) :   0.9575
B(  0-C , 12-H ) :   0.9583 B(  1-N ,  2-C ) :   1.1943 B(  1-N ,  7-H ) :   0.9286
B(  2-C ,  3-N ) :   1.2014 B(  2-C ,  4-C ) :   1.7607 B(  3-N ,  8-H ) :   0.9523
B(  3-N ,  9-H ) :   0.9452 B(  4-C ,  5-H ) :   0.9494 B(  4-C ,  6-H ) :   0.9504
B( 10-C , 13-C ) :   1.0743 B( 10-C , 14-H ) :   0.9511 B( 10-C , 15-H ) :   0.9500
B( 13-C , 16-H ) :   0.9742 B( 13-C , 17-H ) :   0.9756 B( 13-C , 18-H ) :   0.9768

Dispersion correction           -0.005364493
FINAL SINGLE POINT ENERGY      -306.915349219945

DIPOLE MOMENT
-------------
                                X             Y             Z
Electronic contribution:      3.99679       0.06105       2.09876
Nuclear contribution   :     -4.75859      -0.62546      -1.57128
                        -----------------------------------------
Total Dipole Moment    :     -0.76180      -0.56441       0.52748
                        -----------------------------------------
Magnitude (a.u.)       :      1.08496
Magnitude (Debye)      :      2.75774

Rotational constants in cm-1:     0.161886     0.051080     0.045854
Rotational constants in MHz :  4853.220099  1531.326912  1374.680035

                             ****ORCA TERMINATED NORMALLY****
TOTAL RUN TIME: 0 days 0 hours 0 minutes 16 seconds 951 msec
