                         Program Version 5.0.0 -  RELEASE  -
|  1> !wB97X-D3 RIJCOSX def2-SVP def2/J TightSCF xyzfile
|  2>
|  3> *xyzfile 0 1 D2.xyz
|  4>
|  5> %MaxCore 64000
|  6>
|  7> %pal nprocs 18
|  8> end
|  9>
| 10> %scf
| 11>   MaxIter 150
| 12> end
| 13>
| 14>
| 15>                          ****END OF INPUT****

CARTESIAN COORDINATES (ANGSTROEM)
---------------------------------
  C      3.913853   -1.658291    3.015134
  N      5.039266   -0.901154    2.492821
  C      4.084215    1.742081   -2.114724
  C      4.265245    2.500518   -0.795890
  H      4.868534    3.392674   -0.981134
  H      3.307640    2.824571   -0.387809
  C      4.982240    1.650257    0.247422
  C      6.210384   -1.417261    2.178244
  C      6.535913   -2.677122    2.556078
  N      7.076754   -0.700820    1.478906
  H      7.954643   -1.121554    1.207554
  H      6.756161    0.106637    0.960278
  H      4.842168    0.017609    2.115191
  H      5.993876   -3.126918    3.282784
  H      7.498441   -2.975482    2.468776
  F      4.368065    1.389270    1.313706
  O      6.128919    1.233512   -0.045620
  C      3.139159   -2.376572    1.910609
  H      3.267235   -0.939401    3.520693
  H      4.247195   -2.355095    3.790065
  C      1.997274    0.430918   -1.399218
  C      3.412746    0.376886   -1.965497
  H      4.047407   -0.246590   -1.326706
  H      3.390774   -0.118719   -2.942839
  H      5.068475    1.598504   -2.565728
  H      3.503356    2.363939   -2.804565
  C      2.399946   -1.389579    1.009490
  H      2.440750   -3.087118    2.362976
  H      3.844475   -2.970462    1.318677
  C      2.070177   -1.936705   -0.372401
  H      1.481611   -1.061542    1.509912
  H      3.008628   -0.490001    0.897451
  C      1.322238   -0.935775   -1.256413
  H      1.472747   -2.850902   -0.283997
  H      3.003539   -2.234041   -0.862535
  H      1.376444    1.058920   -2.047420
  H      2.015341    0.929780   -0.426535
  H      0.316648   -0.787213   -0.848278
  H      1.185611   -1.379252   -2.248613

 Total Charge           Charge          ....    0
 Multiplicity           Mult            ....    1
 Number of Electrons    NEL             ....  126
 Basis Dimension        Dim             ....  339

ORBITAL ENERGIES
----------------

  NO   OCC          E(Eh)            E(eV)
   0   2.0000     -24.909577      -677.8240
   1   2.0000     -19.286411      -524.8099
   2   2.0000     -14.409765      -392.1096
   3   2.0000     -14.386752      -391.4834
   4   2.0000     -10.507717      -285.9295
   5   2.0000     -10.339752      -281.3590
   6   2.0000     -10.318290      -280.7749
   7   2.0000     -10.308874      -280.5187
   8   2.0000     -10.306345      -280.4499
   9   2.0000     -10.302268      -280.3390
  10   2.0000     -10.296972      -280.1949
  11   2.0000     -10.289731      -279.9978
  12   2.0000     -10.283213      -279.8205
  13   2.0000     -10.281482      -279.7733
  14   2.0000     -10.270874      -279.4847
  15   2.0000     -10.170352      -276.7493
  16   2.0000      -1.465926       -39.8899
  17   2.0000      -1.183941       -32.2167
  18   2.0000      -1.053960       -28.6797
  19   2.0000      -0.966116       -26.2894
  20   2.0000      -0.955992       -26.0139
  21   2.0000      -0.923240       -25.1226
  22   2.0000      -0.887023       -24.1371
  23   2.0000      -0.852446       -23.1962
  24   2.0000      -0.823052       -22.3964
  25   2.0000      -0.797993       -21.7145
  26   2.0000      -0.781456       -21.2645
  27   2.0000      -0.761641       -20.7253
  28   2.0000      -0.726655       -19.7733
  29   2.0000      -0.703870       -19.1533
  30   2.0000      -0.696238       -18.9456
  31   2.0000      -0.684476       -18.6256
  32   2.0000      -0.672116       -18.2892
  33   2.0000      -0.653061       -17.7707
  34   2.0000      -0.632930       -17.2229
  35   2.0000      -0.611541       -16.6409
  36   2.0000      -0.598575       -16.2881
  37   2.0000      -0.590679       -16.0732
  38   2.0000      -0.587965       -15.9993
  39   2.0000      -0.568245       -15.4627
  40   2.0000      -0.554450       -15.0873
  41   2.0000      -0.546824       -14.8798
  42   2.0000      -0.533446       -14.5158
  43   2.0000      -0.527902       -14.3649
  44   2.0000      -0.517401       -14.0792
  45   2.0000      -0.506820       -13.7913
  46   2.0000      -0.499471       -13.5913
  47   2.0000      -0.488488       -13.2924
  48   2.0000      -0.477732       -12.9998
  49   2.0000      -0.472109       -12.8467
  50   2.0000      -0.464067       -12.6279
  51   2.0000      -0.457459       -12.4481
  52   2.0000      -0.453525       -12.3410
  53   2.0000      -0.439263       -11.9530
  54   2.0000      -0.437278       -11.8989
  55   2.0000      -0.432156       -11.7596
  56   2.0000      -0.421748       -11.4764
  57   2.0000      -0.410688       -11.1754
  58   2.0000      -0.409631       -11.1466
  59   2.0000      -0.407016       -11.0755
  60   2.0000      -0.402106       -10.9418
  61   2.0000      -0.313261        -8.5243
  62   2.0000      -0.220394        -5.9972
  63   0.0000       0.021492         0.5848
  64   0.0000       0.121686         3.3112
  65   0.0000       0.144094         3.9210
  66   0.0000       0.147286         4.0079
  67   0.0000       0.151818         4.1312

MULLIKEN ATOMIC CHARGES
-----------------------
   0 C :    0.111705
   1 N :   -0.217862
   2 C :   -0.025692
   3 C :   -0.037566
   4 H :    0.085399
   5 H :    0.055384
   6 C :    0.281752
   7 C :    0.001840
   8 C :   -0.151660
   9 N :   -0.120842
  10 H :    0.122333
  11 H :    0.102358
  12 H :    0.109154
  13 H :   -0.054175
  14 H :   -0.058838
  15 F :   -0.076849
  16 O :   -0.266821
  17 C :    0.013000
  18 H :    0.006798
  19 H :    0.042285
  20 C :   -0.063683
  21 C :   -0.081980
  22 H :    0.043580
  23 H :    0.035200
  24 H :    0.055802
  25 H :    0.041977
  26 C :   -0.062528
  27 H :    0.018004
  28 H :    0.032068
  29 C :   -0.047090
  30 H :    0.013239
  31 H :   -0.048445
  32 C :    0.008956
  33 H :    0.026180
  34 H :    0.030369
  35 H :    0.021365
  36 H :    0.012473
  37 H :    0.021478
  38 H :    0.021332
Sum of atomic charges:   -0.0000000

LOEWDIN ATOMIC CHARGES
----------------------
   0 C :    0.045571
   1 N :   -0.040597
   2 C :   -0.023420
   3 C :   -0.061127
   4 H :    0.059770
   5 H :    0.033431
   6 C :    0.149282
   7 C :    0.045754
   8 C :   -0.302705
   9 N :   -0.036897
  10 H :    0.078153
  11 H :    0.016710
  12 H :    0.029217
  13 H :   -0.015629
  14 H :   -0.014488
  15 F :    0.082366
  16 O :   -0.151773
  17 C :   -0.045956
  18 H :    0.016957
  19 H :    0.028606
  20 C :   -0.045479
  21 C :   -0.045347
  22 H :    0.021899
  23 H :    0.032125
  24 H :    0.035569
  25 H :    0.032089
  26 C :   -0.046514
  27 H :    0.022425
  28 H :    0.029898
  29 C :   -0.040299
  30 H :    0.019362
  31 H :   -0.003978
  32 C :   -0.036391
  33 H :    0.026130
  34 H :    0.021869
  35 H :    0.024350
  36 H :    0.011860
  37 H :    0.023878
  38 H :    0.023331

  Mayer bond orders larger than 0.100000
B(  0-C ,  1-N ) :   1.0034 B(  0-C , 17-C ) :   1.0668 B(  0-C , 18-H ) :   0.9559
B(  0-C , 19-H ) :   0.9476 B(  1-N ,  7-C ) :   1.1758 B(  1-N , 12-H ) :   0.9204
B(  2-C ,  3-C ) :   1.0577 B(  2-C , 21-C ) :   1.0870 B(  2-C , 24-H ) :   0.9482
B(  2-C , 25-H ) :   0.9514 B(  3-C ,  4-H ) :   0.9265 B(  3-C ,  5-H ) :   0.9351
B(  3-C ,  6-C ) :   0.9946 B(  6-C , 15-F ) :   1.1146 B(  6-C , 16-O ) :   1.9509
B(  7-C ,  8-C ) :   1.7021 B(  7-C ,  9-N ) :   1.2688 B(  8-C , 13-H ) :   0.9460
B(  8-C , 14-H ) :   0.9505 B(  9-N , 10-H ) :   0.9451 B(  9-N , 11-H ) :   0.9102
B( 11-H , 16-O ) :   0.1180 B( 17-C , 26-C ) :   1.0555 B( 17-C , 27-H ) :   0.9455
B( 17-C , 28-H ) :   0.9422 B( 20-C , 21-C ) :   1.0464 B( 20-C , 32-C ) :   1.0807
B( 20-C , 35-H ) :   0.9473 B( 20-C , 36-H ) :   0.9402 B( 21-C , 22-H ) :   0.9349
B( 21-C , 23-H ) :   0.9430 B( 26-C , 29-C ) :   1.0638 B( 26-C , 30-H ) :   0.9446
B( 26-C , 31-H ) :   0.9344 B( 29-C , 32-C ) :   1.0725 B( 29-C , 33-H ) :   0.9467
B( 29-C , 34-H ) :   0.9469 B( 32-C , 37-H ) :   0.9481 B( 32-C , 38-H ) :   0.9495

Dispersion correction           -0.020061608
FINAL SINGLE POINT ENERGY      -754.922879145173

DIPOLE MOMENT
-------------
                                X             Y             Z
Electronic contribution:      9.81587      10.68985       5.49143
Nuclear contribution   :    -11.22009      -8.67117      -6.77523
                        -----------------------------------------
Total Dipole Moment    :     -1.40422       2.01868      -1.28379
                        -----------------------------------------
Magnitude (a.u.)       :      2.77399
Magnitude (Debye)      :      7.05093

Rotational constants in cm-1:     0.020086     0.013778     0.009581
Rotational constants in MHz :   602.172053   413.051122   287.243919

                             ****ORCA TERMINATED NORMALLY****
TOTAL RUN TIME: 0 days 0 hours 0 minutes 43 seconds 679 msec
