                         Program Version 5.0.0 -  RELEASE  -
|  1> !wB97X-D3 RIJCOSX def2-SVP def2/J TightSCF xyzfile
|  2>
|  3> *xyzfile 0 1 D6.xyz
|  4>
|  5> %MaxCore 64000
|  6>
|  7> %pal nprocs 18
|  8> end
|  9>
| 10> %scf
| 11>   MaxIter 150
| 12> end
| 13>
| 14>
| 15>                          ****END OF INPUT****

CARTESIAN COORDINATES (ANGSTROEM)
---------------------------------
  C      3.913853   -1.658291    3.015134
  N      5.039266   -0.901154    2.492821
  C      4.084215    1.742081   -2.114724
  C      4.265245    2.500518   -0.795890
  H      4.868534    3.392674   -0.981134
  H      3.307640    2.824571   -0.387809
  C      4.982240    1.650257    0.247422
  C      6.210384   -1.417261    2.178244
  N      6.535913   -2.677122    2.556078
  C      7.076754   -0.700820    1.478906
  H      7.954643   -1.121554    1.207554
  H      6.756161    0.106637    0.960278
  H      4.842168    0.017609    2.115191
  H      5.993876   -3.126918    3.282784
  H      7.498441   -2.975482    2.468776
  O      4.368065    1.389270    1.313706
  F      6.128919    1.233512   -0.045620
  C      3.139159   -2.376572    1.910609
  H      3.267235   -0.939401    3.520693
  H      4.247195   -2.355095    3.790065
  C      1.997274    0.430918   -1.399218
  C      3.412746    0.376886   -1.965497
  H      4.047407   -0.246590   -1.326706
  H      3.390774   -0.118719   -2.942839
  H      5.068475    1.598504   -2.565728
  H      3.503356    2.363939   -2.804565
  C      2.399946   -1.389579    1.009490
  H      2.440750   -3.087118    2.362976
  H      3.844475   -2.970462    1.318677
  C      2.070177   -1.936705   -0.372401
  H      1.481611   -1.061542    1.509912
  H      3.008628   -0.490001    0.897451
  C      1.322238   -0.935775   -1.256413
  H      1.472747   -2.850902   -0.283997
  H      3.003539   -2.234041   -0.862535
  H      1.376444    1.058920   -2.047420
  H      2.015341    0.929780   -0.426535
  H      0.316648   -0.787213   -0.848278
  H      1.185611   -1.379252   -2.248613

 Total Charge           Charge          ....    0
 Multiplicity           Mult            ....    1
 Number of Electrons    NEL             ....  126
 Basis Dimension        Dim             ....  339

ORBITAL ENERGIES
----------------

  NO   OCC          E(Eh)            E(eV)
   0   2.0000     -24.877897      -676.9620
   1   2.0000     -19.268512      -524.3229
   2   2.0000     -14.410400      -392.1269
   3   2.0000     -14.391156      -391.6033
   4   2.0000     -10.489399      -285.4310
   5   2.0000     -10.326652      -281.0025
   6   2.0000     -10.312145      -280.6077
   7   2.0000     -10.307646      -280.4853
   8   2.0000     -10.306091      -280.4430
   9   2.0000     -10.296173      -280.1731
  10   2.0000     -10.287903      -279.9481
  11   2.0000     -10.283510      -279.8285
  12   2.0000     -10.277809      -279.6734
  13   2.0000     -10.272232      -279.5216
  14   2.0000     -10.271176      -279.4929
  15   2.0000     -10.165330      -276.6127
  16   2.0000      -1.437782       -39.1240
  17   2.0000      -1.163524       -31.6611
  18   2.0000      -1.047961       -28.5165
  19   2.0000      -0.962746       -26.1977
  20   2.0000      -0.948440       -25.8084
  21   2.0000      -0.915761       -24.9191
  22   2.0000      -0.883429       -24.0393
  23   2.0000      -0.846294       -23.0288
  24   2.0000      -0.819024       -22.2868
  25   2.0000      -0.782310       -21.2877
  26   2.0000      -0.777031       -21.1441
  27   2.0000      -0.743289       -20.2259
  28   2.0000      -0.715233       -19.4625
  29   2.0000      -0.696609       -18.9557
  30   2.0000      -0.676867       -18.4185
  31   2.0000      -0.670286       -18.2394
  32   2.0000      -0.668180       -18.1821
  33   2.0000      -0.653580       -17.7848
  34   2.0000      -0.622730       -16.9453
  35   2.0000      -0.606214       -16.4959
  36   2.0000      -0.588350       -16.0098
  37   2.0000      -0.585740       -15.9388
  38   2.0000      -0.572826       -15.5874
  39   2.0000      -0.561331       -15.2746
  40   2.0000      -0.552561       -15.0360
  41   2.0000      -0.532500       -14.4901
  42   2.0000      -0.530049       -14.4234
  43   2.0000      -0.521269       -14.1845
  44   2.0000      -0.514432       -13.9984
  45   2.0000      -0.507031       -13.7970
  46   2.0000      -0.490580       -13.3494
  47   2.0000      -0.480817       -13.0837
  48   2.0000      -0.476383       -12.9631
  49   2.0000      -0.468824       -12.7574
  50   2.0000      -0.461095       -12.5470
  51   2.0000      -0.448045       -12.1919
  52   2.0000      -0.445079       -12.1112
  53   2.0000      -0.434812       -11.8318
  54   2.0000      -0.433110       -11.7855
  55   2.0000      -0.425822       -11.5872
  56   2.0000      -0.416608       -11.3365
  57   2.0000      -0.404952       -11.0193
  58   2.0000      -0.403416       -10.9775
  59   2.0000      -0.398827       -10.8526
  60   2.0000      -0.390762       -10.6332
  61   2.0000      -0.319269        -8.6878
  62   2.0000      -0.221309        -6.0221
  63   0.0000       0.040867         1.1120
  64   0.0000       0.129855         3.5335
  65   0.0000       0.147143         4.0040
  66   0.0000       0.151931         4.1343
  67   0.0000       0.155485         4.2310

MULLIKEN ATOMIC CHARGES
-----------------------
   0 C :    0.089173
   1 N :   -0.191652
   2 C :   -0.055693
   3 C :   -0.028062
   4 H :    0.069016
   5 H :    0.072434
   6 C :    0.300196
   7 C :    0.010347
   8 N :   -0.139901
   9 C :   -0.164650
  10 H :   -0.063460
  11 H :   -0.048318
  12 H :    0.134531
  13 H :    0.105280
  14 H :    0.126438
  15 O :   -0.283177
  16 F :   -0.057666
  17 C :    0.013099
  18 H :    0.019370
  19 H :    0.009289
  20 C :   -0.066335
  21 C :   -0.069030
  22 H :    0.042342
  23 H :    0.031154
  24 H :    0.045002
  25 H :    0.041687
  26 C :   -0.072834
  27 H :    0.011413
  28 H :    0.017886
  29 C :   -0.046317
  30 H :    0.013061
  31 H :   -0.003598
  32 C :    0.008967
  33 H :    0.019813
  34 H :    0.024682
  35 H :    0.017474
  36 H :    0.030774
  37 H :    0.020066
  38 H :    0.017197
Sum of atomic charges:   -0.0000000

LOEWDIN ATOMIC CHARGES
----------------------
   0 C :    0.032282
   1 N :   -0.037378
   2 C :   -0.033177
   3 C :   -0.059618
   4 H :    0.048651
   5 H :    0.045738
   6 C :    0.156760
   7 C :    0.046463
   8 N :   -0.045820
   9 C :   -0.294998
  10 H :   -0.016260
  11 H :   -0.032920
  12 H :    0.035848
  13 H :    0.059431
  14 H :    0.080037
  15 O :   -0.164891
  16 F :    0.092313
  17 C :   -0.050567
  18 H :    0.024075
  19 H :    0.011386
  20 C :   -0.044588
  21 C :   -0.044370
  22 H :    0.021883
  23 H :    0.029618
  24 H :    0.029392
  25 H :    0.031576
  26 C :   -0.045326
  27 H :    0.018388
  28 H :    0.022816
  29 C :   -0.041036
  30 H :    0.020253
  31 H :    0.010433
  32 C :   -0.036233
  33 H :    0.022802
  34 H :    0.019559
  35 H :    0.022885
  36 H :    0.019688
  37 H :    0.023542
  38 H :    0.021363

  Mayer bond orders larger than 0.100000
B(  0-C ,  1-N ) :   1.0265 B(  0-C , 17-C ) :   1.0478 B(  0-C , 18-H ) :   0.9521
B(  0-C , 19-H ) :   0.9554 B(  1-N ,  7-C ) :   1.2246 B(  1-N , 12-H ) :   0.8779
B(  2-C ,  3-C ) :   1.0492 B(  2-C , 21-C ) :   1.0822 B(  2-C , 24-H ) :   0.9517
B(  2-C , 25-H ) :   0.9503 B(  3-C ,  4-H ) :   0.9302 B(  3-C ,  5-H ) :   0.9426
B(  3-C ,  6-C ) :   0.9976 B(  6-C , 15-O ) :   1.9112 B(  6-C , 16-F ) :   1.1538
B(  7-C ,  8-N ) :   1.1954 B(  7-C ,  9-C ) :   1.7450 B(  8-N , 13-H ) :   0.9528
B(  8-N , 14-H ) :   0.9464 B(  9-C , 10-H ) :   0.9424 B(  9-C , 11-H ) :   0.9442
B( 12-H , 15-O ) :   0.1196 B( 17-C , 26-C ) :   1.0592 B( 17-C , 27-H ) :   0.9424
B( 17-C , 28-H ) :   0.9443 B( 20-C , 21-C ) :   1.0486 B( 20-C , 32-C ) :   1.0817
B( 20-C , 35-H ) :   0.9472 B( 20-C , 36-H ) :   0.9410 B( 21-C , 22-H ) :   0.9335
B( 21-C , 23-H ) :   0.9443 B( 26-C , 29-C ) :   1.0624 B( 26-C , 30-H ) :   0.9453
B( 26-C , 31-H ) :   0.9378 B( 29-C , 32-C ) :   1.0750 B( 29-C , 33-H ) :   0.9466
B( 29-C , 34-H ) :   0.9466 B( 32-C , 37-H ) :   0.9477 B( 32-C , 38-H ) :   0.9495

Dispersion correction           -0.020134997
FINAL SINGLE POINT ENERGY      -754.915799524052

DIPOLE MOMENT
-------------
                                X             Y             Z
Electronic contribution:     12.46889       8.53155       4.44157
Nuclear contribution   :    -13.25777      -8.13937      -5.31678
                        -----------------------------------------
Total Dipole Moment    :     -0.78887       0.39218      -0.87520
                        -----------------------------------------
Magnitude (a.u.)       :      1.24181
Magnitude (Debye)      :      3.15644

Rotational constants in cm-1:     0.020021     0.013636     0.009443
Rotational constants in MHz :   600.208195   408.782966   283.102361

                             ****ORCA TERMINATED NORMALLY****
TOTAL RUN TIME: 0 days 0 hours 0 minutes 48 seconds 457 msec
