                         Program Version 5.0.0 -  RELEASE  -
|  1> !B3LYP D3BJ RIJCOSX def2-SVPD def2/J TightSCF
|  2> *xyz -1 1
|  3> C         -0.05915        1.50352        3.41058
|  4> C          1.08303        0.74964        4.08571
|  5> O          2.22817        1.26348        4.01983
|  6> O          0.81003       -0.34541        4.63627
|  7> H          0.31461        2.41205        2.98658
|  8> H         -0.81316        1.73160        4.13470
|  9> H         -0.47977        0.89552        2.63708
| 10> *
| 11>
| 12> %MaxCore 64000
| 13>
| 14> %pal nprocs 4
| 15> end
| 16>
| 17> %scf
| 18>   MaxIter 150
| 19> end
| 20>
| 21>
| 22>                          ****END OF INPUT****

CARTESIAN COORDINATES (ANGSTROEM)
---------------------------------
  C     -0.059150    1.503520    3.410580
  C      1.083030    0.749640    4.085710
  O      2.228170    1.263480    4.019830
  O      0.810030   -0.345410    4.636270
  H      0.314610    2.412050    2.986580
  H     -0.813160    1.731600    4.134700
  H     -0.479770    0.895520    2.637080

 Total Charge           Charge          ....   -1
 Multiplicity           Mult            ....    1
 Number of Electrons    NEL             ....   32
 Basis Dimension        Dim             ....  110

ORBITAL ENERGIES
----------------

  NO   OCC          E(Eh)            E(eV)
   0   2.0000     -18.874657      -513.6055
   1   2.0000     -18.874044      -513.5889
   2   2.0000     -10.067922      -273.9621
   3   2.0000      -9.996203      -272.0105
   4   2.0000      -0.808118       -21.9900
   5   2.0000      -0.715633       -19.4734
   6   2.0000      -0.537560       -14.6278
   7   2.0000      -0.300675        -8.1818
   8   2.0000      -0.260116        -7.0781
   9   2.0000      -0.245444        -6.6789
  10   2.0000      -0.223915        -6.0930
  11   2.0000      -0.184860        -5.0303
  12   2.0000      -0.165419        -4.5013
  13   2.0000      -0.048477        -1.3191
  14   2.0000      -0.042374        -1.1530
  15   2.0000      -0.026263        -0.7146
  16   0.0000       0.170642         4.6434
  17   0.0000       0.213780         5.8173
  18   0.0000       0.221775         6.0348
  19   0.0000       0.240415         6.5420
  20   0.0000       0.263985         7.1834

MULLIKEN ATOMIC CHARGES
-----------------------
   0 C :    0.694385
   1 C :    0.032122
   2 O :   -0.642487
   3 O :   -0.662100
   4 H :   -0.159057
   5 H :   -0.131109
   6 H :   -0.131753
Sum of atomic charges:   -1.0000000

LOEWDIN ATOMIC CHARGES
----------------------
   0 C :    0.150879
   1 C :   -0.339207
   2 O :   -0.339767
   3 O :   -0.341301
   4 H :   -0.048237
   5 H :   -0.041645
   6 H :   -0.040723

  Mayer bond orders larger than 0.100000
B(  0-C ,  1-C ) :   1.1960 B(  0-C ,  4-H ) :   0.8306 B(  0-C ,  5-H ) :   0.7782
B(  0-C ,  6-H ) :   0.7817 B(  1-C ,  2-O ) :   1.4869 B(  1-C ,  3-O ) :   1.5035
B(  1-C ,  4-H ) :   0.2805 B(  1-C ,  5-H ) :   0.1935 B(  1-C ,  6-H ) :   0.1900

Dispersion correction           -0.006234225
FINAL SINGLE POINT ENERGY      -228.262678106459

DIPOLE MOMENT
-------------
                                X             Y             Z
Electronic contribution:      2.69530      -1.77320       1.58151
Nuclear contribution   :     -3.75920       2.48542      -2.19871
                        -----------------------------------------
Total Dipole Moment    :     -1.06390       0.71222      -0.61720
                        -----------------------------------------
Magnitude (a.u.)       :      1.42129
Magnitude (Debye)      :      3.61264

Rotational constants in cm-1:     0.392838     0.334689     0.186890
Rotational constants in MHz : 11776.984954 10033.729666  5602.815156

                             ****ORCA TERMINATED NORMALLY****
TOTAL RUN TIME: 0 days 0 hours 0 minutes 7 seconds 646 msec
