                         Program Version 5.0.0 -  RELEASE  -
|  1> !B3LYP D3BJ RIJCOSX def2-SVPD def2/J TightSCF
|  2> *xyz 1 1
|  3> C          4.60295       -2.44010        2.63478
|  4> C          3.86085       -1.59157        3.62289
|  5> N          2.75650       -2.04616        4.16633
|  6> N          4.25433       -0.36291        3.86046
|  7> H          3.56526        0.31099        4.16898
|  8> H          5.05429       -0.01606        3.33784
|  9> H          2.43970       -2.97389        3.89740
| 10> H          2.06687       -1.41253        4.54981
| 11> H          5.47239       -1.91604        2.29664
| 12> H          3.96816       -2.65362        1.80030
| 13> H          4.89801       -3.35632        3.10209
| 14> *
| 15>
| 16> %MaxCore 64000
| 17>
| 18> %pal nprocs 4
| 19> end
| 20>
| 21> %scf
| 22>   MaxIter 150
| 23> end
| 24>
| 25>
| 26>                          ****END OF INPUT****

CARTESIAN COORDINATES (ANGSTROEM)
---------------------------------
  C      4.602950   -2.440100    2.634780
  C      3.860850   -1.591570    3.622890
  N      2.756500   -2.046160    4.166330
  N      4.254330   -0.362910    3.860460
  H      3.565260    0.310990    4.168980
  H      5.054290   -0.016060    3.337840
  H      2.439700   -2.973890    3.897400
  H      2.066870   -1.412530    4.549810
  H      5.472390   -1.916040    2.296640
  H      3.968160   -2.653620    1.800300
  H      4.898010   -3.356320    3.102090

 Total Charge           Charge          ....    1
 Multiplicity           Mult            ....    1
 Number of Electrons    NEL             ....   32
 Basis Dimension        Dim             ....  136

ORBITAL ENERGIES
----------------

  NO   OCC          E(Eh)            E(eV)
   0   2.0000     -14.583942      -396.8492
   1   2.0000     -14.583106      -396.8265
   2   2.0000     -10.516932      -286.1803
   3   2.0000     -10.386480      -282.6305
   4   2.0000      -1.207930       -32.8695
   5   2.0000      -1.110424       -30.2162
   6   2.0000      -0.951926       -25.9032
   7   2.0000      -0.843632       -22.9564
   8   2.0000      -0.782149       -21.2834
   9   2.0000      -0.774307       -21.0700
  10   2.0000      -0.707037       -19.2395
  11   2.0000      -0.666674       -18.1411
  12   2.0000      -0.624307       -16.9883
  13   2.0000      -0.607067       -16.5191
  14   2.0000      -0.578442       -15.7402
  15   2.0000      -0.505089       -13.7442
  16   0.0000      -0.228369        -6.2142
  17   0.0000      -0.167209        -4.5500
  18   0.0000      -0.122498        -3.3333
  19   0.0000      -0.119381        -3.2485
  20   0.0000      -0.098345        -2.6761

MULLIKEN ATOMIC CHARGES
-----------------------
   0 C :    0.809459
   1 C :    0.160937
   2 N :    0.216826
   3 N :    0.132454
   4 H :   -0.080016
   5 H :    0.039833
   6 H :    0.017161
   7 H :   -0.157853
   8 H :   -0.056816
   9 H :   -0.062431
  10 H :   -0.019554
Sum of atomic charges:    1.0000000

LOEWDIN ATOMIC CHARGES
----------------------
   0 C :    0.245121
   1 C :   -0.071715
   2 N :    0.283496
   3 N :    0.286780
   4 H :    0.049538
   5 H :    0.052287
   6 H :    0.058069
   7 H :    0.049201
   8 H :    0.004070
   9 H :    0.023328
  10 H :    0.019825

  Mayer bond orders larger than 0.100000
B(  0-C ,  1-C ) :   1.3039 B(  0-C ,  8-H ) :   0.7573 B(  0-C ,  9-H ) :   0.7910
B(  0-C , 10-H ) :   0.6467 B(  1-C ,  2-N ) :   1.1999 B(  1-C ,  3-N ) :   1.1347
B(  1-C ,  4-H ) :  -0.1314 B(  1-C ,  7-H ) :  -0.1467 B(  1-C ,  8-H ) :   0.2771
B(  1-C ,  9-H ) :   0.1525 B(  1-C , 10-H ) :   0.2660 B(  2-N ,  3-N ) :   0.1689
B(  2-N ,  6-H ) :   1.0617 B(  2-N ,  7-H ) :   1.2416 B(  3-N ,  4-H ) :   1.2227
B(  3-N ,  5-H ) :   1.0235 B(  4-H ,  5-H ) :  -0.1373 B(  6-H ,  7-H ) :  -0.1504
B(  8-H , 10-H ) :   0.1097 B(  9-H , 10-H ) :   0.1026

Dispersion correction           -0.011465869
FINAL SINGLE POINT ENERGY      -189.481550012287

DIPOLE MOMENT
-------------
                                X             Y             Z
Electronic contribution:     -0.95287       1.14638       1.61358
Nuclear contribution   :      0.47466      -0.79212      -1.71537
                        -----------------------------------------
Total Dipole Moment    :     -0.47821       0.35426      -0.10179
                        -----------------------------------------
Magnitude (a.u.)       :      0.60378
Magnitude (Debye)      :      1.53468

Rotational constants in cm-1:     0.335502     0.299428     0.163704
Rotational constants in MHz : 10058.111638  8976.630214  4907.722182

                             ****ORCA TERMINATED NORMALLY****
TOTAL RUN TIME: 0 days 0 hours 0 minutes 10 seconds 209 msec
