                         Program Version 5.0.0 -  RELEASE  -
|  1> !B3LYP D3BJ RIJCOSX def2-SVPD def2/J TightSCF
|  2> *xyz 0 1
|  3> C         -0.05915        1.50352        3.41058
|  4> C          1.08303        0.74964        4.08571
|  5> F          2.22817        1.26348        4.01983
|  6> O          0.81003       -0.34541        4.63627
|  7> H          0.31461        2.41205        2.98658
|  8> H         -0.81316        1.73160        4.13470
|  9> H         -0.47977        0.89552        2.63708
| 10> *
| 11>
| 12> %MaxCore 64000
| 13>
| 14> %pal nprocs 4
| 15> end
| 16>
| 17> %scf
| 18>   MaxIter 150
| 19> end
| 20>
| 21>
| 22>                          ****END OF INPUT****

CARTESIAN COORDINATES (ANGSTROEM)
---------------------------------
  C     -0.059150    1.503520    3.410580
  C      1.083030    0.749640    4.085710
  F      2.228170    1.263480    4.019830
  O      0.810030   -0.345410    4.636270
  H      0.314610    2.412050    2.986580
  H     -0.813160    1.731600    4.134700
  H     -0.479770    0.895520    2.637080

 Total Charge           Charge          ....    0
 Multiplicity           Mult            ....    1
 Number of Electrons    NEL             ....   32
 Basis Dimension        Dim             ....  110

ORBITAL ENERGIES
----------------

  NO   OCC          E(Eh)            E(eV)
   0   2.0000     -24.772282      -674.0881
   1   2.0000     -19.152219      -521.1584
   2   2.0000     -10.373017      -282.2641
   3   2.0000     -10.213437      -277.9218
   4   2.0000      -1.310163       -35.6513
   5   2.0000      -1.029087       -28.0029
   6   2.0000      -0.769782       -20.9468
   7   2.0000      -0.662395       -18.0247
   8   2.0000      -0.554543       -15.0899
   9   2.0000      -0.550052       -14.9677
  10   2.0000      -0.505969       -13.7681
  11   2.0000      -0.449876       -12.2417
  12   2.0000      -0.436633       -11.8814
  13   2.0000      -0.408761       -11.1230
  14   2.0000      -0.359389        -9.7795
  15   2.0000      -0.300901        -8.1879
  16   0.0000      -0.038972        -1.0605
  17   0.0000       0.009304         0.2532
  18   0.0000       0.056240         1.5304
  19   0.0000       0.084261         2.2929
  20   0.0000       0.085752         2.3334

MULLIKEN ATOMIC CHARGES
-----------------------
   0 C :    0.625385
   1 C :    0.384814
   2 F :   -0.340526
   3 O :   -0.454690
   4 H :   -0.114201
   5 H :   -0.051261
   6 H :   -0.049521
Sum of atomic charges:    0.0000000

LOEWDIN ATOMIC CHARGES
----------------------
   0 C :    0.223836
   1 C :   -0.037272
   2 F :   -0.037360
   3 O :   -0.136486
   4 H :   -0.016593
   5 H :    0.001691
   6 H :    0.002185

  Mayer bond orders larger than 0.100000
B(  0-C ,  1-C ) :   1.2393 B(  0-C ,  4-H ) :   0.8506 B(  0-C ,  5-H ) :   0.7718
B(  0-C ,  6-H ) :   0.7756 B(  1-C ,  2-F ) :   0.8153 B(  1-C ,  3-O ) :   1.8262
B(  1-C ,  4-H ) :   0.1781 B(  1-C ,  5-H ) :   0.1698 B(  1-C ,  6-H ) :   0.1652

Dispersion correction           -0.005736351
FINAL SINGLE POINT ENERGY      -252.794638041633

DIPOLE MOMENT
-------------
                                X             Y             Z
Electronic contribution:      4.67306      -1.03040       1.56861
Nuclear contribution   :     -5.01294       1.99942      -2.18092
                        -----------------------------------------
Total Dipole Moment    :     -0.33988       0.96902      -0.61232
                        -----------------------------------------
Magnitude (a.u.)       :      1.19560
Magnitude (Debye)      :      3.03896

Rotational constants in cm-1:     0.368501     0.321908     0.177384
Rotational constants in MHz : 11047.396090  9650.552559  5317.833075

                             ****ORCA TERMINATED NORMALLY****
TOTAL RUN TIME: 0 days 0 hours 0 minutes 7 seconds 1 msec
