                         Program Version 5.0.0 -  RELEASE  -
|  1> !B3LYP D3BJ RIJCOSX def2-SVPD def2/J TightSCF
|  2> *xyz 0 1
|  3> C          4.60295       -2.44010        2.63478
|  4> C          3.86085       -1.59157        3.62289
|  5> C          2.75650       -2.04616        4.16633
|  6> N          4.25433       -0.36291        3.86046
|  7> H          3.56526        0.31099        4.16898
|  8> H          5.05429       -0.01606        3.33784
|  9> H          2.43970       -2.97389        3.89740
| 10> H          2.06687       -1.41253        4.54981
| 11> H          5.47239       -1.91604        2.29664
| 12> H          3.96816       -2.65362        1.80030
| 13> H          4.89801       -3.35632        3.10209
| 14> *
| 15>
| 16> %MaxCore 64000
| 17>
| 18> %pal nprocs 4
| 19> end
| 20>
| 21> %scf
| 22>   MaxIter 150
| 23> end
| 24>
| 25>
| 26>                          ****END OF INPUT****

CARTESIAN COORDINATES (ANGSTROEM)
---------------------------------
  C      4.602950   -2.440100    2.634780
  C      3.860850   -1.591570    3.622890
  C      2.756500   -2.046160    4.166330
  N      4.254330   -0.362910    3.860460
  H      3.565260    0.310990    4.168980
  H      5.054290   -0.016060    3.337840
  H      2.439700   -2.973890    3.897400
  H      2.066870   -1.412530    4.549810
  H      5.472390   -1.916040    2.296640
  H      3.968160   -2.653620    1.800300
  H      4.898010   -3.356320    3.102090

 Total Charge           Charge          ....    0
 Multiplicity           Mult            ....    1
 Number of Electrons    NEL             ....   32
 Basis Dimension        Dim             ....  136

ORBITAL ENERGIES
----------------

  NO   OCC          E(Eh)            E(eV)
   0   2.0000     -14.332567      -390.0090
   1   2.0000     -10.202950      -277.6364
   2   2.0000     -10.176487      -276.9163
   3   2.0000     -10.112967      -275.1878
   4   2.0000      -0.925645       -25.1881
   5   2.0000      -0.751505       -20.4495
   6   2.0000      -0.684744       -18.6328
   7   2.0000      -0.569058       -15.4848
   8   2.0000      -0.526600       -14.3295
   9   2.0000      -0.472813       -12.8659
  10   2.0000      -0.432654       -11.7731
  11   2.0000      -0.400660       -10.9025
  12   2.0000      -0.389773       -10.6063
  13   2.0000      -0.363142        -9.8816
  14   2.0000      -0.331344        -9.0163
  15   2.0000      -0.190671        -5.1884
  16   0.0000       0.014531         0.3954
  17   0.0000       0.037845         1.0298
  18   0.0000       0.053745         1.4625
  19   0.0000       0.061197         1.6653
  20   0.0000       0.087485         2.3806

MULLIKEN ATOMIC CHARGES
-----------------------
   0 C :    1.014273
   1 C :   -0.457926
   2 C :    0.470568
   3 N :    0.242708
   4 H :   -0.115235
   5 H :   -0.114353
   6 H :   -0.205238
   7 H :   -0.482943
   8 H :   -0.194967
   9 H :   -0.116438
  10 H :   -0.040449
Sum of atomic charges:   -0.0000000

LOEWDIN ATOMIC CHARGES
----------------------
   0 C :    0.176747
   1 C :   -0.290799
   2 C :    0.164128
   3 N :    0.168589
   4 H :    0.006280
   5 H :   -0.005416
   6 H :   -0.081055
   7 H :   -0.089881
   8 H :   -0.031153
   9 H :   -0.008058
  10 H :   -0.009381

  Mayer bond orders larger than 0.100000
B(  0-C ,  1-C ) :   1.1713 B(  0-C ,  8-H ) :   0.6474 B(  0-C ,  9-H ) :   0.7630
B(  0-C , 10-H ) :   0.6425 B(  1-C ,  2-C ) :   1.8205 B(  1-C ,  3-N ) :   1.0926
B(  1-C ,  6-H ) :   0.1610 B(  1-C ,  7-H ) :   0.1587 B(  1-C ,  8-H ) :   0.3335
B(  1-C ,  9-H ) :   0.1663 B(  1-C , 10-H ) :   0.2763 B(  2-C ,  3-N ) :   0.2648
B(  2-C ,  6-H ) :   0.7341 B(  2-C ,  7-H ) :   0.7894 B(  3-N ,  4-H ) :   1.1401
B(  3-N ,  5-H ) :   1.0399 B(  4-H ,  5-H ) :  -0.1219

Dispersion correction           -0.012105507
FINAL SINGLE POINT ENERGY      -173.025931457580

DIPOLE MOMENT
-------------
                                X             Y             Z
Electronic contribution:      0.12726       1.45448       1.07488
Nuclear contribution   :      0.22927      -0.89318      -1.58153
                        -----------------------------------------
Total Dipole Moment    :      0.35653       0.56130      -0.50664
                        -----------------------------------------
Magnitude (a.u.)       :      0.83598
Magnitude (Debye)      :      2.12489

Rotational constants in cm-1:     0.356805     0.302813     0.169682
Rotational constants in MHz : 10696.748191  9078.116910  5086.926242

                             ****ORCA TERMINATED NORMALLY****
TOTAL RUN TIME: 0 days 0 hours 0 minutes 10 seconds 89 msec
