                         Program Version 5.0.0 -  RELEASE  -
|  1> !B3LYP D3BJ RIJCOSX def2-SVPD def2/J TightSCF
|  2> *xyz 0 1
|  3> C         -0.05915        1.50352        3.41058
|  4> C          1.08303        0.74964        4.08571
|  5> O          2.22817        1.26348        4.01983
|  6> F          0.81003       -0.34541        4.63627
|  7> H          0.31461        2.41205        2.98658
|  8> H         -0.81316        1.73160        4.13470
|  9> H         -0.47977        0.89552        2.63708
| 10> *
| 11>
| 12> %MaxCore 64000
| 13>
| 14> %pal nprocs 4
| 15> end
| 16>
| 17> %scf
| 18>   MaxIter 150
| 19> end
| 20>
| 21>
| 22>                          ****END OF INPUT****

CARTESIAN COORDINATES (ANGSTROEM)
---------------------------------
  C     -0.059150    1.503520    3.410580
  C      1.083030    0.749640    4.085710
  O      2.228170    1.263480    4.019830
  F      0.810030   -0.345410    4.636270
  H      0.314610    2.412050    2.986580
  H     -0.813160    1.731600    4.134700
  H     -0.479770    0.895520    2.637080

 Total Charge           Charge          ....    0
 Multiplicity           Mult            ....    1
 Number of Electrons    NEL             ....   32
 Basis Dimension        Dim             ....  110

ORBITAL ENERGIES
----------------

  NO   OCC          E(Eh)            E(eV)
   0   2.0000     -24.773039      -674.1087
   1   2.0000     -19.152023      -521.1530
   2   2.0000     -10.372819      -282.2587
   3   2.0000     -10.213203      -277.9154
   4   2.0000      -1.311035       -35.6751
   5   2.0000      -1.028525       -27.9876
   6   2.0000      -0.769651       -20.9433
   7   2.0000      -0.662751       -18.0344
   8   2.0000      -0.555646       -15.1199
   9   2.0000      -0.550044       -14.9675
  10   2.0000      -0.505515       -13.7558
  11   2.0000      -0.448978       -12.2173
  12   2.0000      -0.437117       -11.8946
  13   2.0000      -0.408430       -11.1139
  14   2.0000      -0.361809        -9.8453
  15   2.0000      -0.298904        -8.1336
  16   0.0000      -0.035950        -0.9783
  17   0.0000       0.009429         0.2566
  18   0.0000       0.056072         1.5258
  19   0.0000       0.081634         2.2214
  20   0.0000       0.089975         2.4483

MULLIKEN ATOMIC CHARGES
-----------------------
   0 C :    0.640172
   1 C :    0.400949
   2 O :   -0.438218
   3 F :   -0.362131
   4 H :   -0.132782
   5 H :   -0.054709
   6 H :   -0.053281
Sum of atomic charges:   -0.0000000

LOEWDIN ATOMIC CHARGES
----------------------
   0 C :    0.223061
   1 C :   -0.038974
   2 O :   -0.136776
   3 F :   -0.034922
   4 H :   -0.003330
   5 H :   -0.005051
   6 H :   -0.004008

  Mayer bond orders larger than 0.100000
B(  0-C ,  1-C ) :   1.2213 B(  0-C ,  4-H ) :   0.8499 B(  0-C ,  5-H ) :   0.7746
B(  0-C ,  6-H ) :   0.7768 B(  1-C ,  2-O ) :   1.8444 B(  1-C ,  3-F ) :   0.7761
B(  1-C ,  4-H ) :   0.2422 B(  1-C ,  5-H ) :   0.1495 B(  1-C ,  6-H ) :   0.1473

Dispersion correction           -0.005735506
FINAL SINGLE POINT ENERGY      -252.794672354073

DIPOLE MOMENT
-------------
                                X             Y             Z
Electronic contribution:      2.36860      -3.64470       2.56994
Nuclear contribution   :     -3.54758       3.66189      -2.81789
                        -----------------------------------------
Total Dipole Moment    :     -1.17898       0.01719      -0.24795
                        -----------------------------------------
Magnitude (a.u.)       :      1.20489
Magnitude (Debye)      :      3.06258

Rotational constants in cm-1:     0.369278     0.321254     0.177365
Rotational constants in MHz : 11070.686557  9630.951649  5317.254673

                             ****ORCA TERMINATED NORMALLY****
TOTAL RUN TIME: 0 days 0 hours 0 minutes 7 seconds 278 msec
