                         Program Version 5.0.0 -  RELEASE  -
|  1> !B3LYP D3BJ RIJCOSX def2-SVPD def2/J TightSCF
|  2> *xyz 0 1
|  3> C          4.60295       -2.44010        2.63478
|  4> C          3.86085       -1.59157        3.62289
|  5> N          2.75650       -2.04616        4.16633
|  6> C          4.25433       -0.36291        3.86046
|  7> H          3.56526        0.31099        4.16898
|  8> H          5.05429       -0.01606        3.33784
|  9> H          2.43970       -2.97389        3.89740
| 10> H          2.06687       -1.41253        4.54981
| 11> H          5.47239       -1.91604        2.29664
| 12> H          3.96816       -2.65362        1.80030
| 13> H          4.89801       -3.35632        3.10209
| 14> *
| 15>
| 16> %MaxCore 64000
| 17>
| 18> %pal nprocs 4
| 19> end
| 20>
| 21> %scf
| 22>   MaxIter 150
| 23> end
| 24>
| 25>
| 26>                          ****END OF INPUT****

CARTESIAN COORDINATES (ANGSTROEM)
---------------------------------
  C      4.602950   -2.440100    2.634780
  C      3.860850   -1.591570    3.622890
  N      2.756500   -2.046160    4.166330
  C      4.254330   -0.362910    3.860460
  H      3.565260    0.310990    4.168980
  H      5.054290   -0.016060    3.337840
  H      2.439700   -2.973890    3.897400
  H      2.066870   -1.412530    4.549810
  H      5.472390   -1.916040    2.296640
  H      3.968160   -2.653620    1.800300
  H      4.898010   -3.356320    3.102090

 Total Charge           Charge          ....    0
 Multiplicity           Mult            ....    1
 Number of Electrons    NEL             ....   32
 Basis Dimension        Dim             ....  136

ORBITAL ENERGIES
----------------

  NO   OCC          E(Eh)            E(eV)
   0   2.0000     -14.332650      -390.0112
   1   2.0000     -10.204424      -277.6765
   2   2.0000     -10.176147      -276.9070
   3   2.0000     -10.115204      -275.2487
   4   2.0000      -0.924908       -25.1680
   5   2.0000      -0.752237       -20.4694
   6   2.0000      -0.685869       -18.6635
   7   2.0000      -0.572228       -15.5711
   8   2.0000      -0.525321       -14.2947
   9   2.0000      -0.471957       -12.8426
  10   2.0000      -0.434212       -11.8155
  11   2.0000      -0.399790       -10.8789
  12   2.0000      -0.391624       -10.6566
  13   2.0000      -0.361642        -9.8408
  14   2.0000      -0.329557        -8.9677
  15   2.0000      -0.193803        -5.2737
  16   0.0000       0.015102         0.4110
  17   0.0000       0.040157         1.0927
  18   0.0000       0.053124         1.4456
  19   0.0000       0.062770         1.7081
  20   0.0000       0.088753         2.4151

MULLIKEN ATOMIC CHARGES
-----------------------
   0 C :    0.988383
   1 C :   -0.521617
   2 N :    0.334851
   3 C :    0.499896
   4 H :   -0.489406
   5 H :   -0.163455
   6 H :   -0.163383
   7 H :   -0.198740
   8 H :   -0.070439
   9 H :   -0.120121
  10 H :   -0.095967
Sum of atomic charges:   -0.0000000

LOEWDIN ATOMIC CHARGES
----------------------
   0 C :    0.174987
   1 C :   -0.295091
   2 N :    0.167836
   3 C :    0.170024
   4 H :   -0.088296
   5 H :   -0.087793
   6 H :    0.000400
   7 H :    0.005802
   8 H :   -0.017535
   9 H :   -0.011547
  10 H :   -0.018785

  Mayer bond orders larger than 0.100000
B(  0-C ,  1-C ) :   1.3172 B(  0-C ,  8-H ) :   0.7651 B(  0-C ,  9-H ) :   0.6620
B(  0-C , 10-H ) :   0.5947 B(  1-C ,  2-N ) :   1.1755 B(  1-C ,  3-C ) :   1.8227
B(  1-C ,  4-H ) :   0.2019 B(  1-C ,  8-H ) :   0.2773 B(  1-C ,  9-H ) :   0.2921
B(  1-C , 10-H ) :   0.3172 B(  2-N ,  3-C ) :   0.2684 B(  2-N ,  6-H ) :   1.0941
B(  2-N ,  7-H ) :   1.1691 B(  3-C ,  4-H ) :   0.7285 B(  3-C ,  5-H ) :   0.8401
B(  4-H ,  5-H ) :   0.1082 B(  6-H ,  7-H ) :  -0.1279

Dispersion correction           -0.012104351
FINAL SINGLE POINT ENERGY      -173.026925000402

DIPOLE MOMENT
-------------
                                X             Y             Z
Electronic contribution:     -1.18856      -0.00694       1.37531
Nuclear contribution   :      0.56519      -0.51568      -1.65012
                        -----------------------------------------
Total Dipole Moment    :     -0.62337      -0.52263      -0.27481
                        -----------------------------------------
Magnitude (a.u.)       :      0.85863
Magnitude (Debye)      :      2.18247

Rotational constants in cm-1:     0.356673     0.303029     0.169717
Rotational constants in MHz : 10692.789749  9084.577259  5087.998414

                             ****ORCA TERMINATED NORMALLY****
TOTAL RUN TIME: 0 days 0 hours 0 minutes 10 seconds 291 msec
