                         Program Version 5.0.0 -  RELEASE  -
|  1> !B3LYP D3BJ RIJCOSX def2-SVPD def2/J TightSCF xyzfile
|  2>
|  3> *xyzfile 0 1 D1.xyz
|  4>
|  5> %MaxCore 64000
|  6>
|  7> %pal nprocs 4
|  8> end
|  9>
| 10> %scf
| 11>   MaxIter 150
| 12> end
| 13>
| 14>
| 15>                          ****END OF INPUT****

CARTESIAN COORDINATES (ANGSTROEM)
---------------------------------
  C      4.602954   -2.440100    2.634780
  C     -0.914947    0.615112    2.505538
  C     -0.059146    1.503524    3.410578
  H      0.365364    2.344315    2.861161
  H     -0.692261    1.920207    4.198985
  C      1.083027    0.749640    4.085705
  C      3.860851   -1.591565    3.622893
  C      2.756502   -2.046159    4.166333
  N      4.254325   -0.362905    3.860455
  H      3.565256    0.310994    4.168983
  H      5.054292   -0.016059    3.337838
  H      2.439696   -2.973894    3.897395
  H      2.066869   -1.412532    4.549813
  F      2.228167    1.263475    4.019826
  O      0.810034   -0.345411    4.636269
  C      3.744685   -2.580557    1.361882
  C      0.772139    0.636882    0.562129
  C     -0.130740   -0.193985    1.470763
  H     -0.840563   -0.760165    0.856377
  H      0.466691   -0.938942    2.006959
  H     -1.647961    1.245963    1.991076
  H     -1.478180   -0.081046    3.130424
  C      3.203721   -1.256004    0.826211
  H      2.898939   -3.239289    1.583074
  H      4.334962   -3.095523    0.600188
  C      2.107815   -1.442385   -0.216865
  H      2.786775   -0.672760    1.650711
  H      4.021008   -0.652993    0.414046
  C      1.390662   -0.145912   -0.602422
  H      1.372179   -2.152184    0.176151
  H      2.523302   -1.906787   -1.117115
  H      1.561361    1.100094    1.161831
  H      0.195516    1.468325    0.142758
  H      0.602893   -0.398214   -1.319716
  H      2.087247    0.508272   -1.137335
  H      5.561557   -1.971347    2.407084
  H      4.810498   -3.422552    3.063099

 Total Charge           Charge          ....    0
 Multiplicity           Mult            ....    1
 Number of Electrons    NEL             ....  118
 Basis Dimension        Dim             ....  482

ORBITAL ENERGIES
----------------

  NO   OCC          E(Eh)            E(eV)
   0   2.0000     -24.795096      -674.7089
   1   2.0000     -19.162049      -521.4259
   2   2.0000     -14.308477      -389.3535
   3   2.0000     -10.380731      -282.4740
   4   2.0000     -10.221272      -278.1350
   5   2.0000     -10.199167      -277.5335
   6   2.0000     -10.183722      -277.1132
   7   2.0000     -10.183531      -277.1080
   8   2.0000     -10.179578      -277.0004
   9   2.0000     -10.178399      -276.9683
  10   2.0000     -10.172087      -276.7966
  11   2.0000     -10.170206      -276.7454
  12   2.0000     -10.169831      -276.7352
  13   2.0000     -10.168247      -276.6921
  14   2.0000     -10.081452      -274.3303
  15   2.0000      -1.335068       -36.3291
  16   2.0000      -1.045765       -28.4567
  17   2.0000      -0.908227       -24.7141
  18   2.0000      -0.824763       -22.4430
  19   2.0000      -0.799402       -21.7528
  20   2.0000      -0.774947       -21.0874
  21   2.0000      -0.738513       -20.0960
  22   2.0000      -0.716479       -19.4964
  23   2.0000      -0.687167       -18.6988
  24   2.0000      -0.674378       -18.3508
  25   2.0000      -0.643069       -17.4988
  26   2.0000      -0.610770       -16.6199
  27   2.0000      -0.587190       -15.9783
  28   2.0000      -0.578114       -15.7313
  29   2.0000      -0.567669       -15.4471
  30   2.0000      -0.551067       -14.9953
  31   2.0000      -0.537990       -14.6395
  32   2.0000      -0.525179       -14.2909
  33   2.0000      -0.498724       -13.5710
  34   2.0000      -0.482644       -13.1334
  35   2.0000      -0.480000       -13.0615
  36   2.0000      -0.470135       -12.7930
  37   2.0000      -0.451682       -12.2909
  38   2.0000      -0.445535       -12.1236
  39   2.0000      -0.428626       -11.6635
  40   2.0000      -0.424922       -11.5627
  41   2.0000      -0.411643       -11.2014
  42   2.0000      -0.405377       -11.0309
  43   2.0000      -0.392373       -10.6770
  44   2.0000      -0.388785       -10.5794
  45   2.0000      -0.374743       -10.1973
  46   2.0000      -0.371624       -10.1124
  47   2.0000      -0.362249        -9.8573
  48   2.0000      -0.355584        -9.6759
  49   2.0000      -0.346415        -9.4264
  50   2.0000      -0.343344        -9.3429
  51   2.0000      -0.335390        -9.1264
  52   2.0000      -0.325253        -8.8506
  53   2.0000      -0.322531        -8.7765
  54   2.0000      -0.314388        -8.5549
  55   2.0000      -0.311256        -8.4697
  56   2.0000      -0.304738        -8.2923
  57   2.0000      -0.279047        -7.5933
  58   2.0000      -0.170386        -4.6364
  59   0.0000      -0.053201        -1.4477
  60   0.0000       0.008132         0.2213
  61   0.0000       0.025736         0.7003
  62   0.0000       0.027387         0.7452
  63   0.0000       0.032040         0.8718

MULLIKEN ATOMIC CHARGES
-----------------------
   0 C :    1.048895
   1 C :    0.710318
   2 C :    0.337860
   3 H :    0.121185
   4 H :   -0.264755
   5 C :    0.582062
   6 C :   -0.542523
   7 C :    1.146941
   8 N :    0.553376
   9 H :   -0.431721
  10 H :    0.035422
  11 H :   -0.301047
  12 H :   -0.987562
  13 F :   -0.467442
  14 O :   -0.516510
  15 C :    0.223972
  16 C :   -0.025300
  17 C :    0.024630
  18 H :   -0.251457
  19 H :   -0.147918
  20 H :   -0.165723
  21 H :   -0.012585
  22 C :    0.299651
  23 H :    0.004332
  24 H :   -0.364666
  25 C :    0.157009
  26 H :   -0.438167
  27 H :   -0.063092
  28 C :    0.984181
  29 H :    0.111804
  30 H :   -0.453250
  31 H :    0.083686
  32 H :   -0.629297
  33 H :   -0.010589
  34 H :   -0.109025
  35 H :   -0.150531
  36 H :   -0.092165
Sum of atomic charges:    0.0000000

LOEWDIN ATOMIC CHARGES
----------------------
   0 C :    0.023931
   1 C :   -0.006870
   2 C :    0.061113
   3 H :    0.020082
   4 H :    0.041004
   5 C :    0.048497
   6 C :   -0.256473
   7 C :    0.205968
   8 N :    0.199036
   9 H :   -0.070494
  10 H :    0.000488
  11 H :   -0.072901
  12 H :   -0.172119
  13 F :   -0.029671
  14 O :   -0.107673
  15 C :   -0.013853
  16 C :   -0.032235
  17 C :   -0.021200
  18 H :    0.029918
  19 H :    0.011371
  20 H :    0.025651
  21 H :    0.027402
  22 C :   -0.027803
  23 H :    0.015576
  24 H :    0.016758
  25 C :   -0.031385
  26 H :   -0.018820
  27 H :    0.029447
  28 C :   -0.022742
  29 H :    0.014545
  30 H :    0.021224
  31 H :    0.003397
  32 H :    0.020039
  33 H :    0.018393
  34 H :    0.019028
  35 H :    0.008134
  36 H :    0.023236

  Mayer bond orders larger than 0.100000
B(  0-C ,  6-C ) :   1.1766 B(  0-C ,  8-N ) :   0.1240 B(  0-C , 15-C ) :   1.0650
B(  0-C , 23-H ) :   0.1020 B(  0-C , 35-H ) :   0.3858 B(  0-C , 36-H ) :   0.5570
B(  1-C ,  2-C ) :   1.1613 B(  1-C ,  3-H ) :   0.1156 B(  1-C ,  4-H ) :   0.1913
B(  1-C , 17-C ) :   1.2116 B(  1-C , 19-H ) :   0.1149 B(  1-C , 20-H ) :   0.6791
B(  1-C , 21-H ) :   0.5596 B(  2-C ,  3-H ) :   0.8023 B(  2-C ,  4-H ) :   0.5997
B(  2-C ,  5-C ) :   1.1955 B(  2-C , 17-C ) :   0.1650 B(  2-C , 20-H ) :   0.1785
B(  2-C , 21-H ) :   0.1263 B(  3-H ,  5-C ) :   0.1656 B(  4-H ,  5-C ) :   0.2834
B(  5-C , 13-F ) :   0.6333 B(  5-C , 14-O ) :   1.7762 B(  6-C ,  7-C ) :   1.9397
B(  6-C ,  8-N ) :   0.9203 B(  6-C , 10-H ) :   0.1584 B(  6-C , 12-H ) :   0.3656
B(  6-C , 15-C ) :   0.1722 B(  6-C , 35-H ) :   0.4200 B(  6-C , 36-H ) :   0.2732
B(  7-C ,  8-N ) :   0.4339 B(  7-C , 11-H ) :   0.5414 B(  7-C , 12-H ) :  -0.2352
B(  8-N ,  9-H ) :   0.9888 B(  8-N , 10-H ) :   0.9096 B(  8-N , 11-H ) :   0.2753
B(  8-N , 12-H ) :  -0.2566 B(  9-H , 10-H ) :  -0.2313 B(  9-H , 13-F ) :   0.1100
B( 11-H , 12-H ) :  -0.1071 B( 12-H , 14-O ) :   0.2144 B( 13-F , 14-O ) :   0.1263
B( 15-C , 22-C ) :   1.1229 B( 15-C , 23-H ) :   0.8245 B( 15-C , 24-H ) :   0.8488
B( 15-C , 25-C ) :   0.1201 B( 15-C , 26-H ) :   0.1975 B( 15-C , 27-H ) :   0.1126
B( 15-C , 35-H ) :   0.2338 B( 15-C , 36-H ) :   0.1931 B( 16-C , 17-C ) :   1.2478
B( 16-C , 18-H ) :   0.2034 B( 16-C , 19-H ) :   0.1481 B( 16-C , 25-C ) :   0.1916
B( 16-C , 28-C ) :   1.0380 B( 16-C , 31-H ) :   0.7914 B( 16-C , 32-H ) :   1.0183
B( 16-C , 33-H ) :   0.1745 B( 16-C , 34-H ) :   0.3338 B( 17-C , 18-H ) :   0.7805
B( 17-C , 19-H ) :   0.8733 B( 17-C , 20-H ) :   0.2268 B( 17-C , 21-H ) :   0.3004
B( 17-C , 31-H ) :   0.1174 B( 17-C , 32-H ) :   0.1306 B( 20-H , 21-H ) :  -0.1560
B( 22-C , 23-H ) :   0.1603 B( 22-C , 24-H ) :   0.2626 B( 22-C , 25-C ) :   1.1783
B( 22-C , 26-H ) :   0.8964 B( 22-C , 27-H ) :   0.6580 B( 22-C , 29-H ) :   0.1484
B( 22-C , 30-H ) :   0.2592 B( 23-H , 24-H ) :  -0.1004 B( 23-H , 30-H ) :  -0.1099
B( 25-C , 26-H ) :   0.1172 B( 25-C , 27-H ) :   0.1213 B( 25-C , 28-C ) :   1.1175
B( 25-C , 29-H ) :   0.7887 B( 25-C , 30-H ) :   0.8526 B( 25-C , 33-H ) :   0.2633
B( 25-C , 34-H ) :   0.1836 B( 26-H , 27-H ) :   0.1704 B( 26-H , 31-H ) :   0.1948
B( 26-H , 32-H ) :  -0.1399 B( 28-C , 29-H ) :   0.1159 B( 28-C , 33-H ) :   0.5753
B( 28-C , 34-H ) :   0.5230 B( 33-H , 34-H ) :  -0.1461

Dispersion correction           -0.069875588
FINAL SINGLE POINT ENERGY      -699.451277049302

DIPOLE MOMENT
-------------
                                X             Y             Z
Electronic contribution:      1.17845       7.38223      14.96030
Nuclear contribution   :     -1.66567      -5.90236     -15.95042
                        -----------------------------------------
Total Dipole Moment    :     -0.48722       1.47987      -0.99012
                        -----------------------------------------
Magnitude (a.u.)       :      1.84601
Magnitude (Debye)      :      4.69217

Rotational constants in cm-1:     0.021600     0.017292     0.011381
Rotational constants in MHz :   647.565282   518.410024   341.193038

                             ****ORCA TERMINATED NORMALLY****
TOTAL RUN TIME: 0 days 0 hours 4 minutes 10 seconds 313 msec
