                         Program Version 5.0.0 -  RELEASE  -
|  1> !PBE0 D3BJ RIJCOSX def2-TZVP def2/J TightSCF
|  2> *xyz -1 1
|  3> C          4.08422        1.74208       -2.11472
|  4> C          4.26524        2.50052       -0.79589
|  5> H          4.86853        3.39267       -0.98113
|  6> H          3.30764        2.82457       -0.38781
|  7> C          4.98224        1.65026        0.24742
|  8> O          4.36806        1.38927        1.31371
|  9> O          6.12892        1.23351       -0.04562
| 10> H          3.57911        2.36849       -2.81997
| 11> H          3.50424        0.85965       -1.94198
| 12> H          5.04288        1.46841       -2.50327
| 13> *
| 14> %MaxCore 64000
| 15> %pal nprocs 8
| 16> end
| 17> %scf
| 18>   MaxIter 150
| 19> end
| 20>
| 21>
| 22>                          ****END OF INPUT****

CARTESIAN COORDINATES (ANGSTROEM)
---------------------------------
  C      4.084220    1.742080   -2.114720
  C      4.265240    2.500520   -0.795890
  H      4.868530    3.392670   -0.981130
  H      3.307640    2.824570   -0.387810
  C      4.982240    1.650260    0.247420
  O      4.368060    1.389270    1.313710
  O      6.128920    1.233510   -0.045620
  H      3.579110    2.368490   -2.819970
  H      3.504240    0.859650   -1.941980
  H      5.042880    1.468410   -2.503270

 Total Charge           Charge          ....   -1
 Multiplicity           Mult            ....    1
 Number of Electrons    NEL             ....   40
 Basis Dimension        Dim             ....  185

ORBITAL ENERGIES
----------------

  NO   OCC          E(Eh)            E(eV)
   0   2.0000     -18.926934      -515.0281
   1   2.0000     -18.926554      -515.0177
   2   2.0000     -10.089999      -274.5628
   3   2.0000     -10.052536      -273.5434
   4   2.0000     -10.040317      -273.2109
   5   2.0000      -0.838051       -22.8045
   6   2.0000      -0.743687       -20.2368
   7   2.0000      -0.623998       -16.9799
   8   2.0000      -0.488994       -13.3062
   9   2.0000      -0.331175        -9.0117
  10   2.0000      -0.301561        -8.2059
  11   2.0000      -0.268878        -7.3165
  12   2.0000      -0.237767        -6.4700
  13   2.0000      -0.221003        -6.0138
  14   2.0000      -0.214888        -5.8474
  15   2.0000      -0.183319        -4.9884
  16   2.0000      -0.166604        -4.5335
  17   2.0000      -0.050342        -1.3699
  18   2.0000      -0.044015        -1.1977
  19   2.0000      -0.030272        -0.8237
  20   0.0000       0.193721         5.2714
  21   0.0000       0.235152         6.3988
  22   0.0000       0.253994         6.9115
  23   0.0000       0.258964         7.0468
  24   0.0000       0.270265         7.3543

MULLIKEN ATOMIC CHARGES
-----------------------
   0 C :   -0.346383
   1 C :   -0.132603
   2 H :    0.039083
   3 H :    0.044988
   4 C :    0.208811
   5 O :   -0.537490
   6 O :   -0.538080
   7 H :    0.063429
   8 H :    0.094500
   9 H :    0.103744
Sum of atomic charges:   -1.0000000

LOEWDIN ATOMIC CHARGES
----------------------
   0 C :   -0.328048
   1 C :   -0.294640
   2 H :    0.121934
   3 H :    0.118361
   4 C :   -0.707016
   5 O :   -0.116299
   6 O :   -0.111152
   7 H :    0.094082
   8 H :    0.109867
   9 H :    0.112910

  Mayer bond orders larger than 0.100000
B(  0-C ,  1-C ) :   0.9815 B(  0-C ,  7-H ) :   0.9679 B(  0-C ,  8-H ) :   0.9806
B(  0-C ,  9-H ) :   0.9678 B(  1-C ,  2-H ) :   0.9475 B(  1-C ,  3-H ) :   0.9465
B(  1-C ,  4-C ) :   0.9536 B(  4-C ,  5-O ) :   1.8759 B(  4-C ,  6-O ) :   1.8390

Dispersion correction           -0.005468256
FINAL SINGLE POINT ENERGY      -267.642220869096

DIPOLE MOMENT
-------------
                                X             Y             Z
Electronic contribution:      2.47054      -1.51228       5.18194
Nuclear contribution   :     -3.31311       2.28398      -6.76358
                        -----------------------------------------
Total Dipole Moment    :     -0.84257       0.77170      -1.58164
                        -----------------------------------------
Magnitude (a.u.)       :      1.95116
Magnitude (Debye)      :      4.95947

Rotational constants in cm-1:     0.309287     0.135287     0.107346
Rotational constants in MHz :  9272.201029  4055.789113  3218.155789

                             ****ORCA TERMINATED NORMALLY****
TOTAL RUN TIME: 0 days 0 hours 0 minutes 10 seconds 314 msec
