                         Program Version 5.0.0 -  RELEASE  -
|  1> !PBE0 D3BJ RIJCOSX def2-TZVP def2/J TightSCF
|  2> *xyz 1 1
|  3> C          3.91385       -1.65829        3.01513
|  4> N          5.03927       -0.90115        2.49282
|  5> C          6.21038       -1.41726        2.17824
|  6> N          6.53591       -2.67712        2.55608
|  7> N          7.07675       -0.70082        1.47891
|  8> H          7.95464       -1.12155        1.20755
|  9> H          6.75616        0.10664        0.96028
| 10> H          4.84217        0.01761        2.11519
| 11> H          5.99388       -3.12692        3.28278
| 12> C          3.13916       -2.37657        1.91061
| 13> H          3.26723       -0.93940        3.52069
| 14> H          4.24720       -2.35509        3.79006
| 15> H          7.49844       -2.97548        2.46878
| 16> H          2.82969       -1.66654        1.17238
| 17> H          2.27790       -2.85264        2.33072
| 18> H          3.76754       -3.11338        1.45548
| 19> *
| 20> %MaxCore 64000
| 21> %pal nprocs 8
| 22> end
| 23> %scf
| 24>   MaxIter 150
| 25> end
| 26>
| 27>
| 28>                          ****END OF INPUT****

CARTESIAN COORDINATES (ANGSTROEM)
---------------------------------
  C      3.913850   -1.658290    3.015130
  N      5.039270   -0.901150    2.492820
  C      6.210380   -1.417260    2.178240
  N      6.535910   -2.677120    2.556080
  N      7.076750   -0.700820    1.478910
  H      7.954640   -1.121550    1.207550
  H      6.756160    0.106640    0.960280
  H      4.842170    0.017610    2.115190
  H      5.993880   -3.126920    3.282780
  C      3.139160   -2.376570    1.910610
  H      3.267230   -0.939400    3.520690
  H      4.247200   -2.355090    3.790060
  H      7.498440   -2.975480    2.468780
  H      2.829690   -1.666540    1.172380
  H      2.277900   -2.852640    2.330720
  H      3.767540   -3.113380    1.455480

 Total Charge           Charge          ....    1
 Multiplicity           Mult            ....    1
 Number of Electrons    NEL             ....   48
 Basis Dimension        Dim             ....  246

ORBITAL ENERGIES
----------------

  NO   OCC          E(Eh)            E(eV)
   0   2.0000     -14.609793      -397.5527
   1   2.0000     -14.606433      -397.4612
   2   2.0000     -14.604160      -397.3994
   3   2.0000     -10.554493      -287.2023
   4   2.0000     -10.429568      -283.8030
   5   2.0000     -10.354056      -281.7482
   6   2.0000      -1.244435       -33.8628
   7   2.0000      -1.133768       -30.8514
   8   2.0000      -1.116627       -30.3850
   9   2.0000      -0.954099       -25.9623
  10   2.0000      -0.862166       -23.4607
  11   2.0000      -0.820972       -22.3398
  12   2.0000      -0.802673       -21.8419
  13   2.0000      -0.760676       -20.6991
  14   2.0000      -0.706542       -19.2260
  15   2.0000      -0.700835       -19.0707
  16   2.0000      -0.669162       -18.2088
  17   2.0000      -0.644302       -17.5324
  18   2.0000      -0.615457       -16.7474
  19   2.0000      -0.575522       -15.6607
  20   2.0000      -0.544414       -14.8142
  21   2.0000      -0.524411       -14.2700
  22   2.0000      -0.491033       -13.3617
  23   2.0000      -0.462568       -12.5871
  24   0.0000      -0.160632        -4.3710
  25   0.0000      -0.144007        -3.9186
  26   0.0000      -0.111907        -3.0452
  27   0.0000      -0.101825        -2.7708
  28   0.0000      -0.081013        -2.2045

MULLIKEN ATOMIC CHARGES
-----------------------
   0 C :   -0.181687
   1 N :   -0.235187
   2 C :    0.413779
   3 N :   -0.409737
   4 N :   -0.399909
   5 H :    0.288271
   6 H :    0.288562
   7 H :    0.259231
   8 H :    0.283025
   9 C :   -0.331273
  10 H :    0.172859
  11 H :    0.129947
  12 H :    0.280448
  13 H :    0.136681
  14 H :    0.166747
  15 H :    0.138242
Sum of atomic charges:    1.0000000

LOEWDIN ATOMIC CHARGES
----------------------
   0 C :   -0.285900
   1 N :    0.176981
   2 C :   -0.407446
   3 N :    0.051829
   4 N :    0.069269
   5 H :    0.199282
   6 H :    0.199504
   7 H :    0.212832
   8 H :    0.193264
   9 C :   -0.285575
  10 H :    0.153265
  11 H :    0.138613
  12 H :    0.195584
  13 H :    0.127005
  14 H :    0.137338
  15 H :    0.124154

  Mayer bond orders larger than 0.100000
B(  0-C ,  1-N ) :   0.9020 B(  0-C ,  9-C ) :   1.0032 B(  0-C , 10-H ) :   0.9489
B(  0-C , 11-H ) :   0.9609 B(  1-N ,  2-C ) :   1.4140 B(  1-N ,  7-H ) :   0.8965
B(  2-C ,  3-N ) :   1.3361 B(  2-C ,  4-N ) :   1.3586 B(  3-N ,  8-H ) :   0.8848
B(  3-N , 12-H ) :   0.8938 B(  4-N ,  5-H ) :   0.8904 B(  4-N ,  6-H ) :   0.8901
B(  9-C , 13-H ) :   0.9622 B(  9-C , 14-H ) :   0.9607 B(  9-C , 15-H ) :   0.9605

Dispersion correction           -0.010474440
FINAL SINGLE POINT ENERGY      -284.182299794583

DIPOLE MOMENT
-------------
                                X             Y             Z
Electronic contribution:      4.71729       1.91572       0.06655
Nuclear contribution   :     -3.67981      -1.62355      -0.28562
                        -----------------------------------------
Total Dipole Moment    :      1.03748       0.29217      -0.21907
                        -----------------------------------------
Magnitude (a.u.)       :      1.09987
Magnitude (Debye)      :      2.79566

Rotational constants in cm-1:     0.222027     0.074735     0.065694
Rotational constants in MHz :  6656.200457  2240.503315  1969.451902

                             ****ORCA TERMINATED NORMALLY****
TOTAL RUN TIME: 0 days 0 hours 0 minutes 22 seconds 779 msec
