                         Program Version 5.0.0 -  RELEASE  -
|  1> !PBE0 D3BJ RIJCOSX def2-TZVP def2/J TightSCF xyzfile
|  2>
|  3> *xyzfile 0 1 B.xyz
|  4>
|  5> %MaxCore 64000
|  6>
|  7> %pal nprocs 18
|  8> end
|  9>
| 10> %scf
| 11>   MaxIter 150
| 12> end
| 13>
| 14>
| 15>                          ****END OF INPUT****

CARTESIAN COORDINATES (ANGSTROEM)
---------------------------------
  C      3.913853   -1.658291    3.015134
  N      5.039266   -0.901154    2.492821
  C      4.084215    1.742081   -2.114724
  C      4.265245    2.500518   -0.795890
  H      4.868534    3.392674   -0.981134
  H      3.307640    2.824571   -0.387809
  C      4.982240    1.650257    0.247422
  C      6.210384   -1.417261    2.178244
  N      6.535913   -2.677122    2.556078
  N      7.076754   -0.700820    1.478906
  H      7.954643   -1.121554    1.207554
  H      6.756161    0.106637    0.960278
  H      4.842168    0.017609    2.115191
  H      5.993876   -3.126918    3.282784
  H      7.498441   -2.975482    2.468776
  O      4.368065    1.389270    1.313706
  O      6.128919    1.233512   -0.045620
  C      3.139159   -2.376572    1.910609
  H      3.267235   -0.939401    3.520693
  H      4.247195   -2.355095    3.790065
  C      1.997274    0.430918   -1.399218
  C      3.412746    0.376886   -1.965497
  H      4.047407   -0.246590   -1.326706
  H      3.390774   -0.118719   -2.942839
  H      5.068475    1.598504   -2.565728
  H      3.503356    2.363939   -2.804565
  C      2.399946   -1.389579    1.009490
  H      2.440750   -3.087118    2.362976
  H      3.844475   -2.970462    1.318677
  C      2.070177   -1.936705   -0.372401
  H      1.481611   -1.061542    1.509912
  H      3.008628   -0.490001    0.897451
  C      1.322238   -0.935775   -1.256413
  H      1.472747   -2.850902   -0.283997
  H      3.003539   -2.234041   -0.862535
  H      1.376444    1.058920   -2.047420
  H      2.015341    0.929780   -0.426535
  H      0.316648   -0.787213   -0.848278
  H      1.185611   -1.379252   -2.248613

 Total Charge           Charge          ....    0
 Multiplicity           Mult            ....    1
 Number of Electrons    NEL             ....  126
 Basis Dimension        Dim             ....  634

ORBITAL ENERGIES
----------------

  NO   OCC          E(Eh)            E(eV)
   0   2.0000     -19.122627      -520.3531
   1   2.0000     -19.121208      -520.3145
   2   2.0000     -14.448294      -393.1581
   3   2.0000     -14.415538      -392.2667
   4   2.0000     -14.408171      -392.0663
   5   2.0000     -10.377588      -282.3885
   6   2.0000     -10.277891      -279.6756
   7   2.0000     -10.275858      -279.6203
   8   2.0000     -10.228003      -278.3181
   9   2.0000     -10.205960      -277.7183
  10   2.0000     -10.205314      -277.7007
  11   2.0000     -10.201772      -277.6043
  12   2.0000     -10.192532      -277.3529
  13   2.0000     -10.190873      -277.3077
  14   2.0000     -10.190226      -277.2902
  15   2.0000     -10.180661      -277.0299
  16   2.0000      -1.068786       -29.0831
  17   2.0000      -1.035379       -28.1741
  18   2.0000      -0.960248       -26.1297
  19   2.0000      -0.946709       -25.7613
  20   2.0000      -0.936337       -25.4790
  21   2.0000      -0.834435       -22.7061
  22   2.0000      -0.809487       -22.0273
  23   2.0000      -0.780137       -21.2286
  24   2.0000      -0.739537       -20.1238
  25   2.0000      -0.700571       -19.0635
  26   2.0000      -0.681675       -18.5493
  27   2.0000      -0.650906       -17.7120
  28   2.0000      -0.631730       -17.1902
  29   2.0000      -0.620645       -16.8886
  30   2.0000      -0.591978       -16.1085
  31   2.0000      -0.585691       -15.9375
  32   2.0000      -0.554974       -15.1016
  33   2.0000      -0.538642       -14.6572
  34   2.0000      -0.532740       -14.4966
  35   2.0000      -0.511550       -13.9200
  36   2.0000      -0.484463       -13.1829
  37   2.0000      -0.480034       -13.0624
  38   2.0000      -0.471679       -12.8350
  39   2.0000      -0.468270       -12.7423
  40   2.0000      -0.453711       -12.3461
  41   2.0000      -0.436655       -11.8820
  42   2.0000      -0.433660       -11.8005
  43   2.0000      -0.428600       -11.6628
  44   2.0000      -0.420142       -11.4326
  45   2.0000      -0.411600       -11.2002
  46   2.0000      -0.395909       -10.7732
  47   2.0000      -0.382459       -10.4072
  48   2.0000      -0.377425       -10.2703
  49   2.0000      -0.365449        -9.9444
  50   2.0000      -0.358999        -9.7689
  51   2.0000      -0.350998        -9.5511
  52   2.0000      -0.337726        -9.1900
  53   2.0000      -0.329807        -8.9745
  54   2.0000      -0.325439        -8.8556
  55   2.0000      -0.319641        -8.6979
  56   2.0000      -0.309183        -8.4133
  57   2.0000      -0.304532        -8.2867
  58   2.0000      -0.297633        -8.0990
  59   2.0000      -0.286683        -7.8010
  60   2.0000      -0.244180        -6.6445
  61   2.0000      -0.233224        -6.3463
  62   2.0000      -0.228305        -6.2125
  63   0.0000      -0.001948        -0.0530
  64   0.0000       0.010714         0.2915
  65   0.0000       0.030406         0.8274
  66   0.0000       0.052149         1.4191
  67   0.0000       0.065106         1.7716

MULLIKEN ATOMIC CHARGES
-----------------------
   0 C :   -0.164215
   1 N :   -0.212219
   2 C :   -0.148885
   3 C :   -0.164680
   4 H :    0.098877
   5 H :    0.104785
   6 C :    0.317767
   7 C :    0.364663
   8 N :   -0.449073
   9 N :   -0.387365
  10 H :    0.232091
  11 H :    0.281137
  12 H :    0.263225
  13 H :    0.257796
  14 H :    0.250295
  15 O :   -0.541456
  16 O :   -0.536609
  17 C :   -0.137729
  18 H :    0.142344
  19 H :    0.106194
  20 C :   -0.264710
  21 C :   -0.225839
  22 H :    0.112182
  23 H :    0.086373
  24 H :    0.099980
  25 H :    0.084924
  26 C :   -0.294999
  27 H :    0.106261
  28 H :    0.103459
  29 C :   -0.204692
  30 H :    0.090717
  31 H :    0.140382
  32 C :   -0.138979
  33 H :    0.095543
  34 H :    0.107204
  35 H :    0.094208
  36 H :    0.142454
  37 H :    0.093846
  38 H :    0.094742
Sum of atomic charges:   -0.0000000

LOEWDIN ATOMIC CHARGES
----------------------
   0 C :   -0.277044
   1 N :    0.181469
   2 C :   -0.268287
   3 C :   -0.241609
   4 H :    0.143648
   5 H :    0.136683
   6 C :   -0.637376
   7 C :   -0.429072
   8 N :    0.007361
   9 N :    0.062338
  10 H :    0.174939
  11 H :    0.151432
  12 H :    0.172702
  13 H :    0.177868
  14 H :    0.178369
  15 O :   -0.058356
  16 O :   -0.045524
  17 C :   -0.269973
  18 H :    0.149820
  19 H :    0.123929
  20 C :   -0.273196
  21 C :   -0.271671
  22 H :    0.139941
  23 H :    0.134051
  24 H :    0.140834
  25 H :    0.132776
  26 C :   -0.271819
  27 H :    0.137722
  28 H :    0.139415
  29 C :   -0.277133
  30 H :    0.138753
  31 H :    0.149043
  32 C :   -0.271770
  33 H :    0.133731
  34 H :    0.135992
  35 H :    0.135873
  36 H :    0.142727
  37 H :    0.135876
  38 H :    0.135538

  Mayer bond orders larger than 0.100000
B(  0-C ,  1-N ) :   0.9579 B(  0-C , 17-C ) :   0.9675 B(  0-C , 18-H ) :   0.9553
B(  0-C , 19-H ) :   0.9773 B(  1-N ,  7-C ) :   1.4516 B(  1-N , 12-H ) :   0.7642
B(  2-C ,  3-C ) :   0.9910 B(  2-C , 21-C ) :   1.0197 B(  2-C , 24-H ) :   0.9482
B(  2-C , 25-H ) :   0.9544 B(  3-C ,  4-H ) :   0.9386 B(  3-C ,  5-H ) :   0.9749
B(  3-C ,  6-C ) :   0.9722 B(  6-C , 15-O ) :   1.6323 B(  6-C , 16-O ) :   1.6572
B(  7-C ,  8-N ) :   1.2455 B(  7-C ,  9-N ) :   1.4257 B(  8-N , 13-H ) :   0.8971
B(  8-N , 14-H ) :   0.9084 B(  9-N , 10-H ) :   0.9146 B(  9-N , 11-H ) :   0.7482
B( 11-H , 16-O ) :   0.2321 B( 12-H , 15-O ) :   0.2211 B( 17-C , 26-C ) :   0.9891
B( 17-C , 27-H ) :   0.9491 B( 17-C , 28-H ) :   0.9612 B( 20-C , 21-C ) :   0.9960
B( 20-C , 32-C ) :   0.9878 B( 20-C , 35-H ) :   0.9523 B( 20-C , 36-H ) :   0.9676
B( 21-C , 22-H ) :   0.9584 B( 21-C , 23-H ) :   0.9550 B( 26-C , 29-C ) :   0.9976
B( 26-C , 30-H ) :   0.9507 B( 26-C , 31-H ) :   0.9808 B( 29-C , 32-C ) :   1.0114
B( 29-C , 33-H ) :   0.9588 B( 29-C , 34-H ) :   0.9621 B( 32-C , 37-H ) :   0.9630
B( 32-C , 38-H ) :   0.9593

Dispersion correction           -0.039130278
FINAL SINGLE POINT ENERGY      -747.234648133117

DIPOLE MOMENT
-------------
                                X             Y             Z
Electronic contribution:     12.34502       3.29075       7.68664
Nuclear contribution   :    -11.44764      -6.21818      -6.18483
                        -----------------------------------------
Total Dipole Moment    :      0.89738      -2.92743       1.50181
                        -----------------------------------------
Magnitude (a.u.)       :      3.41036
Magnitude (Debye)      :      8.66845

Rotational constants in cm-1:     0.020281     0.013510     0.009451
Rotational constants in MHz :   608.005987   405.034308   283.324538

                             ****ORCA TERMINATED NORMALLY****
TOTAL RUN TIME: 0 days 0 hours 1 minutes 33 seconds 688 msec
