                         Program Version 5.0.0 -  RELEASE  -
|  1> !PBE0 D3BJ RIJCOSX def2-TZVP def2/J TightSCF
|  2> *xyz 0 1
|  3> C          4.08422        1.74208       -2.11472
|  4> C          4.26524        2.50052       -0.79589
|  5> H          4.86853        3.39267       -0.98113
|  6> H          3.30764        2.82457       -0.38781
|  7> C          4.98224        1.65026        0.24742
|  8> F          4.36806        1.38927        1.31371
|  9> O          6.12892        1.23351       -0.04562
| 10> H          3.57911        2.36849       -2.81997
| 11> H          3.50424        0.85965       -1.94198
| 12> H          5.04288        1.46841       -2.50327
| 13> *
| 14> %MaxCore 64000
| 15> %pal nprocs 8
| 16> end
| 17> %scf
| 18>   MaxIter 150
| 19> end
| 20>
| 21>
| 22>                          ****END OF INPUT****

CARTESIAN COORDINATES (ANGSTROEM)
---------------------------------
  C      4.084220    1.742080   -2.114720
  C      4.265240    2.500520   -0.795890
  H      4.868530    3.392670   -0.981130
  H      3.307640    2.824570   -0.387810
  C      4.982240    1.650260    0.247420
  F      4.368060    1.389270    1.313710
  O      6.128920    1.233510   -0.045620
  H      3.579110    2.368490   -2.819970
  H      3.504240    0.859650   -1.941980
  H      5.042880    1.468410   -2.503270

 Total Charge           Charge          ....    0
 Multiplicity           Mult            ....    1
 Number of Electrons    NEL             ....   40
 Basis Dimension        Dim             ....  185

ORBITAL ENERGIES
----------------

  NO   OCC          E(Eh)            E(eV)
   0   2.0000     -24.839508      -675.9174
   1   2.0000     -19.209010      -522.7037
   2   2.0000     -10.396586      -282.9055
   3   2.0000     -10.253013      -278.9987
   4   2.0000     -10.224700      -278.2282
   5   2.0000      -1.349413       -36.7194
   6   2.0000      -1.061132       -28.8749
   7   2.0000      -0.824840       -22.4450
   8   2.0000      -0.710851       -19.3432
   9   2.0000      -0.657845       -17.9009
  10   2.0000      -0.564328       -15.3561
  11   2.0000      -0.550987       -14.9931
  12   2.0000      -0.525768       -14.3069
  13   2.0000      -0.479730       -13.0541
  14   2.0000      -0.449143       -12.2218
  15   2.0000      -0.413269       -11.2456
  16   2.0000      -0.392209       -10.6725
  17   2.0000      -0.386932       -10.5290
  18   2.0000      -0.359009        -9.7691
  19   2.0000      -0.305882        -8.3235
  20   0.0000      -0.023564        -0.6412
  21   0.0000       0.044896         1.2217
  22   0.0000       0.082996         2.2584
  23   0.0000       0.096852         2.6355
  24   0.0000       0.108468         2.9516

MULLIKEN ATOMIC CHARGES
-----------------------
   0 C :   -0.369251
   1 C :   -0.201953
   2 H :    0.131732
   3 H :    0.114119
   4 C :    0.360947
   5 F :   -0.097207
   6 O :   -0.337183
   7 H :    0.129027
   8 H :    0.123037
   9 H :    0.146734
Sum of atomic charges:   -0.0000000

LOEWDIN ATOMIC CHARGES
----------------------
   0 C :   -0.288931
   1 C :   -0.262778
   2 H :    0.156736
   3 H :    0.139374
   4 C :   -0.500634
   5 F :    0.321193
   6 O :    0.065769
   7 H :    0.120734
   8 H :    0.121254
   9 H :    0.127283

  Mayer bond orders larger than 0.100000
B(  0-C ,  1-C ) :   0.9934 B(  0-C ,  7-H ) :   0.9657 B(  0-C ,  8-H ) :   0.9721
B(  0-C ,  9-H ) :   0.9661 B(  1-C ,  2-H ) :   0.9373 B(  1-C ,  3-H ) :   0.9515
B(  1-C ,  4-C ) :   1.0042 B(  4-C ,  5-F ) :   1.1648 B(  4-C ,  6-O ) :   2.0504

Dispersion correction           -0.005181145
FINAL SINGLE POINT ENERGY      -292.202052599996

DIPOLE MOMENT
-------------
                                X             Y             Z
Electronic contribution:      1.92821      -2.04882       8.14288
Nuclear contribution   :     -2.87511       2.61564      -8.50037
                        -----------------------------------------
Total Dipole Moment    :     -0.94689       0.56681      -0.35749
                        -----------------------------------------
Magnitude (a.u.)       :      1.16004
Magnitude (Debye)      :      2.94858

Rotational constants in cm-1:     0.297822     0.128965     0.102219
Rotational constants in MHz :  8928.481997  3866.271686  3064.463504

                             ****ORCA TERMINATED NORMALLY****
TOTAL RUN TIME: 0 days 0 hours 0 minutes 10 seconds 130 msec
