                         Program Version 5.0.0 -  RELEASE  -
|  1> !PBE0 D3BJ RIJCOSX def2-TZVP def2/J TightSCF
|  2> *xyz 0 1
|  3> C          3.91385       -1.65829        3.01513
|  4> C          5.03927       -0.90115        2.49282
|  5> C          6.21038       -1.41726        2.17824
|  6> N          6.53591       -2.67712        2.55608
|  7> N          7.07675       -0.70082        1.47891
|  8> H          7.95464       -1.12155        1.20755
|  9> H          6.75616        0.10664        0.96028
| 10> H          4.84217        0.01761        2.11519
| 11> H          5.99388       -3.12692        3.28278
| 12> C          3.13916       -2.37657        1.91061
| 13> H          3.26723       -0.93940        3.52069
| 14> H          4.24720       -2.35509        3.79006
| 15> H          7.49844       -2.97548        2.46878
| 16> H          2.82969       -1.66654        1.17238
| 17> H          2.27790       -2.85264        2.33072
| 18> H          3.76754       -3.11338        1.45548
| 19> *
| 20> %MaxCore 64000
| 21> %pal nprocs 8
| 22> end
| 23> %scf
| 24>   MaxIter 150
| 25> end
| 26>
| 27>
| 28>                          ****END OF INPUT****

CARTESIAN COORDINATES (ANGSTROEM)
---------------------------------
  C      3.913850   -1.658290    3.015130
  C      5.039270   -0.901150    2.492820
  C      6.210380   -1.417260    2.178240
  N      6.535910   -2.677120    2.556080
  N      7.076750   -0.700820    1.478910
  H      7.954640   -1.121550    1.207550
  H      6.756160    0.106640    0.960280
  H      4.842170    0.017610    2.115190
  H      5.993880   -3.126920    3.282780
  C      3.139160   -2.376570    1.910610
  H      3.267230   -0.939400    3.520690
  H      4.247200   -2.355090    3.790060
  H      7.498440   -2.975480    2.468780
  H      2.829690   -1.666540    1.172380
  H      2.277900   -2.852640    2.330720
  H      3.767540   -3.113380    1.455480

 Total Charge           Charge          ....    0
 Multiplicity           Mult            ....    1
 Number of Electrons    NEL             ....   48
 Basis Dimension        Dim             ....  246

ORBITAL ENERGIES
----------------

  NO   OCC          E(Eh)            E(eV)
   0   2.0000     -14.381243      -391.3335
   1   2.0000     -14.379236      -391.2789
   2   2.0000     -10.259777      -279.1827
   3   2.0000     -10.193765      -277.3864
   4   2.0000     -10.180044      -277.0131
   5   2.0000     -10.139015      -275.8966
   6   2.0000      -0.985322       -26.8120
   7   2.0000      -0.893712       -24.3191
   8   2.0000      -0.795597       -21.6493
   9   2.0000      -0.713554       -19.4168
  10   2.0000      -0.634126       -17.2554
  11   2.0000      -0.591786       -16.1033
  12   2.0000      -0.553871       -15.0716
  13   2.0000      -0.524302       -14.2670
  14   2.0000      -0.485459       -13.2100
  15   2.0000      -0.449765       -12.2387
  16   2.0000      -0.430049       -11.7022
  17   2.0000      -0.399321       -10.8661
  18   2.0000      -0.392987       -10.6937
  19   2.0000      -0.364584        -9.9208
  20   2.0000      -0.337643        -9.1877
  21   2.0000      -0.328473        -8.9382
  22   2.0000      -0.277226        -7.5437
  23   2.0000      -0.168175        -4.5763
  24   0.0000       0.029334         0.7982
  25   0.0000       0.060556         1.6478
  26   0.0000       0.067569         1.8387
  27   0.0000       0.089499         2.4354
  28   0.0000       0.093443         2.5427

MULLIKEN ATOMIC CHARGES
-----------------------
   0 C :   -0.179175
   1 C :   -0.334476
   2 C :    0.303855
   3 N :   -0.484478
   4 N :   -0.472508
   5 H :    0.221481
   6 H :    0.247923
   7 H :    0.077859
   8 H :    0.242012
   9 C :   -0.312509
  10 H :    0.095479
  11 H :    0.059533
  12 H :    0.218202
  13 H :    0.101911
  14 H :    0.102014
  15 H :    0.112877
Sum of atomic charges:    0.0000000

LOEWDIN ATOMIC CHARGES
----------------------
   0 C :   -0.310978
   1 C :   -0.282195
   2 C :   -0.460878
   3 N :   -0.026936
   4 N :   -0.011806
   5 H :    0.162228
   6 H :    0.178502
   7 H :    0.121421
   8 H :    0.172366
   9 C :   -0.305580
  10 H :    0.139732
  11 H :    0.125293
  12 H :    0.160124
  13 H :    0.114919
  14 H :    0.108360
  15 H :    0.115427

  Mayer bond orders larger than 0.100000
B(  0-C ,  1-C ) :   1.0612 B(  0-C ,  9-C ) :   0.9686 B(  0-C , 10-H ) :   0.9723
B(  0-C , 11-H ) :   0.9609 B(  1-C ,  2-C ) :   1.7186 B(  1-C ,  7-H ) :   0.9979
B(  2-C ,  3-N ) :   1.1562 B(  2-C ,  4-N ) :   1.1618 B(  3-N ,  8-H ) :   0.9118
B(  3-N , 12-H ) :   0.9202 B(  4-N ,  5-H ) :   0.9214 B(  4-N ,  6-H ) :   0.9135
B(  9-C , 13-H ) :   0.9757 B(  9-C , 14-H ) :   0.9690 B(  9-C , 15-H ) :   0.9758

Dispersion correction           -0.010896804
FINAL SINGLE POINT ENERGY      -267.707235733226

DIPOLE MOMENT
-------------
                                X             Y             Z
Electronic contribution:      4.70164       1.21390      -0.06089
Nuclear contribution   :     -3.74303      -1.46908      -0.23637
                        -----------------------------------------
Total Dipole Moment    :      0.95862      -0.25518      -0.29726
                        -----------------------------------------
Magnitude (a.u.)       :      1.03558
Magnitude (Debye)      :      2.63224

Rotational constants in cm-1:     0.225937     0.074877     0.065953
Rotational constants in MHz :  6773.424301  2244.750632  1977.214101

                             ****ORCA TERMINATED NORMALLY****
TOTAL RUN TIME: 0 days 0 hours 0 minutes 14 seconds 465 msec
