                         Program Version 5.0.0 -  RELEASE  -
|  1> !PBE0 D3BJ RIJCOSX def2-TZVP def2/J TightSCF
|  2> *xyz 0 1
|  3> C          4.08422        1.74208       -2.11472
|  4> C          4.26524        2.50052       -0.79589
|  5> H          4.86853        3.39267       -0.98113
|  6> H          3.30764        2.82457       -0.38781
|  7> C          4.98224        1.65026        0.24742
|  8> O          4.36806        1.38927        1.31371
|  9> F          6.12892        1.23351       -0.04562
| 10> H          3.57911        2.36849       -2.81997
| 11> H          3.50424        0.85965       -1.94198
| 12> H          5.04288        1.46841       -2.50327
| 13> *
| 14> %MaxCore 64000
| 15> %pal nprocs 8
| 16> end
| 17> %scf
| 18>   MaxIter 150
| 19> end
| 20>
| 21>
| 22>                          ****END OF INPUT****

CARTESIAN COORDINATES (ANGSTROEM)
---------------------------------
  C      4.084220    1.742080   -2.114720
  C      4.265240    2.500520   -0.795890
  H      4.868530    3.392670   -0.981130
  H      3.307640    2.824570   -0.387810
  C      4.982240    1.650260    0.247420
  O      4.368060    1.389270    1.313710
  F      6.128920    1.233510   -0.045620
  H      3.579110    2.368490   -2.819970
  H      3.504240    0.859650   -1.941980
  H      5.042880    1.468410   -2.503270

 Total Charge           Charge          ....    0
 Multiplicity           Mult            ....    1
 Number of Electrons    NEL             ....   40
 Basis Dimension        Dim             ....  185

ORBITAL ENERGIES
----------------

  NO   OCC          E(Eh)            E(eV)
   0   2.0000     -24.840588      -675.9468
   1   2.0000     -19.208385      -522.6867
   2   2.0000     -10.396073      -282.8915
   3   2.0000     -10.252702      -278.9902
   4   2.0000     -10.229265      -278.3525
   5   2.0000      -1.351950       -36.7884
   6   2.0000      -1.058001       -28.7897
   7   2.0000      -0.828835       -22.5537
   8   2.0000      -0.708477       -19.2786
   9   2.0000      -0.663255       -18.0481
  10   2.0000      -0.567450       -15.4411
  11   2.0000      -0.556459       -15.1420
  12   2.0000      -0.519030       -14.1235
  13   2.0000      -0.480260       -13.0685
  14   2.0000      -0.450288       -12.2529
  15   2.0000      -0.416336       -11.3291
  16   2.0000      -0.396507       -10.7895
  17   2.0000      -0.389697       -10.6042
  18   2.0000      -0.362346        -9.8599
  19   2.0000      -0.301043        -8.1918
  20   0.0000      -0.020221        -0.5503
  21   0.0000       0.041037         1.1167
  22   0.0000       0.081837         2.2269
  23   0.0000       0.098888         2.6909
  24   0.0000       0.112838         3.0705

MULLIKEN ATOMIC CHARGES
-----------------------
   0 C :   -0.372468
   1 C :   -0.198095
   2 H :    0.119134
   3 H :    0.137658
   4 C :    0.351810
   5 O :   -0.335996
   6 F :   -0.098270
   7 H :    0.133349
   8 H :    0.133720
   9 H :    0.129158
Sum of atomic charges:    0.0000000

LOEWDIN ATOMIC CHARGES
----------------------
   0 C :   -0.295341
   1 C :   -0.258139
   2 H :    0.149143
   3 H :    0.152526
   4 C :   -0.503841
   5 O :    0.059931
   6 F :    0.328177
   7 H :    0.122536
   8 H :    0.123586
   9 H :    0.121421

  Mayer bond orders larger than 0.100000
B(  0-C ,  1-C ) :   0.9820 B(  0-C ,  7-H ) :   0.9656 B(  0-C ,  8-H ) :   0.9700
B(  0-C ,  9-H ) :   0.9690 B(  1-C ,  2-H ) :   0.9341 B(  1-C ,  3-H ) :   0.9564
B(  1-C ,  4-C ) :   1.0225 B(  4-C ,  5-O ) :   2.0645 B(  4-C ,  6-F ) :   1.1560

Dispersion correction           -0.005152739
FINAL SINGLE POINT ENERGY      -292.201372147366

DIPOLE MOMENT
-------------
                                X             Y             Z
Electronic contribution:      4.84314      -2.29602       5.86179
Nuclear contribution   :     -4.79499       2.78546      -7.01827
                        -----------------------------------------
Total Dipole Moment    :      0.04815       0.48945      -1.15649
                        -----------------------------------------
Magnitude (a.u.)       :      1.25672
Magnitude (Debye)      :      3.19432

Rotational constants in cm-1:     0.286098     0.133492     0.103343
Rotational constants in MHz :  8577.003657  4001.981591  3098.148068

                             ****ORCA TERMINATED NORMALLY****
TOTAL RUN TIME: 0 days 0 hours 0 minutes 9 seconds 957 msec
