                         Program Version 5.0.0 -  RELEASE  -
|  1> !PBE0 D3BJ RIJCOSX def2-TZVP def2/J TightSCF
|  2> *xyz 0 1
|  3> C          3.91385       -1.65829        3.01513
|  4> N          5.03927       -0.90115        2.49282
|  5> C          6.21038       -1.41726        2.17824
|  6> C          6.53591       -2.67712        2.55608
|  7> N          7.07675       -0.70082        1.47891
|  8> H          7.95464       -1.12155        1.20755
|  9> H          6.75616        0.10664        0.96028
| 10> H          4.84217        0.01761        2.11519
| 11> H          5.99388       -3.12692        3.28278
| 12> C          3.13916       -2.37657        1.91061
| 13> H          3.26723       -0.93940        3.52069
| 14> H          4.24720       -2.35509        3.79006
| 15> H          7.49844       -2.97548        2.46878
| 16> H          2.82969       -1.66654        1.17238
| 17> H          2.27790       -2.85264        2.33072
| 18> H          3.76754       -3.11338        1.45548
| 19> *
| 20> %MaxCore 64000
| 21> %pal nprocs 8
| 22> end
| 23> %scf
| 24>   MaxIter 150
| 25> end
| 26>
| 27>
| 28>                          ****END OF INPUT****

CARTESIAN COORDINATES (ANGSTROEM)
---------------------------------
  C      3.913850   -1.658290    3.015130
  N      5.039270   -0.901150    2.492820
  C      6.210380   -1.417260    2.178240
  C      6.535910   -2.677120    2.556080
  N      7.076750   -0.700820    1.478910
  H      7.954640   -1.121550    1.207550
  H      6.756160    0.106640    0.960280
  H      4.842170    0.017610    2.115190
  H      5.993880   -3.126920    3.282780
  C      3.139160   -2.376570    1.910610
  H      3.267230   -0.939400    3.520690
  H      4.247200   -2.355090    3.790060
  H      7.498440   -2.975480    2.468780
  H      2.829690   -1.666540    1.172380
  H      2.277900   -2.852640    2.330720
  H      3.767540   -3.113380    1.455480

 Total Charge           Charge          ....    0
 Multiplicity           Mult            ....    1
 Number of Electrons    NEL             ....   48
 Basis Dimension        Dim             ....  246

ORBITAL ENERGIES
----------------

  NO   OCC          E(Eh)            E(eV)
   0   2.0000     -14.387667      -391.5083
   1   2.0000     -14.382955      -391.3801
   2   2.0000     -10.266285      -279.3598
   3   2.0000     -10.253139      -279.0021
   4   2.0000     -10.198909      -277.5264
   5   2.0000     -10.128492      -275.6103
   6   2.0000      -0.999825       -27.2066
   7   2.0000      -0.914498       -24.8848
   8   2.0000      -0.775894       -21.1132
   9   2.0000      -0.726015       -19.7559
  10   2.0000      -0.660190       -17.9647
  11   2.0000      -0.581069       -15.8117
  12   2.0000      -0.566125       -15.4051
  13   2.0000      -0.535227       -14.5643
  14   2.0000      -0.479766       -13.0551
  15   2.0000      -0.452177       -12.3044
  16   2.0000      -0.431141       -11.7319
  17   2.0000      -0.409911       -11.1542
  18   2.0000      -0.390433       -10.6242
  19   2.0000      -0.377607       -10.2752
  20   2.0000      -0.374027       -10.1778
  21   2.0000      -0.355815        -9.6822
  22   2.0000      -0.262732        -7.1493
  23   2.0000      -0.172259        -4.6874
  24   0.0000       0.028764         0.7827
  25   0.0000       0.059503         1.6192
  26   0.0000       0.072318         1.9679
  27   0.0000       0.082469         2.2441
  28   0.0000       0.098804         2.6886

MULLIKEN ATOMIC CHARGES
-----------------------
   0 C :   -0.119721
   1 N :   -0.298740
   2 C :    0.310345
   3 C :   -0.516744
   4 N :   -0.472195
   5 H :    0.251958
   6 H :    0.219200
   7 H :    0.195949
   8 H :    0.089031
   9 C :   -0.328372
  10 H :    0.112535
  11 H :    0.116448
  12 H :    0.084498
  13 H :    0.093882
  14 H :    0.113302
  15 H :    0.148624
Sum of atomic charges:   -0.0000000

LOEWDIN ATOMIC CHARGES
----------------------
   0 C :   -0.301244
   1 N :    0.122137
   2 C :   -0.473050
   3 C :   -0.364117
   4 N :   -0.007055
   5 H :    0.180347
   6 H :    0.161036
   7 H :    0.179550
   8 H :    0.095995
   9 C :   -0.308269
  10 H :    0.130099
  11 H :    0.136643
  12 H :    0.093878
  13 H :    0.112476
  14 H :    0.116813
  15 H :    0.124760

  Mayer bond orders larger than 0.100000
B(  0-C ,  1-N ) :   0.9589 B(  0-C ,  9-C ) :   0.9968 B(  0-C , 10-H ) :   0.9679
B(  0-C , 11-H ) :   0.9568 B(  1-N ,  2-C ) :   1.2182 B(  1-N ,  7-H ) :   0.9227
B(  2-C ,  3-C ) :   1.6671 B(  2-C ,  4-N ) :   1.1715 B(  3-C ,  8-H ) :   0.9981
B(  3-C , 12-H ) :   0.9859 B(  4-N ,  5-H ) :   0.9149 B(  4-N ,  6-H ) :   0.9160
B(  9-C , 13-H ) :   0.9700 B(  9-C , 14-H ) :   0.9663 B(  9-C , 15-H ) :   0.9685

Dispersion correction           -0.010867221
FINAL SINGLE POINT ENERGY      -267.697724598103

DIPOLE MOMENT
-------------
                                X             Y             Z
Electronic contribution:      3.07579       2.87397      -0.23914
Nuclear contribution   :     -3.42552      -1.84584      -0.22295
                        -----------------------------------------
Total Dipole Moment    :     -0.34973       1.02813      -0.46209
                        -----------------------------------------
Magnitude (a.u.)       :      1.18021
Magnitude (Debye)      :      2.99986

Rotational constants in cm-1:     0.233526     0.075277     0.067092
Rotational constants in MHz :  7000.931279  2256.752901  2011.361214

                             ****ORCA TERMINATED NORMALLY****
TOTAL RUN TIME: 0 days 0 hours 0 minutes 18 seconds 129 msec
