                         Program Version 5.0.0 -  RELEASE  -
|  1> !PBE0 D3BJ RIJCOSX def2-TZVP def2/J TightSCF
|  2> *xyz 0 1
|  3> C          3.91385       -1.65829        3.01513
|  4> N          5.03927       -0.90115        2.49282
|  5> C          6.21038       -1.41726        2.17824
|  6> N          6.53591       -2.67712        2.55608
|  7> C          7.07675       -0.70082        1.47891
|  8> H          7.95464       -1.12155        1.20755
|  9> H          6.75616        0.10664        0.96028
| 10> H          4.84217        0.01761        2.11519
| 11> H          5.99388       -3.12692        3.28278
| 12> C          3.13916       -2.37657        1.91061
| 13> H          3.26723       -0.93940        3.52069
| 14> H          4.24720       -2.35509        3.79006
| 15> H          7.49844       -2.97548        2.46878
| 16> H          2.82969       -1.66654        1.17238
| 17> H          2.27790       -2.85264        2.33072
| 18> H          3.76754       -3.11338        1.45548
| 19> *
| 20> %MaxCore 64000
| 21> %pal nprocs 8
| 22> end
| 23> %scf
| 24>   MaxIter 150
| 25> end
| 26>
| 27>
| 28>                          ****END OF INPUT****

CARTESIAN COORDINATES (ANGSTROEM)
---------------------------------
  C      3.913850   -1.658290    3.015130
  N      5.039270   -0.901150    2.492820
  C      6.210380   -1.417260    2.178240
  N      6.535910   -2.677120    2.556080
  C      7.076750   -0.700820    1.478910
  H      7.954640   -1.121550    1.207550
  H      6.756160    0.106640    0.960280
  H      4.842170    0.017610    2.115190
  H      5.993880   -3.126920    3.282780
  C      3.139160   -2.376570    1.910610
  H      3.267230   -0.939400    3.520690
  H      4.247200   -2.355090    3.790060
  H      7.498440   -2.975480    2.468780
  H      2.829690   -1.666540    1.172380
  H      2.277900   -2.852640    2.330720
  H      3.767540   -3.113380    1.455480

 Total Charge           Charge          ....    0
 Multiplicity           Mult            ....    1
 Number of Electrons    NEL             ....   48
 Basis Dimension        Dim             ....  246

ORBITAL ENERGIES
----------------

  NO   OCC          E(Eh)            E(eV)
   0   2.0000     -14.384333      -391.4176
   1   2.0000     -14.381069      -391.3288
   2   2.0000     -10.263606      -279.2869
   3   2.0000     -10.261611      -279.2326
   4   2.0000     -10.206789      -277.7409
   5   2.0000     -10.127470      -275.5825
   6   2.0000      -0.994867       -27.0717
   7   2.0000      -0.907207       -24.6863
   8   2.0000      -0.793576       -21.5943
   9   2.0000      -0.723049       -19.6752
  10   2.0000      -0.648621       -17.6499
  11   2.0000      -0.616407       -16.7733
  12   2.0000      -0.550230       -14.9725
  13   2.0000      -0.512100       -13.9350
  14   2.0000      -0.491179       -13.3657
  15   2.0000      -0.452947       -12.3253
  16   2.0000      -0.444711       -12.1012
  17   2.0000      -0.417255       -11.3541
  18   2.0000      -0.392335       -10.6760
  19   2.0000      -0.382857       -10.4181
  20   2.0000      -0.371288       -10.1033
  21   2.0000      -0.367559       -10.0018
  22   2.0000      -0.266252        -7.2451
  23   2.0000      -0.172038        -4.6814
  24   0.0000       0.030795         0.8380
  25   0.0000       0.056048         1.5251
  26   0.0000       0.067727         1.8430
  27   0.0000       0.082859         2.2547
  28   0.0000       0.094533         2.5724

MULLIKEN ATOMIC CHARGES
-----------------------
   0 C :   -0.159823
   1 N :   -0.285748
   2 C :    0.328327
   3 N :   -0.484573
   4 C :   -0.514644
   5 H :    0.084163
   6 H :    0.089722
   7 H :    0.222876
   8 H :    0.220605
   9 C :   -0.306000
  10 H :    0.119919
  11 H :    0.094578
  12 H :    0.244223
  13 H :    0.107098
  14 H :    0.111078
  15 H :    0.128199
Sum of atomic charges:   -0.0000000

LOEWDIN ATOMIC CHARGES
----------------------
   0 C :   -0.318838
   1 N :    0.125314
   2 C :   -0.464747
   3 N :   -0.023090
   4 C :   -0.346380
   5 H :    0.097083
   6 H :    0.097322
   7 H :    0.196522
   8 H :    0.158263
   9 C :   -0.308901
  10 H :    0.132742
  11 H :    0.125264
  12 H :    0.176600
  13 H :    0.116820
  14 H :    0.115870
  15 H :    0.120156

  Mayer bond orders larger than 0.100000
B(  0-C ,  1-N ) :   0.9794 B(  0-C ,  9-C ) :   0.9822 B(  0-C , 10-H ) :   0.9693
B(  0-C , 11-H ) :   0.9695 B(  1-N ,  2-C ) :   1.2285 B(  1-N ,  7-H ) :   0.9179
B(  2-C ,  3-N ) :   1.1485 B(  2-C ,  4-C ) :   1.6768 B(  3-N ,  8-H ) :   0.9136
B(  3-N , 12-H ) :   0.9171 B(  4-C ,  5-H ) :   0.9984 B(  4-C ,  6-H ) :   0.9967
B(  9-C , 13-H ) :   0.9687 B(  9-C , 14-H ) :   0.9636 B(  9-C , 15-H ) :   0.9694

Dispersion correction           -0.010806995
FINAL SINGLE POINT ENERGY      -267.697988458454

DIPOLE MOMENT
-------------
                                X             Y             Z
Electronic contribution:      2.52913       0.90583       0.97651
Nuclear contribution   :     -3.31079      -1.42658      -0.45147
                        -----------------------------------------
Total Dipole Moment    :     -0.78166      -0.52076       0.52504
                        -----------------------------------------
Magnitude (a.u.)       :      1.07603
Magnitude (Debye)      :      2.73506

Rotational constants in cm-1:     0.225507     0.077571     0.068070
Rotational constants in MHz :  6760.542142  2325.533779  2040.680522

                             ****ORCA TERMINATED NORMALLY****
TOTAL RUN TIME: 0 days 0 hours 0 minutes 20 seconds 27 msec
