                         Program Version 5.0.0 -  RELEASE  -
|  1> !PBE0 D3BJ RIJCOSX def2-TZVP def2/J TightSCF xyzfile
|  2>
|  3> *xyzfile 0 1 D2.xyz
|  4>
|  5> %MaxCore 64000
|  6>
|  7> %pal nprocs 18
|  8> end
|  9>
| 10> %scf
| 11>   MaxIter 150
| 12> end
| 13>
| 14>
| 15>                          ****END OF INPUT****

CARTESIAN COORDINATES (ANGSTROEM)
---------------------------------
  C      3.913853   -1.658291    3.015134
  N      5.039266   -0.901154    2.492821
  C      4.084215    1.742081   -2.114724
  C      4.265245    2.500518   -0.795890
  H      4.868534    3.392674   -0.981134
  H      3.307640    2.824571   -0.387809
  C      4.982240    1.650257    0.247422
  C      6.210384   -1.417261    2.178244
  C      6.535913   -2.677122    2.556078
  N      7.076754   -0.700820    1.478906
  H      7.954643   -1.121554    1.207554
  H      6.756161    0.106637    0.960278
  H      4.842168    0.017609    2.115191
  H      5.993876   -3.126918    3.282784
  H      7.498441   -2.975482    2.468776
  F      4.368065    1.389270    1.313706
  O      6.128919    1.233512   -0.045620
  C      3.139159   -2.376572    1.910609
  H      3.267235   -0.939401    3.520693
  H      4.247195   -2.355095    3.790065
  C      1.997274    0.430918   -1.399218
  C      3.412746    0.376886   -1.965497
  H      4.047407   -0.246590   -1.326706
  H      3.390774   -0.118719   -2.942839
  H      5.068475    1.598504   -2.565728
  H      3.503356    2.363939   -2.804565
  C      2.399946   -1.389579    1.009490
  H      2.440750   -3.087118    2.362976
  H      3.844475   -2.970462    1.318677
  C      2.070177   -1.936705   -0.372401
  H      1.481611   -1.061542    1.509912
  H      3.008628   -0.490001    0.897451
  C      1.322238   -0.935775   -1.256413
  H      1.472747   -2.850902   -0.283997
  H      3.003539   -2.234041   -0.862535
  H      1.376444    1.058920   -2.047420
  H      2.015341    0.929780   -0.426535
  H      0.316648   -0.787213   -0.848278
  H      1.185611   -1.379252   -2.248613

 Total Charge           Charge          ....    0
 Multiplicity           Mult            ....    1
 Number of Electrons    NEL             ....  126
 Basis Dimension        Dim             ....  634

ORBITAL ENERGIES
----------------

  NO   OCC          E(Eh)            E(eV)
   0   2.0000     -24.882990      -677.1006
   1   2.0000     -19.248518      -523.7788
   2   2.0000     -14.365031      -390.8924
   3   2.0000     -14.341367      -390.2484
   4   2.0000     -10.434067      -283.9254
   5   2.0000     -10.271121      -279.4914
   6   2.0000     -10.249418      -278.9008
   7   2.0000     -10.243722      -278.7459
   8   2.0000     -10.240440      -278.6565
   9   2.0000     -10.233145      -278.4580
  10   2.0000     -10.228142      -278.3219
  11   2.0000     -10.221667      -278.1457
  12   2.0000     -10.215309      -277.9727
  13   2.0000     -10.213671      -277.9281
  14   2.0000     -10.204795      -277.6866
  15   2.0000     -10.109139      -275.0837
  16   2.0000      -1.395943       -37.9855
  17   2.0000      -1.105537       -30.0832
  18   2.0000      -0.977233       -26.5919
  19   2.0000      -0.889775       -24.2120
  20   2.0000      -0.867141       -23.5961
  21   2.0000      -0.835757       -22.7421
  22   2.0000      -0.800779       -21.7903
  23   2.0000      -0.766818       -20.8662
  24   2.0000      -0.737388       -20.0654
  25   2.0000      -0.714155       -19.4332
  26   2.0000      -0.700137       -19.0517
  27   2.0000      -0.675231       -18.3740
  28   2.0000      -0.639196       -17.3934
  29   2.0000      -0.617223       -16.7955
  30   2.0000      -0.606982       -16.5168
  31   2.0000      -0.597783       -16.2665
  32   2.0000      -0.585212       -15.9244
  33   2.0000      -0.568400       -15.4670
  34   2.0000      -0.551267       -15.0007
  35   2.0000      -0.528845       -14.3906
  36   2.0000      -0.512434       -13.9440
  37   2.0000      -0.502300       -13.6683
  38   2.0000      -0.502264       -13.6673
  39   2.0000      -0.483474       -13.1560
  40   2.0000      -0.468450       -12.7472
  41   2.0000      -0.461362       -12.5543
  42   2.0000      -0.448803       -12.2125
  43   2.0000      -0.442248       -12.0342
  44   2.0000      -0.432840       -11.7782
  45   2.0000      -0.422314       -11.4918
  46   2.0000      -0.416580       -11.3357
  47   2.0000      -0.405210       -11.0263
  48   2.0000      -0.394357       -10.7310
  49   2.0000      -0.389900       -10.6097
  50   2.0000      -0.382224       -10.4009
  51   2.0000      -0.375063       -10.2060
  52   2.0000      -0.371578       -10.1112
  53   2.0000      -0.362039        -9.8516
  54   2.0000      -0.355323        -9.6688
  55   2.0000      -0.350332        -9.5330
  56   2.0000      -0.340659        -9.2698
  57   2.0000      -0.329939        -8.9781
  58   2.0000      -0.328957        -8.9514
  59   2.0000      -0.327006        -8.8983
  60   2.0000      -0.322312        -8.7705
  61   2.0000      -0.238392        -6.4870
  62   2.0000      -0.152725        -4.1559
  63   0.0000      -0.059239        -1.6120
  64   0.0000       0.026889         0.7317
  65   0.0000       0.047149         1.2830
  66   0.0000       0.049391         1.3440
  67   0.0000       0.054769         1.4903

MULLIKEN ATOMIC CHARGES
-----------------------
   0 C :   -0.138209
   1 N :   -0.302150
   2 C :   -0.160949
   3 C :   -0.213716
   4 H :    0.151574
   5 H :    0.141145
   6 C :    0.375939
   7 C :    0.304850
   8 C :   -0.549320
   9 N :   -0.476302
  10 H :    0.233434
  11 H :    0.233437
  12 H :    0.202449
  13 H :    0.082741
  14 H :    0.079731
  15 F :   -0.112757
  16 O :   -0.348156
  17 C :   -0.094202
  18 H :    0.106900
  19 H :    0.127496
  20 C :   -0.254862
  21 C :   -0.284159
  22 H :    0.147204
  23 H :    0.113059
  24 H :    0.131982
  25 H :    0.114815
  26 C :   -0.274056
  27 H :    0.095331
  28 H :    0.125592
  29 C :   -0.213938
  30 H :    0.092487
  31 H :    0.044794
  32 C :   -0.142659
  33 H :    0.108942
  34 H :    0.121110
  35 H :    0.107776
  36 H :    0.116349
  37 H :    0.102000
  38 H :    0.104294
Sum of atomic charges:   -0.0000000

LOEWDIN ATOMIC CHARGES
----------------------
   0 C :   -0.280676
   1 N :    0.120009
   2 C :   -0.255626
   3 C :   -0.229877
   4 H :    0.163241
   5 H :    0.145927
   6 C :   -0.481959
   7 C :   -0.475752
   8 C :   -0.378652
   9 N :   -0.009744
  10 H :    0.173223
  11 H :    0.134329
  12 H :    0.162037
  13 H :    0.092713
  14 H :    0.091609
  15 F :    0.338817
  16 O :    0.097688
  17 C :   -0.267236
  18 H :    0.132153
  19 H :    0.138029
  20 C :   -0.275733
  21 C :   -0.269708
  22 H :    0.144481
  23 H :    0.144128
  24 H :    0.148678
  25 H :    0.144268
  26 C :   -0.279126
  27 H :    0.135357
  28 H :    0.148698
  29 C :   -0.273612
  30 H :    0.136155
  31 H :    0.128035
  32 C :   -0.269787
  33 H :    0.139592
  34 H :    0.139407
  35 H :    0.138731
  36 H :    0.133193
  37 H :    0.138687
  38 H :    0.138300

  Mayer bond orders larger than 0.100000
B(  0-C ,  1-N ) :   0.9932 B(  0-C , 17-C ) :   0.9701 B(  0-C , 18-H ) :   0.9713
B(  0-C , 19-H ) :   0.9609 B(  1-N ,  7-C ) :   1.2127 B(  1-N , 12-H ) :   0.9056
B(  2-C ,  3-C ) :   0.9811 B(  2-C , 21-C ) :   1.0044 B(  2-C , 24-H ) :   0.9525
B(  2-C , 25-H ) :   0.9526 B(  3-C ,  4-H ) :   0.9321 B(  3-C ,  5-H ) :   0.9614
B(  3-C ,  6-C ) :   0.9986 B(  6-C , 15-F ) :   1.1050 B(  6-C , 16-O ) :   1.9425
B(  7-C ,  8-C ) :   1.6349 B(  7-C ,  9-N ) :   1.2048 B(  8-C , 13-H ) :   0.9924
B(  8-C , 14-H ) :   0.9876 B(  9-N , 10-H ) :   0.9233 B(  9-N , 11-H ) :   0.8587
B( 11-H , 16-O ) :   0.1149 B( 17-C , 26-C ) :   1.0176 B( 17-C , 27-H ) :   0.9512
B( 17-C , 28-H ) :   0.9501 B( 20-C , 21-C ) :   0.9834 B( 20-C , 32-C ) :   0.9966
B( 20-C , 35-H ) :   0.9519 B( 20-C , 36-H ) :   0.9674 B( 21-C , 22-H ) :   0.9609
B( 21-C , 23-H ) :   0.9538 B( 26-C , 29-C ) :   1.0067 B( 26-C , 30-H ) :   0.9444
B( 26-C , 31-H ) :   0.9798 B( 29-C , 32-C ) :   0.9958 B( 29-C , 33-H ) :   0.9593
B( 29-C , 34-H ) :   0.9673 B( 32-C , 37-H ) :   0.9623 B( 32-C , 38-H ) :   0.9608

Dispersion correction           -0.038794682
FINAL SINGLE POINT ENERGY      -755.102287790211

DIPOLE MOMENT
-------------
                                X             Y             Z
Electronic contribution:      9.78431      10.56914       5.51007
Nuclear contribution   :    -11.22009      -8.67117      -6.77523
                        -----------------------------------------
Total Dipole Moment    :     -1.43578       1.89797      -1.26516
                        -----------------------------------------
Magnitude (a.u.)       :      2.69525
Magnitude (Debye)      :      6.85078

Rotational constants in cm-1:     0.020086     0.013778     0.009581
Rotational constants in MHz :   602.172053   413.051122   287.243919

                             ****ORCA TERMINATED NORMALLY****
TOTAL RUN TIME: 0 days 0 hours 1 minutes 30 seconds 328 msec
