                         Program Version 5.0.0 -  RELEASE  -
|  1> !PBE0 D3BJ RIJCOSX def2-TZVP def2/J TightSCF xyzfile
|  2>
|  3> *xyzfile 0 1 D3.xyz
|  4>
|  5> %MaxCore 64000
|  6>
|  7> %pal nprocs 18
|  8> end
|  9>
| 10> %scf
| 11>   MaxIter 150
| 12> end
| 13>
| 14>
| 15>                          ****END OF INPUT****

CARTESIAN COORDINATES (ANGSTROEM)
---------------------------------
  C      3.913853   -1.658291    3.015134
  N      5.039266   -0.901154    2.492821
  C      4.084215    1.742081   -2.114724
  C      4.265245    2.500518   -0.795890
  H      4.868534    3.392674   -0.981134
  H      3.307640    2.824571   -0.387809
  C      4.982240    1.650257    0.247422
  C      6.210384   -1.417261    2.178244
  N      6.535913   -2.677122    2.556078
  C      7.076754   -0.700820    1.478906
  H      7.954643   -1.121554    1.207554
  H      6.756161    0.106637    0.960278
  H      4.842168    0.017609    2.115191
  H      5.993876   -3.126918    3.282784
  H      7.498441   -2.975482    2.468776
  F      4.368065    1.389270    1.313706
  O      6.128919    1.233512   -0.045620
  C      3.139159   -2.376572    1.910609
  H      3.267235   -0.939401    3.520693
  H      4.247195   -2.355095    3.790065
  C      1.997274    0.430918   -1.399218
  C      3.412746    0.376886   -1.965497
  H      4.047407   -0.246590   -1.326706
  H      3.390774   -0.118719   -2.942839
  H      5.068475    1.598504   -2.565728
  H      3.503356    2.363939   -2.804565
  C      2.399946   -1.389579    1.009490
  H      2.440750   -3.087118    2.362976
  H      3.844475   -2.970462    1.318677
  C      2.070177   -1.936705   -0.372401
  H      1.481611   -1.061542    1.509912
  H      3.008628   -0.490001    0.897451
  C      1.322238   -0.935775   -1.256413
  H      1.472747   -2.850902   -0.283997
  H      3.003539   -2.234041   -0.862535
  H      1.376444    1.058920   -2.047420
  H      2.015341    0.929780   -0.426535
  H      0.316648   -0.787213   -0.848278
  H      1.185611   -1.379252   -2.248613

 Total Charge           Charge          ....    0
 Multiplicity           Mult            ....    1
 Number of Electrons    NEL             ....  126
 Basis Dimension        Dim             ....  634

ORBITAL ENERGIES
----------------

  NO   OCC          E(Eh)            E(eV)
   0   2.0000     -24.864281      -676.5915
   1   2.0000     -19.218801      -522.9702
   2   2.0000     -14.362370      -390.8199
   3   2.0000     -14.361418      -390.7940
   4   2.0000     -10.409506      -283.2570
   5   2.0000     -10.256387      -279.0905
   6   2.0000     -10.248158      -278.8665
   7   2.0000     -10.240072      -278.6465
   8   2.0000     -10.238088      -278.5925
   9   2.0000     -10.224707      -278.2284
  10   2.0000     -10.222633      -278.1720
  11   2.0000     -10.219170      -278.0777
  12   2.0000     -10.215343      -277.9736
  13   2.0000     -10.215061      -277.9659
  14   2.0000     -10.211311      -277.8639
  15   2.0000     -10.091945      -274.6158
  16   2.0000      -1.377467       -37.4828
  17   2.0000      -1.077240       -29.3132
  18   2.0000      -0.976353       -26.5679
  19   2.0000      -0.890670       -24.2364
  20   2.0000      -0.857279       -23.3277
  21   2.0000      -0.831481       -22.6257
  22   2.0000      -0.801445       -21.8084
  23   2.0000      -0.763593       -20.7784
  24   2.0000      -0.737084       -20.0571
  25   2.0000      -0.711828       -19.3698
  26   2.0000      -0.687267       -18.7015
  27   2.0000      -0.663806       -18.0631
  28   2.0000      -0.628207       -17.0944
  29   2.0000      -0.617507       -16.8032
  30   2.0000      -0.599300       -16.3078
  31   2.0000      -0.587755       -15.9936
  32   2.0000      -0.579361       -15.7652
  33   2.0000      -0.564435       -15.3590
  34   2.0000      -0.546385       -14.8679
  35   2.0000      -0.523837       -14.2543
  36   2.0000      -0.503811       -13.7094
  37   2.0000      -0.496811       -13.5189
  38   2.0000      -0.487615       -13.2687
  39   2.0000      -0.475567       -12.9408
  40   2.0000      -0.471530       -12.8310
  41   2.0000      -0.456148       -12.4124
  42   2.0000      -0.445755       -12.1296
  43   2.0000      -0.441880       -12.0242
  44   2.0000      -0.430666       -11.7190
  45   2.0000      -0.414483       -11.2787
  46   2.0000      -0.409411       -11.1407
  47   2.0000      -0.401496       -10.9253
  48   2.0000      -0.388735       -10.5780
  49   2.0000      -0.382120       -10.3980
  50   2.0000      -0.377730       -10.2786
  51   2.0000      -0.376264       -10.2387
  52   2.0000      -0.366750        -9.9798
  53   2.0000      -0.360056        -9.7976
  54   2.0000      -0.353968        -9.6320
  55   2.0000      -0.347706        -9.4616
  56   2.0000      -0.340367        -9.2619
  57   2.0000      -0.329314        -8.9611
  58   2.0000      -0.326909        -8.8956
  59   2.0000      -0.323568        -8.8047
  60   2.0000      -0.282523        -7.6879
  61   2.0000      -0.249271        -6.7830
  62   2.0000      -0.148958        -4.0533
  63   0.0000      -0.037634        -1.0241
  64   0.0000       0.035077         0.9545
  65   0.0000       0.045917         1.2495
  66   0.0000       0.050897         1.3850
  67   0.0000       0.055337         1.5058

MULLIKEN ATOMIC CHARGES
-----------------------
   0 C :   -0.182272
   1 N :   -0.289042
   2 C :   -0.157853
   3 C :   -0.215149
   4 H :    0.146717
   5 H :    0.131909
   6 C :    0.356379
   7 C :    0.303675
   8 N :   -0.488567
   9 C :   -0.545601
  10 H :    0.069352
  11 H :    0.137158
  12 H :    0.227888
  13 H :    0.213878
  14 H :    0.239621
  15 F :   -0.128243
  16 O :   -0.302639
  17 C :   -0.082168
  18 H :    0.113014
  19 H :    0.109408
  20 C :   -0.256859
  21 C :   -0.282738
  22 H :    0.152637
  23 H :    0.108718
  24 H :    0.130302
  25 H :    0.108967
  26 C :   -0.267116
  27 H :    0.091584
  28 H :    0.110588
  29 C :   -0.214924
  30 H :    0.095164
  31 H :    0.053083
  32 C :   -0.141619
  33 H :    0.105892
  34 H :    0.122391
  35 H :    0.106018
  36 H :    0.116598
  37 H :    0.100495
  38 H :    0.103355
Sum of atomic charges:    0.0000000

LOEWDIN ATOMIC CHARGES
----------------------
   0 C :   -0.299465
   1 N :    0.121001
   2 C :   -0.256532
   3 C :   -0.233918
   4 H :    0.161300
   5 H :    0.142344
   6 C :   -0.489913
   7 C :   -0.475728
   8 N :   -0.030886
   9 C :   -0.344555
  10 H :    0.092426
  11 H :    0.086339
  12 H :    0.174667
  13 H :    0.154051
  14 H :    0.173668
  15 F :    0.330708
  16 O :    0.117660
  17 C :   -0.271207
  18 H :    0.134830
  19 H :    0.126527
  20 C :   -0.275682
  21 C :   -0.269869
  22 H :    0.146038
  23 H :    0.142673
  24 H :    0.148944
  25 H :    0.142099
  26 C :   -0.276221
  27 H :    0.133404
  28 H :    0.144431
  29 C :   -0.273960
  30 H :    0.136963
  31 H :    0.131640
  32 C :   -0.269989
  33 H :    0.138352
  34 H :    0.139828
  35 H :    0.138360
  36 H :    0.133461
  37 H :    0.138030
  38 H :    0.138178

  Mayer bond orders larger than 0.100000
B(  0-C ,  1-N ) :   1.0039 B(  0-C , 17-C ) :   0.9405 B(  0-C , 18-H ) :   0.9721
B(  0-C , 19-H ) :   0.9779 B(  1-N ,  7-C ) :   1.2236 B(  1-N , 12-H ) :   0.9021
B(  2-C ,  3-C ) :   0.9846 B(  2-C , 21-C ) :   1.0086 B(  2-C , 24-H ) :   0.9502
B(  2-C , 25-H ) :   0.9534 B(  3-C ,  4-H ) :   0.9349 B(  3-C ,  5-H ) :   0.9613
B(  3-C ,  6-C ) :   0.9972 B(  6-C , 15-F ) :   1.0757 B(  6-C , 16-O ) :   2.0059
B(  7-C ,  8-N ) :   1.1282 B(  7-C ,  9-C ) :   1.6696 B(  8-N , 13-H ) :   0.9139
B(  8-N , 14-H ) :   0.9182 B(  9-C , 10-H ) :   0.9965 B(  9-C , 11-H ) :   0.9917
B( 17-C , 26-C ) :   1.0145 B( 17-C , 27-H ) :   0.9445 B( 17-C , 28-H ) :   0.9545
B( 20-C , 21-C ) :   0.9843 B( 20-C , 32-C ) :   0.9953 B( 20-C , 35-H ) :   0.9522
B( 20-C , 36-H ) :   0.9685 B( 21-C , 22-H ) :   0.9589 B( 21-C , 23-H ) :   0.9542
B( 26-C , 29-C ) :   1.0070 B( 26-C , 30-H ) :   0.9471 B( 26-C , 31-H ) :   0.9800
B( 29-C , 32-C ) :   0.9991 B( 29-C , 33-H ) :   0.9590 B( 29-C , 34-H ) :   0.9660
B( 32-C , 37-H ) :   0.9628 B( 32-C , 38-H ) :   0.9602

Dispersion correction           -0.038843509
FINAL SINGLE POINT ENERGY      -755.082185235252

DIPOLE MOMENT
-------------
                                X             Y             Z
Electronic contribution:      9.49244       8.64638       6.71310
Nuclear contribution   :    -11.12616      -8.32792      -6.96231
                        -----------------------------------------
Total Dipole Moment    :     -1.63372       0.31846      -0.24921
                        -----------------------------------------
Magnitude (a.u.)       :      1.68302
Magnitude (Debye)      :      4.27790

Rotational constants in cm-1:     0.020226     0.013574     0.009520
Rotational constants in MHz :   606.360011   406.923773   285.390769

                             ****ORCA TERMINATED NORMALLY****
TOTAL RUN TIME: 0 days 0 hours 1 minutes 32 seconds 222 msec
