                         Program Version 5.0.0 -  RELEASE  -
|  1> !PBE0 D3BJ RIJCOSX def2-TZVP def2/J TightSCF xyzfile
|  2>
|  3> *xyzfile 0 1 D4.xyz
|  4>
|  5> %MaxCore 64000
|  6>
|  7> %pal nprocs 18
|  8> end
|  9>
| 10> %scf
| 11>   MaxIter 150
| 12> end
| 13>
| 14>
| 15>                          ****END OF INPUT****

CARTESIAN COORDINATES (ANGSTROEM)
---------------------------------
  C      3.913853   -1.658291    3.015134
  C      5.039266   -0.901154    2.492821
  C      4.084215    1.742081   -2.114724
  C      4.265245    2.500518   -0.795890
  H      4.868534    3.392674   -0.981134
  H      3.307640    2.824571   -0.387809
  C      4.982240    1.650257    0.247422
  C      6.210384   -1.417261    2.178244
  N      6.535913   -2.677122    2.556078
  N      7.076754   -0.700820    1.478906
  H      7.954643   -1.121554    1.207554
  H      6.756161    0.106637    0.960278
  H      4.842168    0.017609    2.115191
  H      5.993876   -3.126918    3.282784
  H      7.498441   -2.975482    2.468776
  O      4.368065    1.389270    1.313706
  F      6.128919    1.233512   -0.045620
  C      3.139159   -2.376572    1.910609
  H      3.267235   -0.939401    3.520693
  H      4.247195   -2.355095    3.790065
  C      1.997274    0.430918   -1.399218
  C      3.412746    0.376886   -1.965497
  H      4.047407   -0.246590   -1.326706
  H      3.390774   -0.118719   -2.942839
  H      5.068475    1.598504   -2.565728
  H      3.503356    2.363939   -2.804565
  C      2.399946   -1.389579    1.009490
  H      2.440750   -3.087118    2.362976
  H      3.844475   -2.970462    1.318677
  C      2.070177   -1.936705   -0.372401
  H      1.481611   -1.061542    1.509912
  H      3.008628   -0.490001    0.897451
  C      1.322238   -0.935775   -1.256413
  H      1.472747   -2.850902   -0.283997
  H      3.003539   -2.234041   -0.862535
  H      1.376444    1.058920   -2.047420
  H      2.015341    0.929780   -0.426535
  H      0.316648   -0.787213   -0.848278
  H      1.185611   -1.379252   -2.248613

 Total Charge           Charge          ....    0
 Multiplicity           Mult            ....    1
 Number of Electrons    NEL             ....  126
 Basis Dimension        Dim             ....  634

ORBITAL ENERGIES
----------------

  NO   OCC          E(Eh)            E(eV)
   0   2.0000     -24.868027      -676.6934
   1   2.0000     -19.222700      -523.0763
   2   2.0000     -14.364428      -390.8759
   3   2.0000     -14.355708      -390.6387
   4   2.0000     -10.412291      -283.3328
   5   2.0000     -10.257120      -279.1104
   6   2.0000     -10.241810      -278.6938
   7   2.0000     -10.238722      -278.6098
   8   2.0000     -10.224528      -278.2235
   9   2.0000     -10.214111      -277.9401
  10   2.0000     -10.208165      -277.7783
  11   2.0000     -10.199110      -277.5319
  12   2.0000     -10.187665      -277.2205
  13   2.0000     -10.182991      -277.0933
  14   2.0000     -10.176511      -276.9170
  15   2.0000     -10.105540      -274.9857
  16   2.0000      -1.382292       -37.6141
  17   2.0000      -1.078649       -29.3515
  18   2.0000      -0.966821       -26.3085
  19   2.0000      -0.876917       -23.8621
  20   2.0000      -0.856697       -23.3119
  21   2.0000      -0.822401       -22.3787
  22   2.0000      -0.793130       -21.5822
  23   2.0000      -0.763964       -20.7885
  24   2.0000      -0.730998       -19.8915
  25   2.0000      -0.706503       -19.2249
  26   2.0000      -0.687474       -18.7071
  27   2.0000      -0.651619       -17.7315
  28   2.0000      -0.622146       -16.9295
  29   2.0000      -0.607184       -16.5223
  30   2.0000      -0.591704       -16.1011
  31   2.0000      -0.587250       -15.9799
  32   2.0000      -0.567617       -15.4456
  33   2.0000      -0.556992       -15.1565
  34   2.0000      -0.545833       -14.8529
  35   2.0000      -0.526663       -14.3312
  36   2.0000      -0.500025       -13.6064
  37   2.0000      -0.494465       -13.4551
  38   2.0000      -0.491330       -13.3698
  39   2.0000      -0.470508       -12.8032
  40   2.0000      -0.462050       -12.5730
  41   2.0000      -0.449787       -12.2393
  42   2.0000      -0.439709       -11.9651
  43   2.0000      -0.424152       -11.5418
  44   2.0000      -0.420407       -11.4398
  45   2.0000      -0.413771       -11.2593
  46   2.0000      -0.404955       -11.0194
  47   2.0000      -0.396343       -10.7850
  48   2.0000      -0.389392       -10.5959
  49   2.0000      -0.383764       -10.4427
  50   2.0000      -0.373420       -10.1613
  51   2.0000      -0.371454       -10.1078
  52   2.0000      -0.352266        -9.5856
  53   2.0000      -0.344133        -9.3643
  54   2.0000      -0.342490        -9.3196
  55   2.0000      -0.337198        -9.1756
  56   2.0000      -0.318262        -8.6604
  57   2.0000      -0.311916        -8.4877
  58   2.0000      -0.306462        -8.3392
  59   2.0000      -0.302515        -8.2319
  60   2.0000      -0.274251        -7.4627
  61   2.0000      -0.259873        -7.0715
  62   2.0000      -0.147887        -4.0242
  63   0.0000      -0.037197        -1.0122
  64   0.0000       0.032521         0.8849
  65   0.0000       0.045398         1.2353
  66   0.0000       0.057837         1.5738
  67   0.0000       0.060166         1.6372

MULLIKEN ATOMIC CHARGES
-----------------------
   0 C :   -0.185496
   1 C :   -0.418876
   2 C :   -0.190947
   3 C :   -0.204314
   4 H :    0.137082
   5 H :    0.152429
   6 C :    0.367737
   7 C :    0.277407
   8 N :   -0.481635
   9 N :   -0.477736
  10 H :    0.210039
  11 H :    0.238017
  12 H :    0.170166
  13 H :    0.239035
  14 H :    0.211049
  15 O :   -0.324409
  16 F :   -0.126793
  17 C :   -0.087785
  18 H :    0.083394
  19 H :    0.070981
  20 C :   -0.259808
  21 C :   -0.252378
  22 H :    0.133636
  23 H :    0.107393
  24 H :    0.120520
  25 H :    0.113699
  26 C :   -0.257927
  27 H :    0.075844
  28 H :    0.088165
  29 C :   -0.209888
  30 H :    0.084371
  31 H :    0.102548
  32 C :   -0.143501
  33 H :    0.099145
  34 H :    0.105553
  35 H :    0.100529
  36 H :    0.138323
  37 H :    0.098117
  38 H :    0.096315
Sum of atomic charges:   -0.0000000

LOEWDIN ATOMIC CHARGES
----------------------
   0 C :   -0.289297
   1 C :   -0.280181
   2 C :   -0.266463
   3 C :   -0.229589
   4 H :    0.153761
   5 H :    0.156960
   6 C :   -0.488429
   7 C :   -0.471584
   8 N :   -0.032924
   9 N :   -0.022303
  10 H :    0.157032
  11 H :    0.153479
  12 H :    0.115242
  13 H :    0.170513
  14 H :    0.155948
  15 O :    0.103067
  16 F :    0.340899
  17 C :   -0.263237
  18 H :    0.144008
  19 H :    0.124758
  20 C :   -0.273668
  21 C :   -0.269864
  22 H :    0.142844
  23 H :    0.141496
  24 H :    0.141237
  25 H :    0.143585
  26 C :   -0.271061
  27 H :    0.125586
  28 H :    0.137769
  29 C :   -0.277253
  30 H :    0.135099
  31 H :    0.142165
  32 C :   -0.271245
  33 H :    0.136218
  34 H :    0.134662
  35 H :    0.136639
  36 H :    0.140840
  37 H :    0.138175
  38 H :    0.135116

  Mayer bond orders larger than 0.100000
B(  0-C ,  1-C ) :   1.0487 B(  0-C , 17-C ) :   0.9576 B(  0-C , 18-H ) :   0.9608
B(  0-C , 19-H ) :   0.9717 B(  1-C ,  7-C ) :   1.6888 B(  1-C , 12-H ) :   0.9847
B(  2-C ,  3-C ) :   0.9702 B(  2-C , 21-C ) :   0.9902 B(  2-C , 24-H ) :   0.9633
B(  2-C , 25-H ) :   0.9515 B(  3-C ,  4-H ) :   0.9330 B(  3-C ,  5-H ) :   0.9685
B(  3-C ,  6-C ) :   1.0053 B(  6-C , 15-O ) :   1.9812 B(  6-C , 16-F ) :   1.0684
B(  7-C ,  8-N ) :   1.1502 B(  7-C ,  9-N ) :   1.1820 B(  8-N , 13-H ) :   0.9099
B(  8-N , 14-H ) :   0.9219 B(  9-N , 10-H ) :   0.9246 B(  9-N , 11-H ) :   0.8950
B( 17-C , 26-C ) :   1.0359 B( 17-C , 27-H ) :   0.9462 B( 17-C , 28-H ) :   0.9570
B( 20-C , 21-C ) :   0.9896 B( 20-C , 32-C ) :   0.9990 B( 20-C , 35-H ) :   0.9511
B( 20-C , 36-H ) :   0.9637 B( 21-C , 22-H ) :   0.9621 B( 21-C , 23-H ) :   0.9538
B( 26-C , 29-C ) :   0.9976 B( 26-C , 30-H ) :   0.9508 B( 26-C , 31-H ) :   0.9784
B( 29-C , 32-C ) :   1.0004 B( 29-C , 33-H ) :   0.9584 B( 29-C , 34-H ) :   0.9684
B( 32-C , 37-H ) :   0.9605 B( 32-C , 38-H ) :   0.9620

Dispersion correction           -0.039117548
FINAL SINGLE POINT ENERGY      -755.093433461577

DIPOLE MOMENT
-------------
                                X             Y             Z
Electronic contribution:     14.38741       8.74171       3.67661
Nuclear contribution   :    -13.61164      -8.17416      -5.14068
                        -----------------------------------------
Total Dipole Moment    :      0.77577       0.56755      -1.46407
                        -----------------------------------------
Magnitude (a.u.)       :      1.75141
Magnitude (Debye)      :      4.45173

Rotational constants in cm-1:     0.019858     0.013613     0.009401
Rotational constants in MHz :   595.331791   408.100423   281.843625

                             ****ORCA TERMINATED NORMALLY****
TOTAL RUN TIME: 0 days 0 hours 1 minutes 30 seconds 741 msec
