                         Program Version 5.0.0 -  RELEASE  -
|  1> !PBE0 D3BJ RIJCOSX def2-TZVP def2/J TightSCF xyzfile
|  2>
|  3> *xyzfile 0 1 D5.xyz
|  4>
|  5> %MaxCore 64000
|  6>
|  7> %pal nprocs 18
|  8> end
|  9>
| 10> %scf
| 11>   MaxIter 150
| 12> end
| 13>
| 14>
| 15>                          ****END OF INPUT****

CARTESIAN COORDINATES (ANGSTROEM)
---------------------------------
  C      3.913853   -1.658291    3.015134
  N      5.039266   -0.901154    2.492821
  C      4.084215    1.742081   -2.114724
  C      4.265245    2.500518   -0.795890
  H      4.868534    3.392674   -0.981134
  H      3.307640    2.824571   -0.387809
  C      4.982240    1.650257    0.247422
  C      6.210384   -1.417261    2.178244
  C      6.535913   -2.677122    2.556078
  N      7.076754   -0.700820    1.478906
  H      7.954643   -1.121554    1.207554
  H      6.756161    0.106637    0.960278
  H      4.842168    0.017609    2.115191
  H      5.993876   -3.126918    3.282784
  H      7.498441   -2.975482    2.468776
  O      4.368065    1.389270    1.313706
  F      6.128919    1.233512   -0.045620
  C      3.139159   -2.376572    1.910609
  H      3.267235   -0.939401    3.520693
  H      4.247195   -2.355095    3.790065
  C      1.997274    0.430918   -1.399218
  C      3.412746    0.376886   -1.965497
  H      4.047407   -0.246590   -1.326706
  H      3.390774   -0.118719   -2.942839
  H      5.068475    1.598504   -2.565728
  H      3.503356    2.363939   -2.804565
  C      2.399946   -1.389579    1.009490
  H      2.440750   -3.087118    2.362976
  H      3.844475   -2.970462    1.318677
  C      2.070177   -1.936705   -0.372401
  H      1.481611   -1.061542    1.509912
  H      3.008628   -0.490001    0.897451
  C      1.322238   -0.935775   -1.256413
  H      1.472747   -2.850902   -0.283997
  H      3.003539   -2.234041   -0.862535
  H      1.376444    1.058920   -2.047420
  H      2.015341    0.929780   -0.426535
  H      0.316648   -0.787213   -0.848278
  H      1.185611   -1.379252   -2.248613

 Total Charge           Charge          ....    0
 Multiplicity           Mult            ....    1
 Number of Electrons    NEL             ....  126
 Basis Dimension        Dim             ....  634

ORBITAL ENERGIES
----------------

  NO   OCC          E(Eh)            E(eV)
   0   2.0000     -24.885143      -677.1592
   1   2.0000     -19.249869      -523.8156
   2   2.0000     -14.358163      -390.7055
   3   2.0000     -14.350576      -390.4990
   4   2.0000     -10.435038      -283.9518
   5   2.0000     -10.271600      -279.5044
   6   2.0000     -10.253354      -279.0080
   7   2.0000     -10.244310      -278.7618
   8   2.0000     -10.235156      -278.5128
   9   2.0000     -10.231343      -278.4090
  10   2.0000     -10.224502      -278.2229
  11   2.0000     -10.217801      -278.0405
  12   2.0000     -10.209969      -277.8274
  13   2.0000     -10.203008      -277.6380
  14   2.0000     -10.197726      -277.4942
  15   2.0000     -10.109606      -275.0964
  16   2.0000      -1.399375       -38.0789
  17   2.0000      -1.104587       -30.0573
  18   2.0000      -0.975343       -26.5404
  19   2.0000      -0.892504       -24.2863
  20   2.0000      -0.869557       -23.6619
  21   2.0000      -0.832630       -22.6570
  22   2.0000      -0.796063       -21.6620
  23   2.0000      -0.765721       -20.8363
  24   2.0000      -0.730521       -19.8785
  25   2.0000      -0.715666       -19.4743
  26   2.0000      -0.701445       -19.0873
  27   2.0000      -0.670599       -18.2479
  28   2.0000      -0.638158       -17.3652
  29   2.0000      -0.612558       -16.6686
  30   2.0000      -0.609466       -16.5844
  31   2.0000      -0.607512       -16.5312
  32   2.0000      -0.573999       -15.6193
  33   2.0000      -0.569048       -15.4846
  34   2.0000      -0.551097       -14.9961
  35   2.0000      -0.523680       -14.2501
  36   2.0000      -0.516274       -14.0485
  37   2.0000      -0.505418       -13.7531
  38   2.0000      -0.501327       -13.6418
  39   2.0000      -0.480983       -13.0882
  40   2.0000      -0.465394       -12.6640
  41   2.0000      -0.458911       -12.4876
  42   2.0000      -0.445911       -12.1339
  43   2.0000      -0.435497       -11.8505
  44   2.0000      -0.428379       -11.6568
  45   2.0000      -0.426640       -11.6095
  46   2.0000      -0.415107       -11.2956
  47   2.0000      -0.403696       -10.9851
  48   2.0000      -0.400109       -10.8875
  49   2.0000      -0.389993       -10.6122
  50   2.0000      -0.380300       -10.3485
  51   2.0000      -0.372462       -10.1352
  52   2.0000      -0.367831       -10.0092
  53   2.0000      -0.360574        -9.8117
  54   2.0000      -0.353594        -9.6218
  55   2.0000      -0.350915        -9.5489
  56   2.0000      -0.335816        -9.1380
  57   2.0000      -0.328036        -8.9263
  58   2.0000      -0.322807        -8.7840
  59   2.0000      -0.319570        -8.6959
  60   2.0000      -0.314691        -8.5632
  61   2.0000      -0.238473        -6.4892
  62   2.0000      -0.152920        -4.1612
  63   0.0000      -0.058043        -1.5794
  64   0.0000       0.023303         0.6341
  65   0.0000       0.049508         1.3472
  66   0.0000       0.049671         1.3516
  67   0.0000       0.057093         1.5536

MULLIKEN ATOMIC CHARGES
-----------------------
   0 C :   -0.128420
   1 N :   -0.300327
   2 C :   -0.193482
   3 C :   -0.206122
   4 H :    0.144867
   5 H :    0.156275
   6 C :    0.382394
   7 C :    0.301790
   8 C :   -0.547847
   9 N :   -0.482180
  10 H :    0.240145
  11 H :    0.215550
  12 H :    0.223189
  13 H :    0.086414
  14 H :    0.077419
  15 O :   -0.361452
  16 F :   -0.112064
  17 C :   -0.099182
  18 H :    0.107195
  19 H :    0.120764
  20 C :   -0.258491
  21 C :   -0.258118
  22 H :    0.131646
  23 H :    0.113627
  24 H :    0.126971
  25 H :    0.118877
  26 C :   -0.292464
  27 H :    0.092205
  28 H :    0.118907
  29 C :   -0.210711
  30 H :    0.086657
  31 H :    0.087694
  32 C :   -0.145400
  33 H :    0.106329
  34 H :    0.113885
  35 H :    0.105201
  36 H :    0.135313
  37 H :    0.101476
  38 H :    0.101471
Sum of atomic charges:   -0.0000000

LOEWDIN ATOMIC CHARGES
----------------------
   0 C :   -0.279582
   1 N :    0.125345
   2 C :   -0.263871
   3 C :   -0.226287
   4 H :    0.156678
   5 H :    0.158045
   6 C :   -0.481778
   7 C :   -0.476213
   8 C :   -0.378058
   9 N :   -0.016638
  10 H :    0.174890
  11 H :    0.141754
  12 H :    0.156498
  13 H :    0.094346
  14 H :    0.090367
  15 O :    0.086242
  16 F :    0.347633
  17 C :   -0.268458
  18 H :    0.134255
  19 H :    0.135357
  20 C :   -0.273763
  21 C :   -0.269217
  22 H :    0.141965
  23 H :    0.143605
  24 H :    0.143096
  25 H :    0.145638
  26 C :   -0.277797
  27 H :    0.133998
  28 H :    0.146594
  29 C :   -0.275250
  30 H :    0.135843
  31 H :    0.135836
  32 C :   -0.270090
  33 H :    0.138463
  34 H :    0.137099
  35 H :    0.138013
  36 H :    0.139519
  37 H :    0.139007
  38 H :    0.136916

  Mayer bond orders larger than 0.100000
B(  0-C ,  1-N ) :   0.9993 B(  0-C , 17-C ) :   0.9757 B(  0-C , 18-H ) :   0.9682
B(  0-C , 19-H ) :   0.9621 B(  1-N ,  7-C ) :   1.2386 B(  1-N , 12-H ) :   0.8648
B(  2-C ,  3-C ) :   0.9691 B(  2-C , 21-C ) :   0.9882 B(  2-C , 24-H ) :   0.9632
B(  2-C , 25-H ) :   0.9510 B(  3-C ,  4-H ) :   0.9323 B(  3-C ,  5-H ) :   0.9665
B(  3-C ,  6-C ) :   1.0056 B(  6-C , 15-O ) :   1.9296 B(  6-C , 16-F ) :   1.0953
B(  7-C ,  8-C ) :   1.6417 B(  7-C ,  9-N ) :   1.1727 B(  8-C , 13-H ) :   0.9958
B(  8-C , 14-H ) :   0.9867 B(  9-N , 10-H ) :   0.9194 B(  9-N , 11-H ) :   0.8994
B( 12-H , 15-O ) :   0.1038 B( 17-C , 26-C ) :   1.0121 B( 17-C , 27-H ) :   0.9514
B( 17-C , 28-H ) :   0.9500 B( 20-C , 21-C ) :   0.9857 B( 20-C , 32-C ) :   0.9964
B( 20-C , 35-H ) :   0.9509 B( 20-C , 36-H ) :   0.9649 B( 21-C , 22-H ) :   0.9630
B( 21-C , 23-H ) :   0.9538 B( 26-C , 29-C ) :   0.9990 B( 26-C , 30-H ) :   0.9469
B( 26-C , 31-H ) :   0.9850 B( 29-C , 32-C ) :   0.9974 B( 29-C , 33-H ) :   0.9594
B( 29-C , 34-H ) :   0.9683 B( 32-C , 37-H ) :   0.9611 B( 32-C , 38-H ) :   0.9621

Dispersion correction           -0.038915834
FINAL SINGLE POINT ENERGY      -755.102115677576

DIPOLE MOMENT
-------------
                                X             Y             Z
Electronic contribution:     12.80245      10.40465       3.22667
Nuclear contribution   :    -13.35170      -8.48261      -5.12969
                        -----------------------------------------
Total Dipole Moment    :     -0.54925       1.92204      -1.90302
                        -----------------------------------------
Magnitude (a.u.)       :      2.75996
Magnitude (Debye)      :      7.01526

Rotational constants in cm-1:     0.019886     0.013843     0.009504
Rotational constants in MHz :   596.157485   415.004628   284.931121

                             ****ORCA TERMINATED NORMALLY****
TOTAL RUN TIME: 0 days 0 hours 1 minutes 32 seconds 540 msec
