                         Program Version 5.0.0 -  RELEASE  -
|  1> !TPSS D3BJ RIJCOSX def2-SVPD def2/J TightSCF
|  2> *xyz -1 1
|  3> C         -1.10433        0.25137       -2.86006
|  4> C         -0.71189        0.84252       -4.21834
|  5> H          0.15463        1.49980       -4.13091
|  6> H         -1.53813        1.45922       -4.58267
|  7> C         -0.39762       -0.20587       -5.28802
|  8> O          0.61717       -0.00535       -5.99827
|  9> O         -1.13317       -1.22138       -5.34147
| 10> C         -0.19626       -0.86337       -2.32576
| 11> H         -1.14384        1.06671       -2.12968
| 12> H         -2.11440       -0.15683       -2.93032
| 13> H         -0.15538       -1.66172       -3.03700
| 14> H         -0.58845       -1.22999       -1.40020
| 15> H          0.78852       -0.47602       -2.16737
| 16> *
| 17>
| 18> %MaxCore 64000
| 19>
| 20> %pal nprocs 4
| 21> end
| 22>
| 23> %scf
| 24>   MaxIter 150
| 25> end
| 26>
| 27>
| 28>                          ****END OF INPUT****

CARTESIAN COORDINATES (ANGSTROEM)
---------------------------------
  C     -1.104330    0.251370   -2.860060
  C     -0.711890    0.842520   -4.218340
  H      0.154630    1.499800   -4.130910
  H     -1.538130    1.459220   -4.582670
  C     -0.397620   -0.205870   -5.288020
  O      0.617170   -0.005350   -5.998270
  O     -1.133170   -1.221380   -5.341470
  C     -0.196260   -0.863370   -2.325760
  H     -1.143840    1.066710   -2.129680
  H     -2.114400   -0.156830   -2.930320
  H     -0.155380   -1.661720   -3.037000
  H     -0.588450   -1.229990   -1.400200
  H      0.788520   -0.476020   -2.167370

 Total Charge           Charge          ....   -1
 Multiplicity           Mult            ....    1
 Number of Electrons    NEL             ....   48
 Basis Dimension        Dim             ....  182

ORBITAL ENERGIES
----------------

  NO   OCC          E(Eh)            E(eV)
   0   2.0000     -18.641772      -507.2684
   1   2.0000     -18.640617      -507.2370
   2   2.0000      -9.878730      -268.8139
   3   2.0000      -9.851176      -268.0641
   4   2.0000      -9.843966      -267.8679
   5   2.0000      -9.827504      -267.4200
   6   2.0000      -0.743960       -20.2442
   7   2.0000      -0.654681       -17.8148
   8   2.0000      -0.569822       -15.5056
   9   2.0000      -0.482444       -13.1280
  10   2.0000      -0.390940       -10.6380
  11   2.0000      -0.278579        -7.5805
  12   2.0000      -0.261079        -7.1043
  13   2.0000      -0.244061        -6.6412
  14   2.0000      -0.215531        -5.8649
  15   2.0000      -0.186348        -5.0708
  16   2.0000      -0.172996        -4.7075
  17   2.0000      -0.164292        -4.4706
  18   2.0000      -0.154879        -4.2145
  19   2.0000      -0.134529        -3.6607
  20   2.0000      -0.124680        -3.3927
  21   2.0000      -0.016784        -0.4567
  22   2.0000      -0.003260        -0.0887
  23   2.0000       0.011994         0.3264
  24   0.0000       0.137719         3.7475
  25   0.0000       0.161740         4.4012
  26   0.0000       0.179167         4.8754
  27   0.0000       0.187799         5.1103
  28   0.0000       0.203784         5.5453

MULLIKEN ATOMIC CHARGES
-----------------------
   0 C :   -0.446704
   1 C :    0.089246
   2 H :    0.025387
   3 H :   -0.007280
   4 C :    0.402576
   5 O :   -0.684150
   6 O :   -0.738342
   7 C :    0.581207
   8 H :   -0.148685
   9 H :    0.030809
  10 H :   -0.046219
  11 H :   -0.044804
  12 H :   -0.013040
Sum of atomic charges:   -1.0000000

LOEWDIN ATOMIC CHARGES
----------------------
   0 C :   -0.083690
   1 C :    0.005215
   2 H :   -0.005087
   3 H :    0.004605
   4 C :   -0.302894
   5 O :   -0.322089
   6 O :   -0.309926
   7 C :    0.122565
   8 H :   -0.009070
   9 H :    0.004439
  10 H :   -0.032203
  11 H :   -0.041442
  12 H :   -0.030423

  Mayer bond orders larger than 0.100000
B(  0-C ,  1-C ) :   1.2031 B(  0-C ,  2-H ) :   0.1347 B(  0-C ,  3-H ) :   0.1267
B(  0-C ,  7-C ) :   1.3335 B(  0-C ,  8-H ) :   0.9891 B(  0-C ,  9-H ) :   0.8925
B(  0-C , 10-H ) :   0.2078 B(  0-C , 11-H ) :   0.2183 B(  0-C , 12-H ) :   0.1933
B(  1-C ,  2-H ) :   0.8844 B(  1-C ,  3-H ) :   0.8389 B(  1-C ,  4-C ) :   1.0652
B(  1-C ,  8-H ) :   0.1148 B(  1-C ,  9-H ) :   0.1198 B(  2-H ,  4-C ) :   0.2075
B(  4-C ,  5-O ) :   1.3924 B(  4-C ,  6-O ) :   1.4686 B(  7-C ,  8-H ) :   0.1022
B(  7-C , 10-H ) :   0.8608 B(  7-C , 11-H ) :   0.7614 B(  7-C , 12-H ) :   0.8097

Dispersion correction           -0.012192013
FINAL SINGLE POINT ENERGY      -307.002142522184

DIPOLE MOMENT
-------------
                                X             Y             Z
Electronic contribution:      0.68051      -1.07107      -7.18983
Nuclear contribution   :     -1.15173       1.87787       9.37659
                        -----------------------------------------
Total Dipole Moment    :     -0.47122       0.80679       2.18676
                        -----------------------------------------
Magnitude (a.u.)       :      2.37800
Magnitude (Debye)      :      6.04439

Rotational constants in cm-1:     0.203160     0.081703     0.075834
Rotational constants in MHz :  6090.598467  2449.397428  2273.436534

                             ****ORCA TERMINATED NORMALLY****
TOTAL RUN TIME: 0 days 0 hours 0 minutes 9 seconds 591 msec
