                         Program Version 5.0.0 -  RELEASE  -
|  1> !TPSS D3BJ RIJCOSX def2-SVPD def2/J TightSCF
|  2> *xyz 1 1
|  3> C          2.23447       -2.98975       -2.39762
|  4> N          2.75680       -2.94555       -3.76503
|  5> C          1.98721       -2.59045       -4.81898
|  6> N          0.74322       -3.01749       -4.91352
|  7> N          2.49964       -1.84860       -5.80324
|  8> H          3.30978       -1.29282       -5.55895
|  9> H          1.80103       -1.30430       -6.28913
| 10> H          3.71612       -2.62880       -3.82953
| 11> H          0.39583       -3.62775       -4.18502
| 12> H          0.03920       -2.45438       -5.37137
| 13> C          2.19120       -1.61950       -1.71549
| 14> H          2.87278       -3.66637       -1.82801
| 15> H          1.24619       -3.44744       -2.40784
| 16> C          1.29873       -0.55431       -2.35977
| 17> H          1.87292       -1.78796       -0.68131
| 18> H          3.21681       -1.23843       -1.65443
| 19> H          1.61097       -0.39090       -3.37007
| 20> H          1.37981        0.35955       -1.80916
| 21> H          0.28197       -0.88750       -2.35015
| 22> *
| 23>
| 24> %MaxCore 64000
| 25>
| 26> %pal nprocs 4
| 27> end
| 28>
| 29> %scf
| 30>   MaxIter 150
| 31> end
| 32>
| 33>
| 34>                          ****END OF INPUT****

CARTESIAN COORDINATES (ANGSTROEM)
---------------------------------
  C      2.234470   -2.989750   -2.397620
  N      2.756800   -2.945550   -3.765030
  C      1.987210   -2.590450   -4.818980
  N      0.743220   -3.017490   -4.913520
  N      2.499640   -1.848600   -5.803240
  H      3.309780   -1.292820   -5.558950
  H      1.801030   -1.304300   -6.289130
  H      3.716120   -2.628800   -3.829530
  H      0.395830   -3.627750   -4.185020
  H      0.039200   -2.454380   -5.371370
  C      2.191200   -1.619500   -1.715490
  H      2.872780   -3.666370   -1.828010
  H      1.246190   -3.447440   -2.407840
  C      1.298730   -0.554310   -2.359770
  H      1.872920   -1.787960   -0.681310
  H      3.216810   -1.238430   -1.654430
  H      1.610970   -0.390900   -3.370070
  H      1.379810    0.359550   -1.809160
  H      0.281970   -0.887500   -2.350150

 Total Charge           Charge          ....    1
 Multiplicity           Mult            ....    1
 Number of Electrons    NEL             ....   56
 Basis Dimension        Dim             ....  236

ORBITAL ENERGIES
----------------

  NO   OCC          E(Eh)            E(eV)
   0   2.0000     -14.345147      -390.3513
   1   2.0000     -14.341735      -390.2584
   2   2.0000     -14.338172      -390.1615
   3   2.0000     -10.326345      -280.9941
   4   2.0000     -10.207910      -277.7714
   5   2.0000     -10.151518      -276.2368
   6   2.0000     -10.133257      -275.7399
   7   2.0000      -1.142347       -31.0848
   8   2.0000      -1.035078       -28.1659
   9   2.0000      -1.031255       -28.0619
  10   2.0000      -0.878736       -23.9116
  11   2.0000      -0.812178       -22.1005
  12   2.0000      -0.774205       -21.0672
  13   2.0000      -0.736475       -20.0405
  14   2.0000      -0.717662       -19.5286
  15   2.0000      -0.684192       -18.6178
  16   2.0000      -0.654629       -17.8134
  17   2.0000      -0.641230       -17.4487
  18   2.0000      -0.606973       -16.5166
  19   2.0000      -0.582806       -15.8589
  20   2.0000      -0.558082       -15.1862
  21   2.0000      -0.546392       -14.8681
  22   2.0000      -0.522545       -14.2192
  23   2.0000      -0.484718       -13.1898
  24   2.0000      -0.462288       -12.5795
  25   2.0000      -0.456982       -12.4351
  26   2.0000      -0.446238       -12.1427
  27   2.0000      -0.412010       -11.2114
  28   0.0000      -0.220210        -5.9922
  29   0.0000      -0.165690        -4.5086
  30   0.0000      -0.138638        -3.7725
  31   0.0000      -0.126336        -3.4378
  32   0.0000      -0.108069        -2.9407

MULLIKEN ATOMIC CHARGES
-----------------------
   0 C :    0.720930
   1 N :   -0.439954
   2 C :    1.069130
   3 N :    0.006983
   4 N :   -0.065119
   5 H :    0.003387
   6 H :    0.037122
   7 H :   -0.154480
   8 H :    0.026801
   9 H :   -0.030424
  10 C :   -0.376352
  11 H :   -0.235035
  12 H :   -0.057556
  13 C :    0.735365
  14 H :   -0.010636
  15 H :   -0.013702
  16 H :   -0.177926
  17 H :   -0.065313
  18 H :    0.026779
Sum of atomic charges:    1.0000000

LOEWDIN ATOMIC CHARGES
----------------------
   0 C :    0.082506
   1 N :    0.061136
   2 C :   -0.064861
   3 N :    0.289432
   4 N :    0.275982
   5 H :    0.033053
   6 H :    0.033438
   7 H :    0.050004
   8 H :    0.025247
   9 H :    0.046965
  10 C :   -0.034343
  11 H :    0.036924
  12 H :    0.014564
  13 C :    0.150514
  14 H :    0.036098
  15 H :    0.025590
  16 H :   -0.044096
  17 H :   -0.003829
  18 H :   -0.014324

  Mayer bond orders larger than 0.100000
B(  0-C ,  1-N ) :   0.9124 B(  0-C , 10-C ) :   1.1403 B(  0-C , 11-H ) :   0.8746
B(  0-C , 12-H ) :   0.7891 B(  0-C , 14-H ) :   0.1344 B(  0-C , 15-H ) :   0.1126
B(  1-N ,  2-C ) :   1.0324 B(  1-N ,  3-N ) :   0.1242 B(  1-N ,  4-N ) :   0.1802
B(  1-N ,  7-H ) :   1.1874 B(  1-N , 11-H ) :   0.1942 B(  1-N , 12-H ) :   0.1194
B(  2-C ,  3-N ) :   0.9762 B(  2-C ,  4-N ) :   0.9129 B(  2-C ,  7-H ) :  -0.1663
B(  2-C ,  9-H ) :  -0.1032 B(  3-N ,  4-N ) :   0.1734 B(  3-N ,  8-H ) :   0.9605
B(  3-N ,  9-H ) :   1.1922 B(  4-N ,  5-H ) :   1.0062 B(  4-N ,  6-H ) :   1.0005
B(  8-H ,  9-H ) :  -0.1507 B( 10-C , 12-H ) :   0.1321 B( 10-C , 13-C ) :   1.2986
B( 10-C , 14-H ) :   0.9198 B( 10-C , 15-H ) :   0.9376 B( 10-C , 16-H ) :   0.2254
B( 10-C , 17-H ) :   0.2020 B( 10-C , 18-H ) :   0.2214 B( 13-C , 16-H ) :   0.8379
B( 13-C , 17-H ) :   0.7893 B( 13-C , 18-H ) :   0.7479 B( 16-H , 18-H ) :   0.1211

Dispersion correction           -0.020437000
FINAL SINGLE POINT ENERGY      -323.555946468893

DIPOLE MOMENT
-------------
                                X             Y             Z
Electronic contribution:      1.24521      -3.58188      -5.56888
Nuclear contribution   :     -1.48325       3.81474       4.74728
                        -----------------------------------------
Total Dipole Moment    :     -0.23804       0.23287      -0.82161
                        -----------------------------------------
Magnitude (a.u.)       :      0.88652
Magnitude (Debye)      :      2.25337

Rotational constants in cm-1:     0.127669     0.058023     0.053953
Rotational constants in MHz :  3827.411023  1739.493733  1617.466565

                             ****ORCA TERMINATED NORMALLY****
TOTAL RUN TIME: 0 days 0 hours 0 minutes 16 seconds 624 msec
