                         Program Version 5.0.0 -  RELEASE  -
|  1> !TPSS D3BJ RIJCOSX def2-SVPD def2/J TightSCF
|  2> *xyz 0 1
|  3> C         -1.10433        0.25137       -2.86006
|  4> C         -0.71189        0.84252       -4.21834
|  5> H          0.15463        1.49980       -4.13091
|  6> H         -1.53813        1.45922       -4.58267
|  7> C         -0.39762       -0.20587       -5.28802
|  8> F          0.61717       -0.00535       -5.99827
|  9> O         -1.13317       -1.22138       -5.34147
| 10> C         -0.19626       -0.86337       -2.32576
| 11> H         -1.14384        1.06671       -2.12968
| 12> H         -2.11440       -0.15683       -2.93032
| 13> H         -0.15538       -1.66172       -3.03700
| 14> H         -0.58845       -1.22999       -1.40020
| 15> H          0.78852       -0.47602       -2.16737
| 16> *
| 17>
| 18> %MaxCore 64000
| 19>
| 20> %pal nprocs 4
| 21> end
| 22>
| 23> %scf
| 24>   MaxIter 150
| 25> end
| 26>
| 27>
| 28>                          ****END OF INPUT****

CARTESIAN COORDINATES (ANGSTROEM)
---------------------------------
  C     -1.104330    0.251370   -2.860060
  C     -0.711890    0.842520   -4.218340
  H      0.154630    1.499800   -4.130910
  H     -1.538130    1.459220   -4.582670
  C     -0.397620   -0.205870   -5.288020
  F      0.617170   -0.005350   -5.998270
  O     -1.133170   -1.221380   -5.341470
  C     -0.196260   -0.863370   -2.325760
  H     -1.143840    1.066710   -2.129680
  H     -2.114400   -0.156830   -2.930320
  H     -0.155380   -1.661720   -3.037000
  H     -0.588450   -1.229990   -1.400200
  H      0.788520   -0.476020   -2.167370

 Total Charge           Charge          ....    0
 Multiplicity           Mult            ....    1
 Number of Electrons    NEL             ....   48
 Basis Dimension        Dim             ....  182

ORBITAL ENERGIES
----------------

  NO   OCC          E(Eh)            E(eV)
   0   2.0000     -24.496949      -666.5959
   1   2.0000     -18.907268      -514.4929
   2   2.0000     -10.171176      -276.7718
   3   2.0000     -10.032407      -272.9957
   4   2.0000     -10.014554      -272.5099
   5   2.0000      -9.992198      -271.9015
   6   2.0000      -1.226025       -33.3618
   7   2.0000      -0.955903       -26.0114
   8   2.0000      -0.746678       -20.3181
   9   2.0000      -0.669476       -18.2174
  10   2.0000      -0.604093       -16.4382
  11   2.0000      -0.557017       -15.1572
  12   2.0000      -0.495789       -13.4911
  13   2.0000      -0.479001       -13.0343
  14   2.0000      -0.457614       -12.4523
  15   2.0000      -0.424596       -11.5538
  16   2.0000      -0.411151       -11.1880
  17   2.0000      -0.379096       -10.3157
  18   2.0000      -0.356783        -9.7086
  19   2.0000      -0.331941        -9.0326
  20   2.0000      -0.320023        -8.7083
  21   2.0000      -0.312135        -8.4936
  22   2.0000      -0.308840        -8.4040
  23   2.0000      -0.250782        -6.8241
  24   0.0000      -0.065814        -1.7909
  25   0.0000       0.003643         0.0991
  26   0.0000       0.031627         0.8606
  27   0.0000       0.037972         1.0333
  28   0.0000       0.047793         1.3005

MULLIKEN ATOMIC CHARGES
-----------------------
   0 C :   -0.402606
   1 C :    0.011073
   2 H :    0.066344
   3 H :    0.056454
   4 C :    0.772529
   5 F :   -0.366678
   6 O :   -0.565200
   7 C :    0.604873
   8 H :   -0.116119
   9 H :    0.040011
  10 H :   -0.070012
  11 H :   -0.024745
  12 H :   -0.005925
Sum of atomic charges:   -0.0000000

LOEWDIN ATOMIC CHARGES
----------------------
   0 C :   -0.052933
   1 C :    0.047896
   2 H :    0.019109
   3 H :    0.036495
   4 C :   -0.012406
   5 F :   -0.027707
   6 O :   -0.126928
   7 C :    0.142956
   8 H :    0.019310
   9 H :    0.021916
  10 H :   -0.030011
  11 H :   -0.018052
  12 H :   -0.019644

  Mayer bond orders larger than 0.100000
B(  0-C ,  1-C ) :   1.2462 B(  0-C ,  2-H ) :   0.1306 B(  0-C ,  3-H ) :   0.1311
B(  0-C ,  7-C ) :   1.3655 B(  0-C ,  8-H ) :   0.9653 B(  0-C ,  9-H ) :   0.8867
B(  0-C , 10-H ) :   0.1914 B(  0-C , 11-H ) :   0.2036 B(  0-C , 12-H ) :   0.1844
B(  1-C ,  2-H ) :   0.8746 B(  1-C ,  3-H ) :   0.8223 B(  1-C ,  4-C ) :   1.1018
B(  1-C ,  8-H ) :   0.1035 B(  1-C ,  9-H ) :   0.1085 B(  2-H ,  4-C ) :   0.1116
B(  4-C ,  5-F ) :   0.6935 B(  4-C ,  6-O ) :   1.7390 B(  7-C , 10-H ) :   0.8625
B(  7-C , 11-H ) :   0.7634 B(  7-C , 12-H ) :   0.8091

Dispersion correction           -0.011731678
FINAL SINGLE POINT ENERGY      -331.536310903936

DIPOLE MOMENT
-------------
                                X             Y             Z
Electronic contribution:      2.60602      -0.70995     -10.69643
Nuclear contribution   :     -2.39146       1.63977      11.24418
                        -----------------------------------------
Total Dipole Moment    :      0.21457       0.92982       0.54774
                        -----------------------------------------
Magnitude (a.u.)       :      1.10028
Magnitude (Debye)      :      2.79670

Rotational constants in cm-1:     0.198868     0.077542     0.072498
Rotational constants in MHz :  5961.919605  2324.650173  2173.425242

                             ****ORCA TERMINATED NORMALLY****
TOTAL RUN TIME: 0 days 0 hours 0 minutes 9 seconds 990 msec
