                         Program Version 5.0.0 -  RELEASE  -
|  1> !TPSS D3BJ RIJCOSX def2-SVPD def2/J TightSCF
|  2> *xyz 0 1
|  3> C          2.23447       -2.98975       -2.39762
|  4> C          2.75680       -2.94555       -3.76503
|  5> C          1.98721       -2.59045       -4.81898
|  6> N          0.74322       -3.01749       -4.91352
|  7> N          2.49964       -1.84860       -5.80324
|  8> H          3.30978       -1.29282       -5.55895
|  9> H          1.80103       -1.30430       -6.28913
| 10> H          3.71612       -2.62880       -3.82953
| 11> H          0.39583       -3.62775       -4.18502
| 12> H          0.03920       -2.45438       -5.37137
| 13> C          2.19120       -1.61950       -1.71549
| 14> H          2.87278       -3.66637       -1.82801
| 15> H          1.24619       -3.44744       -2.40784
| 16> C          1.29873       -0.55431       -2.35977
| 17> H          1.87292       -1.78796       -0.68131
| 18> H          3.21681       -1.23843       -1.65443
| 19> H          1.61097       -0.39090       -3.37007
| 20> H          1.37981        0.35955       -1.80916
| 21> H          0.28197       -0.88750       -2.35015
| 22> *
| 23>
| 24> %MaxCore 64000
| 25>
| 26> %pal nprocs 4
| 27> end
| 28>
| 29> %scf
| 30>   MaxIter 150
| 31> end
| 32>
| 33>
| 34>                          ****END OF INPUT****

CARTESIAN COORDINATES (ANGSTROEM)
---------------------------------
  C      2.234470   -2.989750   -2.397620
  C      2.756800   -2.945550   -3.765030
  C      1.987210   -2.590450   -4.818980
  N      0.743220   -3.017490   -4.913520
  N      2.499640   -1.848600   -5.803240
  H      3.309780   -1.292820   -5.558950
  H      1.801030   -1.304300   -6.289130
  H      3.716120   -2.628800   -3.829530
  H      0.395830   -3.627750   -4.185020
  H      0.039200   -2.454380   -5.371370
  C      2.191200   -1.619500   -1.715490
  H      2.872780   -3.666370   -1.828010
  H      1.246190   -3.447440   -2.407840
  C      1.298730   -0.554310   -2.359770
  H      1.872920   -1.787960   -0.681310
  H      3.216810   -1.238430   -1.654430
  H      1.610970   -0.390900   -3.370070
  H      1.379810    0.359550   -1.809160
  H      0.281970   -0.887500   -2.350150

 Total Charge           Charge          ....    0
 Multiplicity           Mult            ....    1
 Number of Electrons    NEL             ....   56
 Basis Dimension        Dim             ....  236

ORBITAL ENERGIES
----------------

  NO   OCC          E(Eh)            E(eV)
   0   2.0000     -14.126380      -384.3983
   1   2.0000     -14.123040      -384.3074
   2   2.0000     -10.042532      -273.2712
   3   2.0000      -9.983162      -271.6557
   4   2.0000      -9.979450      -271.5546
   5   2.0000      -9.979221      -271.5484
   6   2.0000      -9.927127      -270.1308
   7   2.0000      -0.898523       -24.4501
   8   2.0000      -0.812716       -22.1151
   9   2.0000      -0.722578       -19.6624
  10   2.0000      -0.661462       -17.9993
  11   2.0000      -0.604761       -16.4564
  12   2.0000      -0.550353       -14.9759
  13   2.0000      -0.518809       -14.1175
  14   2.0000      -0.498426       -13.5629
  15   2.0000      -0.463478       -12.6119
  16   2.0000      -0.430453       -11.7132
  17   2.0000      -0.408083       -11.1045
  18   2.0000      -0.398908       -10.8548
  19   2.0000      -0.373640       -10.1673
  20   2.0000      -0.345759        -9.4086
  21   2.0000      -0.335977        -9.1424
  22   2.0000      -0.316284        -8.6065
  23   2.0000      -0.303164        -8.2495
  24   2.0000      -0.282343        -7.6830
  25   2.0000      -0.279152        -7.5961
  26   2.0000      -0.236895        -6.4462
  27   2.0000      -0.133851        -3.6423
  28   0.0000      -0.007450        -0.2027
  29   0.0000       0.021491         0.5848
  30   0.0000       0.030154         0.8205
  31   0.0000       0.030869         0.8400
  32   0.0000       0.047247         1.2857

MULLIKEN ATOMIC CHARGES
-----------------------
   0 C :    0.146682
   1 C :   -0.198859
   2 C :    0.374820
   3 N :   -0.002529
   4 N :   -0.041287
   5 H :    0.043385
   6 H :    0.006399
   7 H :   -0.102514
   8 H :    0.009978
   9 H :   -0.119488
  10 C :   -0.362236
  11 H :   -0.047163
  12 H :   -0.141844
  13 C :    0.762262
  14 H :   -0.072022
  15 H :   -0.038512
  16 H :   -0.135662
  17 H :   -0.102753
  18 H :    0.021343
Sum of atomic charges:   -0.0000000

LOEWDIN ATOMIC CHARGES
----------------------
   0 C :   -0.061635
   1 C :   -0.011620
   2 C :   -0.249297
   3 N :    0.204438
   4 N :    0.196540
   5 H :    0.001366
   6 H :   -0.013545
   7 H :   -0.057861
   8 H :   -0.003745
   9 H :   -0.003662
  10 C :   -0.062191
  11 H :    0.006288
  12 H :   -0.009674
  13 C :    0.134270
  14 H :    0.009179
  15 H :    0.014851
  16 H :   -0.041904
  17 H :   -0.026506
  18 H :   -0.025292

  Mayer bond orders larger than 0.100000
B(  0-C ,  1-C ) :   1.2533 B(  0-C ,  2-C ) :   0.1380 B(  0-C ,  7-H ) :   0.3005
B(  0-C , 10-C ) :   1.1705 B(  0-C , 11-H ) :   0.8220 B(  0-C , 12-H ) :   0.8022
B(  0-C , 14-H ) :   0.1981 B(  0-C , 15-H ) :   0.1624 B(  1-C ,  2-C ) :   1.6337
B(  1-C ,  3-N ) :   0.1372 B(  1-C ,  4-N ) :   0.2749 B(  1-C ,  7-H ) :   0.6567
B(  1-C , 11-H ) :   0.1894 B(  1-C , 12-H ) :   0.2084 B(  2-C ,  3-N ) :   0.9946
B(  2-C ,  4-N ) :   0.8922 B(  2-C ,  7-H ) :   0.2561 B(  3-N ,  4-N ) :   0.1449
B(  3-N ,  8-H ) :   0.9745 B(  3-N ,  9-H ) :   1.1992 B(  4-N ,  5-H ) :   0.9415
B(  4-N ,  6-H ) :   0.8834 B(  8-H ,  9-H ) :  -0.1309 B( 10-C , 12-H ) :   0.1344
B( 10-C , 13-C ) :   1.2943 B( 10-C , 14-H ) :   0.9061 B( 10-C , 15-H ) :   0.9299
B( 10-C , 16-H ) :   0.2403 B( 10-C , 17-H ) :   0.2239 B( 10-C , 18-H ) :   0.2133
B( 13-C , 16-H ) :   0.8325 B( 13-C , 17-H ) :   0.7597 B( 13-C , 18-H ) :   0.7570
B( 16-H , 18-H ) :   0.1233

Dispersion correction           -0.021152175
FINAL SINGLE POINT ENERGY      -307.083214486399

DIPOLE MOMENT
-------------
                                X             Y             Z
Electronic contribution:      0.59975      -2.87430      -5.05070
Nuclear contribution   :     -1.30515       3.65216       4.73330
                        -----------------------------------------
Total Dipole Moment    :     -0.70541       0.77786      -0.31740
                        -----------------------------------------
Magnitude (a.u.)       :      1.09700
Magnitude (Debye)      :      2.78835

Rotational constants in cm-1:     0.129987     0.058163     0.054282
Rotational constants in MHz :  3896.918182  1743.696851  1627.337267

                             ****ORCA TERMINATED NORMALLY****
TOTAL RUN TIME: 0 days 0 hours 0 minutes 17 seconds 481 msec
