                         Program Version 5.0.0 -  RELEASE  -
|  1> !TPSS D3BJ RIJCOSX def2-SVPD def2/J TightSCF
|  2> *xyz 0 1
|  3> C         -1.10433        0.25137       -2.86006
|  4> C         -0.71189        0.84252       -4.21834
|  5> H          0.15463        1.49980       -4.13091
|  6> H         -1.53813        1.45922       -4.58267
|  7> C         -0.39762       -0.20587       -5.28802
|  8> O          0.61717       -0.00535       -5.99827
|  9> F         -1.13317       -1.22138       -5.34147
| 10> C         -0.19626       -0.86337       -2.32576
| 11> H         -1.14384        1.06671       -2.12968
| 12> H         -2.11440       -0.15683       -2.93032
| 13> H         -0.15538       -1.66172       -3.03700
| 14> H         -0.58845       -1.22999       -1.40020
| 15> H          0.78852       -0.47602       -2.16737
| 16> *
| 17>
| 18> %MaxCore 64000
| 19>
| 20> %pal nprocs 4
| 21> end
| 22>
| 23> %scf
| 24>   MaxIter 150
| 25> end
| 26>
| 27>
| 28>                          ****END OF INPUT****

CARTESIAN COORDINATES (ANGSTROEM)
---------------------------------
  C     -1.104330    0.251370   -2.860060
  C     -0.711890    0.842520   -4.218340
  H      0.154630    1.499800   -4.130910
  H     -1.538130    1.459220   -4.582670
  C     -0.397620   -0.205870   -5.288020
  O      0.617170   -0.005350   -5.998270
  F     -1.133170   -1.221380   -5.341470
  C     -0.196260   -0.863370   -2.325760
  H     -1.143840    1.066710   -2.129680
  H     -2.114400   -0.156830   -2.930320
  H     -0.155380   -1.661720   -3.037000
  H     -0.588450   -1.229990   -1.400200
  H      0.788520   -0.476020   -2.167370

 Total Charge           Charge          ....    0
 Multiplicity           Mult            ....    1
 Number of Electrons    NEL             ....   48
 Basis Dimension        Dim             ....  182

ORBITAL ENERGIES
----------------

  NO   OCC          E(Eh)            E(eV)
   0   2.0000     -24.497657      -666.6151
   1   2.0000     -18.905723      -514.4509
   2   2.0000     -10.170267      -276.7470
   3   2.0000     -10.031390      -272.9680
   4   2.0000     -10.019228      -272.6371
   5   2.0000      -9.999958      -272.1127
   6   2.0000      -1.226508       -33.3750
   7   2.0000      -0.954180       -25.9645
   8   2.0000      -0.751901       -20.4603
   9   2.0000      -0.670288       -18.2395
  10   2.0000      -0.603937       -16.4340
  11   2.0000      -0.563558       -15.3352
  12   2.0000      -0.497992       -13.5511
  13   2.0000      -0.488345       -13.2885
  14   2.0000      -0.441983       -12.0270
  15   2.0000      -0.431705       -11.7473
  16   2.0000      -0.413435       -11.2501
  17   2.0000      -0.381176       -10.3723
  18   2.0000      -0.358908        -9.7664
  19   2.0000      -0.339802        -9.2465
  20   2.0000      -0.326641        -8.8884
  21   2.0000      -0.318887        -8.6774
  22   2.0000      -0.309042        -8.4095
  23   2.0000      -0.245755        -6.6873
  24   0.0000      -0.063283        -1.7220
  25   0.0000      -0.000123        -0.0033
  26   0.0000       0.033325         0.9068
  27   0.0000       0.036397         0.9904
  28   0.0000       0.045221         1.2305

MULLIKEN ATOMIC CHARGES
-----------------------
   0 C :   -0.401328
   1 C :    0.031377
   2 H :    0.048252
   3 H :    0.043584
   4 C :    0.798736
   5 O :   -0.517646
   6 F :   -0.417164
   7 C :    0.606971
   8 H :   -0.126937
   9 H :    0.022589
  10 H :   -0.069661
  11 H :   -0.025145
  12 H :    0.006373
Sum of atomic charges:    0.0000000

LOEWDIN ATOMIC CHARGES
----------------------
   0 C :   -0.061808
   1 C :    0.053993
   2 H :    0.031039
   3 H :    0.034275
   4 C :   -0.017912
   5 O :   -0.129962
   6 F :   -0.025689
   7 C :    0.142238
   8 H :    0.019260
   9 H :    0.016644
  10 H :   -0.029393
  11 H :   -0.017903
  12 H :   -0.014782

  Mayer bond orders larger than 0.100000
B(  0-C ,  1-C ) :   1.2194 B(  0-C ,  2-H ) :   0.1257 B(  0-C ,  3-H ) :   0.1204
B(  0-C ,  7-C ) :   1.3630 B(  0-C ,  8-H ) :   0.9731 B(  0-C ,  9-H ) :   0.8924
B(  0-C , 10-H ) :   0.1892 B(  0-C , 11-H ) :   0.2082 B(  0-C , 12-H ) :   0.1890
B(  1-C ,  2-H ) :   0.9030 B(  1-C ,  3-H ) :   0.8328 B(  1-C ,  4-C ) :   1.0570
B(  1-C ,  8-H ) :   0.1069 B(  1-C ,  9-H ) :   0.1016 B(  2-H ,  4-C ) :   0.1374
B(  4-C ,  5-O ) :   1.7125 B(  4-C ,  6-F ) :   0.6716 B(  5-O ,  6-F ) :   0.1136
B(  7-C , 10-H ) :   0.8621 B(  7-C , 11-H ) :   0.7626 B(  7-C , 12-H ) :   0.8109

Dispersion correction           -0.011630699
FINAL SINGLE POINT ENERGY      -331.535303919298

DIPOLE MOMENT
-------------
                                X             Y             Z
Electronic contribution:     -0.33392      -2.73686      -9.53744
Nuclear contribution   :     -0.41432       3.01336      10.50227
                        -----------------------------------------
Total Dipole Moment    :     -0.74824       0.27650       0.96483
                        -----------------------------------------
Magnitude (a.u.)       :      1.25189
Magnitude (Debye)      :      3.18204

Rotational constants in cm-1:     0.192167     0.080512     0.073747
Rotational constants in MHz :  5761.018137  2413.690728  2210.882638

                             ****ORCA TERMINATED NORMALLY****
TOTAL RUN TIME: 0 days 0 hours 0 minutes 9 seconds 269 msec
