                         Program Version 5.0.0 -  RELEASE  -
|  1> !TPSS D3BJ RIJCOSX def2-SVPD def2/J TightSCF
|  2> *xyz 0 1
|  3> C          2.23447       -2.98975       -2.39762
|  4> N          2.75680       -2.94555       -3.76503
|  5> C          1.98721       -2.59045       -4.81898
|  6> C          0.74322       -3.01749       -4.91352
|  7> N          2.49964       -1.84860       -5.80324
|  8> H          3.30978       -1.29282       -5.55895
|  9> H          1.80103       -1.30430       -6.28913
| 10> H          3.71612       -2.62880       -3.82953
| 11> H          0.39583       -3.62775       -4.18502
| 12> H          0.03920       -2.45438       -5.37137
| 13> C          2.19120       -1.61950       -1.71549
| 14> H          2.87278       -3.66637       -1.82801
| 15> H          1.24619       -3.44744       -2.40784
| 16> C          1.29873       -0.55431       -2.35977
| 17> H          1.87292       -1.78796       -0.68131
| 18> H          3.21681       -1.23843       -1.65443
| 19> H          1.61097       -0.39090       -3.37007
| 20> H          1.37981        0.35955       -1.80916
| 21> H          0.28197       -0.88750       -2.35015
| 22> *
| 23>
| 24> %MaxCore 64000
| 25>
| 26> %pal nprocs 4
| 27> end
| 28>
| 29> %scf
| 30>   MaxIter 150
| 31> end
| 32>
| 33>
| 34>                          ****END OF INPUT****

CARTESIAN COORDINATES (ANGSTROEM)
---------------------------------
  C      2.234470   -2.989750   -2.397620
  N      2.756800   -2.945550   -3.765030
  C      1.987210   -2.590450   -4.818980
  C      0.743220   -3.017490   -4.913520
  N      2.499640   -1.848600   -5.803240
  H      3.309780   -1.292820   -5.558950
  H      1.801030   -1.304300   -6.289130
  H      3.716120   -2.628800   -3.829530
  H      0.395830   -3.627750   -4.185020
  H      0.039200   -2.454380   -5.371370
  C      2.191200   -1.619500   -1.715490
  H      2.872780   -3.666370   -1.828010
  H      1.246190   -3.447440   -2.407840
  C      1.298730   -0.554310   -2.359770
  H      1.872920   -1.787960   -0.681310
  H      3.216810   -1.238430   -1.654430
  H      1.610970   -0.390900   -3.370070
  H      1.379810    0.359550   -1.809160
  H      0.281970   -0.887500   -2.350150

 Total Charge           Charge          ....    0
 Multiplicity           Mult            ....    1
 Number of Electrons    NEL             ....   56
 Basis Dimension        Dim             ....  236

ORBITAL ENERGIES
----------------

  NO   OCC          E(Eh)            E(eV)
   0   2.0000     -14.120705      -384.2439
   1   2.0000     -14.120438      -384.2367
   2   2.0000     -10.039115      -273.1782
   3   2.0000     -10.033147      -273.0158
   4   2.0000     -10.001905      -272.1657
   5   2.0000      -9.987540      -271.7748
   6   2.0000      -9.920041      -269.9380
   7   2.0000      -0.894916       -24.3519
   8   2.0000      -0.820436       -22.3252
   9   2.0000      -0.715674       -19.4745
  10   2.0000      -0.659263       -17.9395
  11   2.0000      -0.631108       -17.1733
  12   2.0000      -0.553319       -15.0566
  13   2.0000      -0.513107       -13.9623
  14   2.0000      -0.496041       -13.4980
  15   2.0000      -0.467128       -12.7112
  16   2.0000      -0.428387       -11.6570
  17   2.0000      -0.414120       -11.2688
  18   2.0000      -0.387906       -10.5555
  19   2.0000      -0.372248       -10.1294
  20   2.0000      -0.359473        -9.7818
  21   2.0000      -0.341846        -9.3021
  22   2.0000      -0.329704        -8.9717
  23   2.0000      -0.318560        -8.6685
  24   2.0000      -0.308393        -8.3918
  25   2.0000      -0.301391        -8.2013
  26   2.0000      -0.215488        -5.8637
  27   2.0000      -0.146447        -3.9850
  28   0.0000      -0.003195        -0.0869
  29   0.0000       0.019286         0.5248
  30   0.0000       0.026247         0.7142
  31   0.0000       0.036877         1.0035
  32   0.0000       0.044488         1.2106

MULLIKEN ATOMIC CHARGES
-----------------------
   0 C :    0.701248
   1 N :   -0.389991
   2 C :    0.519753
   3 C :    0.234403
   4 N :   -0.057800
   5 H :   -0.045494
   6 H :    0.042899
   7 H :   -0.261504
   8 H :   -0.094978
   9 H :   -0.351194
  10 C :   -0.421506
  11 H :   -0.258634
  12 H :   -0.047973
  13 C :    0.762223
  14 H :   -0.045837
  15 H :   -0.034631
  16 H :   -0.204332
  17 H :   -0.051361
  18 H :    0.004709
Sum of atomic charges:    0.0000000

LOEWDIN ATOMIC CHARGES
----------------------
   0 C :    0.058426
   1 N :    0.000492
   2 C :   -0.258320
   3 C :    0.162924
   4 N :    0.193160
   5 H :   -0.017731
   6 H :   -0.000408
   7 H :    0.010657
   8 H :   -0.103190
   9 H :   -0.090867
  10 C :   -0.055917
  11 H :    0.013388
  12 H :    0.006364
  13 C :    0.139452
  14 H :    0.013813
  15 H :    0.010378
  16 H :   -0.039542
  17 H :   -0.024560
  18 H :   -0.018520

  Mayer bond orders larger than 0.100000
B(  0-C ,  1-N ) :   0.9181 B(  0-C , 10-C ) :   1.0977 B(  0-C , 11-H ) :   0.8879
B(  0-C , 12-H ) :   0.7657 B(  0-C , 14-H ) :   0.1481 B(  0-C , 15-H ) :   0.1157
B(  1-N ,  2-C ) :   0.9971 B(  1-N ,  3-C ) :   0.2954 B(  1-N ,  4-N ) :   0.1524
B(  1-N ,  7-H ) :   1.1405 B(  1-N , 11-H ) :   0.1767 B(  1-N , 12-H ) :   0.1247
B(  2-C ,  3-C ) :   1.6920 B(  2-C ,  4-N ) :   0.8361 B(  2-C ,  7-H ) :  -0.1296
B(  2-C ,  8-H ) :   0.2829 B(  2-C ,  9-H ) :   0.1520 B(  3-C ,  4-N ) :   0.2468
B(  3-C ,  8-H ) :   0.5408 B(  3-C ,  9-H ) :   0.9294 B(  4-N ,  5-H ) :   0.9420
B(  4-N ,  6-H ) :   0.9314 B(  8-H ,  9-H ) :   0.1619 B( 10-C , 12-H ) :   0.1396
B( 10-C , 13-C ) :   1.2883 B( 10-C , 14-H ) :   0.9321 B( 10-C , 15-H ) :   0.9488
B( 10-C , 16-H ) :   0.2428 B( 10-C , 17-H ) :   0.1971 B( 10-C , 18-H ) :   0.2233
B( 13-C , 16-H ) :   0.8466 B( 13-C , 17-H ) :   0.7585 B( 13-C , 18-H ) :   0.7483
B( 16-H , 18-H ) :   0.1499

Dispersion correction           -0.021065464
FINAL SINGLE POINT ENERGY      -307.078249954812

DIPOLE MOMENT
-------------
                                X             Y             Z
Electronic contribution:      2.34542      -2.73393      -3.91590
Nuclear contribution   :     -1.74624       3.63640       4.48172
                        -----------------------------------------
Total Dipole Moment    :      0.59918       0.90247       0.56582
                        -----------------------------------------
Magnitude (a.u.)       :      1.22214
Magnitude (Debye)      :      3.10643

Rotational constants in cm-1:     0.131012     0.059513     0.054636
Rotational constants in MHz :  3927.631151  1784.169731  1637.945644

                             ****ORCA TERMINATED NORMALLY****
TOTAL RUN TIME: 0 days 0 hours 0 minutes 18 seconds 10 msec
