                         Program Version 5.0.0 -  RELEASE  -
|  1> !TPSS D3BJ RIJCOSX def2-SVPD def2/J TightSCF
|  2> *xyz 0 1
|  3> C          2.23447       -2.98975       -2.39762
|  4> N          2.75680       -2.94555       -3.76503
|  5> C          1.98721       -2.59045       -4.81898
|  6> N          0.74322       -3.01749       -4.91352
|  7> C          2.49964       -1.84860       -5.80324
|  8> H          3.30978       -1.29282       -5.55895
|  9> H          1.80103       -1.30430       -6.28913
| 10> H          3.71612       -2.62880       -3.82953
| 11> H          0.39583       -3.62775       -4.18502
| 12> H          0.03920       -2.45438       -5.37137
| 13> C          2.19120       -1.61950       -1.71549
| 14> H          2.87278       -3.66637       -1.82801
| 15> H          1.24619       -3.44744       -2.40784
| 16> C          1.29873       -0.55431       -2.35977
| 17> H          1.87292       -1.78796       -0.68131
| 18> H          3.21681       -1.23843       -1.65443
| 19> H          1.61097       -0.39090       -3.37007
| 20> H          1.37981        0.35955       -1.80916
| 21> H          0.28197       -0.88750       -2.35015
| 22> *
| 23>
| 24> %MaxCore 64000
| 25>
| 26> %pal nprocs 4
| 27> end
| 28>
| 29> %scf
| 30>   MaxIter 150
| 31> end
| 32>
| 33>
| 34>                          ****END OF INPUT****

CARTESIAN COORDINATES (ANGSTROEM)
---------------------------------
  C      2.234470   -2.989750   -2.397620
  N      2.756800   -2.945550   -3.765030
  C      1.987210   -2.590450   -4.818980
  N      0.743220   -3.017490   -4.913520
  C      2.499640   -1.848600   -5.803240
  H      3.309780   -1.292820   -5.558950
  H      1.801030   -1.304300   -6.289130
  H      3.716120   -2.628800   -3.829530
  H      0.395830   -3.627750   -4.185020
  H      0.039200   -2.454380   -5.371370
  C      2.191200   -1.619500   -1.715490
  H      2.872780   -3.666370   -1.828010
  H      1.246190   -3.447440   -2.407840
  C      1.298730   -0.554310   -2.359770
  H      1.872920   -1.787960   -0.681310
  H      3.216810   -1.238430   -1.654430
  H      1.610970   -0.390900   -3.370070
  H      1.379810    0.359550   -1.809160
  H      0.281970   -0.887500   -2.350150

 Total Charge           Charge          ....    0
 Multiplicity           Mult            ....    1
 Number of Electrons    NEL             ....   56
 Basis Dimension        Dim             ....  236

ORBITAL ENERGIES
----------------

  NO   OCC          E(Eh)            E(eV)
   0   2.0000     -14.123500      -384.3200
   1   2.0000     -14.119438      -384.2095
   2   2.0000     -10.042641      -273.2742
   3   2.0000     -10.040749      -273.2227
   4   2.0000     -10.004782      -272.2440
   5   2.0000      -9.989459      -271.8270
   6   2.0000      -9.915829      -269.8234
   7   2.0000      -0.896663       -24.3994
   8   2.0000      -0.820404       -22.3243
   9   2.0000      -0.722312       -19.6551
  10   2.0000      -0.666889       -18.1470
  11   2.0000      -0.617857       -16.8127
  12   2.0000      -0.552446       -15.0328
  13   2.0000      -0.546828       -14.8799
  14   2.0000      -0.494169       -13.4470
  15   2.0000      -0.450777       -12.2663
  16   2.0000      -0.443875       -12.0785
  17   2.0000      -0.409987       -11.1563
  18   2.0000      -0.406876       -11.0716
  19   2.0000      -0.367862       -10.0100
  20   2.0000      -0.352159        -9.5827
  21   2.0000      -0.340538        -9.2665
  22   2.0000      -0.330232        -8.9861
  23   2.0000      -0.319891        -8.7047
  24   2.0000      -0.310164        -8.4400
  25   2.0000      -0.307172        -8.3586
  26   2.0000      -0.217174        -5.9096
  27   2.0000      -0.142640        -3.8814
  28   0.0000      -0.001850        -0.0504
  29   0.0000       0.016661         0.4534
  30   0.0000       0.021183         0.5764
  31   0.0000       0.033810         0.9200
  32   0.0000       0.040695         1.1074

MULLIKEN ATOMIC CHARGES
-----------------------
   0 C :    0.720179
   1 N :   -0.447259
   2 C :    0.349143
   3 N :    0.150599
   4 C :    0.388774
   5 H :   -0.135389
   6 H :   -0.368999
   7 H :   -0.154394
   8 H :   -0.077708
   9 H :   -0.084169
  10 C :   -0.424373
  11 H :   -0.273173
  12 H :   -0.084216
  13 C :    0.711800
  14 H :   -0.044505
  15 H :   -0.037530
  16 H :   -0.092498
  17 H :   -0.130419
  18 H :    0.034139
Sum of atomic charges:    0.0000000

LOEWDIN ATOMIC CHARGES
----------------------
   0 C :    0.050625
   1 N :    0.004471
   2 C :   -0.254934
   3 N :    0.205820
   4 C :    0.142421
   5 H :   -0.105576
   6 H :   -0.105185
   7 H :    0.025315
   8 H :   -0.018962
   9 H :    0.013334
  10 C :   -0.056310
  11 H :    0.011915
  12 H :   -0.000643
  13 C :    0.141423
  14 H :    0.012309
  15 H :    0.014358
  16 H :   -0.034194
  17 H :   -0.023255
  18 H :   -0.022930

  Mayer bond orders larger than 0.100000
B(  0-C ,  1-N ) :   0.9373 B(  0-C , 10-C ) :   1.1087 B(  0-C , 11-H ) :   0.8773
B(  0-C , 12-H ) :   0.7882 B(  0-C , 14-H ) :   0.1336 B(  0-C , 15-H ) :   0.1313
B(  1-N ,  2-C ) :   1.0037 B(  1-N ,  4-C ) :   0.2053 B(  1-N ,  7-H ) :   1.1163
B(  1-N , 11-H ) :   0.2027 B(  1-N , 12-H ) :   0.1338 B(  2-C ,  3-N ) :   1.0174
B(  2-C ,  4-C ) :   1.9110 B(  2-C ,  5-H ) :   0.2487 B(  2-C ,  6-H ) :   0.2853
B(  2-C ,  7-H ) :  -0.1035 B(  3-N ,  4-C ) :   0.2366 B(  3-N ,  8-H ) :   0.9602
B(  3-N ,  9-H ) :   1.0935 B(  4-C ,  5-H ) :   0.7114 B(  4-C ,  6-H ) :   0.7306
B(  5-H ,  6-H ) :   0.2587 B(  8-H ,  9-H ) :  -0.1387 B( 10-C , 12-H ) :   0.1413
B( 10-C , 13-C ) :   1.2995 B( 10-C , 14-H ) :   0.9471 B( 10-C , 15-H ) :   0.9230
B( 10-C , 16-H ) :   0.2366 B( 10-C , 17-H ) :   0.2125 B( 10-C , 18-H ) :   0.2183
B( 13-C , 16-H ) :   0.8405 B( 13-C , 17-H ) :   0.7859 B( 13-C , 18-H ) :   0.7548
B( 16-H , 18-H ) :   0.1051

Dispersion correction           -0.020998868
FINAL SINGLE POINT ENERGY      -307.074069427658

DIPOLE MOMENT
-------------
                                X             Y             Z
Electronic contribution:      0.76634      -3.84054      -3.06363
Nuclear contribution   :     -1.36148       3.89245       4.28682
                        -----------------------------------------
Total Dipole Moment    :     -0.59515       0.05191       1.22319
                        -----------------------------------------
Magnitude (a.u.)       :      1.36128
Magnitude (Debye)      :      3.46010

Rotational constants in cm-1:     0.130039     0.059901     0.055416
Rotational constants in MHz :  3898.472533  1795.778295  1661.317267

                             ****ORCA TERMINATED NORMALLY****
TOTAL RUN TIME: 0 days 0 hours 0 minutes 18 seconds 589 msec
