                         Program Version 5.0.0 -  RELEASE  -
|  1> !TPSS D3BJ RIJCOSX def2-SVPD def2/J TightSCF xyzfile
|  2>
|  3> *xyzfile 0 1 D1.xyz
|  4>
|  5> %MaxCore 64000
|  6>
|  7> %pal nprocs 4
|  8> end
|  9>
| 10> %scf
| 11>   MaxIter 150
| 12> end
| 13>
| 14>
| 15>                          ****END OF INPUT****

CARTESIAN COORDINATES (ANGSTROEM)
---------------------------------
  C      2.234473   -2.989754   -2.397622
  C      2.756799   -2.945553   -3.765029
  C     -1.104325    0.251374   -2.860056
  C     -0.711893    0.842517   -4.218344
  H      0.154626    1.499800   -4.130909
  H     -1.538134    1.459222   -4.582671
  C     -0.397624   -0.205875   -5.288018
  C      1.987208   -2.590451   -4.818975
  N      0.743221   -3.017493   -4.913524
  N      2.499636   -1.848598   -5.803241
  H      3.309780   -1.292818   -5.558947
  H      1.801025   -1.304298   -6.289129
  H      3.716116   -2.628797   -3.829533
  H      0.395828   -3.627747   -4.185024
  H      0.039201   -2.454383   -5.371367
  F      0.617165   -0.005348   -5.998273
  O     -1.133173   -1.221380   -5.341465
  C      2.191199   -1.619503   -1.715492
  H      2.872783   -3.666368   -1.828014
  H      1.246188   -3.447444   -2.407842
  C      1.298729   -0.554314   -2.359773
  H      1.872917   -1.787955   -0.681310
  H      3.216809   -1.238432   -1.654428
  C     -0.196255   -0.863365   -2.325763
  H      1.612531   -0.371346   -3.393065
  H      1.480944    0.388638   -1.834444
  H     -0.404105   -1.761825   -2.909448
  H     -0.490439   -1.087880   -1.294131
  H     -1.143842    1.066711   -2.129680
  H     -2.114401   -0.156834   -2.930323

 Total Charge           Charge          ....    0
 Multiplicity           Mult            ....    1
 Number of Electrons    NEL             ....  102
 Basis Dimension        Dim             ....  402

ORBITAL ENERGIES
----------------

  NO   OCC          E(Eh)            E(eV)
   0   2.0000     -24.527881      -667.4376
   1   2.0000     -18.934505      -515.2341
   2   2.0000     -14.109748      -383.9457
   3   2.0000     -14.100473      -383.6934
   4   2.0000     -10.192204      -277.3440
   5   2.0000     -10.043412      -273.2951
   6   2.0000     -10.033272      -273.0192
   7   2.0000     -10.019460      -272.6434
   8   2.0000     -10.000447      -272.1260
   9   2.0000      -9.997318      -272.0409
  10   2.0000      -9.986028      -271.7337
  11   2.0000      -9.977039      -271.4890
  12   2.0000      -9.920122      -269.9402
  13   2.0000      -1.257655       -34.2225
  14   2.0000      -0.987127       -26.8611
  15   2.0000      -0.885946       -24.1078
  16   2.0000      -0.798899       -21.7391
  17   2.0000      -0.764097       -20.7921
  18   2.0000      -0.726700       -19.7745
  19   2.0000      -0.691396       -18.8138
  20   2.0000      -0.649002       -17.6602
  21   2.0000      -0.629812       -17.1380
  22   2.0000      -0.596730       -16.2379
  23   2.0000      -0.560812       -15.2605
  24   2.0000      -0.535990       -14.5850
  25   2.0000      -0.529929       -14.4201
  26   2.0000      -0.514722       -14.0063
  27   2.0000      -0.499711       -13.5978
  28   2.0000      -0.492803       -13.4099
  29   2.0000      -0.469932       -12.7875
  30   2.0000      -0.450677       -12.2635
  31   2.0000      -0.437757       -11.9120
  32   2.0000      -0.432450       -11.7676
  33   2.0000      -0.417256       -11.3541
  34   2.0000      -0.401319       -10.9205
  35   2.0000      -0.397180       -10.8078
  36   2.0000      -0.381212       -10.3733
  37   2.0000      -0.367851       -10.0097
  38   2.0000      -0.355378        -9.6703
  39   2.0000      -0.350514        -9.5380
  40   2.0000      -0.338281        -9.2051
  41   2.0000      -0.327524        -8.9124
  42   2.0000      -0.322542        -8.7768
  43   2.0000      -0.311695        -8.4816
  44   2.0000      -0.302336        -8.2270
  45   2.0000      -0.290703        -7.9104
  46   2.0000      -0.280091        -7.6217
  47   2.0000      -0.274780        -7.4771
  48   2.0000      -0.272441        -7.4135
  49   2.0000      -0.220695        -6.0054
  50   2.0000      -0.125713        -3.4208
  51   0.0000      -0.089846        -2.4448
  52   0.0000      -0.005820        -0.1584
  53   0.0000       0.016149         0.4394
  54   0.0000       0.020811         0.5663
  55   0.0000       0.022521         0.6128

MULLIKEN ATOMIC CHARGES
-----------------------
   0 C :    0.267386
   1 C :   -0.225786
   2 C :    0.476398
   3 C :    0.085031
   4 H :    0.218173
   5 H :   -0.208908
   6 C :    0.725950
   7 C :    0.403886
   8 N :    0.224493
   9 N :    0.059268
  10 H :    0.115407
  11 H :   -0.144818
  12 H :   -0.101232
  13 H :    0.078923
  14 H :   -0.437890
  15 F :   -0.419505
  16 O :   -0.640623
  17 C :    0.359984
  18 H :   -0.144279
  19 H :   -0.134078
  20 C :   -0.051452
  21 H :    0.011361
  22 H :   -0.056226
  23 C :   -0.080548
  24 H :   -0.110603
  25 H :   -0.087194
  26 H :   -0.120714
  27 H :   -0.106489
  28 H :   -0.062707
  29 H :    0.106789
Sum of atomic charges:    0.0000000

LOEWDIN ATOMIC CHARGES
----------------------
   0 C :   -0.052100
   1 C :   -0.008492
   2 C :   -0.003904
   3 C :    0.062755
   4 H :    0.021499
   5 H :    0.036985
   6 C :    0.017937
   7 C :   -0.222568
   8 N :    0.237749
   9 N :    0.213175
  10 H :    0.005990
  11 H :   -0.064982
  12 H :   -0.060310
  13 H :    0.003502
  14 H :   -0.099241
  15 F :   -0.029483
  16 O :   -0.114219
  17 C :   -0.014864
  18 H :    0.006324
  19 H :   -0.011872
  20 C :   -0.019768
  21 H :    0.013313
  22 H :    0.018036
  23 C :   -0.014774
  24 H :   -0.003568
  25 H :    0.019457
  26 H :   -0.010061
  27 H :    0.025599
  28 H :    0.023799
  29 H :    0.024088

  Mayer bond orders larger than 0.100000
B(  0-C ,  1-C ) :   1.2110 B(  0-C ,  7-C ) :   0.1386 B(  0-C , 12-H ) :   0.3503
B(  0-C , 17-C ) :   1.1359 B(  0-C , 18-H ) :   0.7587 B(  0-C , 19-H ) :   0.7688
B(  0-C , 21-H ) :   0.2053 B(  0-C , 22-H ) :   0.1895 B(  1-C ,  7-C ) :   1.4920
B(  1-C ,  8-N ) :   0.1487 B(  1-C ,  9-N ) :   0.3326 B(  1-C , 12-H ) :   0.5518
B(  1-C , 18-H ) :   0.2123 B(  1-C , 19-H ) :   0.2205 B(  2-C ,  3-C ) :   1.1899
B(  2-C ,  4-H ) :   0.1049 B(  2-C ,  5-H ) :   0.1804 B(  2-C , 23-C ) :   1.2538
B(  2-C , 26-H ) :   0.1048 B(  2-C , 28-H ) :   0.7971 B(  2-C , 29-H ) :   0.6417
B(  3-C ,  4-H ) :   0.7980 B(  3-C ,  5-H ) :   0.8081 B(  3-C ,  6-C ) :   1.1875
B(  3-C , 23-C ) :   0.1237 B(  3-C , 28-H ) :   0.1398 B(  4-H ,  6-C ) :   0.1461
B(  5-H ,  6-C ) :   0.1704 B(  6-C , 15-F ) :   0.5931 B(  6-C , 16-O ) :   1.5678
B(  7-C ,  8-N ) :   0.9684 B(  7-C ,  9-N ) :   0.8289 B(  7-C , 11-H ) :   0.1259
B(  7-C , 12-H ) :   0.3372 B(  8-N ,  9-N ) :   0.1420 B(  8-N , 13-H ) :   0.8798
B(  8-N , 14-H ) :   1.1584 B(  9-N , 10-H ) :   0.8658 B(  9-N , 11-H ) :   0.8016
B( 13-H , 14-H ) :  -0.2205 B( 14-H , 16-O ) :   0.1589 B( 17-C , 18-H ) :   0.1042
B( 17-C , 19-H ) :   0.1280 B( 17-C , 20-C ) :   1.2423 B( 17-C , 21-H ) :   0.7710
B( 17-C , 22-H ) :   0.7115 B( 17-C , 24-H ) :   0.1233 B( 20-C , 21-H ) :   0.1545
B( 20-C , 22-H ) :   0.2546 B( 20-C , 23-C ) :   1.2885 B( 20-C , 24-H ) :   0.9133
B( 20-C , 25-H ) :   0.7923 B( 20-C , 26-H ) :   0.1396 B( 20-C , 27-H ) :   0.1987
B( 21-H , 22-H ) :  -0.1120 B( 23-C , 24-H ) :   0.1484 B( 23-C , 25-H ) :   0.1983
B( 23-C , 26-H ) :   0.9453 B( 23-C , 27-H ) :   0.7969 B( 23-C , 28-H ) :   0.1647
B( 23-C , 29-H ) :   0.2361

Dispersion correction           -0.043940773
FINAL SINGLE POINT ENERGY      -637.418595688256

DIPOLE MOMENT
-------------
                                X             Y             Z
Electronic contribution:     -2.97348       2.08434     -14.51798
Nuclear contribution   :      2.31842      -0.27661      14.74721
                        -----------------------------------------
Total Dipole Moment    :     -0.65506       1.80773       0.22922
                        -----------------------------------------
Magnitude (a.u.)       :      1.93638
Magnitude (Debye)      :      4.92187

Rotational constants in cm-1:     0.032691     0.023990     0.017099
Rotational constants in MHz :   980.050971   719.190545   512.606858

                             ****ORCA TERMINATED NORMALLY****
TOTAL RUN TIME: 0 days 0 hours 1 minutes 13 seconds 59 msec
