                         Program Version 5.0.0 -  RELEASE  -
|  1> !TPSS D3BJ RIJCOSX def2-SVPD def2/J TightSCF xyzfile
|  2>
|  3> *xyzfile 0 1 D6.xyz
|  4>
|  5> %MaxCore 64000
|  6>
|  7> %pal nprocs 4
|  8> end
|  9>
| 10> %scf
| 11>   MaxIter 150
| 12> end
| 13>
| 14>
| 15>                          ****END OF INPUT****

CARTESIAN COORDINATES (ANGSTROEM)
---------------------------------
  C      2.234473   -2.989754   -2.397622
  N      2.756799   -2.945553   -3.765029
  C     -1.104325    0.251374   -2.860056
  C     -0.711893    0.842517   -4.218344
  H      0.154626    1.499800   -4.130909
  H     -1.538134    1.459222   -4.582671
  C     -0.397624   -0.205875   -5.288018
  C      1.987208   -2.590451   -4.818975
  N      0.743221   -3.017493   -4.913524
  C      2.499636   -1.848598   -5.803241
  H      3.309780   -1.292818   -5.558947
  H      1.801025   -1.304298   -6.289129
  H      3.716116   -2.628797   -3.829533
  H      0.395828   -3.627747   -4.185024
  H      0.039201   -2.454383   -5.371367
  O      0.617165   -0.005348   -5.998273
  F     -1.133173   -1.221380   -5.341465
  C      2.191199   -1.619503   -1.715492
  H      2.872783   -3.666368   -1.828014
  H      1.246188   -3.447444   -2.407842
  C      1.298729   -0.554314   -2.359773
  H      1.872917   -1.787955   -0.681310
  H      3.216809   -1.238432   -1.654428
  C     -0.196255   -0.863365   -2.325763
  H      1.612531   -0.371346   -3.393065
  H      1.480944    0.388638   -1.834444
  H     -0.404105   -1.761825   -2.909448
  H     -0.490439   -1.087880   -1.294131
  H     -1.143842    1.066711   -2.129680
  H     -2.114401   -0.156834   -2.930323

 Total Charge           Charge          ....    0
 Multiplicity           Mult            ....    1
 Number of Electrons    NEL             ....  102
 Basis Dimension        Dim             ....  402

ORBITAL ENERGIES
----------------

  NO   OCC          E(Eh)            E(eV)
   0   2.0000     -24.515718      -667.1066
   1   2.0000     -18.915582      -514.7192
   2   2.0000     -14.111343      -383.9892
   3   2.0000     -14.109511      -383.9393
   4   2.0000     -10.175459      -276.8883
   5   2.0000     -10.037242      -273.1272
   6   2.0000     -10.035638      -273.0836
   7   2.0000     -10.029049      -272.9043
   8   2.0000     -10.021769      -272.7062
   9   2.0000     -10.010125      -272.3893
  10   2.0000     -10.005687      -272.2686
  11   2.0000     -10.003989      -272.2224
  12   2.0000      -9.895973      -269.2831
  13   2.0000      -1.247032       -33.9335
  14   2.0000      -0.966002       -26.2863
  15   2.0000      -0.887549       -24.1514
  16   2.0000      -0.812818       -22.1179
  17   2.0000      -0.766024       -20.8446
  18   2.0000      -0.726744       -19.7757
  19   2.0000      -0.681592       -18.5471
  20   2.0000      -0.649635       -17.6775
  21   2.0000      -0.623227       -16.9589
  22   2.0000      -0.605987       -16.4897
  23   2.0000      -0.564584       -15.3631
  24   2.0000      -0.552661       -15.0387
  25   2.0000      -0.531475       -14.4622
  26   2.0000      -0.512018       -13.9327
  27   2.0000      -0.503358       -13.6971
  28   2.0000      -0.484999       -13.1975
  29   2.0000      -0.458823       -12.4852
  30   2.0000      -0.449519       -12.2320
  31   2.0000      -0.439235       -11.9522
  32   2.0000      -0.428341       -11.6557
  33   2.0000      -0.419956       -11.4276
  34   2.0000      -0.404234       -10.9998
  35   2.0000      -0.397037       -10.8039
  36   2.0000      -0.374012       -10.1774
  37   2.0000      -0.367985       -10.0134
  38   2.0000      -0.349705        -9.5160
  39   2.0000      -0.346060        -9.4168
  40   2.0000      -0.343162        -9.3379
  41   2.0000      -0.336684        -9.1616
  42   2.0000      -0.329250        -8.9594
  43   2.0000      -0.319717        -8.6999
  44   2.0000      -0.301127        -8.1941
  45   2.0000      -0.299689        -8.1550
  46   2.0000      -0.297685        -8.1004
  47   2.0000      -0.292237        -7.9522
  48   2.0000      -0.245607        -6.6833
  49   2.0000      -0.208732        -5.6799
  50   2.0000      -0.129254        -3.5172
  51   0.0000      -0.072457        -1.9717
  52   0.0000      -0.005937        -0.1615
  53   0.0000       0.009716         0.2644
  54   0.0000       0.012081         0.3287
  55   0.0000       0.025300         0.6885

MULLIKEN ATOMIC CHARGES
-----------------------
   0 C :    0.810701
   1 N :   -0.522697
   2 C :    0.480281
   3 C :    0.105660
   4 H :    0.207876
   5 H :   -0.210201
   6 C :    0.640709
   7 C :    0.303112
   8 N :    0.337929
   9 C :    0.611589
  10 H :   -0.054957
  11 H :   -0.491296
  12 H :   -0.131888
  13 H :   -0.019187
  14 H :   -0.319153
  15 O :   -0.521801
  16 F :   -0.478261
  17 C :    0.267943
  18 H :   -0.356378
  19 H :   -0.001282
  20 C :   -0.070359
  21 H :    0.042674
  22 H :   -0.076209
  23 C :   -0.077735
  24 H :   -0.031409
  25 H :   -0.194786
  26 H :   -0.139605
  27 H :   -0.109911
  28 H :   -0.074144
  29 H :    0.072786
Sum of atomic charges:    0.0000000

LOEWDIN ATOMIC CHARGES
----------------------
   0 C :    0.058574
   1 N :    0.006174
   2 C :   -0.014048
   3 C :    0.069035
   4 H :    0.032214
   5 H :    0.033712
   6 C :    0.014807
   7 C :   -0.230919
   8 N :    0.235111
   9 C :    0.165928
  10 H :   -0.093184
  11 H :   -0.162538
  12 H :    0.024415
  13 H :   -0.012384
  14 H :   -0.058581
  15 O :   -0.112372
  16 F :   -0.032617
  17 C :   -0.008989
  18 H :    0.011823
  19 H :   -0.004457
  20 C :   -0.011442
  21 H :    0.015332
  22 H :    0.017934
  23 C :   -0.021643
  24 H :    0.006017
  25 H :    0.022328
  26 H :   -0.014688
  27 H :    0.023113
  28 H :    0.022447
  29 H :    0.018899

  Mayer bond orders larger than 0.100000
B(  0-C ,  1-N ) :   0.9298 B(  0-C , 12-H ) :  -0.1035 B(  0-C , 17-C ) :   1.0930
B(  0-C , 18-H ) :   0.8156 B(  0-C , 19-H ) :   0.7717 B(  0-C , 21-H ) :   0.1402
B(  0-C , 22-H ) :   0.1414 B(  1-N ,  7-C ) :   0.9934 B(  1-N ,  9-C ) :   0.2148
B(  1-N , 12-H ) :   1.1289 B(  1-N , 18-H ) :   0.2450 B(  1-N , 19-H ) :   0.1198
B(  2-C ,  3-C ) :   1.1715 B(  2-C ,  5-H ) :   0.1671 B(  2-C , 23-C ) :   1.2481
B(  2-C , 28-H ) :   0.8158 B(  2-C , 29-H ) :   0.6486 B(  3-C ,  4-H ) :   0.8211
B(  3-C ,  5-H ) :   0.8067 B(  3-C ,  6-C ) :   1.1654 B(  3-C , 16-F ) :   0.1022
B(  3-C , 28-H ) :   0.1323 B(  4-H ,  6-C ) :   0.1914 B(  5-H ,  6-C ) :   0.1720
B(  6-C , 15-O ) :   1.6688 B(  6-C , 16-F ) :   0.5254 B(  7-C ,  8-N ) :   0.9296
B(  7-C ,  9-C ) :   1.8605 B(  7-C , 10-H ) :   0.3109 B(  7-C , 11-H ) :   0.3570
B(  7-C , 12-H ) :  -0.1192 B(  8-N ,  9-C ) :   0.2503 B(  8-N , 13-H ) :   0.9301
B(  8-N , 14-H ) :   0.9968 B(  9-C , 10-H ) :   0.5119 B(  9-C , 11-H ) :   0.2867
B( 10-H , 11-H ) :   0.3168 B( 11-H , 15-O ) :   0.1905 B( 13-H , 14-H ) :  -0.2006
B( 17-C , 18-H ) :   0.1118 B( 17-C , 19-H ) :   0.1296 B( 17-C , 20-C ) :   1.2428
B( 17-C , 21-H ) :   0.8192 B( 17-C , 22-H ) :   0.7299 B( 17-C , 24-H ) :   0.1176
B( 18-H , 19-H ) :  -0.1309 B( 20-C , 21-H ) :   0.1557 B( 20-C , 22-H ) :   0.2366
B( 20-C , 23-C ) :   1.3001 B( 20-C , 24-H ) :   0.9177 B( 20-C , 25-H ) :   0.8554
B( 20-C , 26-H ) :   0.1590 B( 20-C , 27-H ) :   0.2028 B( 23-C , 24-H ) :   0.1381
B( 23-C , 25-H ) :   0.1769 B( 23-C , 26-H ) :   0.9212 B( 23-C , 27-H ) :   0.7952
B( 23-C , 28-H ) :   0.1666 B( 23-C , 29-H ) :   0.2304 B( 28-H , 29-H ) :  -0.1040

Dispersion correction           -0.043843529
FINAL SINGLE POINT ENERGY      -637.395285771111

DIPOLE MOMENT
-------------
                                X             Y             Z
Electronic contribution:     -5.60802      -0.80012     -11.75095
Nuclear contribution   :      4.34606       1.32859      13.65749
                        -----------------------------------------
Total Dipole Moment    :     -1.26196       0.52847       1.90653
                        -----------------------------------------
Magnitude (a.u.)       :      2.34663
Magnitude (Debye)      :      5.96466

Rotational constants in cm-1:     0.033551     0.023540     0.017085
Rotational constants in MHz :  1005.818710   705.725032   512.192443

                             ****ORCA TERMINATED NORMALLY****
TOTAL RUN TIME: 0 days 0 hours 1 minutes 13 seconds 401 msec
