                         Program Version 5.0.0 -  RELEASE  -
|  1> !PBE D3BJ RIJCOSX def2-SVPD def2/J TightSCF
|  2> *xyz -1 1
|  3> C          0.96805        1.63064       -3.71575
|  4> C         -0.50835        1.72268       -4.12430
|  5> S         -1.32861        0.14674       -4.43578
|  6> H         -0.59151        2.29496       -5.04722
|  7> H         -1.11411        2.23561       -3.37436
|  8> O         -2.57135        0.47573       -5.06834
|  9> O         -1.51496       -0.40051       -3.06342
| 10> O         -0.37793       -0.62756       -5.20114
| 11> H          1.51840        1.12197       -4.47946
| 12> H          1.05062        1.08971       -2.79625
| 13> H          1.36450        2.61606       -3.58668
| 14> *
| 15> %MaxCore 64000
| 16>
| 17> %pal nprocs 4
| 18> end
| 19>
| 20> %scf
| 21>   MaxIter 150
| 22> end
| 23>
| 24>
| 25>                          ****END OF INPUT****

CARTESIAN COORDINATES (ANGSTROEM)
---------------------------------
  C      0.968050    1.630640   -3.715750
  C     -0.508350    1.722680   -4.124300
  S     -1.328610    0.146740   -4.435780
  H     -0.591510    2.294960   -5.047220
  H     -1.114110    2.235610   -3.374360
  O     -2.571350    0.475730   -5.068340
  O     -1.514960   -0.400510   -3.063420
  O     -0.377930   -0.627560   -5.201140
  H      1.518400    1.121970   -4.479460
  H      1.050620    1.089710   -2.796250
  H      1.364500    2.616060   -3.586680

 Total Charge           Charge          ....   -1
 Multiplicity           Mult            ....    1
 Number of Electrons    NEL             ....   58
 Basis Dimension        Dim             ....  176

ORBITAL ENERGIES
----------------

  NO   OCC          E(Eh)            E(eV)
   0   2.0000     -88.053789     -2396.0654
   1   2.0000     -18.550148      -504.7752
   2   2.0000     -18.546908      -504.6870
   3   2.0000     -18.532013      -504.2817
   4   2.0000      -9.754414      -265.4311
   5   2.0000      -9.751115      -265.3413
   6   2.0000      -7.658199      -208.3902
   7   2.0000      -5.685256      -154.7037
   8   2.0000      -5.685012      -154.6970
   9   2.0000      -5.684438      -154.6814
  10   2.0000      -0.843259       -22.9462
  11   2.0000      -0.712356       -19.3842
  12   2.0000      -0.682257       -18.5652
  13   2.0000      -0.552038       -15.0217
  14   2.0000      -0.437380       -11.9017
  15   2.0000      -0.321650        -8.7525
  16   2.0000      -0.265979        -7.2377
  17   2.0000      -0.264116        -7.1870
  18   2.0000      -0.228591        -6.2203
  19   2.0000      -0.213722        -5.8157
  20   2.0000      -0.208575        -5.6756
  21   2.0000      -0.185165        -5.0386
  22   2.0000      -0.169256        -4.6057
  23   2.0000      -0.106387        -2.8949
  24   2.0000      -0.105063        -2.8589
  25   2.0000      -0.075514        -2.0548
  26   2.0000      -0.068061        -1.8520
  27   2.0000      -0.053733        -1.4622
  28   2.0000      -0.020968        -0.5706
  29   0.0000       0.127452         3.4681
  30   0.0000       0.155039         4.2188
  31   0.0000       0.164464         4.4753
  32   0.0000       0.168853         4.5947
  33   0.0000       0.190960         5.1963

MULLIKEN ATOMIC CHARGES
-----------------------
   0 C :    0.762499
   1 C :   -0.351270
   2 S :    1.186004
   3 H :   -0.051821
   4 H :   -0.054573
   5 O :   -0.722850
   6 O :   -0.793280
   7 O :   -0.747904
   8 H :   -0.053808
   9 H :   -0.063069
  10 H :   -0.109928
Sum of atomic charges:   -1.0000000

LOEWDIN ATOMIC CHARGES
----------------------
   0 C :    0.101889
   1 C :   -0.141492
   2 S :    0.803226
   3 H :   -0.006092
   4 H :    0.001135
   5 O :   -0.547620
   6 O :   -0.578884
   7 O :   -0.549870
   8 H :   -0.026207
   9 H :   -0.018911
  10 H :   -0.037174

  Mayer bond orders larger than 0.100000
B(  0-C ,  1-C ) :   1.3245 B(  0-C ,  3-H ) :   0.1077 B(  0-C ,  8-H ) :   0.8154
B(  0-C ,  9-H ) :   0.8116 B(  0-C , 10-H ) :   0.7409 B(  1-C ,  2-S ) :   0.8953
B(  1-C ,  3-H ) :   0.9844 B(  1-C ,  4-H ) :   0.9748 B(  1-C ,  8-H ) :   0.2109
B(  1-C ,  9-H ) :   0.2027 B(  1-C , 10-H ) :   0.2294 B(  2-S ,  5-O ) :   1.3791
B(  2-S ,  6-O ) :   1.3057 B(  2-S ,  7-O ) :   1.3375

Dispersion correction           -0.009650386
FINAL SINGLE POINT ENERGY      -702.286212831458

DIPOLE MOMENT
-------------
                                X             Y             Z
Electronic contribution:     -5.60975      -5.32899      -1.93792
Nuclear contribution   :      6.64523       6.80157       2.07300
                        -----------------------------------------
Total Dipole Moment    :      1.03547       1.47258       0.13508
                        -----------------------------------------
Magnitude (a.u.)       :      1.80525
Magnitude (Debye)      :      4.58859

Rotational constants in cm-1:     0.163070     0.082807     0.081541
Rotational constants in MHz :  4888.719902  2482.497026  2444.541148

                             ****ORCA TERMINATED NORMALLY****
TOTAL RUN TIME: 0 days 0 hours 0 minutes 12 seconds 164 msec
