                         Program Version 5.0.0 -  RELEASE  -
|  1> !PBE D3BJ RIJCOSX def2-SVPD def2/J TightSCF
|  2> *xyz 1 1
|  3> C          1.36401        0.46874       -2.81376
|  4> N          0.42884        0.32140       -1.65531
|  5> C          0.96805        1.63064       -3.71575
|  6> H          0.74858       -0.40054       -1.00134
|  7> H         -0.46105        0.02333       -2.07773
|  8> H          0.31026        1.20137       -1.13495
|  9> H          1.29485       -0.46874       -3.36468
| 10> H          2.37622        0.59740       -2.43149
| 11> H          1.65923        1.70213       -4.52942
| 12> H          0.98421        2.54058       -3.15304
| 13> H         -0.01744        1.46536       -4.09838
| 14> *
| 15> %MaxCore 64000
| 16>
| 17> %pal nprocs 4
| 18> end
| 19>
| 20> %scf
| 21>   MaxIter 150
| 22> end
| 23>
| 24>
| 25>                          ****END OF INPUT****

CARTESIAN COORDINATES (ANGSTROEM)
---------------------------------
  C      1.364010    0.468740   -2.813760
  N      0.428840    0.321400   -1.655310
  C      0.968050    1.630640   -3.715750
  H      0.748580   -0.400540   -1.001340
  H     -0.461050    0.023330   -2.077730
  H      0.310260    1.201370   -1.134950
  H      1.294850   -0.468740   -3.364680
  H      2.376220    0.597400   -2.431490
  H      1.659230    1.702130   -4.529420
  H      0.984210    2.540580   -3.153040
  H     -0.017440    1.465360   -4.098380

 Total Charge           Charge          ....    1
 Multiplicity           Mult            ....    1
 Number of Electrons    NEL             ....   26
 Basis Dimension        Dim             ....  124

ORBITAL ENERGIES
----------------

  NO   OCC          E(Eh)            E(eV)
   0   2.0000     -14.334814      -390.0701
   1   2.0000     -10.150791      -276.2171
   2   2.0000     -10.074241      -274.1340
   3   2.0000      -1.129203       -30.7272
   4   2.0000      -0.892595       -24.2887
   5   2.0000      -0.781180       -21.2570
   6   2.0000      -0.754044       -20.5186
   7   2.0000      -0.737459       -20.0673
   8   2.0000      -0.648616       -17.6497
   9   2.0000      -0.598115       -16.2755
  10   2.0000      -0.542985       -14.7754
  11   2.0000      -0.526615       -14.3299
  12   2.0000      -0.510770       -13.8988
  13   0.0000      -0.217988        -5.9317
  14   0.0000      -0.161186        -4.3861
  15   0.0000      -0.156652        -4.2627
  16   0.0000      -0.144202        -3.9239
  17   0.0000      -0.112725        -3.0674

MULLIKEN ATOMIC CHARGES
-----------------------
   0 C :    0.226054
   1 N :   -0.749897
   2 C :    0.643508
   3 H :    0.322270
   4 H :    0.425359
   5 H :    0.386920
   6 H :   -0.080324
   7 H :   -0.134987
   8 H :   -0.021149
   9 H :   -0.016314
  10 H :   -0.001441
Sum of atomic charges:    1.0000000

LOEWDIN ATOMIC CHARGES
----------------------
   0 C :    0.045765
   1 N :    0.337585
   2 C :    0.174736
   3 H :    0.104084
   4 H :    0.103885
   5 H :    0.106884
   6 H :    0.053969
   7 H :    0.052884
   8 H :    0.017792
   9 H :    0.001229
  10 H :    0.001187

  Mayer bond orders larger than 0.100000
B(  0-C ,  1-N ) :   0.8122 B(  0-C ,  2-C ) :   1.3566 B(  0-C ,  6-H ) :   0.8895
B(  0-C ,  7-H ) :   0.9437 B(  0-C ,  8-H ) :   0.2018 B(  0-C ,  9-H ) :   0.1541
B(  0-C , 10-H ) :   0.1589 B(  1-N ,  3-H ) :   0.7894 B(  1-N ,  4-H ) :   0.6718
B(  1-N ,  5-H ) :   0.7168 B(  1-N ,  6-H ) :   0.1311 B(  2-C ,  8-H ) :   0.7939
B(  2-C ,  9-H ) :   0.8314 B(  2-C , 10-H ) :   0.8207

Dispersion correction           -0.006168329
FINAL SINGLE POINT ENERGY      -135.258214637834

DIPOLE MOMENT
-------------
                                X             Y             Z
Electronic contribution:     -0.34216      -0.93847       1.55643
Nuclear contribution   :     -0.20470       0.31427      -0.31587
                        -----------------------------------------
Total Dipole Moment    :     -0.54686      -0.62420       1.24057
                        -----------------------------------------
Magnitude (a.u.)       :      1.49255
Magnitude (Debye)      :      3.79375

Rotational constants in cm-1:     1.011480     0.279280     0.248378
Rotational constants in MHz : 30323.408050  8372.602834  7446.185305

                             ****ORCA TERMINATED NORMALLY****
TOTAL RUN TIME: 0 days 0 hours 0 minutes 7 seconds 538 msec
