                         Program Version 5.0.0 -  RELEASE  -
|  1> !PBE D3BJ RIJCOSX def2-SVPD def2/J TightSCF
|  2> *xyz 0 1
|  3> C          0.96805        1.63064       -3.71575
|  4> C         -0.50835        1.72268       -4.12430
|  5> S         -1.32861        0.14674       -4.43578
|  6> H         -0.59151        2.29496       -5.04722
|  7> H         -1.11411        2.23561       -3.37436
|  8> F         -2.57135        0.47573       -5.06834
|  9> O         -1.51496       -0.40051       -3.06342
| 10> O         -0.37793       -0.62756       -5.20114
| 11> H          1.51840        1.12197       -4.47946
| 12> H          1.05062        1.08971       -2.79625
| 13> H          1.36450        2.61606       -3.58668
| 14> *
| 15> %MaxCore 64000
| 16>
| 17> %pal nprocs 4
| 18> end
| 19>
| 20> %scf
| 21>   MaxIter 150
| 22> end
| 23>
| 24>
| 25>                          ****END OF INPUT****

CARTESIAN COORDINATES (ANGSTROEM)
---------------------------------
  C      0.968050    1.630640   -3.715750
  C     -0.508350    1.722680   -4.124300
  S     -1.328610    0.146740   -4.435780
  H     -0.591510    2.294960   -5.047220
  H     -1.114110    2.235610   -3.374360
  F     -2.571350    0.475730   -5.068340
  O     -1.514960   -0.400510   -3.063420
  O     -0.377930   -0.627560   -5.201140
  H      1.518400    1.121970   -4.479460
  H      1.050620    1.089710   -2.796250
  H      1.364500    2.616060   -3.586680

 Total Charge           Charge          ....    0
 Multiplicity           Mult            ....    1
 Number of Electrons    NEL             ....   58
 Basis Dimension        Dim             ....  176

ORBITAL ENERGIES
----------------

  NO   OCC          E(Eh)            E(eV)
   0   2.0000     -88.310553     -2403.0523
   1   2.0000     -24.394506      -663.8082
   2   2.0000     -18.779301      -511.0108
   3   2.0000     -18.764207      -510.6000
   4   2.0000      -9.955926      -270.9145
   5   2.0000      -9.915020      -269.8014
   6   2.0000      -7.915924      -215.4032
   7   2.0000      -5.947221      -161.8321
   8   2.0000      -5.940611      -161.6523
   9   2.0000      -5.939048      -161.6097
  10   2.0000      -1.280933       -34.8560
  11   2.0000      -1.017835       -27.6967
  12   2.0000      -0.916053       -24.9271
  13   2.0000      -0.743243       -20.2247
  14   2.0000      -0.672804       -18.3079
  15   2.0000      -0.613639       -16.6980
  16   2.0000      -0.530532       -14.4365
  17   2.0000      -0.529999       -14.4220
  18   2.0000      -0.499899       -13.6029
  19   2.0000      -0.443337       -12.0638
  20   2.0000      -0.433532       -11.7970
  21   2.0000      -0.395941       -10.7741
  22   2.0000      -0.387114       -10.5339
  23   2.0000      -0.364849        -9.9281
  24   2.0000      -0.345023        -9.3886
  25   2.0000      -0.338544        -9.2122
  26   2.0000      -0.291650        -7.9362
  27   2.0000      -0.276097        -7.5130
  28   2.0000      -0.259854        -7.0710
  29   0.0000      -0.030659        -0.8343
  30   0.0000      -0.004135        -0.1125
  31   0.0000       0.014454         0.3933
  32   0.0000       0.020561         0.5595
  33   0.0000       0.024569         0.6686

MULLIKEN ATOMIC CHARGES
-----------------------
   0 C :    0.772968
   1 C :   -0.379296
   2 S :    1.384003
   3 H :   -0.001345
   4 H :   -0.005108
   5 F :   -0.354966
   6 O :   -0.650378
   7 O :   -0.608871
   8 H :   -0.032374
   9 H :   -0.046674
  10 H :   -0.077958
Sum of atomic charges:    0.0000000

LOEWDIN ATOMIC CHARGES
----------------------
   0 C :    0.148056
   1 C :   -0.106699
   2 S :    1.072204
   3 H :    0.012793
   4 H :    0.021100
   5 F :   -0.235706
   6 O :   -0.461820
   7 O :   -0.438161
   8 H :   -0.007328
   9 H :   -0.000292
  10 H :   -0.004147

  Mayer bond orders larger than 0.100000
B(  0-C ,  1-C ) :   1.3956 B(  0-C ,  3-H ) :   0.1073 B(  0-C ,  8-H ) :   0.8090
B(  0-C ,  9-H ) :   0.8096 B(  0-C , 10-H ) :   0.7403 B(  1-C ,  2-S ) :   0.9466
B(  1-C ,  3-H ) :   0.9550 B(  1-C ,  4-H ) :   0.9592 B(  1-C ,  8-H ) :   0.2045
B(  1-C ,  9-H ) :   0.1969 B(  1-C , 10-H ) :   0.2172 B(  2-S ,  5-F ) :   0.7370
B(  2-S ,  6-O ) :   1.4993 B(  2-S ,  7-O ) :   1.5376

Dispersion correction           -0.009242084
FINAL SINGLE POINT ENERGY      -726.754038339130

DIPOLE MOMENT
-------------
                                X             Y             Z
Electronic contribution:     -8.29252      -5.18069      -3.21185
Nuclear contribution   :      8.31000       6.74109       2.87442
                        -----------------------------------------
Total Dipole Moment    :      0.01749       1.56040      -0.33743
                        -----------------------------------------
Magnitude (a.u.)       :      1.59656
Magnitude (Debye)      :      4.05814

Rotational constants in cm-1:     0.158705     0.080192     0.078179
Rotational constants in MHz :  4757.865601  2404.095079  2343.752507

                             ****ORCA TERMINATED NORMALLY****
TOTAL RUN TIME: 0 days 0 hours 0 minutes 11 seconds 900 msec
