                         Program Version 5.0.0 -  RELEASE  -
|  1> !PBE D3BJ RIJCOSX def2-SVPD def2/J TightSCF
|  2> *xyz 0 1
|  3> C          1.36401        0.46874       -2.81376
|  4> C          0.42884        0.32140       -1.65531
|  5> C          0.96805        1.63064       -3.71575
|  6> H          0.74858       -0.40054       -1.00134
|  7> H         -0.46105        0.02333       -2.07773
|  8> H          0.31026        1.20137       -1.13495
|  9> H          1.29485       -0.46874       -3.36468
| 10> H          2.37622        0.59740       -2.43149
| 11> H          1.65923        1.70213       -4.52942
| 12> H          0.98421        2.54058       -3.15304
| 13> H         -0.01744        1.46536       -4.09838
| 14> *
| 15> %MaxCore 64000
| 16>
| 17> %pal nprocs 4
| 18> end
| 19>
| 20> %scf
| 21>   MaxIter 150
| 22> end
| 23>
| 24>
| 25>                          ****END OF INPUT****

CARTESIAN COORDINATES (ANGSTROEM)
---------------------------------
  C      1.364010    0.468740   -2.813760
  C      0.428840    0.321400   -1.655310
  C      0.968050    1.630640   -3.715750
  H      0.748580   -0.400540   -1.001340
  H     -0.461050    0.023330   -2.077730
  H      0.310260    1.201370   -1.134950
  H      1.294850   -0.468740   -3.364680
  H      2.376220    0.597400   -2.431490
  H      1.659230    1.702130   -4.529420
  H      0.984210    2.540580   -3.153040
  H     -0.017440    1.465360   -4.098380

 Total Charge           Charge          ....    0
 Multiplicity           Mult            ....    1
 Number of Electrons    NEL             ....   26
 Basis Dimension        Dim             ....  124

ORBITAL ENERGIES
----------------

  NO   OCC          E(Eh)            E(eV)
   0   2.0000      -9.884490      -268.9706
   1   2.0000      -9.875438      -268.7243
   2   2.0000      -9.859368      -268.2870
   3   2.0000      -0.713322       -19.4105
   4   2.0000      -0.617559       -16.8046
   5   2.0000      -0.519510       -14.1366
   6   2.0000      -0.421623       -11.4729
   7   2.0000      -0.397158       -10.8072
   8   2.0000      -0.357585        -9.7304
   9   2.0000      -0.345295        -9.3959
  10   2.0000      -0.296979        -8.0812
  11   2.0000      -0.291800        -7.9403
  12   2.0000      -0.286874        -7.8062
  13   0.0000       0.009034         0.2458
  14   0.0000       0.040094         1.0910
  15   0.0000       0.046570         1.2672
  16   0.0000       0.062960         1.7132
  17   0.0000       0.082205         2.2369

MULLIKEN ATOMIC CHARGES
-----------------------
   0 C :   -0.640698
   1 C :    0.973131
   2 C :    0.649457
   3 H :   -0.236031
   4 H :   -0.131776
   5 H :   -0.201676
   6 H :   -0.066082
   7 H :   -0.152209
   8 H :   -0.106640
   9 H :   -0.038017
  10 H :   -0.049458
Sum of atomic charges:   -0.0000000

LOEWDIN ATOMIC CHARGES
----------------------
   0 C :   -0.125203
   1 C :    0.117518
   2 C :    0.116275
   3 H :   -0.034595
   4 H :   -0.030266
   5 H :   -0.029888
   6 H :    0.022081
   7 H :    0.019339
   8 H :   -0.021656
   9 H :   -0.017135
  10 H :   -0.016469

  Mayer bond orders larger than 0.100000
B(  0-C ,  1-C ) :   1.3148 B(  0-C ,  2-C ) :   1.3092 B(  0-C ,  3-H ) :   0.2141
B(  0-C ,  4-H ) :   0.2874 B(  0-C ,  5-H ) :   0.2119 B(  0-C ,  6-H ) :   0.9086
B(  0-C ,  7-H ) :   0.9727 B(  0-C ,  8-H ) :   0.1907 B(  0-C ,  9-H ) :   0.1756
B(  0-C , 10-H ) :   0.2008 B(  1-C ,  3-H ) :   0.7204 B(  1-C ,  4-H ) :   0.7054
B(  1-C ,  5-H ) :   0.7437 B(  1-C ,  6-H ) :   0.1265 B(  2-C ,  8-H ) :   0.8247
B(  2-C ,  9-H ) :   0.8246 B(  2-C , 10-H ) :   0.8200

Dispersion correction           -0.006166229
FINAL SINGLE POINT ENERGY      -118.864981587266

DIPOLE MOMENT
-------------
                                X             Y             Z
Electronic contribution:      0.36882      -0.18683      -0.01793
Nuclear contribution   :     -0.35842       0.15752       0.02695
                        -----------------------------------------
Total Dipole Moment    :      0.01040      -0.02931       0.00903
                        -----------------------------------------
Magnitude (a.u.)       :      0.03238
Magnitude (Debye)      :      0.08230

Rotational constants in cm-1:     1.019891     0.293671     0.260247
Rotational constants in MHz : 30575.551403  8804.039097  7802.009261

                             ****ORCA TERMINATED NORMALLY****
TOTAL RUN TIME: 0 days 0 hours 0 minutes 8 seconds 731 msec
