                         Program Version 5.0.0 -  RELEASE  -
|  1> !PBE D3BJ RIJCOSX def2-SVPD def2/J TightSCF
|  2> *xyz 0 1
|  3> C          0.96805        1.63064       -3.71575
|  4> C         -0.50835        1.72268       -4.12430
|  5> S         -1.32861        0.14674       -4.43578
|  6> H         -0.59151        2.29496       -5.04722
|  7> H         -1.11411        2.23561       -3.37436
|  8> O         -2.57135        0.47573       -5.06834
|  9> F         -1.51496       -0.40051       -3.06342
| 10> O         -0.37793       -0.62756       -5.20114
| 11> H          1.51840        1.12197       -4.47946
| 12> H          1.05062        1.08971       -2.79625
| 13> H          1.36450        2.61606       -3.58668
| 14> *
| 15> %MaxCore 64000
| 16>
| 17> %pal nprocs 4
| 18> end
| 19>
| 20> %scf
| 21>   MaxIter 150
| 22> end
| 23>
| 24>
| 25>                          ****END OF INPUT****

CARTESIAN COORDINATES (ANGSTROEM)
---------------------------------
  C      0.968050    1.630640   -3.715750
  C     -0.508350    1.722680   -4.124300
  S     -1.328610    0.146740   -4.435780
  H     -0.591510    2.294960   -5.047220
  H     -1.114110    2.235610   -3.374360
  O     -2.571350    0.475730   -5.068340
  F     -1.514960   -0.400510   -3.063420
  O     -0.377930   -0.627560   -5.201140
  H      1.518400    1.121970   -4.479460
  H      1.050620    1.089710   -2.796250
  H      1.364500    2.616060   -3.586680

 Total Charge           Charge          ....    0
 Multiplicity           Mult            ....    1
 Number of Electrons    NEL             ....   58
 Basis Dimension        Dim             ....  176

ORBITAL ENERGIES
----------------

  NO   OCC          E(Eh)            E(eV)
   0   2.0000     -88.307345     -2402.9650
   1   2.0000     -24.366716      -663.0520
   2   2.0000     -18.782303      -511.0925
   3   2.0000     -18.779075      -511.0046
   4   2.0000      -9.954801      -270.8839
   5   2.0000      -9.916114      -269.8312
   6   2.0000      -7.912809      -215.3185
   7   2.0000      -5.943781      -161.7385
   8   2.0000      -5.937837      -161.5768
   9   2.0000      -5.936162      -161.5312
  10   2.0000      -1.234623       -33.5958
  11   2.0000      -1.031883       -28.0790
  12   2.0000      -0.941795       -25.6275
  13   2.0000      -0.744486       -20.2585
  14   2.0000      -0.653674       -17.7874
  15   2.0000      -0.606856       -16.5134
  16   2.0000      -0.518887       -14.1196
  17   2.0000      -0.498155       -13.5555
  18   2.0000      -0.490632       -13.3508
  19   2.0000      -0.444236       -12.0883
  20   2.0000      -0.426838       -11.6148
  21   2.0000      -0.408989       -11.1292
  22   2.0000      -0.390250       -10.6192
  23   2.0000      -0.362424        -9.8621
  24   2.0000      -0.358960        -9.7678
  25   2.0000      -0.339036        -9.2256
  26   2.0000      -0.300020        -8.1639
  27   2.0000      -0.291733        -7.9384
  28   2.0000      -0.279074        -7.5940
  29   0.0000      -0.030621        -0.8333
  30   0.0000       0.002180         0.0593
  31   0.0000       0.014360         0.3908
  32   0.0000       0.021985         0.5982
  33   0.0000       0.025848         0.7034

MULLIKEN ATOMIC CHARGES
-----------------------
   0 C :    0.799395
   1 C :   -0.367165
   2 S :    1.368281
   3 H :   -0.005054
   4 H :   -0.016685
   5 O :   -0.595953
   6 F :   -0.386904
   7 O :   -0.624220
   8 H :   -0.028434
   9 H :   -0.063117
  10 H :   -0.080144
Sum of atomic charges:   -0.0000000

LOEWDIN ATOMIC CHARGES
----------------------
   0 C :    0.134427
   1 C :   -0.096129
   2 S :    1.067370
   3 H :    0.028013
   4 H :    0.020063
   5 O :   -0.432758
   6 F :   -0.261262
   7 O :   -0.436045
   8 H :   -0.008920
   9 H :   -0.007885
  10 H :   -0.006874

  Mayer bond orders larger than 0.100000
B(  0-C ,  1-C ) :   1.3595 B(  0-C ,  8-H ) :   0.8159 B(  0-C ,  9-H ) :   0.8047
B(  0-C , 10-H ) :   0.7340 B(  1-C ,  2-S ) :   0.9684 B(  1-C ,  3-H ) :   0.9745
B(  1-C ,  4-H ) :   0.9636 B(  1-C ,  8-H ) :   0.2058 B(  1-C ,  9-H ) :   0.1968
B(  1-C , 10-H ) :   0.2174 B(  2-S ,  5-O ) :   1.5789 B(  2-S ,  6-F ) :   0.6599
B(  2-S ,  7-O ) :   1.5454 B(  5-O ,  7-O ) :   0.1131

Dispersion correction           -0.009203297
FINAL SINGLE POINT ENERGY      -726.778069835790

DIPOLE MOMENT
-------------
                                X             Y             Z
Electronic contribution:     -6.54947      -6.64217       0.13450
Nuclear contribution   :      7.20921       7.65416       0.78523
                        -----------------------------------------
Total Dipole Moment    :      0.65974       1.01199       0.91974
                        -----------------------------------------
Magnitude (a.u.)       :      1.51832
Magnitude (Debye)      :      3.85927

Rotational constants in cm-1:     0.153780     0.081282     0.079816
Rotational constants in MHz :  4610.199589  2436.778679  2392.820729

                             ****ORCA TERMINATED NORMALLY****
TOTAL RUN TIME: 0 days 0 hours 0 minutes 10 seconds 760 msec
