                         Program Version 5.0.0 -  RELEASE  -
|  1> !PBE D3BJ RIJCOSX def2-SVPD def2/J TightSCF
|  2> *xyz 0 1
|  3> C          0.96805        1.63064       -3.71575
|  4> C         -0.50835        1.72268       -4.12430
|  5> S         -1.32861        0.14674       -4.43578
|  6> H         -0.59151        2.29496       -5.04722
|  7> H         -1.11411        2.23561       -3.37436
|  8> O         -2.57135        0.47573       -5.06834
|  9> O         -1.51496       -0.40051       -3.06342
| 10> F         -0.37793       -0.62756       -5.20114
| 11> H          1.51840        1.12197       -4.47946
| 12> H          1.05062        1.08971       -2.79625
| 13> H          1.36450        2.61606       -3.58668
| 14> *
| 15> %MaxCore 64000
| 16>
| 17> %pal nprocs 4
| 18> end
| 19>
| 20> %scf
| 21>   MaxIter 150
| 22> end
| 23>
| 24>
| 25>                          ****END OF INPUT****

CARTESIAN COORDINATES (ANGSTROEM)
---------------------------------
  C      0.968050    1.630640   -3.715750
  C     -0.508350    1.722680   -4.124300
  S     -1.328610    0.146740   -4.435780
  H     -0.591510    2.294960   -5.047220
  H     -1.114110    2.235610   -3.374360
  O     -2.571350    0.475730   -5.068340
  O     -1.514960   -0.400510   -3.063420
  F     -0.377930   -0.627560   -5.201140
  H      1.518400    1.121970   -4.479460
  H      1.050620    1.089710   -2.796250
  H      1.364500    2.616060   -3.586680

 Total Charge           Charge          ....    0
 Multiplicity           Mult            ....    1
 Number of Electrons    NEL             ....   58
 Basis Dimension        Dim             ....  176

ORBITAL ENERGIES
----------------

  NO   OCC          E(Eh)            E(eV)
   0   2.0000     -88.309812     -2403.0321
   1   2.0000     -24.388725      -663.6509
   2   2.0000     -18.782805      -511.1061
   3   2.0000     -18.764345      -510.6038
   4   2.0000      -9.955720      -270.9089
   5   2.0000      -9.919565      -269.9251
   6   2.0000      -7.915215      -215.3840
   7   2.0000      -5.946546      -161.8137
   8   2.0000      -5.939945      -161.6341
   9   2.0000      -5.938334      -161.5903
  10   2.0000      -1.270614       -34.5752
  11   2.0000      -1.023566       -27.8526
  12   2.0000      -0.918958       -25.0061
  13   2.0000      -0.746736       -20.3197
  14   2.0000      -0.666168       -18.1274
  15   2.0000      -0.615643       -16.7525
  16   2.0000      -0.536956       -14.6113
  17   2.0000      -0.522454       -14.2167
  18   2.0000      -0.491373       -13.3709
  19   2.0000      -0.444915       -12.1068
  20   2.0000      -0.427925       -11.6444
  21   2.0000      -0.405718       -11.0402
  22   2.0000      -0.393244       -10.7007
  23   2.0000      -0.367610       -10.0032
  24   2.0000      -0.353535        -9.6202
  25   2.0000      -0.338329        -9.2064
  26   2.0000      -0.295247        -8.0341
  27   2.0000      -0.276397        -7.5211
  28   2.0000      -0.262667        -7.1475
  29   0.0000      -0.034900        -0.9497
  30   0.0000       0.002823         0.0768
  31   0.0000       0.015540         0.4229
  32   0.0000       0.019721         0.5366
  33   0.0000       0.023226         0.6320

MULLIKEN ATOMIC CHARGES
-----------------------
   0 C :    0.782545
   1 C :   -0.343640
   2 S :    1.353126
   3 H :   -0.010290
   4 H :   -0.013723
   5 O :   -0.583096
   6 O :   -0.651501
   7 F :   -0.363948
   8 H :   -0.047706
   9 H :   -0.042109
  10 H :   -0.079658
Sum of atomic charges:    0.0000000

LOEWDIN ATOMIC CHARGES
----------------------
   0 C :    0.132649
   1 C :   -0.094415
   2 S :    1.068832
   3 H :    0.016291
   4 H :    0.034279
   5 O :   -0.431923
   6 O :   -0.460506
   7 F :   -0.240842
   8 H :   -0.013781
   9 H :   -0.004301
  10 H :   -0.006284

  Mayer bond orders larger than 0.100000
B(  0-C ,  1-C ) :   1.3480 B(  0-C ,  3-H ) :   0.1005 B(  0-C ,  8-H ) :   0.8105
B(  0-C ,  9-H ) :   0.8194 B(  0-C , 10-H ) :   0.7363 B(  1-C ,  2-S ) :   0.9711
B(  1-C ,  3-H ) :   0.9781 B(  1-C ,  4-H ) :   0.9667 B(  1-C ,  8-H ) :   0.1950
B(  1-C ,  9-H ) :   0.1952 B(  1-C , 10-H ) :   0.2208 B(  2-S ,  5-O ) :   1.5826
B(  2-S ,  6-O ) :   1.5128 B(  2-S ,  7-F ) :   0.7142

Dispersion correction           -0.009186893
FINAL SINGLE POINT ENERGY      -726.758771494680

DIPOLE MOMENT
-------------
                                X             Y             Z
Electronic contribution:     -4.66114      -6.99314      -3.41941
Nuclear contribution   :      6.02439       7.89075       3.01280
                        -----------------------------------------
Total Dipole Moment    :      1.36326       0.89761      -0.40661
                        -----------------------------------------
Magnitude (a.u.)       :      1.68211
Magnitude (Debye)      :      4.27559

Rotational constants in cm-1:     0.153652     0.082400     0.079295
Rotational constants in MHz :  4606.361242  2470.285703  2377.214112

                             ****ORCA TERMINATED NORMALLY****
TOTAL RUN TIME: 0 days 0 hours 0 minutes 11 seconds 341 msec
