                         Program Version 5.0.0 -  RELEASE  -
|  1> !PBE D3BJ RIJCOSX def2-SVPD def2/J TightSCF xyzfile
|  2>
|  3> *xyzfile 0 1 D1.xyz
|  4>
|  5> %MaxCore 64000
|  6>
|  7> %pal nprocs 4
|  8> end
|  9>
| 10> %scf
| 11>   MaxIter 150
| 12> end
| 13>
| 14>
| 15>                          ****END OF INPUT****

CARTESIAN COORDINATES (ANGSTROEM)
---------------------------------
  C      1.364014    0.468742   -2.813764
  C      0.428844    0.321402   -1.655312
  C      0.968045    1.630639   -3.715749
  C     -0.508347    1.722679   -4.124300
  S     -1.328608    0.146737   -4.435781
  H     -0.591511    2.294958   -5.047219
  H     -1.114114    2.235610   -3.374362
  H      0.748578   -0.400542   -1.001345
  H     -0.461053    0.023332   -2.077731
  H      0.310258    1.201375   -1.134948
  F     -2.571347    0.475733   -5.068341
  O     -1.514963   -0.400512   -3.063420
  H      1.294847   -0.468742   -3.364684
  H      2.376216    0.597400   -2.431495
  H      1.578688    1.520652   -4.612733
  H      1.266653    2.575988   -3.250448
  O     -0.377928   -0.627558   -5.201141

 Total Charge           Charge          ....    0
 Multiplicity           Mult            ....    1
 Number of Electrons    NEL             ....   74
 Basis Dimension        Dim             ....  248

ORBITAL ENERGIES
----------------

  NO   OCC          E(Eh)            E(eV)
   0   2.0000     -88.316614     -2403.2173
   1   2.0000     -24.397209      -663.8818
   2   2.0000     -18.783620      -511.1283
   3   2.0000     -18.772345      -510.8215
   4   2.0000      -9.955862      -270.9128
   5   2.0000      -9.919068      -269.9116
   6   2.0000      -9.884398      -268.9681
   7   2.0000      -9.828745      -267.4538
   8   2.0000      -7.921452      -215.5537
   9   2.0000      -5.952765      -161.9830
  10   2.0000      -5.946436      -161.8107
  11   2.0000      -5.944427      -161.7561
  12   2.0000      -1.283571       -34.9277
  13   2.0000      -1.025792       -27.9132
  14   2.0000      -0.928422       -25.2637
  15   2.0000      -0.754299       -20.5255
  16   2.0000      -0.702740       -19.1225
  17   2.0000      -0.656198       -17.8561
  18   2.0000      -0.612150       -16.6575
  19   2.0000      -0.548739       -14.9319
  20   2.0000      -0.534995       -14.5580
  21   2.0000      -0.517427       -14.0799
  22   2.0000      -0.490226       -13.3397
  23   2.0000      -0.456666       -12.4265
  24   2.0000      -0.446175       -12.1410
  25   2.0000      -0.414011       -11.2658
  26   2.0000      -0.410474       -11.1696
  27   2.0000      -0.378948       -10.3117
  28   2.0000      -0.362644        -9.8681
  29   2.0000      -0.356599        -9.7036
  30   2.0000      -0.340646        -9.2694
  31   2.0000      -0.313945        -8.5429
  32   2.0000      -0.304835        -8.2950
  33   2.0000      -0.284996        -7.7551
  34   2.0000      -0.280521        -7.6334
  35   2.0000      -0.270255        -7.3540
  36   2.0000      -0.238636        -6.4936
  37   0.0000      -0.031721        -0.8632
  38   0.0000      -0.010218        -0.2780
  39   0.0000       0.010811         0.2942
  40   0.0000       0.018630         0.5069
  41   0.0000       0.023659         0.6438

MULLIKEN ATOMIC CHARGES
-----------------------
   0 C :   -0.388590
   1 C :    2.090259
   2 C :    0.264200
   3 C :    0.069821
   4 S :    1.494306
   5 H :   -0.213277
   6 H :    0.238621
   7 H :   -0.143708
   8 H :   -1.185940
   9 H :   -0.133494
  10 F :   -0.441792
  11 O :   -0.821373
  12 H :    0.116469
  13 H :   -0.341976
  14 H :    0.033635
  15 H :   -0.017939
  16 O :   -0.619222
Sum of atomic charges:    0.0000000

LOEWDIN ATOMIC CHARGES
----------------------
   0 C :   -0.049646
   1 C :    0.141596
   2 C :   -0.020473
   3 C :   -0.043090
   4 S :    1.122366
   5 H :    0.013578
   6 H :    0.027126
   7 H :   -0.021874
   8 H :   -0.174188
   9 H :   -0.021272
  10 F :   -0.230760
  11 O :   -0.426513
  12 H :    0.018902
  13 H :    0.023903
  14 H :    0.028059
  15 H :    0.038093
  16 O :   -0.425806

  Mayer bond orders larger than 0.100000
B(  0-C ,  1-C ) :   1.0246 B(  0-C ,  2-C ) :   1.2354 B(  0-C ,  7-H ) :   0.2620
B(  0-C ,  8-H ) :   0.5725 B(  0-C ,  9-H ) :   0.3057 B(  0-C , 12-H ) :   0.7904
B(  0-C , 13-H ) :   0.9629 B(  0-C , 14-H ) :   0.1530 B(  0-C , 15-H ) :   0.1767
B(  1-C ,  4-S ) :   0.1008 B(  1-C ,  7-H ) :   0.3968 B(  1-C ,  8-H ) :  -0.7212
B(  1-C ,  9-H ) :   0.2118 B(  1-C , 11-O ) :  -0.1927 B(  1-C , 12-H ) :   0.1521
B(  2-C ,  3-C ) :   1.3274 B(  2-C ,  5-H ) :   0.2205 B(  2-C ,  6-H ) :   0.1050
B(  2-C , 12-H ) :   0.1555 B(  2-C , 14-H ) :   0.8017 B(  2-C , 15-H ) :   0.7515
B(  3-C ,  4-S ) :   0.9333 B(  3-C ,  5-H ) :   0.8485 B(  3-C ,  6-H ) :   0.8225
B(  3-C ,  8-H ) :   0.1553 B(  3-C , 11-O ) :   0.1708 B(  3-C , 14-H ) :   0.1431
B(  4-S ,  8-H ) :  -0.1639 B(  4-S , 10-F ) :   0.6978 B(  4-S , 11-O ) :   1.3628
B(  4-S , 16-O ) :   1.5108 B(  7-H ,  8-H ) :   0.3447 B(  7-H ,  9-H ) :  -0.2026
B(  8-H ,  9-H ) :   0.5269 B(  8-H , 11-O ) :   0.3160 B( 12-H , 13-H ) :  -0.1135

Dispersion correction           -0.017785274
FINAL SINGLE POINT ENERGY      -805.177219864002

DIPOLE MOMENT
-------------
                                X             Y             Z
Electronic contribution:    -12.42919      -4.11443      -9.68376
Nuclear contribution   :     12.25227       5.48563       9.26621
                        -----------------------------------------
Total Dipole Moment    :     -0.17691       1.37120      -0.41755
                        -----------------------------------------
Magnitude (a.u.)       :      1.44424
Magnitude (Debye)      :      3.67097

Rotational constants in cm-1:     0.103176     0.044975     0.040960
Rotational constants in MHz :  3093.138469  1348.317425  1227.945122

                             ****ORCA TERMINATED NORMALLY****
TOTAL RUN TIME: 0 days 0 hours 0 minutes 14 seconds 543 msec
