                         Program Version 5.0.0 -  RELEASE  -
|  1> !PBE D3BJ RIJCOSX def2-SVPD def2/J TightSCF xyzfile
|  2>
|  3> *xyzfile 0 1 D3.xyz
|  4>
|  5> %MaxCore 64000
|  6>
|  7> %pal nprocs 4
|  8> end
|  9>
| 10> %scf
| 11>   MaxIter 150
| 12> end
| 13>
| 14>
| 15>                          ****END OF INPUT****

CARTESIAN COORDINATES (ANGSTROEM)
---------------------------------
  C      1.364014    0.468742   -2.813764
  C      0.428844    0.321402   -1.655312
  C      0.968045    1.630639   -3.715749
  C     -0.508347    1.722679   -4.124300
  S     -1.328608    0.146737   -4.435781
  H     -0.591511    2.294958   -5.047219
  H     -1.114114    2.235610   -3.374362
  H      0.748578   -0.400542   -1.001345
  H     -0.461053    0.023332   -2.077731
  H      0.310258    1.201375   -1.134948
  O     -2.571347    0.475733   -5.068341
  O     -1.514963   -0.400512   -3.063420
  H      1.294847   -0.468742   -3.364684
  H      2.376216    0.597400   -2.431495
  H      1.578688    1.520652   -4.612733
  H      1.266653    2.575988   -3.250448
  F     -0.377928   -0.627558   -5.201141

 Total Charge           Charge          ....    0
 Multiplicity           Mult            ....    1
 Number of Electrons    NEL             ....   74
 Basis Dimension        Dim             ....  248

ORBITAL ENERGIES
----------------

  NO   OCC          E(Eh)            E(eV)
   0   2.0000     -88.316919     -2403.2256
   1   2.0000     -24.393041      -663.7684
   2   2.0000     -18.786878      -511.2169
   3   2.0000     -18.771425      -510.7964
   4   2.0000      -9.955618      -270.9061
   5   2.0000      -9.922589      -270.0074
   6   2.0000      -9.895590      -269.2727
   7   2.0000      -9.832247      -267.5491
   8   2.0000      -7.921672      -215.5596
   9   2.0000      -5.953034      -161.9903
  10   2.0000      -5.946712      -161.8183
  11   2.0000      -5.944598      -161.7607
  12   2.0000      -1.274916       -34.6922
  13   2.0000      -1.030374       -28.0379
  14   2.0000      -0.932166       -25.3655
  15   2.0000      -0.759792       -20.6750
  16   2.0000      -0.701201       -19.0806
  17   2.0000      -0.656928       -17.8759
  18   2.0000      -0.613843       -16.7035
  19   2.0000      -0.553494       -15.0613
  20   2.0000      -0.530253       -14.4289
  21   2.0000      -0.522651       -14.2221
  22   2.0000      -0.488335       -13.2883
  23   2.0000      -0.451164       -12.2768
  24   2.0000      -0.447254       -12.1704
  25   2.0000      -0.423945       -11.5361
  26   2.0000      -0.411672       -11.2022
  27   2.0000      -0.383400       -10.4329
  28   2.0000      -0.367425        -9.9982
  29   2.0000      -0.356034        -9.6882
  30   2.0000      -0.346446        -9.4273
  31   2.0000      -0.322615        -8.7788
  32   2.0000      -0.304953        -8.2982
  33   2.0000      -0.294268        -8.0074
  34   2.0000      -0.289382        -7.8745
  35   2.0000      -0.280739        -7.6393
  36   2.0000      -0.232550        -6.3280
  37   0.0000      -0.035290        -0.9603
  38   0.0000      -0.003417        -0.0930
  39   0.0000       0.007388         0.2010
  40   0.0000       0.017212         0.4684
  41   0.0000       0.020813         0.5664

MULLIKEN ATOMIC CHARGES
-----------------------
   0 C :   -0.364291
   1 C :    2.097004
   2 C :    0.285928
   3 C :    0.095221
   4 S :    1.407295
   5 H :   -0.232233
   6 H :    0.225108
   7 H :   -0.138200
   8 H :   -1.174137
   9 H :   -0.136617
  10 O :   -0.638997
  11 O :   -0.791876
  12 H :    0.083419
  13 H :   -0.350263
  14 H :    0.012983
  15 H :   -0.016642
  16 F :   -0.363702
Sum of atomic charges:   -0.0000000

LOEWDIN ATOMIC CHARGES
----------------------
   0 C :   -0.057283
   1 C :    0.139761
   2 C :   -0.036091
   3 C :   -0.029442
   4 S :    1.116671
   5 H :    0.016967
   6 H :    0.040483
   7 H :   -0.022057
   8 H :   -0.177452
   9 H :   -0.019623
  10 O :   -0.421214
  11 O :   -0.418156
  12 H :    0.015469
  13 H :    0.024669
  14 H :    0.022217
  15 H :    0.035995
  16 F :   -0.230914

  Mayer bond orders larger than 0.100000
B(  0-C ,  1-C ) :   1.0254 B(  0-C ,  2-C ) :   1.2259 B(  0-C ,  7-H ) :   0.2561
B(  0-C ,  8-H ) :   0.5716 B(  0-C ,  9-H ) :   0.3106 B(  0-C , 12-H ) :   0.7874
B(  0-C , 13-H ) :   0.9645 B(  0-C , 14-H ) :   0.1511 B(  0-C , 15-H ) :   0.1777
B(  1-C ,  7-H ) :   0.3948 B(  1-C ,  8-H ) :  -0.6936 B(  1-C ,  9-H ) :   0.2064
B(  1-C , 11-O ) :  -0.1768 B(  1-C , 12-H ) :   0.1508 B(  2-C ,  3-C ) :   1.2955
B(  2-C ,  5-H ) :   0.2048 B(  2-C ,  6-H ) :   0.1108 B(  2-C , 12-H ) :   0.1556
B(  2-C , 14-H ) :   0.8098 B(  2-C , 15-H ) :   0.7454 B(  3-C ,  4-S ) :   0.9571
B(  3-C ,  5-H ) :   0.8942 B(  3-C ,  6-H ) :   0.8296 B(  3-C ,  8-H ) :   0.1449
B(  3-C , 11-O ) :   0.1577 B(  3-C , 14-H ) :   0.1407 B(  4-S ,  8-H ) :  -0.1540
B(  4-S , 10-O ) :   1.5996 B(  4-S , 11-O ) :   1.4130 B(  4-S , 16-F ) :   0.6939
B(  7-H ,  8-H ) :   0.3503 B(  7-H ,  9-H ) :  -0.2005 B(  8-H ,  9-H ) :   0.5330
B(  8-H , 11-O ) :   0.2986 B( 12-H , 13-H ) :  -0.1246

Dispersion correction           -0.017648302
FINAL SINGLE POINT ENERGY      -805.180788500354

DIPOLE MOMENT
-------------
                                X             Y             Z
Electronic contribution:     -8.69092      -5.97177      -9.86875
Nuclear contribution   :      9.83476       6.70164       9.41257
                        -----------------------------------------
Total Dipole Moment    :      1.14384       0.72987      -0.45617
                        -----------------------------------------
Magnitude (a.u.)       :      1.43150
Magnitude (Debye)      :      3.63857

Rotational constants in cm-1:     0.099832     0.045916     0.042219
Rotational constants in MHz :  2992.874960  1376.530174  1265.693813

                             ****ORCA TERMINATED NORMALLY****
TOTAL RUN TIME: 0 days 0 hours 0 minutes 13 seconds 275 msec
