                         Program Version 5.0.0 -  RELEASE  -
|  1> !CAM-B3LYP RIJCOSX def2-SVP def2/J TightSCF
|  2> *xyz -1 1
|  3> C          4.08422        1.74208       -2.11472
|  4> C          4.26524        2.50052       -0.79589
|  5> H          4.86853        3.39267       -0.98113
|  6> H          3.30764        2.82457       -0.38781
|  7> C          4.98224        1.65026        0.24742
|  8> O          4.36806        1.38927        1.31371
|  9> O          6.12892        1.23351       -0.04562
| 10> H          3.57911        2.36849       -2.81997
| 11> H          3.50424        0.85965       -1.94198
| 12> H          5.04288        1.46841       -2.50327
| 13> *
| 14> %MaxCore 64000
| 15> %pal nprocs 8
| 16> end
| 17> %scf
| 18>   MaxIter 150
| 19> end
| 20>
| 21>
| 22>                          ****END OF INPUT****

CARTESIAN COORDINATES (ANGSTROEM)
---------------------------------
  C      4.084220    1.742080   -2.114720
  C      4.265240    2.500520   -0.795890
  H      4.868530    3.392670   -0.981130
  H      3.307640    2.824570   -0.387810
  C      4.982240    1.650260    0.247420
  O      4.368060    1.389270    1.313710
  O      6.128920    1.233510   -0.045620
  H      3.579110    2.368490   -2.819970
  H      3.504240    0.859650   -1.941980
  H      5.042880    1.468410   -2.503270

 Total Charge           Charge          ....   -1
 Multiplicity           Mult            ....    1
 Number of Electrons    NEL             ....   40
 Basis Dimension        Dim             ....   95

ORBITAL ENERGIES
----------------

  NO   OCC          E(Eh)            E(eV)
   0   2.0000     -18.904404      -514.4150
   1   2.0000     -18.903454      -514.3891
   2   2.0000     -10.110722      -275.1267
   3   2.0000     -10.088371      -274.5185
   4   2.0000     -10.066257      -273.9168
   5   2.0000      -0.854658       -23.2564
   6   2.0000      -0.757727       -20.6188
   7   2.0000      -0.668206       -18.1828
   8   2.0000      -0.532346       -14.4859
   9   2.0000      -0.372685       -10.1413
  10   2.0000      -0.350138        -9.5277
  11   2.0000      -0.305437        -8.3114
  12   2.0000      -0.279135        -7.5957
  13   2.0000      -0.262110        -7.1324
  14   2.0000      -0.251132        -6.8337
  15   2.0000      -0.216679        -5.8961
  16   2.0000      -0.202825        -5.5192
  17   2.0000      -0.073196        -1.9918
  18   2.0000      -0.072323        -1.9680
  19   2.0000      -0.056821        -1.5462
  20   0.0000       0.257121         6.9966
  21   0.0000       0.308409         8.3922
  22   0.0000       0.325047         8.8450
  23   0.0000       0.326225         8.8770
  24   0.0000       0.336988         9.1699

MULLIKEN ATOMIC CHARGES
-----------------------
   0 C :    0.029721
   1 C :    0.042241
   2 H :   -0.051964
   3 H :   -0.064260
   4 C :   -0.008207
   5 O :   -0.426196
   6 O :   -0.433598
   7 H :   -0.056574
   8 H :   -0.020497
   9 H :   -0.010665
Sum of atomic charges:   -1.0000000

LOEWDIN ATOMIC CHARGES
----------------------
   0 C :   -0.059217
   1 C :   -0.086457
   2 H :    0.001186
   3 H :   -0.006299
   4 C :   -0.054704
   5 O :   -0.401034
   6 O :   -0.404351
   7 H :   -0.008674
   8 H :    0.009143
   9 H :    0.010408

  Mayer bond orders larger than 0.100000
B(  0-C ,  1-C ) :   1.0954 B(  0-C ,  7-H ) :   0.9640 B(  0-C ,  8-H ) :   0.9724
B(  0-C ,  9-H ) :   0.9627 B(  1-C ,  2-H ) :   0.9323 B(  1-C ,  3-H ) :   0.9335
B(  1-C ,  4-C ) :   0.9239 B(  4-C ,  5-O ) :   1.8873 B(  4-C ,  6-O ) :   1.8478
B(  5-O ,  6-O ) :   0.1102

FINAL SINGLE POINT ENERGY      -267.497504903218

DIPOLE MOMENT
-------------
                                X             Y             Z
Electronic contribution:      2.51127      -1.56443       5.24843
Nuclear contribution   :     -3.31311       2.28398      -6.76358
                        -----------------------------------------
Total Dipole Moment    :     -0.80184       0.71956      -1.51515
                        -----------------------------------------
Magnitude (a.u.)       :      1.85913
Magnitude (Debye)      :      4.72554

Rotational constants in cm-1:     0.309287     0.135287     0.107346
Rotational constants in MHz :  9272.201029  4055.789113  3218.155789

                             ****ORCA TERMINATED NORMALLY****
TOTAL RUN TIME: 0 days 0 hours 0 minutes 14 seconds 338 msec
