                         Program Version 5.0.0 -  RELEASE  -
|  1> !CAM-B3LYP RIJCOSX def2-SVP def2/J TightSCF
|  2> *xyz 1 1
|  3> C          3.91385       -1.65829        3.01513
|  4> N          5.03927       -0.90115        2.49282
|  5> C          6.21038       -1.41726        2.17824
|  6> N          6.53591       -2.67712        2.55608
|  7> N          7.07675       -0.70082        1.47891
|  8> H          7.95464       -1.12155        1.20755
|  9> H          6.75616        0.10664        0.96028
| 10> H          4.84217        0.01761        2.11519
| 11> H          5.99388       -3.12692        3.28278
| 12> C          3.13916       -2.37657        1.91061
| 13> H          3.26723       -0.93940        3.52069
| 14> H          4.24720       -2.35509        3.79006
| 15> H          7.49844       -2.97548        2.46878
| 16> H          2.82969       -1.66654        1.17238
| 17> H          2.27790       -2.85264        2.33072
| 18> H          3.76754       -3.11338        1.45548
| 19> *
| 20> %MaxCore 64000
| 21> %pal nprocs 8
| 22> end
| 23> %scf
| 24>   MaxIter 150
| 25> end
| 26>
| 27>
| 28>                          ****END OF INPUT****

CARTESIAN COORDINATES (ANGSTROEM)
---------------------------------
  C      3.913850   -1.658290    3.015130
  N      5.039270   -0.901150    2.492820
  C      6.210380   -1.417260    2.178240
  N      6.535910   -2.677120    2.556080
  N      7.076750   -0.700820    1.478910
  H      7.954640   -1.121550    1.207550
  H      6.756160    0.106640    0.960280
  H      4.842170    0.017610    2.115190
  H      5.993880   -3.126920    3.282780
  C      3.139160   -2.376570    1.910610
  H      3.267230   -0.939400    3.520690
  H      4.247200   -2.355090    3.790060
  H      7.498440   -2.975480    2.468780
  H      2.829690   -1.666540    1.172380
  H      2.277900   -2.852640    2.330720
  H      3.767540   -3.113380    1.455480

 Total Charge           Charge          ....    1
 Multiplicity           Mult            ....    1
 Number of Electrons    NEL             ....   48
 Basis Dimension        Dim             ....  134

ORBITAL ENERGIES
----------------

  NO   OCC          E(Eh)            E(eV)
   0   2.0000     -14.627372      -398.0310
   1   2.0000     -14.626320      -398.0024
   2   2.0000     -14.623935      -397.9375
   3   2.0000     -10.596734      -288.3518
   4   2.0000     -10.465441      -284.7791
   5   2.0000     -10.393401      -282.8188
   6   2.0000      -1.292047       -35.1584
   7   2.0000      -1.180232       -32.1158
   8   2.0000      -1.162307       -31.6280
   9   2.0000      -1.005060       -27.3491
  10   2.0000      -0.912495       -24.8302
  11   2.0000      -0.873627       -23.7726
  12   2.0000      -0.858422       -23.3589
  13   2.0000      -0.814340       -22.1593
  14   2.0000      -0.761561       -20.7231
  15   2.0000      -0.754338       -20.5266
  16   2.0000      -0.725131       -19.7318
  17   2.0000      -0.699443       -19.0328
  18   2.0000      -0.669382       -18.2148
  19   2.0000      -0.628348       -17.0982
  20   2.0000      -0.596367       -16.2280
  21   2.0000      -0.576369       -15.6838
  22   2.0000      -0.540812       -14.7162
  23   2.0000      -0.511654       -13.9228
  24   0.0000      -0.109691        -2.9848
  25   0.0000      -0.095097        -2.5877
  26   0.0000      -0.063236        -1.7207
  27   0.0000      -0.052546        -1.4298
  28   0.0000      -0.031072        -0.8455

MULLIKEN ATOMIC CHARGES
-----------------------
   0 C :    0.015234
   1 N :   -0.094992
   2 C :    0.016300
   3 N :   -0.047222
   4 N :   -0.004708
   5 H :    0.171119
   6 H :    0.173139
   7 H :    0.162924
   8 H :    0.166648
   9 C :    0.025357
  10 H :    0.069274
  11 H :    0.049597
  12 H :    0.168550
  13 H :    0.036673
  14 H :    0.063364
  15 H :    0.028745
Sum of atomic charges:    1.0000000

LOEWDIN ATOMIC CHARGES
----------------------
   0 C :    0.040058
   1 N :    0.035813
   2 C :    0.153032
   3 N :    0.029876
   4 N :    0.047995
   5 H :    0.111865
   6 H :    0.112555
   7 H :    0.108192
   8 H :    0.105605
   9 C :   -0.047034
  10 H :    0.049946
  11 H :    0.032972
  12 H :    0.109929
  13 H :    0.033318
  14 H :    0.048157
  15 H :    0.027720

  Mayer bond orders larger than 0.100000
B(  0-C ,  1-N ) :   0.9374 B(  0-C ,  9-C ) :   1.0922 B(  0-C , 10-H ) :   0.9490
B(  0-C , 11-H ) :   0.9542 B(  1-N ,  2-C ) :   1.3964 B(  1-N ,  7-H ) :   0.9106
B(  2-C ,  3-N ) :   1.3713 B(  2-C ,  4-N ) :   1.4040 B(  3-N ,  8-H ) :   0.9260
B(  3-N , 12-H ) :   0.9271 B(  4-N ,  5-H ) :   0.9269 B(  4-N ,  6-H ) :   0.9258
B(  9-C , 13-H ) :   0.9692 B(  9-C , 14-H ) :   0.9647 B(  9-C , 15-H ) :   0.9680

FINAL SINGLE POINT ENERGY      -284.043362063167

DIPOLE MOMENT
-------------
                                X             Y             Z
Electronic contribution:      4.80126       1.93036       0.06014
Nuclear contribution   :     -3.67981      -1.62355      -0.28562
                        -----------------------------------------
Total Dipole Moment    :      1.12145       0.30681      -0.22548
                        -----------------------------------------
Magnitude (a.u.)       :      1.18432
Magnitude (Debye)      :      3.01031

Rotational constants in cm-1:     0.222027     0.074735     0.065694
Rotational constants in MHz :  6656.200457  2240.503315  1969.451902

                             ****ORCA TERMINATED NORMALLY****
TOTAL RUN TIME: 0 days 0 hours 0 minutes 20 seconds 803 msec
