                         Program Version 5.0.0 -  RELEASE  -
|  1> !CAM-B3LYP RIJCOSX def2-SVP def2/J TightSCF
|  2> *xyz 0 1
|  3> C          4.08422        1.74208       -2.11472
|  4> C          4.26524        2.50052       -0.79589
|  5> H          4.86853        3.39267       -0.98113
|  6> H          3.30764        2.82457       -0.38781
|  7> C          4.98224        1.65026        0.24742
|  8> F          4.36806        1.38927        1.31371
|  9> O          6.12892        1.23351       -0.04562
| 10> H          3.57911        2.36849       -2.81997
| 11> H          3.50424        0.85965       -1.94198
| 12> H          5.04288        1.46841       -2.50327
| 13> *
| 14> %MaxCore 64000
| 15> %pal nprocs 8
| 16> end
| 17> %scf
| 18>   MaxIter 150
| 19> end
| 20>
| 21>
| 22>                          ****END OF INPUT****

CARTESIAN COORDINATES (ANGSTROEM)
---------------------------------
  C      4.084220    1.742080   -2.114720
  C      4.265240    2.500520   -0.795890
  H      4.868530    3.392670   -0.981130
  H      3.307640    2.824570   -0.387810
  C      4.982240    1.650260    0.247420
  F      4.368060    1.389270    1.313710
  O      6.128920    1.233510   -0.045620
  H      3.579110    2.368490   -2.819970
  H      3.504240    0.859650   -1.941980
  H      5.042880    1.468410   -2.503270

 Total Charge           Charge          ....    0
 Multiplicity           Mult            ....    1
 Number of Electrons    NEL             ....   40
 Basis Dimension        Dim             ....   95

ORBITAL ENERGIES
----------------

  NO   OCC          E(Eh)            E(eV)
   0   2.0000     -24.826804      -675.5717
   1   2.0000     -19.208251      -522.6831
   2   2.0000     -10.432039      -283.8702
   3   2.0000     -10.286601      -279.9126
   4   2.0000     -10.263795      -279.2921
   5   2.0000      -1.375076       -37.4177
   6   2.0000      -1.097009       -29.8511
   7   2.0000      -0.874691       -23.8015
   8   2.0000      -0.757437       -20.6109
   9   2.0000      -0.705640       -19.2014
  10   2.0000      -0.617004       -16.7895
  11   2.0000      -0.601976       -16.3806
  12   2.0000      -0.571899       -15.5622
  13   2.0000      -0.532573       -14.4921
  14   2.0000      -0.498638       -13.5686
  15   2.0000      -0.463782       -12.6202
  16   2.0000      -0.442757       -12.0480
  17   2.0000      -0.437841       -11.9143
  18   2.0000      -0.405864       -11.0441
  19   2.0000      -0.353231        -9.6119
  20   0.0000       0.030059         0.8179
  21   0.0000       0.103743         2.8230
  22   0.0000       0.147126         4.0035
  23   0.0000       0.152261         4.1432
  24   0.0000       0.171954         4.6791

MULLIKEN ATOMIC CHARGES
-----------------------
   0 C :    0.012864
   1 C :   -0.045817
   2 H :    0.052810
   3 H :    0.017378
   4 C :    0.203662
   5 F :   -0.069327
   6 O :   -0.249891
   7 H :    0.020424
   8 H :    0.017901
   9 H :    0.039996
Sum of atomic charges:   -0.0000000

LOEWDIN ATOMIC CHARGES
----------------------
   0 C :   -0.036113
   1 C :   -0.068491
   2 H :    0.049527
   3 H :    0.026266
   4 C :    0.102223
   5 F :    0.041021
   6 O :   -0.197951
   7 H :    0.027118
   8 H :    0.024913
   9 H :    0.031488

  Mayer bond orders larger than 0.100000
B(  0-C ,  1-C ) :   1.0917 B(  0-C ,  7-H ) :   0.9702 B(  0-C ,  8-H ) :   0.9774
B(  0-C ,  9-H ) :   0.9711 B(  1-C ,  2-H ) :   0.9343 B(  1-C ,  3-H ) :   0.9394
B(  1-C ,  4-C ) :   0.9959 B(  4-C ,  5-F ) :   1.2138 B(  4-C ,  6-O ) :   2.0893

FINAL SINGLE POINT ENERGY      -292.055688334946

DIPOLE MOMENT
-------------
                                X             Y             Z
Electronic contribution:      1.97142      -2.07311       8.17694
Nuclear contribution   :     -2.87511       2.61564      -8.50037
                        -----------------------------------------
Total Dipole Moment    :     -0.90368       0.54253      -0.32343
                        -----------------------------------------
Magnitude (a.u.)       :      1.10254
Magnitude (Debye)      :      2.80243

Rotational constants in cm-1:     0.297822     0.128965     0.102219
Rotational constants in MHz :  8928.481997  3866.271686  3064.463504

                             ****ORCA TERMINATED NORMALLY****
TOTAL RUN TIME: 0 days 0 hours 0 minutes 14 seconds 642 msec
