                         Program Version 5.0.0 -  RELEASE  -
|  1> !CAM-B3LYP RIJCOSX def2-SVP def2/J TightSCF
|  2> *xyz 0 1
|  3> C          3.91385       -1.65829        3.01513
|  4> C          5.03927       -0.90115        2.49282
|  5> C          6.21038       -1.41726        2.17824
|  6> N          6.53591       -2.67712        2.55608
|  7> N          7.07675       -0.70082        1.47891
|  8> H          7.95464       -1.12155        1.20755
|  9> H          6.75616        0.10664        0.96028
| 10> H          4.84217        0.01761        2.11519
| 11> H          5.99388       -3.12692        3.28278
| 12> C          3.13916       -2.37657        1.91061
| 13> H          3.26723       -0.93940        3.52069
| 14> H          4.24720       -2.35509        3.79006
| 15> H          7.49844       -2.97548        2.46878
| 16> H          2.82969       -1.66654        1.17238
| 17> H          2.27790       -2.85264        2.33072
| 18> H          3.76754       -3.11338        1.45548
| 19> *
| 20> %MaxCore 64000
| 21> %pal nprocs 8
| 22> end
| 23> %scf
| 24>   MaxIter 150
| 25> end
| 26>
| 27>
| 28>                          ****END OF INPUT****

CARTESIAN COORDINATES (ANGSTROEM)
---------------------------------
  C      3.913850   -1.658290    3.015130
  C      5.039270   -0.901150    2.492820
  C      6.210380   -1.417260    2.178240
  N      6.535910   -2.677120    2.556080
  N      7.076750   -0.700820    1.478910
  H      7.954640   -1.121550    1.207550
  H      6.756160    0.106640    0.960280
  H      4.842170    0.017610    2.115190
  H      5.993880   -3.126920    3.282780
  C      3.139160   -2.376570    1.910610
  H      3.267230   -0.939400    3.520690
  H      4.247200   -2.355090    3.790060
  H      7.498440   -2.975480    2.468780
  H      2.829690   -1.666540    1.172380
  H      2.277900   -2.852640    2.330720
  H      3.767540   -3.113380    1.455480

 Total Charge           Charge          ....    0
 Multiplicity           Mult            ....    1
 Number of Electrons    NEL             ....   48
 Basis Dimension        Dim             ....  134

ORBITAL ENERGIES
----------------

  NO   OCC          E(Eh)            E(eV)
   0   2.0000     -14.394986      -391.7075
   1   2.0000     -14.393371      -391.6635
   2   2.0000     -10.294110      -280.1170
   3   2.0000     -10.226364      -278.2735
   4   2.0000     -10.218095      -278.0485
   5   2.0000     -10.168186      -276.6904
   6   2.0000      -1.025567       -27.9071
   7   2.0000      -0.932798       -25.3827
   8   2.0000      -0.841824       -22.9072
   9   2.0000      -0.759513       -20.6674
  10   2.0000      -0.681202       -18.5364
  11   2.0000      -0.640450       -17.4275
  12   2.0000      -0.603151       -16.4126
  13   2.0000      -0.572643       -15.5824
  14   2.0000      -0.533650       -14.5213
  15   2.0000      -0.500060       -13.6073
  16   2.0000      -0.481294       -13.0967
  17   2.0000      -0.448978       -12.2173
  18   2.0000      -0.442478       -12.0404
  19   2.0000      -0.413680       -11.2568
  20   2.0000      -0.386031       -10.5044
  21   2.0000      -0.376922       -10.2566
  22   2.0000      -0.322086        -8.7644
  23   2.0000      -0.206779        -5.6267
  24   0.0000       0.087183         2.3724
  25   0.0000       0.119791         3.2597
  26   0.0000       0.128158         3.4874
  27   0.0000       0.152347         4.1456
  28   0.0000       0.153432         4.1751

MULLIKEN ATOMIC CHARGES
-----------------------
   0 C :    0.060016
   1 C :   -0.168518
   2 C :   -0.062435
   3 N :   -0.080830
   4 N :   -0.045037
   5 H :    0.095014
   6 H :    0.119620
   7 H :   -0.112956
   8 H :    0.114210
   9 C :    0.071734
  10 H :   -0.019952
  11 H :   -0.035985
  12 H :    0.097567
  13 H :   -0.011401
  14 H :   -0.013562
  15 H :   -0.007488
Sum of atomic charges:   -0.0000000

LOEWDIN ATOMIC CHARGES
----------------------
   0 C :   -0.036973
   1 C :   -0.218820
   2 C :    0.030329
   3 N :   -0.038703
   4 N :   -0.022826
   5 H :    0.063611
   6 H :    0.082481
   7 H :   -0.012019
   8 H :    0.076228
   9 C :   -0.052779
  10 H :    0.020666
  11 H :    0.005291
  12 H :    0.063542
  13 H :    0.016078
  14 H :    0.009715
  15 H :    0.014178

  Mayer bond orders larger than 0.100000
B(  0-C ,  1-C ) :   1.0687 B(  0-C ,  9-C ) :   1.0890 B(  0-C , 10-H ) :   0.9209
B(  0-C , 11-H ) :   0.9356 B(  1-C ,  2-C ) :   1.7255 B(  1-C ,  7-H ) :   0.9380
B(  2-C ,  3-N ) :   1.2355 B(  2-C ,  4-N ) :   1.2357 B(  3-N ,  8-H ) :   0.9434
B(  3-N , 12-H ) :   0.9497 B(  4-N ,  5-H ) :   0.9517 B(  4-N ,  6-H ) :   0.9423
B(  9-C , 13-H ) :   0.9661 B(  9-C , 14-H ) :   0.9641 B(  9-C , 15-H ) :   0.9717

FINAL SINGLE POINT ENERGY      -267.566895463506

DIPOLE MOMENT
-------------
                                X             Y             Z
Electronic contribution:      4.79528       1.18297      -0.06826
Nuclear contribution   :     -3.74303      -1.46908      -0.23637
                        -----------------------------------------
Total Dipole Moment    :      1.05226      -0.28611      -0.30463
                        -----------------------------------------
Magnitude (a.u.)       :      1.13221
Magnitude (Debye)      :      2.87785

Rotational constants in cm-1:     0.225937     0.074877     0.065953
Rotational constants in MHz :  6773.424301  2244.750632  1977.214101

                             ****ORCA TERMINATED NORMALLY****
TOTAL RUN TIME: 0 days 0 hours 0 minutes 21 seconds 2 msec
