                         Program Version 5.0.0 -  RELEASE  -
|  1> !CAM-B3LYP RIJCOSX def2-SVP def2/J TightSCF
|  2> *xyz 0 1
|  3> C          4.08422        1.74208       -2.11472
|  4> C          4.26524        2.50052       -0.79589
|  5> H          4.86853        3.39267       -0.98113
|  6> H          3.30764        2.82457       -0.38781
|  7> C          4.98224        1.65026        0.24742
|  8> O          4.36806        1.38927        1.31371
|  9> F          6.12892        1.23351       -0.04562
| 10> H          3.57911        2.36849       -2.81997
| 11> H          3.50424        0.85965       -1.94198
| 12> H          5.04288        1.46841       -2.50327
| 13> *
| 14> %MaxCore 64000
| 15> %pal nprocs 8
| 16> end
| 17> %scf
| 18>   MaxIter 150
| 19> end
| 20>
| 21>
| 22>                          ****END OF INPUT****

CARTESIAN COORDINATES (ANGSTROEM)
---------------------------------
  C      4.084220    1.742080   -2.114720
  C      4.265240    2.500520   -0.795890
  H      4.868530    3.392670   -0.981130
  H      3.307640    2.824570   -0.387810
  C      4.982240    1.650260    0.247420
  O      4.368060    1.389270    1.313710
  F      6.128920    1.233510   -0.045620
  H      3.579110    2.368490   -2.819970
  H      3.504240    0.859650   -1.941980
  H      5.042880    1.468410   -2.503270

 Total Charge           Charge          ....    0
 Multiplicity           Mult            ....    1
 Number of Electrons    NEL             ....   40
 Basis Dimension        Dim             ....   95

ORBITAL ENERGIES
----------------

  NO   OCC          E(Eh)            E(eV)
   0   2.0000     -24.828707      -675.6235
   1   2.0000     -19.207060      -522.6507
   2   2.0000     -10.431273      -283.8494
   3   2.0000     -10.285955      -279.8951
   4   2.0000     -10.268336      -279.4156
   5   2.0000      -1.378166       -37.5018
   6   2.0000      -1.093369       -29.7521
   7   2.0000      -0.878715       -23.9111
   8   2.0000      -0.754978       -20.5440
   9   2.0000      -0.711081       -19.3495
  10   2.0000      -0.620427       -16.8827
  11   2.0000      -0.607797       -16.5390
  12   2.0000      -0.565333       -15.3835
  13   2.0000      -0.532202       -14.4819
  14   2.0000      -0.500443       -13.6177
  15   2.0000      -0.466860       -12.7039
  16   2.0000      -0.446937       -12.1618
  17   2.0000      -0.440796       -11.9947
  18   2.0000      -0.408250       -11.1091
  19   2.0000      -0.348202        -9.4750
  20   0.0000       0.033843         0.9209
  21   0.0000       0.099541         2.7087
  22   0.0000       0.144183         3.9234
  23   0.0000       0.153643         4.1808
  24   0.0000       0.174515         4.7488

MULLIKEN ATOMIC CHARGES
-----------------------
   0 C :   -0.007694
   1 C :   -0.037993
   2 H :    0.035753
   3 H :    0.044190
   4 C :    0.200748
   5 O :   -0.243920
   6 F :   -0.071341
   7 H :    0.026345
   8 H :    0.029427
   9 H :    0.024485
Sum of atomic charges:   -0.0000000

LOEWDIN ATOMIC CHARGES
----------------------
   0 C :   -0.044670
   1 C :   -0.064704
   2 H :    0.038640
   3 H :    0.042966
   4 C :    0.100019
   5 O :   -0.196724
   6 F :    0.042784
   7 H :    0.029720
   8 H :    0.027637
   9 H :    0.024332

  Mayer bond orders larger than 0.100000
B(  0-C ,  1-C ) :   1.0755 B(  0-C ,  7-H ) :   0.9698 B(  0-C ,  8-H ) :   0.9774
B(  0-C ,  9-H ) :   0.9739 B(  1-C ,  2-H ) :   0.9320 B(  1-C ,  3-H ) :   0.9504
B(  1-C ,  4-C ) :   1.0064 B(  4-C ,  5-O ) :   2.1090 B(  4-C ,  6-F ) :   1.2015

FINAL SINGLE POINT ENERGY      -292.054719353161

DIPOLE MOMENT
-------------
                                X             Y             Z
Electronic contribution:      4.86096      -2.32861       5.92511
Nuclear contribution   :     -4.79499       2.78546      -7.01827
                        -----------------------------------------
Total Dipole Moment    :      0.06597       0.45686      -1.09316
                        -----------------------------------------
Magnitude (a.u.)       :      1.18662
Magnitude (Debye)      :      3.01615

Rotational constants in cm-1:     0.286098     0.133492     0.103343
Rotational constants in MHz :  8577.003657  4001.981591  3098.148068

                             ****ORCA TERMINATED NORMALLY****
TOTAL RUN TIME: 0 days 0 hours 0 minutes 15 seconds 461 msec
