                         Program Version 5.0.0 -  RELEASE  -
|  1> !CAM-B3LYP RIJCOSX def2-SVP def2/J TightSCF
|  2> *xyz 0 1
|  3> C          3.91385       -1.65829        3.01513
|  4> N          5.03927       -0.90115        2.49282
|  5> C          6.21038       -1.41726        2.17824
|  6> N          6.53591       -2.67712        2.55608
|  7> C          7.07675       -0.70082        1.47891
|  8> H          7.95464       -1.12155        1.20755
|  9> H          6.75616        0.10664        0.96028
| 10> H          4.84217        0.01761        2.11519
| 11> H          5.99388       -3.12692        3.28278
| 12> C          3.13916       -2.37657        1.91061
| 13> H          3.26723       -0.93940        3.52069
| 14> H          4.24720       -2.35509        3.79006
| 15> H          7.49844       -2.97548        2.46878
| 16> H          2.82969       -1.66654        1.17238
| 17> H          2.27790       -2.85264        2.33072
| 18> H          3.76754       -3.11338        1.45548
| 19> *
| 20> %MaxCore 64000
| 21> %pal nprocs 8
| 22> end
| 23> %scf
| 24>   MaxIter 150
| 25> end
| 26>
| 27>
| 28>                          ****END OF INPUT****

CARTESIAN COORDINATES (ANGSTROEM)
---------------------------------
  C      3.913850   -1.658290    3.015130
  N      5.039270   -0.901150    2.492820
  C      6.210380   -1.417260    2.178240
  N      6.535910   -2.677120    2.556080
  C      7.076750   -0.700820    1.478910
  H      7.954640   -1.121550    1.207550
  H      6.756160    0.106640    0.960280
  H      4.842170    0.017610    2.115190
  H      5.993880   -3.126920    3.282780
  C      3.139160   -2.376570    1.910610
  H      3.267230   -0.939400    3.520690
  H      4.247200   -2.355090    3.790060
  H      7.498440   -2.975480    2.468780
  H      2.829690   -1.666540    1.172380
  H      2.277900   -2.852640    2.330720
  H      3.767540   -3.113380    1.455480

 Total Charge           Charge          ....    0
 Multiplicity           Mult            ....    1
 Number of Electrons    NEL             ....   48
 Basis Dimension        Dim             ....  134

ORBITAL ENERGIES
----------------

  NO   OCC          E(Eh)            E(eV)
   0   2.0000     -14.395285      -391.7156
   1   2.0000     -14.394984      -391.7074
   2   2.0000     -10.297829      -280.2182
   3   2.0000     -10.296881      -280.1924
   4   2.0000     -10.246389      -278.8184
   5   2.0000     -10.161477      -276.5078
   6   2.0000      -1.036440       -28.2030
   7   2.0000      -0.947649       -25.7868
   8   2.0000      -0.842127       -22.9154
   9   2.0000      -0.769263       -20.9327
  10   2.0000      -0.697491       -18.9797
  11   2.0000      -0.665156       -18.0998
  12   2.0000      -0.600201       -16.3323
  13   2.0000      -0.562436       -15.3046
  14   2.0000      -0.540847       -14.7172
  15   2.0000      -0.505014       -13.7421
  16   2.0000      -0.496268       -13.5041
  17   2.0000      -0.467859       -12.7311
  18   2.0000      -0.441744       -12.0205
  19   2.0000      -0.432617       -11.7721
  20   2.0000      -0.421996       -11.4831
  21   2.0000      -0.417832       -11.3698
  22   2.0000      -0.311341        -8.4720
  23   2.0000      -0.211924        -5.7667
  24   0.0000       0.086435         2.3520
  25   0.0000       0.112773         3.0687
  26   0.0000       0.127806         3.4778
  27   0.0000       0.146698         3.9918
  28   0.0000       0.153835         4.1861

MULLIKEN ATOMIC CHARGES
-----------------------
   0 C :    0.056969
   1 N :   -0.120529
   2 C :   -0.037817
   3 N :   -0.092593
   4 C :   -0.073065
   5 H :   -0.074328
   6 H :   -0.069546
   7 H :    0.115910
   8 H :    0.096309
   9 C :    0.044244
  10 H :    0.007222
  11 H :    0.003451
  12 H :    0.119859
  13 H :    0.006050
  14 H :    0.002816
  15 H :    0.015047
Sum of atomic charges:    0.0000000

LOEWDIN ATOMIC CHARGES
----------------------
   0 C :    0.030289
   1 N :   -0.023927
   2 C :    0.044935
   3 N :   -0.035927
   4 C :   -0.259038
   5 H :   -0.011715
   6 H :   -0.011200
   7 H :    0.084291
   8 H :    0.060420
   9 C :   -0.062713
  10 H :    0.022568
  11 H :    0.014916
  12 H :    0.082664
  13 H :    0.021078
  14 H :    0.020371
  15 H :    0.022989

  Mayer bond orders larger than 0.100000
B(  0-C ,  1-N ) :   1.0250 B(  0-C ,  9-C ) :   1.0835 B(  0-C , 10-H ) :   0.9550
B(  0-C , 11-H ) :   0.9534 B(  1-N ,  2-C ) :   1.2117 B(  1-N ,  7-H ) :   0.9285
B(  2-C ,  3-N ) :   1.2102 B(  2-C ,  4-C ) :   1.7705 B(  3-N ,  8-H ) :   0.9525
B(  3-N , 12-H ) :   0.9453 B(  4-C ,  5-H ) :   0.9332 B(  4-C ,  6-H ) :   0.9361
B(  9-C , 13-H ) :   0.9681 B(  9-C , 14-H ) :   0.9625 B(  9-C , 15-H ) :   0.9666

FINAL SINGLE POINT ENERGY      -267.560109576909

DIPOLE MOMENT
-------------
                                X             Y             Z
Electronic contribution:      2.55553       0.88824       1.01631
Nuclear contribution   :     -3.31079      -1.42658      -0.45147
                        -----------------------------------------
Total Dipole Moment    :     -0.75526      -0.53834       0.56484
                        -----------------------------------------
Magnitude (a.u.)       :      1.08594
Magnitude (Debye)      :      2.76025

Rotational constants in cm-1:     0.225507     0.077571     0.068070
Rotational constants in MHz :  6760.542142  2325.533779  2040.680522

                             ****ORCA TERMINATED NORMALLY****
TOTAL RUN TIME: 0 days 0 hours 0 minutes 20 seconds 752 msec
