                         Program Version 5.0.0 -  RELEASE  -
|  1> !CAM-B3LYP RIJCOSX def2-TZVP def2/J TightSCF xyzfile
|  2>
|  3> *xyzfile 0 1 D6.xyz
|  4>
|  5> %MaxCore 64000
|  6>
|  7> %pal nprocs 18
|  8> end
|  9>
| 10> %scf
| 11>   MaxIter 150
| 12> end
| 13>
| 14>
| 15>                          ****END OF INPUT****

CARTESIAN COORDINATES (ANGSTROEM)
---------------------------------
  C      3.913853   -1.658291    3.015134
  N      5.039266   -0.901154    2.492821
  C      4.084215    1.742081   -2.114724
  C      4.265245    2.500518   -0.795890
  H      4.868534    3.392674   -0.981134
  H      3.307640    2.824571   -0.387809
  C      4.982240    1.650257    0.247422
  C      6.210384   -1.417261    2.178244
  N      6.535913   -2.677122    2.556078
  C      7.076754   -0.700820    1.478906
  H      7.954643   -1.121554    1.207554
  H      6.756161    0.106637    0.960278
  H      4.842168    0.017609    2.115191
  H      5.993876   -3.126918    3.282784
  H      7.498441   -2.975482    2.468776
  O      4.368065    1.389270    1.313706
  F      6.128919    1.233512   -0.045620
  C      3.139159   -2.376572    1.910609
  H      3.267235   -0.939401    3.520693
  H      4.247195   -2.355095    3.790065
  C      1.997274    0.430918   -1.399218
  C      3.412746    0.376886   -1.965497
  H      4.047407   -0.246590   -1.326706
  H      3.390774   -0.118719   -2.942839
  H      5.068475    1.598504   -2.565728
  H      3.503356    2.363939   -2.804565
  C      2.399946   -1.389579    1.009490
  H      2.440750   -3.087118    2.362976
  H      3.844475   -2.970462    1.318677
  C      2.070177   -1.936705   -0.372401
  H      1.481611   -1.061542    1.509912
  H      3.008628   -0.490001    0.897451
  C      1.322238   -0.935775   -1.256413
  H      1.472747   -2.850902   -0.283997
  H      3.003539   -2.234041   -0.862535
  H      1.376444    1.058920   -2.047420
  H      2.015341    0.929780   -0.426535
  H      0.316648   -0.787213   -0.848278
  H      1.185611   -1.379252   -2.248613

 Total Charge           Charge          ....    0
 Multiplicity           Mult            ....    1
 Number of Electrons    NEL             ....  126
 Basis Dimension        Dim             ....  634

ORBITAL ENERGIES
----------------

  NO   OCC          E(Eh)            E(eV)
   0   2.0000     -24.839784      -675.9249
   1   2.0000     -19.226824      -523.1885
   2   2.0000     -14.368757      -390.9938
   3   2.0000     -14.350371      -390.4935
   4   2.0000     -10.447083      -284.2796
   5   2.0000     -10.282225      -279.7936
   6   2.0000     -10.268807      -279.4284
   7   2.0000     -10.265568      -279.3403
   8   2.0000     -10.261857      -279.2393
   9   2.0000     -10.249454      -278.9018
  10   2.0000     -10.241352      -278.6814
  11   2.0000     -10.237365      -278.5729
  12   2.0000     -10.231708      -278.4189
  13   2.0000     -10.226441      -278.2756
  14   2.0000     -10.226193      -278.2689
  15   2.0000     -10.124404      -275.4991
  16   2.0000      -1.420718       -38.6597
  17   2.0000      -1.142390       -31.0860
  18   2.0000      -1.027821       -27.9684
  19   2.0000      -0.943203       -25.6658
  20   2.0000      -0.920874       -25.0582
  21   2.0000      -0.889077       -24.1930
  22   2.0000      -0.857438       -23.3321
  23   2.0000      -0.820305       -22.3216
  24   2.0000      -0.794209       -21.6115
  25   2.0000      -0.757852       -20.6222
  26   2.0000      -0.751596       -20.4520
  27   2.0000      -0.717735       -19.5306
  28   2.0000      -0.688065       -18.7232
  29   2.0000      -0.670992       -18.2586
  30   2.0000      -0.649572       -17.6758
  31   2.0000      -0.644044       -17.5253
  32   2.0000      -0.639899       -17.4125
  33   2.0000      -0.627166       -17.0661
  34   2.0000      -0.596685       -16.2366
  35   2.0000      -0.580325       -15.7915
  36   2.0000      -0.558721       -15.2036
  37   2.0000      -0.555788       -15.1238
  38   2.0000      -0.544881       -14.8270
  39   2.0000      -0.532767       -14.4973
  40   2.0000      -0.524677       -14.2772
  41   2.0000      -0.505124       -13.7451
  42   2.0000      -0.500967       -13.6320
  43   2.0000      -0.492065       -13.3898
  44   2.0000      -0.485806       -13.2194
  45   2.0000      -0.478828       -13.0296
  46   2.0000      -0.462040       -12.5727
  47   2.0000      -0.452378       -12.3098
  48   2.0000      -0.448425       -12.2023
  49   2.0000      -0.442668       -12.0456
  50   2.0000      -0.434209       -11.8154
  51   2.0000      -0.420666       -11.4469
  52   2.0000      -0.418529       -11.3888
  53   2.0000      -0.408169       -11.1068
  54   2.0000      -0.405187       -11.0257
  55   2.0000      -0.400536       -10.8991
  56   2.0000      -0.389320       -10.5939
  57   2.0000      -0.377249       -10.2655
  58   2.0000      -0.375869       -10.2279
  59   2.0000      -0.371254       -10.1023
  60   2.0000      -0.364900        -9.9294
  61   2.0000      -0.296766        -8.0754
  62   2.0000      -0.199899        -5.4395
  63   0.0000       0.003008         0.0818
  64   0.0000       0.062410         1.6983
  65   0.0000       0.076866         2.0916
  66   0.0000       0.081070         2.2060
  67   0.0000       0.084034         2.2867

MULLIKEN ATOMIC CHARGES
-----------------------
   0 C :   -0.200992
   1 N :   -0.293375
   2 C :   -0.207158
   3 C :   -0.234233
   4 H :    0.144557
   5 H :    0.154212
   6 C :    0.411915
   7 C :    0.341390
   8 N :   -0.478369
   9 C :   -0.522565
  10 H :    0.063405
  11 H :    0.059813
  12 H :    0.251854
  13 H :    0.210737
  14 H :    0.228439
  15 O :   -0.376874
  16 F :   -0.087934
  17 C :   -0.104630
  18 H :    0.120651
  19 H :    0.105558
  20 C :   -0.245189
  21 C :   -0.263285
  22 H :    0.141980
  23 H :    0.113229
  24 H :    0.130509
  25 H :    0.118416
  26 C :   -0.254384
  27 H :    0.090270
  28 H :    0.109217
  29 C :   -0.223784
  30 H :    0.095392
  31 H :    0.101725
  32 C :   -0.175343
  33 H :    0.105057
  34 H :    0.119128
  35 H :    0.105842
  36 H :    0.135247
  37 H :    0.105285
  38 H :    0.104287
Sum of atomic charges:   -0.0000000

LOEWDIN ATOMIC CHARGES
----------------------
   0 C :   -0.293377
   1 N :    0.123358
   2 C :   -0.260498
   3 C :   -0.223501
   4 H :    0.153974
   5 H :    0.153851
   6 C :   -0.467897
   7 C :   -0.457303
   8 N :   -0.031140
   9 C :   -0.370503
  10 H :    0.090841
  11 H :    0.085836
  12 H :    0.167374
  13 H :    0.155941
  14 H :    0.171460
  15 O :    0.072836
  16 F :    0.358061
  17 C :   -0.268565
  18 H :    0.135581
  19 H :    0.122304
  20 C :   -0.269646
  21 C :   -0.265223
  22 H :    0.141595
  23 H :    0.140676
  24 H :    0.142192
  25 H :    0.142166
  26 C :   -0.270708
  27 H :    0.130615
  28 H :    0.140094
  29 C :   -0.271516
  30 H :    0.134707
  31 H :    0.137383
  32 C :   -0.266432
  33 H :    0.135416
  34 H :    0.135402
  35 H :    0.135764
  36 H :    0.137568
  37 H :    0.136404
  38 H :    0.134909

  Mayer bond orders larger than 0.100000
B(  0-C ,  1-N ) :   0.9760 B(  0-C , 17-C ) :   0.8890 B(  0-C , 18-H ) :   0.9898
B(  0-C , 19-H ) :   1.0040 B(  1-N ,  7-C ) :   1.2349 B(  1-N , 12-H ) :   0.8684
B(  2-C ,  3-C ) :   0.9214 B(  2-C , 21-C ) :   0.9415 B(  2-C , 24-H ) :   0.9833
B(  2-C , 25-H ) :   0.9727 B(  3-C ,  4-H ) :   0.9580 B(  3-C ,  5-H ) :   0.9844
B(  3-C ,  6-C ) :   0.9615 B(  6-C , 15-O ) :   1.9118 B(  6-C , 16-F ) :   1.1413
B(  7-C ,  8-N ) :   1.1114 B(  7-C ,  9-C ) :   1.6264 B(  8-N , 13-H ) :   0.9251
B(  8-N , 14-H ) :   0.9304 B(  9-C , 10-H ) :   1.0073 B(  9-C , 11-H ) :   1.0344
B( 12-H , 15-O ) :   0.1065 B( 17-C , 26-C ) :   0.9449 B( 17-C , 27-H ) :   0.9694
B( 17-C , 28-H ) :   0.9778 B( 20-C , 21-C ) :   0.9078 B( 20-C , 32-C ) :   0.9512
B( 20-C , 35-H ) :   0.9752 B( 20-C , 36-H ) :   0.9817 B( 21-C , 22-H ) :   0.9802
B( 21-C , 23-H ) :   0.9767 B( 26-C , 29-C ) :   0.9292 B( 26-C , 30-H ) :   0.9709
B( 26-C , 31-H ) :   0.9925 B( 29-C , 32-C ) :   0.9511 B( 29-C , 33-H ) :   0.9836
B( 29-C , 34-H ) :   0.9859 B( 32-C , 37-H ) :   0.9864 B( 32-C , 38-H ) :   0.9861

FINAL SINGLE POINT ENERGY      -755.565069678985

DIPOLE MOMENT
-------------
                                X             Y             Z
Electronic contribution:     12.40212       8.51983       4.39686
Nuclear contribution   :    -13.25777      -8.13937      -5.31678
                        -----------------------------------------
Total Dipole Moment    :     -0.85565       0.38047      -0.91991
                        -----------------------------------------
Magnitude (a.u.)       :      1.31268
Magnitude (Debye)      :      3.33657

Rotational constants in cm-1:     0.020021     0.013636     0.009443
Rotational constants in MHz :   600.208195   408.782966   283.102361

                             ****ORCA TERMINATED NORMALLY****
TOTAL RUN TIME: 0 days 0 hours 2 minutes 4 seconds 466 msec
