                         Program Version 5.0.0 -  RELEASE  -
|  1> !LC-PBE RIJCOSX def2-TZVP def2/J TightSCF
|  2> *xyz -1 1
|  3> C          4.08422        1.74208       -2.11472
|  4> C          4.26524        2.50052       -0.79589
|  5> H          4.86853        3.39267       -0.98113
|  6> H          3.30764        2.82457       -0.38781
|  7> C          4.98224        1.65026        0.24742
|  8> O          4.36806        1.38927        1.31371
|  9> O          6.12892        1.23351       -0.04562
| 10> H          3.57911        2.36849       -2.81997
| 11> H          3.50424        0.85965       -1.94198
| 12> H          5.04288        1.46841       -2.50327
| 13> *
| 14> %MaxCore 64000
| 15> %pal nprocs 8
| 16> end
| 17> %scf
| 18>   MaxIter 150
| 19> end
| 20>
| 21>
| 22>                          ****END OF INPUT****

CARTESIAN COORDINATES (ANGSTROEM)
---------------------------------
  C      4.084220    1.742080   -2.114720
  C      4.265240    2.500520   -0.795890
  H      4.868530    3.392670   -0.981130
  H      3.307640    2.824570   -0.387810
  C      4.982240    1.650260    0.247420
  O      4.368060    1.389270    1.313710
  O      6.128920    1.233510   -0.045620
  H      3.579110    2.368490   -2.819970
  H      3.504240    0.859650   -1.941980
  H      5.042880    1.468410   -2.503270

 Total Charge           Charge          ....   -1
 Multiplicity           Mult            ....    1
 Number of Electrons    NEL             ....   40
 Basis Dimension        Dim             ....  185

ORBITAL ENERGIES
----------------

  NO   OCC          E(Eh)            E(eV)
   0   2.0000     -18.698326      -508.8073
   1   2.0000     -18.698049      -508.7998
   2   2.0000      -9.994039      -271.9516
   3   2.0000      -9.948781      -270.7201
   4   2.0000      -9.937616      -270.4163
   5   2.0000      -0.980307       -26.6755
   6   2.0000      -0.877040       -23.8655
   7   2.0000      -0.781357       -21.2618
   8   2.0000      -0.636809       -17.3285
   9   2.0000      -0.468446       -12.7471
  10   2.0000      -0.436199       -11.8696
  11   2.0000      -0.399672       -10.8756
  12   2.0000      -0.370232       -10.0745
  13   2.0000      -0.349189        -9.5019
  14   2.0000      -0.342836        -9.3290
  15   2.0000      -0.307909        -8.3786
  16   2.0000      -0.294531        -8.0146
  17   2.0000      -0.169222        -4.6048
  18   2.0000      -0.165604        -4.5063
  19   2.0000      -0.154639        -4.2079
  20   0.0000       0.265862         7.2345
  21   0.0000       0.307928         8.3791
  22   0.0000       0.330313         8.9883
  23   0.0000       0.332018         9.0347
  24   0.0000       0.350832         9.5466

MULLIKEN ATOMIC CHARGES
-----------------------
   0 C :   -0.428548
   1 C :   -0.220282
   2 H :    0.079781
   3 H :    0.087664
   4 C :    0.153702
   5 O :   -0.513930
   6 O :   -0.515030
   7 H :    0.091560
   8 H :    0.125316
   9 H :    0.139766
Sum of atomic charges:   -1.0000000

LOEWDIN ATOMIC CHARGES
----------------------
   0 C :   -0.343638
   1 C :   -0.304054
   2 H :    0.130617
   3 H :    0.127410
   4 C :   -0.713288
   5 O :   -0.121422
   6 O :   -0.116011
   7 H :    0.101570
   8 H :    0.117417
   9 H :    0.121399

  Mayer bond orders larger than 0.100000
B(  0-C ,  1-C ) :   0.9486 B(  0-C ,  7-H ) :   0.9802 B(  0-C ,  8-H ) :   0.9810
B(  0-C ,  9-H ) :   0.9686 B(  1-C ,  2-H ) :   0.9680 B(  1-C ,  3-H ) :   0.9676
B(  1-C ,  4-C ) :   0.9425 B(  4-C ,  5-O ) :   1.8983 B(  4-C ,  6-O ) :   1.8558

FINAL SINGLE POINT ENERGY      -267.152593006063

DIPOLE MOMENT
-------------
                                X             Y             Z
Electronic contribution:      2.40867      -1.44511       5.07950
Nuclear contribution   :     -3.31311       2.28398      -6.76358
                        -----------------------------------------
Total Dipole Moment    :     -0.90445       0.83887      -1.68408
                        -----------------------------------------
Magnitude (a.u.)       :      2.08755
Magnitude (Debye)      :      5.30613

Rotational constants in cm-1:     0.309287     0.135287     0.107346
Rotational constants in MHz :  9272.201029  4055.789113  3218.155789

                             ****ORCA TERMINATED NORMALLY****
TOTAL RUN TIME: 0 days 0 hours 0 minutes 9 seconds 757 msec
