                         Program Version 5.0.0 -  RELEASE  -
|  1> !LC-PBE RIJCOSX def2-TZVP def2/J TightSCF
|  2> *xyz 1 1
|  3> C          3.91385       -1.65829        3.01513
|  4> N          5.03927       -0.90115        2.49282
|  5> C          6.21038       -1.41726        2.17824
|  6> N          6.53591       -2.67712        2.55608
|  7> N          7.07675       -0.70082        1.47891
|  8> H          7.95464       -1.12155        1.20755
|  9> H          6.75616        0.10664        0.96028
| 10> H          4.84217        0.01761        2.11519
| 11> H          5.99388       -3.12692        3.28278
| 12> C          3.13916       -2.37657        1.91061
| 13> H          3.26723       -0.93940        3.52069
| 14> H          4.24720       -2.35509        3.79006
| 15> H          7.49844       -2.97548        2.46878
| 16> H          2.82969       -1.66654        1.17238
| 17> H          2.27790       -2.85264        2.33072
| 18> H          3.76754       -3.11338        1.45548
| 19> *
| 20> %MaxCore 64000
| 21> %pal nprocs 8
| 22> end
| 23> %scf
| 24>   MaxIter 150
| 25> end
| 26>
| 27>
| 28>                          ****END OF INPUT****

CARTESIAN COORDINATES (ANGSTROEM)
---------------------------------
  C      3.913850   -1.658290    3.015130
  N      5.039270   -0.901150    2.492820
  C      6.210380   -1.417260    2.178240
  N      6.535910   -2.677120    2.556080
  N      7.076750   -0.700820    1.478910
  H      7.954640   -1.121550    1.207550
  H      6.756160    0.106640    0.960280
  H      4.842170    0.017610    2.115190
  H      5.993880   -3.126920    3.282780
  C      3.139160   -2.376570    1.910610
  H      3.267230   -0.939400    3.520690
  H      4.247200   -2.355090    3.790060
  H      7.498440   -2.975480    2.468780
  H      2.829690   -1.666540    1.172380
  H      2.277900   -2.852640    2.330720
  H      3.767540   -3.113380    1.455480

 Total Charge           Charge          ....    1
 Multiplicity           Mult            ....    1
 Number of Electrons    NEL             ....   48
 Basis Dimension        Dim             ....  246

ORBITAL ENERGIES
----------------

  NO   OCC          E(Eh)            E(eV)
   0   2.0000     -14.442524      -393.0011
   1   2.0000     -14.438780      -392.8992
   2   2.0000     -14.436182      -392.8285
   3   2.0000     -10.460473      -284.6439
   4   2.0000     -10.324017      -280.9308
   5   2.0000     -10.247116      -278.8382
   6   2.0000      -1.398573       -38.0571
   7   2.0000      -1.281013       -34.8581
   8   2.0000      -1.261729       -34.3334
   9   2.0000      -1.105355       -30.0782
  10   2.0000      -1.002699       -27.2848
  11   2.0000      -0.961666       -26.1683
  12   2.0000      -0.939992       -25.5785
  13   2.0000      -0.894665       -24.3451
  14   2.0000      -0.835605       -22.7380
  15   2.0000      -0.826608       -22.4931
  16   2.0000      -0.803815       -21.8729
  17   2.0000      -0.776806       -21.1380
  18   2.0000      -0.743627       -20.2351
  19   2.0000      -0.702056       -19.1039
  20   2.0000      -0.665225       -18.1017
  21   2.0000      -0.642292       -17.4776
  22   2.0000      -0.612862       -16.6768
  23   2.0000      -0.578684       -15.7468
  24   0.0000      -0.073971        -2.0129
  25   0.0000      -0.064222        -1.7476
  26   0.0000      -0.033795        -0.9196
  27   0.0000      -0.023892        -0.6501
  28   0.0000      -0.000182        -0.0049

MULLIKEN ATOMIC CHARGES
-----------------------
   0 C :   -0.280946
   1 N :   -0.224358
   2 C :    0.380859
   3 N :   -0.430058
   4 N :   -0.414046
   5 H :    0.303718
   6 H :    0.304402
   7 H :    0.278236
   8 H :    0.301138
   9 C :   -0.405280
  10 H :    0.203689
  11 H :    0.161678
  12 H :    0.297000
  13 H :    0.167092
  14 H :    0.193280
  15 H :    0.163596
Sum of atomic charges:    1.0000000

LOEWDIN ATOMIC CHARGES
----------------------
   0 C :   -0.302459
   1 N :    0.171959
   2 C :   -0.403141
   3 N :    0.042625
   4 N :    0.060681
   5 H :    0.203735
   6 H :    0.204130
   7 H :    0.218251
   8 H :    0.198059
   9 C :   -0.304471
  10 H :    0.159610
  11 H :    0.144838
  12 H :    0.199995
  13 H :    0.133039
  14 H :    0.142970
  15 H :    0.130178

  Mayer bond orders larger than 0.100000
B(  0-C ,  1-N ) :   0.8839 B(  0-C ,  9-C ) :   0.9526 B(  0-C , 10-H ) :   0.9561
B(  0-C , 11-H ) :   0.9760 B(  1-N ,  2-C ) :   1.4074 B(  1-N ,  7-H ) :   0.8997
B(  2-C ,  3-N ) :   1.3190 B(  2-C ,  4-N ) :   1.3417 B(  3-N ,  8-H ) :   0.8864
B(  3-N , 12-H ) :   0.8948 B(  4-N ,  5-H ) :   0.8919 B(  4-N ,  6-H ) :   0.8907
B(  9-C , 13-H ) :   0.9621 B(  9-C , 14-H ) :   0.9661 B(  9-C , 15-H ) :   0.9562

FINAL SINGLE POINT ENERGY      -283.601034320403

DIPOLE MOMENT
-------------
                                X             Y             Z
Electronic contribution:      4.72969       1.92438       0.07060
Nuclear contribution   :     -3.67981      -1.62355      -0.28562
                        -----------------------------------------
Total Dipole Moment    :      1.04988       0.30084      -0.21502
                        -----------------------------------------
Magnitude (a.u.)       :      1.11309
Magnitude (Debye)      :      2.82925

Rotational constants in cm-1:     0.222027     0.074735     0.065694
Rotational constants in MHz :  6656.200457  2240.503315  1969.451902

                             ****ORCA TERMINATED NORMALLY****
TOTAL RUN TIME: 0 days 0 hours 0 minutes 18 seconds 27 msec
