                         Program Version 5.0.0 -  RELEASE  -
|  1> !LC-PBE RIJCOSX def2-TZVP def2/J TightSCF
|  2> *xyz 0 1
|  3> C          4.08422        1.74208       -2.11472
|  4> C          4.26524        2.50052       -0.79589
|  5> H          4.86853        3.39267       -0.98113
|  6> H          3.30764        2.82457       -0.38781
|  7> C          4.98224        1.65026        0.24742
|  8> F          4.36806        1.38927        1.31371
|  9> O          6.12892        1.23351       -0.04562
| 10> H          3.57911        2.36849       -2.81997
| 11> H          3.50424        0.85965       -1.94198
| 12> H          5.04288        1.46841       -2.50327
| 13> *
| 14> %MaxCore 64000
| 15> %pal nprocs 8
| 16> end
| 17> %scf
| 18>   MaxIter 150
| 19> end
| 20>
| 21>
| 22>                          ****END OF INPUT****

CARTESIAN COORDINATES (ANGSTROEM)
---------------------------------
  C      4.084220    1.742080   -2.114720
  C      4.265240    2.500520   -0.795890
  H      4.868530    3.392670   -0.981130
  H      3.307640    2.824570   -0.387810
  C      4.982240    1.650260    0.247420
  F      4.368060    1.389270    1.313710
  O      6.128920    1.233510   -0.045620
  H      3.579110    2.368490   -2.819970
  H      3.504240    0.859650   -1.941980
  H      5.042880    1.468410   -2.503270

 Total Charge           Charge          ....    0
 Multiplicity           Mult            ....    1
 Number of Electrons    NEL             ....   40
 Basis Dimension        Dim             ....  185

ORBITAL ENERGIES
----------------

  NO   OCC          E(Eh)            E(eV)
   0   2.0000     -24.560443      -668.3236
   1   2.0000     -18.982823      -516.5489
   2   2.0000     -10.300974      -280.3038
   3   2.0000     -10.149368      -276.1783
   4   2.0000     -10.119139      -275.3558
   5   2.0000      -1.476409       -40.1751
   6   2.0000      -1.199688       -32.6452
   7   2.0000      -0.981469       -26.7071
   8   2.0000      -0.855122       -23.2690
   9   2.0000      -0.797581       -21.7033
  10   2.0000      -0.705838       -19.2068
  11   2.0000      -0.689357       -18.7584
  12   2.0000      -0.660106       -17.9624
  13   2.0000      -0.611591       -16.6422
  14   2.0000      -0.577942       -15.7266
  15   2.0000      -0.538212       -14.6455
  16   2.0000      -0.515105       -14.0167
  17   2.0000      -0.507748       -13.8165
  18   2.0000      -0.481200       -13.0941
  19   2.0000      -0.430594       -11.7171
  20   0.0000       0.068711         1.8697
  21   0.0000       0.120529         3.2798
  22   0.0000       0.158111         4.3024
  23   0.0000       0.172620         4.6972
  24   0.0000       0.185253         5.0410

MULLIKEN ATOMIC CHARGES
-----------------------
   0 C :   -0.451078
   1 C :   -0.284395
   2 H :    0.166499
   3 H :    0.149172
   4 C :    0.315202
   5 F :   -0.071102
   6 O :   -0.306193
   7 H :    0.154738
   8 H :    0.151211
   9 H :    0.175945
Sum of atomic charges:   -0.0000000

LOEWDIN ATOMIC CHARGES
----------------------
   0 C :   -0.307749
   1 C :   -0.275660
   2 H :    0.163406
   3 H :    0.146854
   4 C :   -0.511314
   5 F :    0.330493
   6 O :    0.065366
   7 H :    0.126899
   8 H :    0.127691
   9 H :    0.134015

  Mayer bond orders larger than 0.100000
B(  0-C ,  1-C ) :   0.9588 B(  0-C ,  7-H ) :   0.9720 B(  0-C ,  8-H ) :   0.9700
B(  0-C ,  9-H ) :   0.9619 B(  1-C ,  2-H ) :   0.9460 B(  1-C ,  3-H ) :   0.9633
B(  1-C ,  4-C ) :   0.9770 B(  4-C ,  5-F ) :   1.2043 B(  4-C ,  6-O ) :   2.0674

FINAL SINGLE POINT ENERGY      -291.695767594995

DIPOLE MOMENT
-------------
                                X             Y             Z
Electronic contribution:      1.88573      -2.01586       8.12973
Nuclear contribution   :     -2.87511       2.61564      -8.50037
                        -----------------------------------------
Total Dipole Moment    :     -0.98937       0.59977      -0.37064
                        -----------------------------------------
Magnitude (a.u.)       :      1.21489
Magnitude (Debye)      :      3.08801

Rotational constants in cm-1:     0.297822     0.128965     0.102219
Rotational constants in MHz :  8928.481997  3866.271686  3064.463504

                             ****ORCA TERMINATED NORMALLY****
TOTAL RUN TIME: 0 days 0 hours 0 minutes 10 seconds 149 msec
