                         Program Version 5.0.0 -  RELEASE  -
|  1> !LC-PBE RIJCOSX def2-TZVP def2/J TightSCF
|  2> *xyz 0 1
|  3> C          3.91385       -1.65829        3.01513
|  4> C          5.03927       -0.90115        2.49282
|  5> C          6.21038       -1.41726        2.17824
|  6> N          6.53591       -2.67712        2.55608
|  7> N          7.07675       -0.70082        1.47891
|  8> H          7.95464       -1.12155        1.20755
|  9> H          6.75616        0.10664        0.96028
| 10> H          4.84217        0.01761        2.11519
| 11> H          5.99388       -3.12692        3.28278
| 12> C          3.13916       -2.37657        1.91061
| 13> H          3.26723       -0.93940        3.52069
| 14> H          4.24720       -2.35509        3.79006
| 15> H          7.49844       -2.97548        2.46878
| 16> H          2.82969       -1.66654        1.17238
| 17> H          2.27790       -2.85264        2.33072
| 18> H          3.76754       -3.11338        1.45548
| 19> *
| 20> %MaxCore 64000
| 21> %pal nprocs 8
| 22> end
| 23> %scf
| 24>   MaxIter 150
| 25> end
| 26>
| 27>
| 28>                          ****END OF INPUT****

CARTESIAN COORDINATES (ANGSTROEM)
---------------------------------
  C      3.913850   -1.658290    3.015130
  C      5.039270   -0.901150    2.492820
  C      6.210380   -1.417260    2.178240
  N      6.535910   -2.677120    2.556080
  N      7.076750   -0.700820    1.478910
  H      7.954640   -1.121550    1.207550
  H      6.756160    0.106640    0.960280
  H      4.842170    0.017610    2.115190
  H      5.993880   -3.126920    3.282780
  C      3.139160   -2.376570    1.910610
  H      3.267230   -0.939400    3.520690
  H      4.247200   -2.355090    3.790060
  H      7.498440   -2.975480    2.468780
  H      2.829690   -1.666540    1.172380
  H      2.277900   -2.852640    2.330720
  H      3.767540   -3.113380    1.455480

 Total Charge           Charge          ....    0
 Multiplicity           Mult            ....    1
 Number of Electrons    NEL             ....   48
 Basis Dimension        Dim             ....  246

ORBITAL ENERGIES
----------------

  NO   OCC          E(Eh)            E(eV)
   0   2.0000     -14.211749      -386.7214
   1   2.0000     -14.209454      -386.6589
   2   2.0000     -10.160179      -276.4725
   3   2.0000     -10.087971      -274.5077
   4   2.0000     -10.074221      -274.1335
   5   2.0000     -10.032817      -273.0068
   6   2.0000      -1.136320       -30.9208
   7   2.0000      -1.037045       -28.2194
   8   2.0000      -0.951276       -25.8855
   9   2.0000      -0.861192       -23.4342
  10   2.0000      -0.775973       -21.1153
  11   2.0000      -0.729107       -19.8400
  12   2.0000      -0.687888       -18.7184
  13   2.0000      -0.656535       -17.8652
  14   2.0000      -0.609958       -16.5978
  15   2.0000      -0.578653       -15.7460
  16   2.0000      -0.563204       -15.3255
  17   2.0000      -0.531483       -14.4624
  18   2.0000      -0.517191       -14.0735
  19   2.0000      -0.488382       -13.2895
  20   2.0000      -0.455942       -12.4068
  21   2.0000      -0.444588       -12.0979
  22   2.0000      -0.400579       -10.9003
  23   2.0000      -0.275929        -7.5084
  24   0.0000       0.106277         2.8920
  25   0.0000       0.137113         3.7310
  26   0.0000       0.142282         3.8717
  27   0.0000       0.166647         4.5347
  28   0.0000       0.170376         4.6362

MULLIKEN ATOMIC CHARGES
-----------------------
   0 C :   -0.299017
   1 C :   -0.419895
   2 C :    0.344759
   3 N :   -0.507067
   4 N :   -0.494525
   5 H :    0.238191
   6 H :    0.265027
   7 H :    0.124933
   8 H :    0.260638
   9 C :   -0.389169
  10 H :    0.133822
  11 H :    0.096168
  12 H :    0.236004
  13 H :    0.136037
  14 H :    0.132642
  15 H :    0.141452
Sum of atomic charges:    0.0000000

LOEWDIN ATOMIC CHARGES
----------------------
   0 C :   -0.323459
   1 C :   -0.292678
   2 C :   -0.461340
   3 N :   -0.036844
   4 N :   -0.022202
   5 H :    0.167408
   6 H :    0.183050
   7 H :    0.127241
   8 H :    0.177008
   9 C :   -0.322474
  10 H :    0.146356
  11 H :    0.132359
  12 H :    0.165429
  13 H :    0.122124
  14 H :    0.115716
  15 H :    0.122306

  Mayer bond orders larger than 0.100000
B(  0-C ,  1-C ) :   1.0068 B(  0-C ,  9-C ) :   0.9248 B(  0-C , 10-H ) :   0.9985
B(  0-C , 11-H ) :   0.9883 B(  1-C ,  2-C ) :   1.6646 B(  1-C ,  7-H ) :   1.0151
B(  2-C ,  3-N ) :   1.1249 B(  2-C ,  4-N ) :   1.1379 B(  3-N ,  8-H ) :   0.9168
B(  3-N , 12-H ) :   0.9281 B(  4-N ,  5-H ) :   0.9291 B(  4-N ,  6-H ) :   0.9180
B(  9-C , 13-H ) :   0.9772 B(  9-C , 14-H ) :   0.9841 B(  9-C , 15-H ) :   0.9726

FINAL SINGLE POINT ENERGY      -267.135884725856

DIPOLE MOMENT
-------------
                                X             Y             Z
Electronic contribution:      4.66558       1.20462      -0.04895
Nuclear contribution   :     -3.74303      -1.46908      -0.23637
                        -----------------------------------------
Total Dipole Moment    :      0.92255      -0.26446      -0.28532
                        -----------------------------------------
Magnitude (a.u.)       :      1.00122
Magnitude (Debye)      :      2.54490

Rotational constants in cm-1:     0.225937     0.074877     0.065953
Rotational constants in MHz :  6773.424301  2244.750632  1977.214101

                             ****ORCA TERMINATED NORMALLY****
TOTAL RUN TIME: 0 days 0 hours 0 minutes 23 seconds 108 msec
