                         Program Version 5.0.0 -  RELEASE  -
|  1> !LC-PBE RIJCOSX def2-TZVP def2/J TightSCF
|  2> *xyz 0 1
|  3> C          4.08422        1.74208       -2.11472
|  4> C          4.26524        2.50052       -0.79589
|  5> H          4.86853        3.39267       -0.98113
|  6> H          3.30764        2.82457       -0.38781
|  7> C          4.98224        1.65026        0.24742
|  8> O          4.36806        1.38927        1.31371
|  9> F          6.12892        1.23351       -0.04562
| 10> H          3.57911        2.36849       -2.81997
| 11> H          3.50424        0.85965       -1.94198
| 12> H          5.04288        1.46841       -2.50327
| 13> *
| 14> %MaxCore 64000
| 15> %pal nprocs 8
| 16> end
| 17> %scf
| 18>   MaxIter 150
| 19> end
| 20>
| 21>
| 22>                          ****END OF INPUT****

CARTESIAN COORDINATES (ANGSTROEM)
---------------------------------
  C      4.084220    1.742080   -2.114720
  C      4.265240    2.500520   -0.795890
  H      4.868530    3.392670   -0.981130
  H      3.307640    2.824570   -0.387810
  C      4.982240    1.650260    0.247420
  O      4.368060    1.389270    1.313710
  F      6.128920    1.233510   -0.045620
  H      3.579110    2.368490   -2.819970
  H      3.504240    0.859650   -1.941980
  H      5.042880    1.468410   -2.503270

 Total Charge           Charge          ....    0
 Multiplicity           Mult            ....    1
 Number of Electrons    NEL             ....   40
 Basis Dimension        Dim             ....  185

ORBITAL ENERGIES
----------------

  NO   OCC          E(Eh)            E(eV)
   0   2.0000     -24.561576      -668.3545
   1   2.0000     -18.982230      -516.5327
   2   2.0000     -10.300481      -280.2903
   3   2.0000     -10.149066      -276.1701
   4   2.0000     -10.123983      -275.4876
   5   2.0000      -1.478910       -40.2432
   6   2.0000      -1.196580       -32.5606
   7   2.0000      -0.985815       -26.8254
   8   2.0000      -0.852330       -23.1931
   9   2.0000      -0.803454       -21.8631
  10   2.0000      -0.708976       -19.2922
  11   2.0000      -0.695568       -18.9274
  12   2.0000      -0.652352       -17.7514
  13   2.0000      -0.611765       -16.6470
  14   2.0000      -0.578298       -15.7363
  15   2.0000      -0.542421       -14.7600
  16   2.0000      -0.520692       -14.1688
  17   2.0000      -0.509885       -13.8747
  18   2.0000      -0.485271       -13.2049
  19   2.0000      -0.425232       -11.5711
  20   0.0000       0.072447         1.9714
  21   0.0000       0.116703         3.1757
  22   0.0000       0.156451         4.2573
  23   0.0000       0.174418         4.7462
  24   0.0000       0.189189         5.1481

MULLIKEN ATOMIC CHARGES
-----------------------
   0 C :   -0.454039
   1 C :   -0.279895
   2 H :    0.154404
   3 H :    0.171787
   4 C :    0.306215
   5 O :   -0.306166
   6 F :   -0.070788
   7 H :    0.158836
   8 H :    0.162046
   9 H :    0.157600
Sum of atomic charges:    0.0000000

LOEWDIN ATOMIC CHARGES
----------------------
   0 C :   -0.313816
   1 C :   -0.271092
   2 H :    0.156040
   3 H :    0.159585
   4 C :   -0.514597
   5 O :    0.059127
   6 F :    0.337919
   7 H :    0.128747
   8 H :    0.130177
   9 H :    0.127910

  Mayer bond orders larger than 0.100000
B(  0-C ,  1-C ) :   0.9483 B(  0-C ,  7-H ) :   0.9716 B(  0-C ,  8-H ) :   0.9666
B(  0-C ,  9-H ) :   0.9661 B(  1-C ,  2-H ) :   0.9466 B(  1-C ,  3-H ) :   0.9632
B(  1-C ,  4-C ) :   0.9924 B(  4-C ,  5-O ) :   2.0857 B(  4-C ,  6-F ) :   1.1939

FINAL SINGLE POINT ENERGY      -291.695015078656

DIPOLE MOMENT
-------------
                                X             Y             Z
Electronic contribution:      4.84052      -2.26774       5.81748
Nuclear contribution   :     -4.79499       2.78546      -7.01827
                        -----------------------------------------
Total Dipole Moment    :      0.04552       0.51772      -1.20079
                        -----------------------------------------
Magnitude (a.u.)       :      1.30843
Magnitude (Debye)      :      3.32578

Rotational constants in cm-1:     0.286098     0.133492     0.103343
Rotational constants in MHz :  8577.003657  4001.981591  3098.148068

                             ****ORCA TERMINATED NORMALLY****
TOTAL RUN TIME: 0 days 0 hours 0 minutes 16 seconds 365 msec
