                         Program Version 5.0.0 -  RELEASE  -
|  1> !LC-PBE RIJCOSX def2-TZVP def2/J TightSCF
|  2> *xyz 0 1
|  3> C          3.91385       -1.65829        3.01513
|  4> N          5.03927       -0.90115        2.49282
|  5> C          6.21038       -1.41726        2.17824
|  6> C          6.53591       -2.67712        2.55608
|  7> N          7.07675       -0.70082        1.47891
|  8> H          7.95464       -1.12155        1.20755
|  9> H          6.75616        0.10664        0.96028
| 10> H          4.84217        0.01761        2.11519
| 11> H          5.99388       -3.12692        3.28278
| 12> C          3.13916       -2.37657        1.91061
| 13> H          3.26723       -0.93940        3.52069
| 14> H          4.24720       -2.35509        3.79006
| 15> H          7.49844       -2.97548        2.46878
| 16> H          2.82969       -1.66654        1.17238
| 17> H          2.27790       -2.85264        2.33072
| 18> H          3.76754       -3.11338        1.45548
| 19> *
| 20> %MaxCore 64000
| 21> %pal nprocs 8
| 22> end
| 23> %scf
| 24>   MaxIter 150
| 25> end
| 26>
| 27>
| 28>                          ****END OF INPUT****

CARTESIAN COORDINATES (ANGSTROEM)
---------------------------------
  C      3.913850   -1.658290    3.015130
  N      5.039270   -0.901150    2.492820
  C      6.210380   -1.417260    2.178240
  C      6.535910   -2.677120    2.556080
  N      7.076750   -0.700820    1.478910
  H      7.954640   -1.121550    1.207550
  H      6.756160    0.106640    0.960280
  H      4.842170    0.017610    2.115190
  H      5.993880   -3.126920    3.282780
  C      3.139160   -2.376570    1.910610
  H      3.267230   -0.939400    3.520690
  H      4.247200   -2.355090    3.790060
  H      7.498440   -2.975480    2.468780
  H      2.829690   -1.666540    1.172380
  H      2.277900   -2.852640    2.330720
  H      3.767540   -3.113380    1.455480

 Total Charge           Charge          ....    0
 Multiplicity           Mult            ....    1
 Number of Electrons    NEL             ....   48
 Basis Dimension        Dim             ....  246

ORBITAL ENERGIES
----------------

  NO   OCC          E(Eh)            E(eV)
   0   2.0000     -14.218972      -386.9179
   1   2.0000     -14.214276      -386.7901
   2   2.0000     -10.168582      -276.7012
   3   2.0000     -10.147726      -276.1337
   4   2.0000     -10.092749      -274.6377
   5   2.0000     -10.020881      -272.6820
   6   2.0000      -1.151819       -31.3426
   7   2.0000      -1.061336       -28.8804
   8   2.0000      -0.926985       -25.2245
   9   2.0000      -0.874945       -23.8085
  10   2.0000      -0.804381       -21.8883
  11   2.0000      -0.716739       -19.5034
  12   2.0000      -0.700996       -19.0751
  13   2.0000      -0.666997       -18.1499
  14   2.0000      -0.610498       -16.6125
  15   2.0000      -0.581740       -15.8300
  16   2.0000      -0.563335       -15.3291
  17   2.0000      -0.534948       -14.5567
  18   2.0000      -0.512072       -13.9342
  19   2.0000      -0.502388       -13.6707
  20   2.0000      -0.497230       -13.5303
  21   2.0000      -0.472841       -12.8667
  22   2.0000      -0.382349       -10.4042
  23   2.0000      -0.280988        -7.6461
  24   0.0000       0.104550         2.8449
  25   0.0000       0.135111         3.6766
  26   0.0000       0.149132         4.0581
  27   0.0000       0.159610         4.3432
  28   0.0000       0.175208         4.7676

MULLIKEN ATOMIC CHARGES
-----------------------
   0 C :   -0.228763
   1 N :   -0.295234
   2 C :    0.323586
   3 C :   -0.613054
   4 N :   -0.488684
   5 H :    0.269836
   6 H :    0.237641
   7 H :    0.217444
   8 H :    0.116146
   9 C :   -0.399190
  10 H :    0.147454
  11 H :    0.154835
  12 H :    0.112636
  13 H :    0.126292
  14 H :    0.142162
  15 H :    0.176894
Sum of atomic charges:   -0.0000000

LOEWDIN ATOMIC CHARGES
----------------------
   0 C :   -0.317012
   1 N :    0.115336
   2 C :   -0.471444
   3 C :   -0.377896
   4 N :   -0.015750
   5 H :    0.184892
   6 H :    0.167298
   7 H :    0.185735
   8 H :    0.100802
   9 C :   -0.325316
  10 H :    0.137044
  11 H :    0.143538
  12 H :    0.098745
  13 H :    0.119177
  14 H :    0.123321
  15 H :    0.131529

  Mayer bond orders larger than 0.100000
B(  0-C ,  1-N ) :   0.9286 B(  0-C ,  9-C ) :   0.9463 B(  0-C , 10-H ) :   0.9786
B(  0-C , 11-H ) :   0.9769 B(  1-N ,  2-C ) :   1.1969 B(  1-N ,  7-H ) :   0.9329
B(  2-C ,  3-C ) :   1.6293 B(  2-C ,  4-N ) :   1.1502 B(  3-C ,  8-H ) :   1.0112
B(  3-C , 12-H ) :   1.0019 B(  4-N ,  5-H ) :   0.9187 B(  4-N ,  6-H ) :   0.9243
B(  9-C , 13-H ) :   0.9738 B(  9-C , 14-H ) :   0.9762 B(  9-C , 15-H ) :   0.9637

FINAL SINGLE POINT ENERGY      -267.124981354790

DIPOLE MOMENT
-------------
                                X             Y             Z
Electronic contribution:      3.05315       2.88184      -0.24389
Nuclear contribution   :     -3.42552      -1.84584      -0.22295
                        -----------------------------------------
Total Dipole Moment    :     -0.37238       1.03600      -0.46684
                        -----------------------------------------
Magnitude (a.u.)       :      1.19578
Magnitude (Debye)      :      3.03944

Rotational constants in cm-1:     0.233526     0.075277     0.067092
Rotational constants in MHz :  7000.931279  2256.752901  2011.361214

                             ****ORCA TERMINATED NORMALLY****
TOTAL RUN TIME: 0 days 0 hours 0 minutes 27 seconds 258 msec
