                         Program Version 5.0.0 -  RELEASE  -
|  1> !LC-PBE RIJCOSX def2-TZVP def2/J TightSCF
|  2> *xyz 0 1
|  3> C          3.91385       -1.65829        3.01513
|  4> N          5.03927       -0.90115        2.49282
|  5> C          6.21038       -1.41726        2.17824
|  6> N          6.53591       -2.67712        2.55608
|  7> C          7.07675       -0.70082        1.47891
|  8> H          7.95464       -1.12155        1.20755
|  9> H          6.75616        0.10664        0.96028
| 10> H          4.84217        0.01761        2.11519
| 11> H          5.99388       -3.12692        3.28278
| 12> C          3.13916       -2.37657        1.91061
| 13> H          3.26723       -0.93940        3.52069
| 14> H          4.24720       -2.35509        3.79006
| 15> H          7.49844       -2.97548        2.46878
| 16> H          2.82969       -1.66654        1.17238
| 17> H          2.27790       -2.85264        2.33072
| 18> H          3.76754       -3.11338        1.45548
| 19> *
| 20> %MaxCore 64000
| 21> %pal nprocs 8
| 22> end
| 23> %scf
| 24>   MaxIter 150
| 25> end
| 26>
| 27>
| 28>                          ****END OF INPUT****

CARTESIAN COORDINATES (ANGSTROEM)
---------------------------------
  C      3.913850   -1.658290    3.015130
  N      5.039270   -0.901150    2.492820
  C      6.210380   -1.417260    2.178240
  N      6.535910   -2.677120    2.556080
  C      7.076750   -0.700820    1.478910
  H      7.954640   -1.121550    1.207550
  H      6.756160    0.106640    0.960280
  H      4.842170    0.017610    2.115190
  H      5.993880   -3.126920    3.282780
  C      3.139160   -2.376570    1.910610
  H      3.267230   -0.939400    3.520690
  H      4.247200   -2.355090    3.790060
  H      7.498440   -2.975480    2.468780
  H      2.829690   -1.666540    1.172380
  H      2.277900   -2.852640    2.330720
  H      3.767540   -3.113380    1.455480

 Total Charge           Charge          ....    0
 Multiplicity           Mult            ....    1
 Number of Electrons    NEL             ....   48
 Basis Dimension        Dim             ....  246

ORBITAL ENERGIES
----------------

  NO   OCC          E(Eh)            E(eV)
   0   2.0000     -14.215107      -386.8127
   1   2.0000     -14.211972      -386.7274
   2   2.0000     -10.165208      -276.6094
   3   2.0000     -10.156608      -276.3754
   4   2.0000     -10.100778      -274.8562
   5   2.0000     -10.020129      -272.6616
   6   2.0000      -1.147040       -31.2125
   7   2.0000      -1.052995       -28.6534
   8   2.0000      -0.946440       -25.7539
   9   2.0000      -0.870987       -23.7008
  10   2.0000      -0.791644       -21.5417
  11   2.0000      -0.753980       -20.5168
  12   2.0000      -0.684747       -18.6329
  13   2.0000      -0.644802       -17.5460
  14   2.0000      -0.617448       -16.8016
  15   2.0000      -0.581396       -15.8206
  16   2.0000      -0.576943       -15.6994
  17   2.0000      -0.543571       -14.7913
  18   2.0000      -0.515512       -14.0278
  19   2.0000      -0.504487       -13.7278
  20   2.0000      -0.495945       -13.4953
  21   2.0000      -0.485841       -13.2204
  22   2.0000      -0.386703       -10.5227
  23   2.0000      -0.280804        -7.6411
  24   0.0000       0.107367         2.9216
  25   0.0000       0.132089         3.5943
  26   0.0000       0.144516         3.9325
  27   0.0000       0.159028         4.3274
  28   0.0000       0.173862         4.7310

MULLIKEN ATOMIC CHARGES
-----------------------
   0 C :   -0.258133
   1 N :   -0.284328
   2 C :    0.342816
   3 N :   -0.508106
   4 C :   -0.606566
   5 H :    0.111684
   6 H :    0.119721
   7 H :    0.245562
   8 H :    0.239511
   9 C :   -0.382462
  10 H :    0.153328
  11 H :    0.128109
  12 H :    0.262701
  13 H :    0.139525
  14 H :    0.141122
  15 H :    0.155517
Sum of atomic charges:   -0.0000000

LOEWDIN ATOMIC CHARGES
----------------------
   0 C :   -0.333361
   1 N :    0.118322
   2 C :   -0.464347
   3 N :   -0.032318
   4 C :   -0.358152
   5 H :    0.101936
   6 H :    0.102340
   7 H :    0.201766
   8 H :    0.163873
   9 C :   -0.326062
  10 H :    0.139715
  11 H :    0.131913
  12 H :    0.181108
  13 H :    0.123633
  14 H :    0.122721
  15 H :    0.126912

  Mayer bond orders larger than 0.100000
B(  0-C ,  1-N ) :   0.9519 B(  0-C ,  9-C ) :   0.9350 B(  0-C , 10-H ) :   0.9803
B(  0-C , 11-H ) :   0.9894 B(  1-N ,  2-C ) :   1.2017 B(  1-N ,  7-H ) :   0.9247
B(  2-C ,  3-N ) :   1.1239 B(  2-C ,  4-C ) :   1.6392 B(  3-N ,  8-H ) :   0.9214
B(  3-N , 12-H ) :   0.9214 B(  4-C ,  5-H ) :   1.0164 B(  4-C ,  6-H ) :   1.0068
B(  9-C , 13-H ) :   0.9715 B(  9-C , 14-H ) :   0.9744 B(  9-C , 15-H ) :   0.9655

FINAL SINGLE POINT ENERGY      -267.125366999613

DIPOLE MOMENT
-------------
                                X             Y             Z
Electronic contribution:      2.50362       0.89817       0.98594
Nuclear contribution   :     -3.31079      -1.42658      -0.45147
                        -----------------------------------------
Total Dipole Moment    :     -0.80717      -0.52841       0.53447
                        -----------------------------------------
Magnitude (a.u.)       :      1.10291
Magnitude (Debye)      :      2.80337

Rotational constants in cm-1:     0.225507     0.077571     0.068070
Rotational constants in MHz :  6760.542142  2325.533779  2040.680522

                             ****ORCA TERMINATED NORMALLY****
TOTAL RUN TIME: 0 days 0 hours 0 minutes 21 seconds 756 msec
