                         Program Version 5.0.0 -  RELEASE  -
|  1> !LC-PBE RIJCOSX def2-TZVP def2/J TightSCF xyzfile
|  2>
|  3> *xyzfile 0 1 D2.xyz
|  4>
|  5> %MaxCore 64000
|  6>
|  7> %pal nprocs 18
|  8> end
|  9>
| 10> %scf
| 11>   MaxIter 150
| 12> end
| 13>
| 14>
| 15>                          ****END OF INPUT****

CARTESIAN COORDINATES (ANGSTROEM)
---------------------------------
  C      3.913853   -1.658291    3.015134
  N      5.039266   -0.901154    2.492821
  C      4.084215    1.742081   -2.114724
  C      4.265245    2.500518   -0.795890
  H      4.868534    3.392674   -0.981134
  H      3.307640    2.824571   -0.387809
  C      4.982240    1.650257    0.247422
  C      6.210384   -1.417261    2.178244
  C      6.535913   -2.677122    2.556078
  N      7.076754   -0.700820    1.478906
  H      7.954643   -1.121554    1.207554
  H      6.756161    0.106637    0.960278
  H      4.842168    0.017609    2.115191
  H      5.993876   -3.126918    3.282784
  H      7.498441   -2.975482    2.468776
  F      4.368065    1.389270    1.313706
  O      6.128919    1.233512   -0.045620
  C      3.139159   -2.376572    1.910609
  H      3.267235   -0.939401    3.520693
  H      4.247195   -2.355095    3.790065
  C      1.997274    0.430918   -1.399218
  C      3.412746    0.376886   -1.965497
  H      4.047407   -0.246590   -1.326706
  H      3.390774   -0.118719   -2.942839
  H      5.068475    1.598504   -2.565728
  H      3.503356    2.363939   -2.804565
  C      2.399946   -1.389579    1.009490
  H      2.440750   -3.087118    2.362976
  H      3.844475   -2.970462    1.318677
  C      2.070177   -1.936705   -0.372401
  H      1.481611   -1.061542    1.509912
  H      3.008628   -0.490001    0.897451
  C      1.322238   -0.935775   -1.256413
  H      1.472747   -2.850902   -0.283997
  H      3.003539   -2.234041   -0.862535
  H      1.376444    1.058920   -2.047420
  H      2.015341    0.929780   -0.426535
  H      0.316648   -0.787213   -0.848278
  H      1.185611   -1.379252   -2.248613

 Total Charge           Charge          ....    0
 Multiplicity           Mult            ....    1
 Number of Electrons    NEL             ....  126
 Basis Dimension        Dim             ....  634

ORBITAL ENERGIES
----------------

  NO   OCC          E(Eh)            E(eV)
   0   2.0000     -24.605113      -669.5392
   1   2.0000     -19.023443      -517.6542
   2   2.0000     -14.195906      -386.2902
   3   2.0000     -14.170925      -385.6105
   4   2.0000     -10.340274      -281.3732
   5   2.0000     -10.167736      -276.6782
   6   2.0000     -10.145291      -276.0674
   7   2.0000     -10.144439      -276.0442
   8   2.0000     -10.134851      -275.7833
   9   2.0000     -10.127693      -275.5885
  10   2.0000     -10.122708      -275.4529
  11   2.0000     -10.116072      -275.2723
  12   2.0000     -10.109442      -275.0919
  13   2.0000     -10.108143      -275.0565
  14   2.0000     -10.098907      -274.8052
  15   2.0000     -10.000145      -272.1178
  16   2.0000      -1.523877       -41.4668
  17   2.0000      -1.245150       -33.8823
  18   2.0000      -1.128719       -30.7140
  19   2.0000      -1.037406       -28.2293
  20   2.0000      -1.027063       -27.9478
  21   2.0000      -0.993877       -27.0448
  22   2.0000      -0.954752       -25.9801
  23   2.0000      -0.917404       -24.9638
  24   2.0000      -0.883627       -24.0447
  25   2.0000      -0.860896       -23.4262
  26   2.0000      -0.845208       -22.9993
  27   2.0000      -0.821671       -22.3588
  28   2.0000      -0.783037       -21.3075
  29   2.0000      -0.760575       -20.6963
  30   2.0000      -0.749415       -20.3926
  31   2.0000      -0.736998       -20.0547
  32   2.0000      -0.726265       -19.7627
  33   2.0000      -0.705814       -19.2062
  34   2.0000      -0.685706       -18.6590
  35   2.0000      -0.662098       -18.0166
  36   2.0000      -0.646639       -17.5959
  37   2.0000      -0.638571       -17.3764
  38   2.0000      -0.635635       -17.2965
  39   2.0000      -0.615211       -16.7407
  40   2.0000      -0.599117       -16.3028
  41   2.0000      -0.591957       -16.1080
  42   2.0000      -0.576265       -15.6810
  43   2.0000      -0.572528       -15.5793
  44   2.0000      -0.558974       -15.2105
  45   2.0000      -0.549762       -14.9598
  46   2.0000      -0.541715       -14.7408
  47   2.0000      -0.528096       -14.3702
  48   2.0000      -0.519215       -14.1286
  49   2.0000      -0.512340       -13.9415
  50   2.0000      -0.506413       -13.7802
  51   2.0000      -0.495856       -13.4929
  52   2.0000      -0.491752       -13.3812
  53   2.0000      -0.482687       -13.1346
  54   2.0000      -0.475957       -12.9514
  55   2.0000      -0.467557       -12.7229
  56   2.0000      -0.456343       -12.4177
  57   2.0000      -0.446654       -12.1541
  58   2.0000      -0.444070       -12.0837
  59   2.0000      -0.441504       -12.0139
  60   2.0000      -0.437242       -11.8980
  61   2.0000      -0.356380        -9.6976
  62   2.0000      -0.260054        -7.0764
  63   0.0000       0.032347         0.8802
  64   0.0000       0.101695         2.7673
  65   0.0000       0.121069         3.2944
  66   0.0000       0.123248         3.3538
  67   0.0000       0.129350         3.5198

MULLIKEN ATOMIC CHARGES
-----------------------
   0 C :   -0.297896
   1 N :   -0.298221
   2 C :   -0.270098
   3 C :   -0.345590
   4 H :    0.197547
   5 H :    0.197285
   6 C :    0.351436
   7 C :    0.322016
   8 C :   -0.641034
   9 N :   -0.492499
  10 H :    0.252590
  11 H :    0.249796
  12 H :    0.220664
  13 H :    0.109748
  14 H :    0.108094
  15 F :   -0.088374
  16 O :   -0.316760
  17 C :   -0.204193
  18 H :    0.161290
  19 H :    0.178669
  20 C :   -0.356047
  21 C :   -0.387291
  22 H :    0.200581
  23 H :    0.167663
  24 H :    0.185171
  25 H :    0.164203
  26 C :   -0.282339
  27 H :    0.142277
  28 H :    0.186288
  29 C :   -0.358176
  30 H :    0.153099
  31 H :    0.065966
  32 C :   -0.254095
  33 H :    0.158110
  34 H :    0.179661
  35 H :    0.160055
  36 H :    0.170428
  37 H :    0.154878
  38 H :    0.155104
Sum of atomic charges:   -0.0000000

LOEWDIN ATOMIC CHARGES
----------------------
   0 C :   -0.296553
   1 N :    0.113721
   2 C :   -0.271512
   3 C :   -0.242970
   4 H :    0.170356
   5 H :    0.154121
   6 C :   -0.488789
   7 C :   -0.474375
   8 C :   -0.394451
   9 N :   -0.019293
  10 H :    0.178019
  11 H :    0.136406
  12 H :    0.164502
  13 H :    0.097433
  14 H :    0.096398
  15 F :    0.350095
  16 O :    0.100272
  17 C :   -0.281067
  18 H :    0.139954
  19 H :    0.145592
  20 C :   -0.290487
  21 C :   -0.284132
  22 H :    0.151929
  23 H :    0.151945
  24 H :    0.156269
  25 H :    0.151684
  26 C :   -0.291690
  27 H :    0.143133
  28 H :    0.156897
  29 C :   -0.288641
  30 H :    0.144523
  31 H :    0.133063
  32 C :   -0.284953
  33 H :    0.147165
  34 H :    0.147009
  35 H :    0.146484
  36 H :    0.140061
  37 H :    0.146090
  38 H :    0.145790

  Mayer bond orders larger than 0.100000
B(  0-C ,  1-N ) :   0.9517 B(  0-C , 17-C ) :   0.9023 B(  0-C , 18-H ) :   0.9892
B(  0-C , 19-H ) :   0.9920 B(  1-N ,  7-C ) :   1.1945 B(  1-N , 12-H ) :   0.9154
B(  2-C ,  3-C ) :   0.9186 B(  2-C , 21-C ) :   0.9505 B(  2-C , 24-H ) :   0.9749
B(  2-C , 25-H ) :   0.9731 B(  3-C ,  4-H ) :   0.9511 B(  3-C ,  5-H ) :   0.9748
B(  3-C ,  6-C ) :   0.9481 B(  6-C , 15-F ) :   1.1330 B(  6-C , 16-O ) :   1.9623
B(  7-C ,  8-C ) :   1.5968 B(  7-C ,  9-N ) :   1.1806 B(  8-C , 13-H ) :   1.0055
B(  8-C , 14-H ) :   1.0057 B(  9-N , 10-H ) :   0.9282 B(  9-N , 11-H ) :   0.8686
B( 11-H , 16-O ) :   0.1019 B( 17-C , 26-C ) :   0.9409 B( 17-C , 27-H ) :   0.9769
B( 17-C , 28-H ) :   0.9730 B( 20-C , 21-C ) :   0.8782 B( 20-C , 32-C ) :   0.9454
B( 20-C , 35-H ) :   0.9736 B( 20-C , 36-H ) :   0.9809 B( 21-C , 22-H ) :   0.9671
B( 21-C , 23-H ) :   0.9723 B( 26-C , 29-C ) :   0.9134 B( 26-C , 30-H ) :   0.9665
B( 26-C , 31-H ) :   0.9818 B( 29-C , 32-C ) :   0.9348 B( 29-C , 33-H ) :   0.9818
B( 29-C , 34-H ) :   0.9859 B( 32-C , 37-H ) :   0.9913 B( 32-C , 38-H ) :   0.9894

FINAL SINGLE POINT ENERGY      -753.559330608335

DIPOLE MOMENT
-------------
                                X             Y             Z
Electronic contribution:      9.69997      10.61547       5.47795
Nuclear contribution   :    -11.22009      -8.67117      -6.77523
                        -----------------------------------------
Total Dipole Moment    :     -1.52012       1.94430      -1.29728
                        -----------------------------------------
Magnitude (a.u.)       :      2.78819
Magnitude (Debye)      :      7.08701

Rotational constants in cm-1:     0.020086     0.013778     0.009581
Rotational constants in MHz :   602.172053   413.051122   287.243919

                             ****ORCA TERMINATED NORMALLY****
TOTAL RUN TIME: 0 days 0 hours 1 minutes 43 seconds 654 msec
