                         Program Version 5.0.0 -  RELEASE  -
|  1> !LC-PBE RIJCOSX def2-TZVP def2/J TightSCF xyzfile
|  2>
|  3> *xyzfile 0 1 D3.xyz
|  4>
|  5> %MaxCore 64000
|  6>
|  7> %pal nprocs 18
|  8> end
|  9>
| 10> %scf
| 11>   MaxIter 150
| 12> end
| 13>
| 14>
| 15>                          ****END OF INPUT****

CARTESIAN COORDINATES (ANGSTROEM)
---------------------------------
  C      3.913853   -1.658291    3.015134
  N      5.039266   -0.901154    2.492821
  C      4.084215    1.742081   -2.114724
  C      4.265245    2.500518   -0.795890
  H      4.868534    3.392674   -0.981134
  H      3.307640    2.824571   -0.387809
  C      4.982240    1.650257    0.247422
  C      6.210384   -1.417261    2.178244
  N      6.535913   -2.677122    2.556078
  C      7.076754   -0.700820    1.478906
  H      7.954643   -1.121554    1.207554
  H      6.756161    0.106637    0.960278
  H      4.842168    0.017609    2.115191
  H      5.993876   -3.126918    3.282784
  H      7.498441   -2.975482    2.468776
  F      4.368065    1.389270    1.313706
  O      6.128919    1.233512   -0.045620
  C      3.139159   -2.376572    1.910609
  H      3.267235   -0.939401    3.520693
  H      4.247195   -2.355095    3.790065
  C      1.997274    0.430918   -1.399218
  C      3.412746    0.376886   -1.965497
  H      4.047407   -0.246590   -1.326706
  H      3.390774   -0.118719   -2.942839
  H      5.068475    1.598504   -2.565728
  H      3.503356    2.363939   -2.804565
  C      2.399946   -1.389579    1.009490
  H      2.440750   -3.087118    2.362976
  H      3.844475   -2.970462    1.318677
  C      2.070177   -1.936705   -0.372401
  H      1.481611   -1.061542    1.509912
  H      3.008628   -0.490001    0.897451
  C      1.322238   -0.935775   -1.256413
  H      1.472747   -2.850902   -0.283997
  H      3.003539   -2.234041   -0.862535
  H      1.376444    1.058920   -2.047420
  H      2.015341    0.929780   -0.426535
  H      0.316648   -0.787213   -0.848278
  H      1.185611   -1.379252   -2.248613

 Total Charge           Charge          ....    0
 Multiplicity           Mult            ....    1
 Number of Electrons    NEL             ....  126
 Basis Dimension        Dim             ....  634

ORBITAL ENERGIES
----------------

  NO   OCC          E(Eh)            E(eV)
   0   2.0000     -24.585898      -669.0163
   1   2.0000     -18.992750      -516.8190
   2   2.0000     -14.192196      -386.1893
   3   2.0000     -14.191096      -386.1594
   4   2.0000     -10.314877      -280.6821
   5   2.0000     -10.152784      -276.2713
   6   2.0000     -10.142722      -275.9975
   7   2.0000     -10.139785      -275.9176
   8   2.0000     -10.132973      -275.7322
   9   2.0000     -10.119116      -275.3552
  10   2.0000     -10.117079      -275.2997
  11   2.0000     -10.113496      -275.2022
  12   2.0000     -10.109513      -275.0938
  13   2.0000     -10.109143      -275.0838
  14   2.0000     -10.105433      -274.9828
  15   2.0000      -9.983029      -271.6520
  16   2.0000      -1.504645       -40.9435
  17   2.0000      -1.216236       -33.0955
  18   2.0000      -1.127585       -30.6832
  19   2.0000      -1.036620       -28.2079
  20   2.0000      -1.017771       -27.6950
  21   2.0000      -0.988895       -26.9092
  22   2.0000      -0.956126       -26.0175
  23   2.0000      -0.914504       -24.8849
  24   2.0000      -0.886014       -24.1097
  25   2.0000      -0.855687       -23.2844
  26   2.0000      -0.831525       -22.6270
  27   2.0000      -0.809250       -22.0208
  28   2.0000      -0.771163       -20.9844
  29   2.0000      -0.759956       -20.6794
  30   2.0000      -0.739502       -20.1229
  31   2.0000      -0.729236       -19.8435
  32   2.0000      -0.719692       -19.5838
  33   2.0000      -0.699999       -19.0480
  34   2.0000      -0.682870       -18.5818
  35   2.0000      -0.657291       -17.8858
  36   2.0000      -0.640574       -17.4309
  37   2.0000      -0.631410       -17.1815
  38   2.0000      -0.619251       -16.8507
  39   2.0000      -0.607249       -16.5241
  40   2.0000      -0.599018       -16.3001
  41   2.0000      -0.584450       -15.9037
  42   2.0000      -0.575445       -15.6586
  43   2.0000      -0.570761       -15.5312
  44   2.0000      -0.558010       -15.1842
  45   2.0000      -0.539966       -14.6932
  46   2.0000      -0.535776       -14.5792
  47   2.0000      -0.523891       -14.2558
  48   2.0000      -0.513766       -13.9803
  49   2.0000      -0.505994       -13.7688
  50   2.0000      -0.501033       -13.6338
  51   2.0000      -0.497473       -13.5369
  52   2.0000      -0.489049       -13.3077
  53   2.0000      -0.480167       -13.0660
  54   2.0000      -0.473087       -12.8734
  55   2.0000      -0.463336       -12.6080
  56   2.0000      -0.455844       -12.4042
  57   2.0000      -0.443291       -12.0626
  58   2.0000      -0.440881       -11.9970
  59   2.0000      -0.437470       -11.9042
  60   2.0000      -0.400423       -10.8961
  61   2.0000      -0.368536       -10.0284
  62   2.0000      -0.255662        -6.9569
  63   0.0000       0.053950         1.4680
  64   0.0000       0.109634         2.9833
  65   0.0000       0.121927         3.3178
  66   0.0000       0.125190         3.4066
  67   0.0000       0.129355         3.5199

MULLIKEN ATOMIC CHARGES
-----------------------
   0 C :   -0.329920
   1 N :   -0.291753
   2 C :   -0.267040
   3 C :   -0.347484
   4 H :    0.192903
   5 H :    0.188760
   6 C :    0.332909
   7 C :    0.335199
   8 N :   -0.515554
   9 C :   -0.601461
  10 H :    0.100448
  11 H :    0.121543
  12 H :    0.248614
  13 H :    0.232765
  14 H :    0.258318
  15 F :   -0.103802
  16 O :   -0.268591
  17 C :   -0.196161
  18 H :    0.166420
  19 H :    0.155095
  20 C :   -0.357962
  21 C :   -0.386156
  22 H :    0.206138
  23 H :    0.163433
  24 H :    0.183695
  25 H :    0.158549
  26 C :   -0.272915
  27 H :    0.139718
  28 H :    0.166307
  29 C :   -0.359477
  30 H :    0.154624
  31 H :    0.073045
  32 C :   -0.252884
  33 H :    0.155129
  34 H :    0.180976
  35 H :    0.158297
  36 H :    0.170748
  37 H :    0.153420
  38 H :    0.154108
Sum of atomic charges:    0.0000000

LOEWDIN ATOMIC CHARGES
----------------------
   0 C :   -0.314315
   1 N :    0.113530
   2 C :   -0.272353
   3 C :   -0.246817
   4 H :    0.168454
   5 H :    0.150720
   6 C :   -0.497361
   7 C :   -0.476750
   8 N :   -0.040946
   9 C :   -0.355688
  10 H :    0.097354
  11 H :    0.088690
  12 H :    0.176155
  13 H :    0.159790
  14 H :    0.178259
  15 F :    0.342066
  16 O :    0.119066
  17 C :   -0.285298
  18 H :    0.142662
  19 H :    0.133764
  20 C :   -0.290444
  21 C :   -0.284277
  22 H :    0.153480
  23 H :    0.150499
  24 H :    0.156561
  25 H :    0.149553
  26 C :   -0.288748
  27 H :    0.141555
  28 H :    0.152335
  29 C :   -0.289042
  30 H :    0.145154
  31 H :    0.136652
  32 C :   -0.285145
  33 H :    0.145930
  34 H :    0.147409
  35 H :    0.146107
  36 H :    0.140350
  37 H :    0.145441
  38 H :    0.145648

  Mayer bond orders larger than 0.100000
B(  0-C ,  1-N ) :   0.9666 B(  0-C , 17-C ) :   0.8789 B(  0-C , 18-H ) :   0.9902
B(  0-C , 19-H ) :   1.0094 B(  1-N ,  7-C ) :   1.1970 B(  1-N , 12-H ) :   0.9083
B(  2-C ,  3-C ) :   0.9225 B(  2-C , 21-C ) :   0.9554 B(  2-C , 24-H ) :   0.9730
B(  2-C , 25-H ) :   0.9747 B(  3-C ,  4-H ) :   0.9545 B(  3-C ,  5-H ) :   0.9768
B(  3-C ,  6-C ) :   0.9450 B(  6-C , 15-F ) :   1.1035 B(  6-C , 16-O ) :   2.0298
B(  7-C ,  8-N ) :   1.1006 B(  7-C ,  9-C ) :   1.6412 B(  8-N , 13-H ) :   0.9226
B(  8-N , 14-H ) :   0.9239 B(  9-C , 10-H ) :   1.0145 B(  9-C , 11-H ) :   1.0223
B( 17-C , 26-C ) :   0.9399 B( 17-C , 27-H ) :   0.9725 B( 17-C , 28-H ) :   0.9776
B( 20-C , 21-C ) :   0.8792 B( 20-C , 32-C ) :   0.9438 B( 20-C , 35-H ) :   0.9742
B( 20-C , 36-H ) :   0.9819 B( 21-C , 22-H ) :   0.9644 B( 21-C , 23-H ) :   0.9732
B( 26-C , 29-C ) :   0.9138 B( 26-C , 30-H ) :   0.9668 B( 26-C , 31-H ) :   0.9795
B( 29-C , 32-C ) :   0.9381 B( 29-C , 33-H ) :   0.9820 B( 29-C , 34-H ) :   0.9845
B( 32-C , 37-H ) :   0.9920 B( 32-C , 38-H ) :   0.9889

FINAL SINGLE POINT ENERGY      -753.538861342017

DIPOLE MOMENT
-------------
                                X             Y             Z
Electronic contribution:      9.41384       8.67512       6.68836
Nuclear contribution   :    -11.12616      -8.32792      -6.96231
                        -----------------------------------------
Total Dipole Moment    :     -1.71232       0.34720      -0.27396
                        -----------------------------------------
Magnitude (a.u.)       :      1.76851
Magnitude (Debye)      :      4.49520

Rotational constants in cm-1:     0.020226     0.013574     0.009520
Rotational constants in MHz :   606.360011   406.923773   285.390769

                             ****ORCA TERMINATED NORMALLY****
TOTAL RUN TIME: 0 days 0 hours 1 minutes 57 seconds 844 msec
