                         Program Version 5.0.0 -  RELEASE  -
|  1> !LC-PBE RIJCOSX def2-TZVP def2/J TightSCF xyzfile
|  2>
|  3> *xyzfile 0 1 D4.xyz
|  4>
|  5> %MaxCore 64000
|  6>
|  7> %pal nprocs 18
|  8> end
|  9>
| 10> %scf
| 11>   MaxIter 150
| 12> end
| 13>
| 14>
| 15>                          ****END OF INPUT****

CARTESIAN COORDINATES (ANGSTROEM)
---------------------------------
  C      3.913853   -1.658291    3.015134
  C      5.039266   -0.901154    2.492821
  C      4.084215    1.742081   -2.114724
  C      4.265245    2.500518   -0.795890
  H      4.868534    3.392674   -0.981134
  H      3.307640    2.824571   -0.387809
  C      4.982240    1.650257    0.247422
  C      6.210384   -1.417261    2.178244
  N      6.535913   -2.677122    2.556078
  N      7.076754   -0.700820    1.478906
  H      7.954643   -1.121554    1.207554
  H      6.756161    0.106637    0.960278
  H      4.842168    0.017609    2.115191
  H      5.993876   -3.126918    3.282784
  H      7.498441   -2.975482    2.468776
  O      4.368065    1.389270    1.313706
  F      6.128919    1.233512   -0.045620
  C      3.139159   -2.376572    1.910609
  H      3.267235   -0.939401    3.520693
  H      4.247195   -2.355095    3.790065
  C      1.997274    0.430918   -1.399218
  C      3.412746    0.376886   -1.965497
  H      4.047407   -0.246590   -1.326706
  H      3.390774   -0.118719   -2.942839
  H      5.068475    1.598504   -2.565728
  H      3.503356    2.363939   -2.804565
  C      2.399946   -1.389579    1.009490
  H      2.440750   -3.087118    2.362976
  H      3.844475   -2.970462    1.318677
  C      2.070177   -1.936705   -0.372401
  H      1.481611   -1.061542    1.509912
  H      3.008628   -0.490001    0.897451
  C      1.322238   -0.935775   -1.256413
  H      1.472747   -2.850902   -0.283997
  H      3.003539   -2.234041   -0.862535
  H      1.376444    1.058920   -2.047420
  H      2.015341    0.929780   -0.426535
  H      0.316648   -0.787213   -0.848278
  H      1.185611   -1.379252   -2.248613

 Total Charge           Charge          ....    0
 Multiplicity           Mult            ....    1
 Number of Electrons    NEL             ....  126
 Basis Dimension        Dim             ....  634

ORBITAL ENERGIES
----------------

  NO   OCC          E(Eh)            E(eV)
   0   2.0000     -24.589375      -669.1109
   1   2.0000     -18.996575      -516.9231
   2   2.0000     -14.194045      -386.2396
   3   2.0000     -14.185083      -385.9957
   4   2.0000     -10.317458      -280.7523
   5   2.0000     -10.153378      -276.2875
   6   2.0000     -10.137615      -275.8585
   7   2.0000     -10.137010      -275.8421
   8   2.0000     -10.118992      -275.3518
   9   2.0000     -10.108316      -275.0612
  10   2.0000     -10.102402      -274.9003
  11   2.0000     -10.093094      -274.6470
  12   2.0000     -10.081622      -274.3349
  13   2.0000     -10.076972      -274.2084
  14   2.0000     -10.069952      -274.0173
  15   2.0000      -9.997953      -272.0581
  16   2.0000      -1.509230       -41.0682
  17   2.0000      -1.217492       -33.1296
  18   2.0000      -1.116844       -30.3909
  19   2.0000      -1.020883       -27.7796
  20   2.0000      -1.015643       -27.6371
  21   2.0000      -0.981341       -26.7037
  22   2.0000      -0.949040       -25.8247
  23   2.0000      -0.916220       -24.9316
  24   2.0000      -0.878366       -23.9016
  25   2.0000      -0.849036       -23.1034
  26   2.0000      -0.834115       -22.6974
  27   2.0000      -0.796035       -21.6612
  28   2.0000      -0.766042       -20.8451
  29   2.0000      -0.747633       -20.3441
  30   2.0000      -0.733953       -19.9719
  31   2.0000      -0.728097       -19.8125
  32   2.0000      -0.705991       -19.2110
  33   2.0000      -0.694585       -18.9006
  34   2.0000      -0.681876       -18.5548
  35   2.0000      -0.657644       -17.8954
  36   2.0000      -0.631714       -17.1898
  37   2.0000      -0.629628       -17.1330
  38   2.0000      -0.625306       -17.0155
  39   2.0000      -0.602393       -16.3920
  40   2.0000      -0.590426       -16.0663
  41   2.0000      -0.578224       -15.7343
  42   2.0000      -0.568045       -15.4573
  43   2.0000      -0.552531       -15.0351
  44   2.0000      -0.547003       -14.8847
  45   2.0000      -0.539433       -14.6787
  46   2.0000      -0.531049       -14.4506
  47   2.0000      -0.523767       -14.2524
  48   2.0000      -0.516443       -14.0531
  49   2.0000      -0.509268       -13.8579
  50   2.0000      -0.497982       -13.5508
  51   2.0000      -0.492321       -13.3967
  52   2.0000      -0.471429       -12.8282
  53   2.0000      -0.461589       -12.5605
  54   2.0000      -0.459649       -12.5077
  55   2.0000      -0.455961       -12.4073
  56   2.0000      -0.432490       -11.7687
  57   2.0000      -0.427301       -11.6275
  58   2.0000      -0.421131       -11.4596
  59   2.0000      -0.416433       -11.3317
  60   2.0000      -0.388831       -10.5806
  61   2.0000      -0.382061       -10.3964
  62   2.0000      -0.253982        -6.9112
  63   0.0000       0.055001         1.4966
  64   0.0000       0.107786         2.9330
  65   0.0000       0.121535         3.3071
  66   0.0000       0.131628         3.5818
  67   0.0000       0.134237         3.6528

MULLIKEN ATOMIC CHARGES
-----------------------
   0 C :   -0.365843
   1 C :   -0.505199
   2 C :   -0.293452
   3 C :   -0.340611
   4 H :    0.183792
   5 H :    0.207827
   6 C :    0.352432
   7 C :    0.352368
   8 N :   -0.507515
   9 N :   -0.496663
  10 H :    0.228008
  11 H :    0.247376
  12 H :    0.205903
  13 H :    0.256915
  14 H :    0.229188
  15 O :   -0.300570
  16 F :   -0.099641
  17 C :   -0.211924
  18 H :    0.142257
  19 H :    0.123056
  20 C :   -0.362720
  21 C :   -0.358681
  22 H :    0.186632
  23 H :    0.162187
  24 H :    0.172000
  25 H :    0.162923
  26 C :   -0.262327
  27 H :    0.125487
  28 H :    0.147468
  29 C :   -0.351560
  30 H :    0.145591
  31 H :    0.119918
  32 C :   -0.253783
  33 H :    0.149590
  34 H :    0.164782
  35 H :    0.152995
  36 H :    0.192853
  37 H :    0.151481
  38 H :    0.147459
Sum of atomic charges:   -0.0000000

LOEWDIN ATOMIC CHARGES
----------------------
   0 C :   -0.302062
   1 C :   -0.291435
   2 C :   -0.281755
   3 C :   -0.242605
   4 H :    0.160982
   5 H :    0.164678
   6 C :   -0.495971
   7 C :   -0.472341
   8 N :   -0.043358
   9 N :   -0.032698
  10 H :    0.162468
  11 H :    0.154362
  12 H :    0.118293
  13 H :    0.175128
  14 H :    0.161470
  15 O :    0.103518
  16 F :    0.352295
  17 C :   -0.277402
  18 H :    0.151433
  19 H :    0.132401
  20 C :   -0.288332
  21 C :   -0.284277
  22 H :    0.150257
  23 H :    0.149377
  24 H :    0.148813
  25 H :    0.151192
  26 C :   -0.283417
  27 H :    0.134133
  28 H :    0.145825
  29 C :   -0.292166
  30 H :    0.143452
  31 H :    0.147348
  32 C :   -0.286386
  33 H :    0.143894
  34 H :    0.142418
  35 H :    0.144352
  36 H :    0.147870
  37 H :    0.145581
  38 H :    0.142666

  Mayer bond orders larger than 0.100000
B(  0-C ,  1-C ) :   0.9784 B(  0-C , 17-C ) :   0.8988 B(  0-C , 18-H ) :   0.9990
B(  0-C , 19-H ) :   1.0142 B(  1-C ,  7-C ) :   1.6257 B(  1-C , 12-H ) :   1.0072
B(  2-C ,  3-C ) :   0.9090 B(  2-C , 21-C ) :   0.9358 B(  2-C , 24-H ) :   0.9858
B(  2-C , 25-H ) :   0.9727 B(  3-C ,  4-H ) :   0.9566 B(  3-C ,  5-H ) :   0.9793
B(  3-C ,  6-C ) :   0.9523 B(  6-C , 15-O ) :   2.0040 B(  6-C , 16-F ) :   1.0993
B(  7-C ,  8-N ) :   1.1207 B(  7-C ,  9-N ) :   1.1539 B(  8-N , 13-H ) :   0.9157
B(  8-N , 14-H ) :   0.9308 B(  9-N , 10-H ) :   0.9325 B(  9-N , 11-H ) :   0.9021
B( 17-C , 26-C ) :   0.9553 B( 17-C , 27-H ) :   0.9817 B( 17-C , 28-H ) :   0.9840
B( 20-C , 21-C ) :   0.8853 B( 20-C , 32-C ) :   0.9465 B( 20-C , 35-H ) :   0.9741
B( 20-C , 36-H ) :   0.9741 B( 21-C , 22-H ) :   0.9715 B( 21-C , 23-H ) :   0.9732
B( 26-C , 29-C ) :   0.9009 B( 26-C , 30-H ) :   0.9740 B( 26-C , 31-H ) :   0.9768
B( 29-C , 32-C ) :   0.9394 B( 29-C , 33-H ) :   0.9828 B( 29-C , 34-H ) :   0.9906
B( 32-C , 37-H ) :   0.9901 B( 32-C , 38-H ) :   0.9924

FINAL SINGLE POINT ENERGY      -753.551531088091

DIPOLE MOMENT
-------------
                                X             Y             Z
Electronic contribution:     14.33217       8.75979       3.63044
Nuclear contribution   :    -13.61164      -8.17416      -5.14068
                        -----------------------------------------
Total Dipole Moment    :      0.72053       0.58563      -1.51023
                        -----------------------------------------
Magnitude (a.u.)       :      1.77283
Magnitude (Debye)      :      4.50618

Rotational constants in cm-1:     0.019858     0.013613     0.009401
Rotational constants in MHz :   595.331791   408.100423   281.843625

                             ****ORCA TERMINATED NORMALLY****
TOTAL RUN TIME: 0 days 0 hours 1 minutes 36 seconds 168 msec
