                         Program Version 5.0.0 -  RELEASE  -
|  1> !LC-PBE RIJCOSX def2-TZVP def2/J TightSCF xyzfile
|  2>
|  3> *xyzfile 0 1 D5.xyz
|  4>
|  5> %MaxCore 64000
|  6>
|  7> %pal nprocs 18
|  8> end
|  9>
| 10> %scf
| 11>   MaxIter 150
| 12> end
| 13>
| 14>
| 15>                          ****END OF INPUT****

CARTESIAN COORDINATES (ANGSTROEM)
---------------------------------
  C      3.913853   -1.658291    3.015134
  N      5.039266   -0.901154    2.492821
  C      4.084215    1.742081   -2.114724
  C      4.265245    2.500518   -0.795890
  H      4.868534    3.392674   -0.981134
  H      3.307640    2.824571   -0.387809
  C      4.982240    1.650257    0.247422
  C      6.210384   -1.417261    2.178244
  C      6.535913   -2.677122    2.556078
  N      7.076754   -0.700820    1.478906
  H      7.954643   -1.121554    1.207554
  H      6.756161    0.106637    0.960278
  H      4.842168    0.017609    2.115191
  H      5.993876   -3.126918    3.282784
  H      7.498441   -2.975482    2.468776
  O      4.368065    1.389270    1.313706
  F      6.128919    1.233512   -0.045620
  C      3.139159   -2.376572    1.910609
  H      3.267235   -0.939401    3.520693
  H      4.247195   -2.355095    3.790065
  C      1.997274    0.430918   -1.399218
  C      3.412746    0.376886   -1.965497
  H      4.047407   -0.246590   -1.326706
  H      3.390774   -0.118719   -2.942839
  H      5.068475    1.598504   -2.565728
  H      3.503356    2.363939   -2.804565
  C      2.399946   -1.389579    1.009490
  H      2.440750   -3.087118    2.362976
  H      3.844475   -2.970462    1.318677
  C      2.070177   -1.936705   -0.372401
  H      1.481611   -1.061542    1.509912
  H      3.008628   -0.490001    0.897451
  C      1.322238   -0.935775   -1.256413
  H      1.472747   -2.850902   -0.283997
  H      3.003539   -2.234041   -0.862535
  H      1.376444    1.058920   -2.047420
  H      2.015341    0.929780   -0.426535
  H      0.316648   -0.787213   -0.848278
  H      1.185611   -1.379252   -2.248613

 Total Charge           Charge          ....    0
 Multiplicity           Mult            ....    1
 Number of Electrons    NEL             ....  126
 Basis Dimension        Dim             ....  634

ORBITAL ENERGIES
----------------

  NO   OCC          E(Eh)            E(eV)
   0   2.0000     -24.607392      -669.6012
   1   2.0000     -19.024878      -517.6933
   2   2.0000     -14.188923      -386.1002
   3   2.0000     -14.180490      -385.8707
   4   2.0000     -10.341448      -281.4051
   5   2.0000     -10.168268      -276.6926
   6   2.0000     -10.148730      -276.1610
   7   2.0000     -10.145929      -276.0848
   8   2.0000     -10.129768      -275.6450
   9   2.0000     -10.125238      -275.5217
  10   2.0000     -10.118807      -275.3467
  11   2.0000     -10.111984      -275.1611
  12   2.0000     -10.103842      -274.9395
  13   2.0000     -10.096940      -274.7517
  14   2.0000     -10.091422      -274.6015
  15   2.0000     -10.000653      -272.1316
  16   2.0000      -1.527416       -41.5631
  17   2.0000      -1.244329       -33.8599
  18   2.0000      -1.126629       -30.6571
  19   2.0000      -1.039749       -28.2930
  20   2.0000      -1.029667       -28.0187
  21   2.0000      -0.990886       -26.9634
  22   2.0000      -0.949908       -25.8483
  23   2.0000      -0.916239       -24.9321
  24   2.0000      -0.874862       -23.8062
  25   2.0000      -0.863185       -23.4884
  26   2.0000      -0.847493       -23.0615
  27   2.0000      -0.816692       -22.2233
  28   2.0000      -0.782352       -21.2889
  29   2.0000      -0.754507       -20.5312
  30   2.0000      -0.752148       -20.4670
  31   2.0000      -0.749152       -20.3855
  32   2.0000      -0.713356       -19.4114
  33   2.0000      -0.706873       -19.2350
  34   2.0000      -0.685198       -18.6452
  35   2.0000      -0.656150       -17.8547
  36   2.0000      -0.649204       -17.6658
  37   2.0000      -0.639952       -17.4140
  38   2.0000      -0.636394       -17.3172
  39   2.0000      -0.613985       -16.7074
  40   2.0000      -0.595342       -16.2001
  41   2.0000      -0.589194       -16.0328
  42   2.0000      -0.574117       -15.6225
  43   2.0000      -0.564832       -15.3699
  44   2.0000      -0.554668       -15.0933
  45   2.0000      -0.553755       -15.0684
  46   2.0000      -0.540478       -14.7072
  47   2.0000      -0.528015       -14.3680
  48   2.0000      -0.525670       -14.3042
  49   2.0000      -0.512529       -13.9466
  50   2.0000      -0.505647       -13.7594
  51   2.0000      -0.492585       -13.4039
  52   2.0000      -0.488524       -13.2934
  53   2.0000      -0.479807       -13.0562
  54   2.0000      -0.472589       -12.8598
  55   2.0000      -0.470315       -12.7979
  56   2.0000      -0.450948       -12.2709
  57   2.0000      -0.444312       -12.0904
  58   2.0000      -0.437106       -11.8943
  59   2.0000      -0.433523       -11.7968
  60   2.0000      -0.429507       -11.6875
  61   2.0000      -0.356444        -9.6993
  62   2.0000      -0.260076        -7.0770
  63   0.0000       0.033716         0.9175
  64   0.0000       0.098304         2.6750
  65   0.0000       0.123415         3.3583
  66   0.0000       0.123610         3.3636
  67   0.0000       0.131764         3.5855

MULLIKEN ATOMIC CHARGES
-----------------------
   0 C :   -0.287665
   1 N :   -0.301153
   2 C :   -0.297031
   3 C :   -0.342130
   4 H :    0.191223
   5 H :    0.211928
   6 C :    0.367581
   7 C :    0.318594
   8 C :   -0.638927
   9 N :   -0.493070
  10 H :    0.259406
  11 H :    0.226230
  12 H :    0.245888
  13 H :    0.113524
  14 H :    0.105799
  15 O :   -0.338637
  16 F :   -0.085056
  17 C :   -0.208256
  18 H :    0.161529
  19 H :    0.171915
  20 C :   -0.360967
  21 C :   -0.362543
  22 H :    0.184520
  23 H :    0.168002
  24 H :    0.178171
  25 H :    0.167858
  26 C :   -0.301401
  27 H :    0.139001
  28 H :    0.179284
  29 C :   -0.352917
  30 H :    0.147563
  31 H :    0.107071
  32 C :   -0.256899
  33 H :    0.155538
  34 H :    0.172370
  35 H :    0.157429
  36 H :    0.189662
  37 H :    0.154417
  38 H :    0.152151
Sum of atomic charges:    0.0000000

LOEWDIN ATOMIC CHARGES
----------------------
   0 C :   -0.295662
   1 N :    0.118094
   2 C :   -0.279367
   3 C :   -0.239354
   4 H :    0.163887
   5 H :    0.165847
   6 C :   -0.488131
   7 C :   -0.474781
   8 C :   -0.393909
   9 N :   -0.024616
  10 H :    0.179815
  11 H :    0.143546
  12 H :    0.159171
  13 H :    0.099029
  14 H :    0.095196
  15 O :    0.088120
  16 F :    0.359139
  17 C :   -0.282402
  18 H :    0.142034
  19 H :    0.142820
  20 C :   -0.288457
  21 C :   -0.283699
  22 H :    0.149323
  23 H :    0.151459
  24 H :    0.150597
  25 H :    0.153189
  26 C :   -0.290373
  27 H :    0.141732
  28 H :    0.154657
  29 C :   -0.290344
  30 H :    0.144173
  31 H :    0.140912
  32 C :   -0.285301
  33 H :    0.146036
  34 H :    0.144652
  35 H :    0.145690
  36 H :    0.146496
  37 H :    0.146396
  38 H :    0.144389

  Mayer bond orders larger than 0.100000
B(  0-C ,  1-N ) :   0.9572 B(  0-C , 17-C ) :   0.9080 B(  0-C , 18-H ) :   0.9861
B(  0-C , 19-H ) :   0.9942 B(  1-N ,  7-C ) :   1.2204 B(  1-N , 12-H ) :   0.8756
B(  2-C ,  3-C ) :   0.9085 B(  2-C , 21-C ) :   0.9337 B(  2-C , 24-H ) :   0.9848
B(  2-C , 25-H ) :   0.9711 B(  3-C ,  4-H ) :   0.9544 B(  3-C ,  5-H ) :   0.9765
B(  3-C ,  6-C ) :   0.9543 B(  6-C , 15-O ) :   1.9498 B(  6-C , 16-F ) :   1.1259
B(  7-C ,  8-C ) :   1.6031 B(  7-C ,  9-N ) :   1.1507 B(  8-C , 13-H ) :   1.0083
B(  8-C , 14-H ) :   1.0053 B(  9-N , 10-H ) :   0.9235 B(  9-N , 11-H ) :   0.9089
B( 17-C , 26-C ) :   0.9350 B( 17-C , 27-H ) :   0.9776 B( 17-C , 28-H ) :   0.9747
B( 20-C , 21-C ) :   0.8807 B( 20-C , 32-C ) :   0.9455 B( 20-C , 35-H ) :   0.9733
B( 20-C , 36-H ) :   0.9755 B( 21-C , 22-H ) :   0.9724 B( 21-C , 23-H ) :   0.9720
B( 26-C , 29-C ) :   0.9061 B( 26-C , 30-H ) :   0.9711 B( 26-C , 31-H ) :   0.9835
B( 29-C , 32-C ) :   0.9364 B( 29-C , 33-H ) :   0.9824 B( 29-C , 34-H ) :   0.9886
B( 32-C , 37-H ) :   0.9900 B( 32-C , 38-H ) :   0.9911

FINAL SINGLE POINT ENERGY      -753.559085805821

DIPOLE MOMENT
-------------
                                X             Y             Z
Electronic contribution:     12.76045      10.45116       3.16516
Nuclear contribution   :    -13.35170      -8.48261      -5.12969
                        -----------------------------------------
Total Dipole Moment    :     -0.59125       1.96854      -1.96453
                        -----------------------------------------
Magnitude (a.u.)       :      2.84325
Magnitude (Debye)      :      7.22698

Rotational constants in cm-1:     0.019886     0.013843     0.009504
Rotational constants in MHz :   596.157485   415.004628   284.931121

                             ****ORCA TERMINATED NORMALLY****
TOTAL RUN TIME: 0 days 0 hours 1 minutes 42 seconds 317 msec
