                         Program Version 5.0.0 -  RELEASE  -
|  1> !LC-BLYP RIJCOSX def2-SVP def2/J TightSCF
|  2> *xyz -1 1
|  3> C          0.70466        1.44313       -4.50363
|  4> C          1.72854        1.42432       -5.63944
|  5> H          2.64672        1.95379       -5.38105
|  6> H          1.29992        1.93061       -6.50361
|  7> S          2.25263       -0.18811       -6.27184
|  8> O          3.56261       -0.44446       -5.63155
|  9> O          2.34494       -0.03374       -7.69650
| 10> O          1.26606       -1.15918       -5.80536
| 11> H         -0.17385        0.91270       -4.80656
| 12> H          0.44778        2.45562       -4.27173
| 13> H          1.12367        0.97423       -3.63791
| 14> *
| 15>
| 16> %MaxCore 64000
| 17>
| 18> %pal nprocs 4
| 19> end
| 20>
| 21> %scf
| 22>   MaxIter 150
| 23> end
| 24>
| 25>
| 26>                          ****END OF INPUT****

CARTESIAN COORDINATES (ANGSTROEM)
---------------------------------
  C      0.704660    1.443130   -4.503630
  C      1.728540    1.424320   -5.639440
  H      2.646720    1.953790   -5.381050
  H      1.299920    1.930610   -6.503610
  S      2.252630   -0.188110   -6.271840
  O      3.562610   -0.444460   -5.631550
  O      2.344940   -0.033740   -7.696500
  O      1.266060   -1.159180   -5.805360
  H     -0.173850    0.912700   -4.806560
  H      0.447780    2.455620   -4.271730
  H      1.123670    0.974230   -3.637910

 Total Charge           Charge          ....   -1
 Multiplicity           Mult            ....    1
 Number of Electrons    NEL             ....   58
 Basis Dimension        Dim             ....  113

ORBITAL ENERGIES
----------------

  NO   OCC          E(Eh)            E(eV)
   0   2.0000     -88.261077     -2401.7060
   1   2.0000     -18.695887      -508.7409
   2   2.0000     -18.689695      -508.5724
   3   2.0000     -18.677121      -508.2303
   4   2.0000      -9.937321      -270.4083
   5   2.0000      -9.928128      -270.1581
   6   2.0000      -7.817240      -212.7179
   7   2.0000      -5.851196      -159.2191
   8   2.0000      -5.850909      -159.2113
   9   2.0000      -5.850712      -159.2060
  10   2.0000      -0.992846       -27.0167
  11   2.0000      -0.845847       -23.0167
  12   2.0000      -0.820977       -22.3399
  13   2.0000      -0.725397       -19.7390
  14   2.0000      -0.599263       -16.3068
  15   2.0000      -0.462415       -12.5829
  16   2.0000      -0.413431       -11.2500
  17   2.0000      -0.395381       -10.7589
  18   2.0000      -0.361854        -9.8466
  19   2.0000      -0.337198        -9.1756
  20   2.0000      -0.331019        -9.0075
  21   2.0000      -0.309967        -8.4346
  22   2.0000      -0.302470        -8.2306
  23   2.0000      -0.214001        -5.8233
  24   2.0000      -0.213060        -5.7977
  25   2.0000      -0.178879        -4.8675
  26   2.0000      -0.173583        -4.7234
  27   2.0000      -0.160115        -4.3570
  28   2.0000      -0.123026        -3.3477
  29   0.0000       0.271240         7.3808
  30   0.0000       0.329034         8.9535
  31   0.0000       0.334760         9.1093
  32   0.0000       0.341234         9.2854
  33   0.0000       0.362402         9.8615

MULLIKEN ATOMIC CHARGES
-----------------------
   0 C :    0.040619
   1 C :   -0.097443
   2 H :   -0.001852
   3 H :   -0.011496
   4 S :    0.747495
   5 O :   -0.577463
   6 O :   -0.523914
   7 O :   -0.542415
   8 H :    0.003683
   9 H :   -0.039587
  10 H :    0.002374
Sum of atomic charges:   -1.0000000

LOEWDIN ATOMIC CHARGES
----------------------
   0 C :   -0.083468
   1 C :   -0.201865
   2 H :    0.012328
   3 H :    0.008072
   4 S :    1.070864
   5 O :   -0.644619
   6 O :   -0.592050
   7 O :   -0.614455
   8 H :    0.019743
   9 H :    0.005076
  10 H :    0.020375

  Mayer bond orders larger than 0.100000
B(  0-C ,  1-C ) :   1.0836 B(  0-C ,  8-H ) :   0.9629 B(  0-C ,  9-H ) :   0.9574
B(  0-C , 10-H ) :   0.9675 B(  1-C ,  2-H ) :   0.9434 B(  1-C ,  3-H ) :   0.9426
B(  1-C ,  4-S ) :   0.8825 B(  4-S ,  5-O ) :   1.6320 B(  4-S ,  6-O ) :   1.6829
B(  4-S ,  7-O ) :   1.6661

FINAL SINGLE POINT ENERGY      -701.865808329098

DIPOLE MOMENT
-------------
                                X             Y             Z
Electronic contribution:      3.70411      -5.74162      -4.36342
Nuclear contribution   :     -4.50297       7.24642       5.01775
                        -----------------------------------------
Total Dipole Moment    :     -0.79886       1.50480       0.65433
                        -----------------------------------------
Magnitude (a.u.)       :      1.82503
Magnitude (Debye)      :      4.63887

Rotational constants in cm-1:     0.162459     0.081286     0.079601
Rotational constants in MHz :  4870.394399  2436.893583  2386.374948

                             ****ORCA TERMINATED NORMALLY****
TOTAL RUN TIME: 0 days 0 hours 0 minutes 14 seconds 356 msec
