                         Program Version 5.0.0 -  RELEASE  -
|  1> !LC-BLYP RIJCOSX def2-SVP def2/J TightSCF
|  2> *xyz 1 1
|  3> C          2.91632       -1.24259       -1.54313
|  4> C          3.46659       -1.59097       -2.88908
|  5> N          4.65227       -1.14316       -3.25969
|  6> N          2.75226       -2.29204       -3.72803
|  7> H          1.77836       -2.48960       -3.51274
|  8> H          2.94861       -2.20854       -4.71681
|  9> H          5.14672       -0.51251       -2.63385
| 10> H          4.78303       -1.00720       -4.25350
| 11> C          2.80408        0.29070       -1.35924
| 12> H          1.94047       -1.71653       -1.44116
| 13> H          3.55857       -1.66343       -0.76637
| 14> H          2.17393        0.69633       -2.12297
| 15> H          3.77707        0.73043       -1.42880
| 16> H          2.38369        0.50492       -0.39889
| 17> *
| 18>
| 19> %MaxCore 64000
| 20>
| 21> %pal nprocs 4
| 22> end
| 23>
| 24> %scf
| 25>   MaxIter 150
| 26> end
| 27>
| 28>
| 29>                          ****END OF INPUT****

CARTESIAN COORDINATES (ANGSTROEM)
---------------------------------
  C      2.916320   -1.242590   -1.543130
  C      3.466590   -1.590970   -2.889080
  N      4.652270   -1.143160   -3.259690
  N      2.752260   -2.292040   -3.728030
  H      1.778360   -2.489600   -3.512740
  H      2.948610   -2.208540   -4.716810
  H      5.146720   -0.512510   -2.633850
  H      4.783030   -1.007200   -4.253500
  C      2.804080    0.290700   -1.359240
  H      1.940470   -1.716530   -1.441160
  H      3.558570   -1.663430   -0.766370
  H      2.173930    0.696330   -2.122970
  H      3.777070    0.730430   -1.428800
  H      2.383690    0.504920   -0.398890

 Total Charge           Charge          ....    1
 Multiplicity           Mult            ....    1
 Number of Electrons    NEL             ....   40
 Basis Dimension        Dim             ....  115

ORBITAL ENERGIES
----------------

  NO   OCC          E(Eh)            E(eV)
   0   2.0000     -14.435711      -392.8157
   1   2.0000     -14.430521      -392.6744
   2   2.0000     -10.409950      -283.2691
   3   2.0000     -10.285182      -279.8740
   4   2.0000     -10.247098      -278.8377
   5   2.0000      -1.303599       -35.4727
   6   2.0000      -1.202331       -32.7171
   7   2.0000      -1.073926       -29.2230
   8   2.0000      -0.964667       -26.2499
   9   2.0000      -0.920584       -25.0504
  10   2.0000      -0.873375       -23.7657
  11   2.0000      -0.854100       -23.2412
  12   2.0000      -0.798799       -21.7364
  13   2.0000      -0.773055       -21.0359
  14   2.0000      -0.727906       -19.8073
  15   2.0000      -0.703938       -19.1551
  16   2.0000      -0.651255       -17.7216
  17   2.0000      -0.640763       -17.4360
  18   2.0000      -0.626721       -17.0539
  19   2.0000      -0.594639       -16.1809
  20   0.0000      -0.131095        -3.5673
  21   0.0000      -0.074045        -2.0149
  22   0.0000      -0.029894        -0.8135
  23   0.0000      -0.028122        -0.7652
  24   0.0000       0.010368         0.2821

MULLIKEN ATOMIC CHARGES
-----------------------
   0 C :    0.023592
   1 C :   -0.175072
   2 N :    0.060551
   3 N :    0.074041
   4 H :    0.184950
   5 H :    0.169946
   6 H :    0.178439
   7 H :    0.173693
   8 C :   -0.006328
   9 H :    0.047910
  10 H :    0.099311
  11 H :    0.049766
  12 H :    0.036380
  13 H :    0.082819
Sum of atomic charges:    1.0000000

LOEWDIN ATOMIC CHARGES
----------------------
   0 C :   -0.042575
   1 C :    0.141827
   2 N :    0.093620
   3 N :    0.107446
   4 H :    0.124934
   5 H :    0.114695
   6 H :    0.120166
   7 H :    0.114017
   8 C :   -0.036761
   9 H :    0.055399
  10 H :    0.074170
  11 H :    0.041426
  12 H :    0.031999
  13 H :    0.059636

  Mayer bond orders larger than 0.100000
B(  0-C ,  1-C ) :   1.0397 B(  0-C ,  8-C ) :   1.0742 B(  0-C ,  9-H ) :   0.9176
B(  0-C , 10-H ) :   0.9138 B(  1-C ,  2-N ) :   1.5072 B(  1-C ,  3-N ) :   1.5427
B(  2-N ,  6-H ) :   0.9247 B(  2-N ,  7-H ) :   0.9287 B(  3-N ,  4-H ) :   0.9180
B(  3-N ,  5-H ) :   0.9293 B(  8-C , 11-H ) :   0.9705 B(  8-C , 12-H ) :   0.9712
B(  8-C , 13-H ) :   0.9585

FINAL SINGLE POINT ENERGY      -228.238725168691

DIPOLE MOMENT
-------------
                                X             Y             Z
Electronic contribution:      1.32704      -2.86540      -2.84719
Nuclear contribution   :     -1.30215       2.77761       1.84194
                        -----------------------------------------
Total Dipole Moment    :      0.02490      -0.08779      -1.00525
                        -----------------------------------------
Magnitude (a.u.)       :      1.00938
Magnitude (Debye)      :      2.56565

Rotational constants in cm-1:     0.267442     0.127541     0.099068
Rotational constants in MHz :  8017.703171  3823.592522  2969.992494

                             ****ORCA TERMINATED NORMALLY****
TOTAL RUN TIME: 0 days 0 hours 0 minutes 15 seconds 44 msec
