                         Program Version 5.0.0 -  RELEASE  -
|  1> !LC-BLYP RIJCOSX def2-SVP def2/J TightSCF
|  2> *xyz 0 1
|  3> C          0.70466        1.44313       -4.50363
|  4> C          1.72854        1.42432       -5.63944
|  5> H          2.64672        1.95379       -5.38105
|  6> H          1.29992        1.93061       -6.50361
|  7> S          2.25263       -0.18811       -6.27184
|  8> F          3.56261       -0.44446       -5.63155
|  9> O          2.34494       -0.03374       -7.69650
| 10> O          1.26606       -1.15918       -5.80536
| 11> H         -0.17385        0.91270       -4.80656
| 12> H          0.44778        2.45562       -4.27173
| 13> H          1.12367        0.97423       -3.63791
| 14> *
| 15>
| 16> %MaxCore 64000
| 17>
| 18> %pal nprocs 4
| 19> end
| 20>
| 21> %scf
| 22>   MaxIter 150
| 23> end
| 24>
| 25>
| 26>                          ****END OF INPUT****

CARTESIAN COORDINATES (ANGSTROEM)
---------------------------------
  C      0.704660    1.443130   -4.503630
  C      1.728540    1.424320   -5.639440
  H      2.646720    1.953790   -5.381050
  H      1.299920    1.930610   -6.503610
  S      2.252630   -0.188110   -6.271840
  F      3.562610   -0.444460   -5.631550
  O      2.344940   -0.033740   -7.696500
  O      1.266060   -1.159180   -5.805360
  H     -0.173850    0.912700   -4.806560
  H      0.447780    2.455620   -4.271730
  H      1.123670    0.974230   -3.637910

 Total Charge           Charge          ....    0
 Multiplicity           Mult            ....    1
 Number of Electrons    NEL             ....   58
 Basis Dimension        Dim             ....  113

ORBITAL ENERGIES
----------------

  NO   OCC          E(Eh)            E(eV)
   0   2.0000     -88.534676     -2409.1510
   1   2.0000     -24.551686      -668.0853
   2   2.0000     -18.949706      -515.6477
   3   2.0000     -18.942792      -515.4596
   4   2.0000     -10.140383      -275.9338
   5   2.0000     -10.103636      -274.9339
   6   2.0000      -8.093042      -220.2229
   7   2.0000      -6.131124      -166.8364
   8   2.0000      -6.124475      -166.6554
   9   2.0000      -6.123487      -166.6286
  10   2.0000      -1.412349       -38.4320
  11   2.0000      -1.194894       -32.5147
  12   2.0000      -1.094524       -29.7835
  13   2.0000      -0.922959       -25.1150
  14   2.0000      -0.818704       -22.2781
  15   2.0000      -0.766445       -20.8560
  16   2.0000      -0.675109       -18.3707
  17   2.0000      -0.653419       -17.7804
  18   2.0000      -0.639077       -17.3902
  19   2.0000      -0.591825       -16.1044
  20   2.0000      -0.574746       -15.6396
  21   2.0000      -0.544402       -14.8139
  22   2.0000      -0.522747       -14.2247
  23   2.0000      -0.499688       -13.5972
  24   2.0000      -0.493049       -13.4166
  25   2.0000      -0.473549       -12.8859
  26   2.0000      -0.420146       -11.4327
  27   2.0000      -0.415106       -11.2956
  28   2.0000      -0.399382       -10.8677
  29   0.0000       0.110921         3.0183
  30   0.0000       0.127755         3.4764
  31   0.0000       0.156420         4.2564
  32   0.0000       0.170163         4.6304
  33   0.0000       0.180274         4.9055

MULLIKEN ATOMIC CHARGES
-----------------------
   0 C :    0.025980
   1 C :   -0.153965
   2 H :    0.060475
   3 H :    0.083168
   4 S :    0.843995
   5 F :   -0.174628
   6 O :   -0.389489
   7 O :   -0.411823
   8 H :    0.050424
   9 H :    0.032999
  10 H :    0.032864
Sum of atomic charges:   -0.0000000

LOEWDIN ATOMIC CHARGES
----------------------
   0 C :   -0.065980
   1 C :   -0.167783
   2 H :    0.036754
   3 H :    0.051311
   4 S :    1.132439
   5 F :   -0.144713
   6 O :   -0.464791
   7 O :   -0.489301
   8 H :    0.039309
   9 H :    0.039203
  10 H :    0.033551

  Mayer bond orders larger than 0.100000
B(  0-C ,  1-C ) :   1.0786 B(  0-C ,  8-H ) :   0.9664 B(  0-C ,  9-H ) :   0.9581
B(  0-C , 10-H ) :   0.9715 B(  1-C ,  2-H ) :   0.9359 B(  1-C ,  3-H ) :   0.9389
B(  1-C ,  4-S ) :   0.9077 B(  4-S ,  5-F ) :   1.0216 B(  4-S ,  6-O ) :   1.8337
B(  4-S ,  7-O ) :   1.8172

FINAL SINGLE POINT ENERGY      -726.377889576493

DIPOLE MOMENT
-------------
                                X             Y             Z
Electronic contribution:      6.34586      -6.53806      -3.74322
Nuclear contribution   :     -6.09914       7.80989       4.64238
                        -----------------------------------------
Total Dipole Moment    :      0.24673       1.27183       0.89916
                        -----------------------------------------
Magnitude (a.u.)       :      1.57699
Magnitude (Debye)      :      4.00840

Rotational constants in cm-1:     0.154372     0.078826     0.078033
Rotational constants in MHz :  4627.943144  2363.154585  2339.382767

                             ****ORCA TERMINATED NORMALLY****
TOTAL RUN TIME: 0 days 0 hours 0 minutes 14 seconds 811 msec
