                         Program Version 5.0.0 -  RELEASE  -
|  1> !LC-BLYP RIJCOSX def2-SVP def2/J TightSCF
|  2> *xyz 0 1
|  3> C          2.91632       -1.24259       -1.54313
|  4> C          3.46659       -1.59097       -2.88908
|  5> C          4.65227       -1.14316       -3.25969
|  6> N          2.75226       -2.29204       -3.72803
|  7> H          1.77836       -2.48960       -3.51274
|  8> H          2.94861       -2.20854       -4.71681
|  9> H          5.14672       -0.51251       -2.63385
| 10> H          4.78303       -1.00720       -4.25350
| 11> C          2.80408        0.29070       -1.35924
| 12> H          1.94047       -1.71653       -1.44116
| 13> H          3.55857       -1.66343       -0.76637
| 14> H          2.17393        0.69633       -2.12297
| 15> H          3.77707        0.73043       -1.42880
| 16> H          2.38369        0.50492       -0.39889
| 17> *
| 18>
| 19> %MaxCore 64000
| 20>
| 21> %pal nprocs 4
| 22> end
| 23>
| 24> %scf
| 25>   MaxIter 150
| 26> end
| 27>
| 28>
| 29>                          ****END OF INPUT****

CARTESIAN COORDINATES (ANGSTROEM)
---------------------------------
  C      2.916320   -1.242590   -1.543130
  C      3.466590   -1.590970   -2.889080
  C      4.652270   -1.143160   -3.259690
  N      2.752260   -2.292040   -3.728030
  H      1.778360   -2.489600   -3.512740
  H      2.948610   -2.208540   -4.716810
  H      5.146720   -0.512510   -2.633850
  H      4.783030   -1.007200   -4.253500
  C      2.804080    0.290700   -1.359240
  H      1.940470   -1.716530   -1.441160
  H      3.558570   -1.663430   -0.766370
  H      2.173930    0.696330   -2.122970
  H      3.777070    0.730430   -1.428800
  H      2.383690    0.504920   -0.398890

 Total Charge           Charge          ....    0
 Multiplicity           Mult            ....    1
 Number of Electrons    NEL             ....   40
 Basis Dimension        Dim             ....  115

ORBITAL ENERGIES
----------------

  NO   OCC          E(Eh)            E(eV)
   0   2.0000     -14.182102      -385.9146
   1   2.0000     -10.100437      -274.8469
   2   2.0000     -10.084204      -274.4051
   3   2.0000     -10.070686      -274.0373
   4   2.0000     -10.008161      -272.3359
   5   2.0000      -1.022437       -27.8219
   6   2.0000      -0.879486       -23.9320
   7   2.0000      -0.806038       -21.9334
   8   2.0000      -0.743082       -20.2203
   9   2.0000      -0.660782       -17.9808
  10   2.0000      -0.619499       -16.8574
  11   2.0000      -0.578173       -15.7329
  12   2.0000      -0.551129       -14.9970
  13   2.0000      -0.507168       -13.8007
  14   2.0000      -0.486597       -13.2410
  15   2.0000      -0.471693       -12.8354
  16   2.0000      -0.451238       -12.2788
  17   2.0000      -0.437137       -11.8951
  18   2.0000      -0.421045       -11.4572
  19   2.0000      -0.275686        -7.5018
  20   0.0000       0.121678         3.3110
  21   0.0000       0.130006         3.5376
  22   0.0000       0.167301         4.5525
  23   0.0000       0.172865         4.7039
  24   0.0000       0.195477         5.3192

MULLIKEN ATOMIC CHARGES
-----------------------
   0 C :    0.064935
   1 C :   -0.175801
   2 C :   -0.034909
   3 N :   -0.010066
   4 H :    0.098510
   5 H :    0.107506
   6 H :   -0.052250
   7 H :   -0.058294
   8 C :    0.020074
   9 H :   -0.024568
  10 H :    0.028137
  11 H :    0.009381
  12 H :    0.020827
  13 H :    0.006517
Sum of atomic charges:    0.0000000

LOEWDIN ATOMIC CHARGES
----------------------
   0 C :   -0.038532
   1 C :    0.004531
   2 C :   -0.192853
   3 N :    0.003872
   4 H :    0.069263
   5 H :    0.077686
   6 H :   -0.002617
   7 H :   -0.005193
   8 C :   -0.053091
   9 H :    0.018963
  10 H :    0.041826
  11 H :    0.025106
  12 H :    0.027673
  13 H :    0.023367

  Mayer bond orders larger than 0.100000
B(  0-C ,  1-C ) :   1.0182 B(  0-C ,  8-C ) :   1.1041 B(  0-C ,  9-H ) :   0.9279
B(  0-C , 10-H ) :   0.9320 B(  1-C ,  2-C ) :   1.8738 B(  1-C ,  3-N ) :   1.2874
B(  2-C ,  6-H ) :   0.9480 B(  2-C ,  7-H ) :   0.9469 B(  3-N ,  4-H ) :   0.9492
B(  3-N ,  5-H ) :   0.9502 B(  8-C , 11-H ) :   0.9707 B(  8-C , 12-H ) :   0.9731
B(  8-C , 13-H ) :   0.9641

FINAL SINGLE POINT ENERGY      -211.779390410977

DIPOLE MOMENT
-------------
                                X             Y             Z
Electronic contribution:      0.04663      -2.78661      -1.84400
Nuclear contribution   :     -0.99366       2.78648       1.68526
                        -----------------------------------------
Total Dipole Moment    :     -0.94703      -0.00013      -0.15874
                        -----------------------------------------
Magnitude (a.u.)       :      0.96024
Magnitude (Debye)      :      2.44074

Rotational constants in cm-1:     0.282898     0.128664     0.101801
Rotational constants in MHz :  8481.061354  3857.240210  3051.924245

                             ****ORCA TERMINATED NORMALLY****
TOTAL RUN TIME: 0 days 0 hours 0 minutes 15 seconds 464 msec
