                         Program Version 5.0.0 -  RELEASE  -
|  1> !LC-BLYP RIJCOSX def2-SVP def2/J TightSCF
|  2> *xyz 0 1
|  3> C          0.70466        1.44313       -4.50363
|  4> C          1.72854        1.42432       -5.63944
|  5> H          2.64672        1.95379       -5.38105
|  6> H          1.29992        1.93061       -6.50361
|  7> S          2.25263       -0.18811       -6.27184
|  8> O          3.56261       -0.44446       -5.63155
|  9> F          2.34494       -0.03374       -7.69650
| 10> O          1.26606       -1.15918       -5.80536
| 11> H         -0.17385        0.91270       -4.80656
| 12> H          0.44778        2.45562       -4.27173
| 13> H          1.12367        0.97423       -3.63791
| 14> *
| 15>
| 16> %MaxCore 64000
| 17>
| 18> %pal nprocs 4
| 19> end
| 20>
| 21> %scf
| 22>   MaxIter 150
| 23> end
| 24>
| 25>
| 26>                          ****END OF INPUT****

CARTESIAN COORDINATES (ANGSTROEM)
---------------------------------
  C      0.704660    1.443130   -4.503630
  C      1.728540    1.424320   -5.639440
  H      2.646720    1.953790   -5.381050
  H      1.299920    1.930610   -6.503610
  S      2.252630   -0.188110   -6.271840
  O      3.562610   -0.444460   -5.631550
  F      2.344940   -0.033740   -7.696500
  O      1.266060   -1.159180   -5.805360
  H     -0.173850    0.912700   -4.806560
  H      0.447780    2.455620   -4.271730
  H      1.123670    0.974230   -3.637910

 Total Charge           Charge          ....    0
 Multiplicity           Mult            ....    1
 Number of Electrons    NEL             ....   58
 Basis Dimension        Dim             ....  113

ORBITAL ENERGIES
----------------

  NO   OCC          E(Eh)            E(eV)
   0   2.0000     -88.535732     -2409.1797
   1   2.0000     -24.575525      -668.7340
   2   2.0000     -18.942287      -515.4458
   3   2.0000     -18.931858      -515.1620
   4   2.0000     -10.141378      -275.9609
   5   2.0000     -10.103985      -274.9434
   6   2.0000      -8.094339      -220.2582
   7   2.0000      -6.132618      -166.8770
   8   2.0000      -6.125535      -166.6843
   9   2.0000      -6.124505      -166.6562
  10   2.0000      -1.450749       -39.4769
  11   2.0000      -1.181134       -32.1403
  12   2.0000      -1.073141       -29.2017
  13   2.0000      -0.923461       -25.1287
  14   2.0000      -0.831614       -22.6294
  15   2.0000      -0.776180       -21.1209
  16   2.0000      -0.686984       -18.6938
  17   2.0000      -0.681590       -18.5470
  18   2.0000      -0.645221       -17.5573
  19   2.0000      -0.594782       -16.1848
  20   2.0000      -0.573808       -15.6141
  21   2.0000      -0.534156       -14.5351
  22   2.0000      -0.518607       -14.1120
  23   2.0000      -0.502796       -13.6818
  24   2.0000      -0.484549       -13.1852
  25   2.0000      -0.469665       -12.7802
  26   2.0000      -0.412826       -11.2336
  27   2.0000      -0.401762       -10.9325
  28   2.0000      -0.382319       -10.4034
  29   0.0000       0.112718         3.0672
  30   0.0000       0.123007         3.3472
  31   0.0000       0.157564         4.2875
  32   0.0000       0.172184         4.6854
  33   0.0000       0.174340         4.7440

MULLIKEN ATOMIC CHARGES
-----------------------
   0 C :    0.028927
   1 C :   -0.146202
   2 H :    0.078656
   3 H :    0.048482
   4 S :    0.835029
   5 O :   -0.435803
   6 F :   -0.128130
   7 O :   -0.406493
   8 H :    0.041983
   9 H :    0.034205
  10 H :    0.049347
Sum of atomic charges:   -0.0000000

LOEWDIN ATOMIC CHARGES
----------------------
   0 C :   -0.060118
   1 C :   -0.165992
   2 H :    0.046539
   3 H :    0.031796
   4 S :    1.125453
   5 O :   -0.511215
   6 F :   -0.097952
   7 O :   -0.485401
   8 H :    0.036919
   9 H :    0.039825
  10 H :    0.040146

  Mayer bond orders larger than 0.100000
B(  0-C ,  1-C ) :   1.0896 B(  0-C ,  8-H ) :   0.9647 B(  0-C ,  9-H ) :   0.9590
B(  0-C , 10-H ) :   0.9711 B(  1-C ,  2-H ) :   0.9348 B(  1-C ,  3-H ) :   0.9350
B(  1-C ,  4-S ) :   0.9091 B(  4-S ,  5-O ) :   1.7794 B(  4-S ,  6-F ) :   1.0716
B(  4-S ,  7-O ) :   1.8114

FINAL SINGLE POINT ENERGY      -726.356622945254

DIPOLE MOMENT
-------------
                                X             Y             Z
Electronic contribution:      4.24013      -5.83954      -7.27274
Nuclear contribution   :     -4.83029       7.38191       6.79413
                        -----------------------------------------
Total Dipole Moment    :     -0.59015       1.54236      -0.47861
                        -----------------------------------------
Magnitude (a.u.)       :      1.71937
Magnitude (Debye)      :      4.37029

Rotational constants in cm-1:     0.156575     0.079070     0.076729
Rotational constants in MHz :  4694.010604  2370.444114  2300.280155

                             ****ORCA TERMINATED NORMALLY****
TOTAL RUN TIME: 0 days 0 hours 0 minutes 14 seconds 210 msec
