                         Program Version 5.0.0 -  RELEASE  -
|  1> !LC-BLYP RIJCOSX def2-SVP def2/J TightSCF
|  2> *xyz 0 1
|  3> C          2.91632       -1.24259       -1.54313
|  4> C          3.46659       -1.59097       -2.88908
|  5> N          4.65227       -1.14316       -3.25969
|  6> C          2.75226       -2.29204       -3.72803
|  7> H          1.77836       -2.48960       -3.51274
|  8> H          2.94861       -2.20854       -4.71681
|  9> H          5.14672       -0.51251       -2.63385
| 10> H          4.78303       -1.00720       -4.25350
| 11> C          2.80408        0.29070       -1.35924
| 12> H          1.94047       -1.71653       -1.44116
| 13> H          3.55857       -1.66343       -0.76637
| 14> H          2.17393        0.69633       -2.12297
| 15> H          3.77707        0.73043       -1.42880
| 16> H          2.38369        0.50492       -0.39889
| 17> *
| 18>
| 19> %MaxCore 64000
| 20>
| 21> %pal nprocs 4
| 22> end
| 23>
| 24> %scf
| 25>   MaxIter 150
| 26> end
| 27>
| 28>
| 29>                          ****END OF INPUT****

CARTESIAN COORDINATES (ANGSTROEM)
---------------------------------
  C      2.916320   -1.242590   -1.543130
  C      3.466590   -1.590970   -2.889080
  N      4.652270   -1.143160   -3.259690
  C      2.752260   -2.292040   -3.728030
  H      1.778360   -2.489600   -3.512740
  H      2.948610   -2.208540   -4.716810
  H      5.146720   -0.512510   -2.633850
  H      4.783030   -1.007200   -4.253500
  C      2.804080    0.290700   -1.359240
  H      1.940470   -1.716530   -1.441160
  H      3.558570   -1.663430   -0.766370
  H      2.173930    0.696330   -2.122970
  H      3.777070    0.730430   -1.428800
  H      2.383690    0.504920   -0.398890

 Total Charge           Charge          ....    0
 Multiplicity           Mult            ....    1
 Number of Electrons    NEL             ....   40
 Basis Dimension        Dim             ....  115

ORBITAL ENERGIES
----------------

  NO   OCC          E(Eh)            E(eV)
   0   2.0000     -14.178916      -385.8279
   1   2.0000     -10.099002      -274.8078
   2   2.0000     -10.082627      -274.3622
   3   2.0000     -10.076642      -274.1994
   4   2.0000     -10.012790      -272.4619
   5   2.0000      -1.018218       -27.7071
   6   2.0000      -0.877023       -23.8650
   7   2.0000      -0.818340       -22.2682
   8   2.0000      -0.735164       -20.0048
   9   2.0000      -0.661201       -17.9922
  10   2.0000      -0.624055       -16.9814
  11   2.0000      -0.576149       -15.6778
  12   2.0000      -0.536940       -14.6109
  13   2.0000      -0.533840       -14.5265
  14   2.0000      -0.482053       -13.1173
  15   2.0000      -0.478524       -13.0213
  16   2.0000      -0.451988       -12.2992
  17   2.0000      -0.437108       -11.8943
  18   2.0000      -0.415675       -11.3111
  19   2.0000      -0.282985        -7.7004
  20   0.0000       0.117290         3.1916
  21   0.0000       0.133284         3.6268
  22   0.0000       0.169804         4.6206
  23   0.0000       0.178799         4.8654
  24   0.0000       0.190533         5.1847

MULLIKEN ATOMIC CHARGES
-----------------------
   0 C :    0.069199
   1 C :   -0.160104
   2 N :   -0.020640
   3 C :   -0.031552
   4 H :   -0.049040
   5 H :   -0.062450
   6 H :    0.095976
   7 H :    0.113710
   8 C :    0.008945
   9 H :    0.000251
  10 H :    0.008751
  11 H :    0.016321
  12 H :   -0.004832
  13 H :    0.015465
Sum of atomic charges:    0.0000000

LOEWDIN ATOMIC CHARGES
----------------------
   0 C :   -0.036707
   1 C :    0.003650
   2 N :   -0.008763
   3 C :   -0.178416
   4 H :    0.000930
   5 H :   -0.005021
   6 H :    0.067867
   7 H :    0.078559
   8 C :   -0.060844
   9 H :    0.036605
  10 H :    0.028777
  11 H :    0.028679
  12 H :    0.016174
  13 H :    0.028510

  Mayer bond orders larger than 0.100000
B(  0-C ,  1-C ) :   1.0485 B(  0-C ,  8-C ) :   1.0888 B(  0-C ,  9-H ) :   0.9264
B(  0-C , 10-H ) :   0.9287 B(  1-C ,  2-N ) :   1.2625 B(  1-C ,  3-C ) :   1.9055
B(  2-N ,  6-H ) :   0.9570 B(  2-N ,  7-H ) :   0.9501 B(  3-C ,  4-H ) :   0.9342
B(  3-C ,  5-H ) :   0.9453 B(  8-C , 11-H ) :   0.9695 B(  8-C , 12-H ) :   0.9708
B(  8-C , 13-H ) :   0.9661

FINAL SINGLE POINT ENERGY      -211.783355607609

DIPOLE MOMENT
-------------
                                X             Y             Z
Electronic contribution:      1.80651      -1.70801      -1.41071
Nuclear contribution   :     -1.43372       2.52039       1.57679
                        -----------------------------------------
Total Dipole Moment    :      0.37280       0.81238       0.16608
                        -----------------------------------------
Magnitude (a.u.)       :      0.90913
Magnitude (Debye)      :      2.31082

Rotational constants in cm-1:     0.274962     0.131786     0.102554
Rotational constants in MHz :  8243.150005  3950.846092  3074.493018

                             ****ORCA TERMINATED NORMALLY****
TOTAL RUN TIME: 0 days 0 hours 0 minutes 15 seconds 617 msec
