                         Program Version 5.0.0 -  RELEASE  -
|  1> !LC-BLYP RIJCOSX def2-SVP def2/J TightSCF
|  2> *xyz 0 1
|  3> C          0.70466        1.44313       -4.50363
|  4> C          1.72854        1.42432       -5.63944
|  5> H          2.64672        1.95379       -5.38105
|  6> H          1.29992        1.93061       -6.50361
|  7> S          2.25263       -0.18811       -6.27184
|  8> O          3.56261       -0.44446       -5.63155
|  9> O          2.34494       -0.03374       -7.69650
| 10> F          1.26606       -1.15918       -5.80536
| 11> H         -0.17385        0.91270       -4.80656
| 12> H          0.44778        2.45562       -4.27173
| 13> H          1.12367        0.97423       -3.63791
| 14> *
| 15>
| 16> %MaxCore 64000
| 17>
| 18> %pal nprocs 4
| 19> end
| 20>
| 21> %scf
| 22>   MaxIter 150
| 23> end
| 24>
| 25>
| 26>                          ****END OF INPUT****

CARTESIAN COORDINATES (ANGSTROEM)
---------------------------------
  C      0.704660    1.443130   -4.503630
  C      1.728540    1.424320   -5.639440
  H      2.646720    1.953790   -5.381050
  H      1.299920    1.930610   -6.503610
  S      2.252630   -0.188110   -6.271840
  O      3.562610   -0.444460   -5.631550
  O      2.344940   -0.033740   -7.696500
  F      1.266060   -1.159180   -5.805360
  H     -0.173850    0.912700   -4.806560
  H      0.447780    2.455620   -4.271730
  H      1.123670    0.974230   -3.637910

 Total Charge           Charge          ....    0
 Multiplicity           Mult            ....    1
 Number of Electrons    NEL             ....   58
 Basis Dimension        Dim             ....  113

ORBITAL ENERGIES
----------------

  NO   OCC          E(Eh)            E(eV)
   0   2.0000     -88.534173     -2409.1373
   1   2.0000     -24.563707      -668.4125
   2   2.0000     -18.949123      -515.6319
   3   2.0000     -18.931152      -515.1428
   4   2.0000     -10.139979      -275.9229
   5   2.0000     -10.111919      -275.1593
   6   2.0000      -8.092719      -220.2141
   7   2.0000      -6.131027      -166.8337
   8   2.0000      -6.123996      -166.6424
   9   2.0000      -6.122950      -166.6139
  10   2.0000      -1.429557       -38.9002
  11   2.0000      -1.190312       -32.3900
  12   2.0000      -1.081172       -29.4202
  13   2.0000      -0.927077       -25.2271
  14   2.0000      -0.820856       -22.3366
  15   2.0000      -0.777353       -21.1528
  16   2.0000      -0.689842       -18.7715
  17   2.0000      -0.666825       -18.1452
  18   2.0000      -0.630568       -17.1586
  19   2.0000      -0.598457       -16.2849
  20   2.0000      -0.568157       -15.4603
  21   2.0000      -0.547983       -14.9114
  22   2.0000      -0.527027       -14.3411
  23   2.0000      -0.510031       -13.8787
  24   2.0000      -0.490789       -13.3551
  25   2.0000      -0.473308       -12.8794
  26   2.0000      -0.418230       -11.3806
  27   2.0000      -0.402689       -10.9577
  28   2.0000      -0.388503       -10.5717
  29   0.0000       0.097791         2.6610
  30   0.0000       0.141014         3.8372
  31   0.0000       0.163784         4.4568
  32   0.0000       0.165419         4.5013
  33   0.0000       0.177854         4.8397

MULLIKEN ATOMIC CHARGES
-----------------------
   0 C :   -0.003771
   1 C :   -0.138046
   2 H :    0.091319
   3 H :    0.070618
   4 S :    0.838439
   5 O :   -0.439251
   6 O :   -0.385900
   7 F :   -0.151343
   8 H :    0.031596
   9 H :    0.042522
  10 H :    0.043817
Sum of atomic charges:    0.0000000

LOEWDIN ATOMIC CHARGES
----------------------
   0 C :   -0.074119
   1 C :   -0.161306
   2 H :    0.054587
   3 H :    0.042678
   4 S :    1.129528
   5 O :   -0.515245
   6 O :   -0.462405
   7 F :   -0.121827
   8 H :    0.030227
   9 H :    0.042874
  10 H :    0.035008

  Mayer bond orders larger than 0.100000
B(  0-C ,  1-C ) :   1.0717 B(  0-C ,  8-H ) :   0.9721 B(  0-C ,  9-H ) :   0.9600
B(  0-C , 10-H ) :   0.9717 B(  1-C ,  2-H ) :   0.9367 B(  1-C ,  3-H ) :   0.9391
B(  1-C ,  4-S ) :   0.9215 B(  4-S ,  5-O ) :   1.7829 B(  4-S ,  6-O ) :   1.8301
B(  4-S ,  7-F ) :   1.0470

FINAL SINGLE POINT ENERGY      -726.366670913778

DIPOLE MOMENT
-------------
                                X             Y             Z
Electronic contribution:      2.39543      -7.72455      -4.02634
Nuclear contribution   :     -3.70606       8.55465       4.82350
                        -----------------------------------------
Total Dipole Moment    :     -1.31063       0.83010       0.79716
                        -----------------------------------------
Magnitude (a.u.)       :      1.74421
Magnitude (Debye)      :      4.43344

Rotational constants in cm-1:     0.153201     0.080978     0.077494
Rotational constants in MHz :  4592.852844  2427.650814  2323.207507

                             ****ORCA TERMINATED NORMALLY****
TOTAL RUN TIME: 0 days 0 hours 0 minutes 14 seconds 662 msec
