                         Program Version 5.0.0 -  RELEASE  -
|  1> !LC-BLYP RIJCOSX def2-TZVP def2/J TightSCF xyzfile
|  2>
|  3> *xyzfile 0 1 D1.xyz
|  4>
|  5> %MaxCore 64000
|  6>
|  7> %pal nprocs 18
|  8> end
|  9>
| 10> %scf
| 11>   MaxIter 150
| 12> end
| 13>
| 14>
| 15>                          ****END OF INPUT****

CARTESIAN COORDINATES (ANGSTROEM)
---------------------------------
  C      2.916324   -1.242589   -1.543125
  C      0.704661    1.443129   -4.503630
  C      1.728539    1.424320   -5.639443
  H      2.646718    1.953794   -5.381054
  H      1.299916    1.930613   -6.503614
  S      2.252625   -0.188115   -6.271840
  C      3.466585   -1.590971   -2.889082
  C      4.652275   -1.143164   -3.259692
  N      2.752264   -2.292043   -3.728029
  H      1.778364   -2.489604   -3.512738
  H      2.948612   -2.208544   -4.716813
  H      5.146723   -0.512508   -2.633852
  H      4.783030   -1.007203   -4.253498
  F      3.562607   -0.444464   -5.631552
  O      2.344944   -0.033742   -7.696501
  C      2.804084    0.290698   -1.359243
  C      1.052550    0.695659   -3.214915
  H     -0.232483    1.032925   -4.884449
  H      0.511700    2.495794   -4.267966
  C      2.388380    1.093669   -2.597108
  H      3.763425    0.674718   -0.999889
  H      2.094788    0.461222   -0.545756
  O      1.266058   -1.159177   -5.805365
  H      3.167316    1.013242   -3.359430
  H      2.357690    2.149375   -2.310997
  H      1.039284   -0.368429   -3.449329
  H      0.250787    0.865605   -2.488283
  H      1.940472   -1.716529   -1.441161
  H      3.558569   -1.663433   -0.766371

 Total Charge           Charge          ....    0
 Multiplicity           Mult            ....    1
 Number of Electrons    NEL             ....  112
 Basis Dimension        Dim             ....  505

ORBITAL ENERGIES
----------------

  NO   OCC          E(Eh)            E(eV)
   0   2.0000     -88.525261     -2408.8948
   1   2.0000     -24.565370      -668.4577
   2   2.0000     -18.961236      -515.9615
   3   2.0000     -18.957706      -515.8654
   4   2.0000     -14.163663      -385.4129
   5   2.0000     -10.133529      -275.7473
   6   2.0000     -10.098219      -274.7865
   7   2.0000     -10.089629      -274.5528
   8   2.0000     -10.075679      -274.1732
   9   2.0000     -10.073686      -274.1189
  10   2.0000     -10.072143      -274.0769
  11   2.0000     -10.071281      -274.0535
  12   2.0000      -9.993186      -271.9284
  13   2.0000      -8.068057      -219.5430
  14   2.0000      -6.099988      -165.9891
  15   2.0000      -6.092988      -165.7986
  16   2.0000      -6.092388      -165.7823
  17   2.0000      -1.446883       -39.3717
  18   2.0000      -1.217451       -33.1285
  19   2.0000      -1.123991       -30.5853
  20   2.0000      -1.036634       -28.2083
  21   2.0000      -0.952885       -25.9293
  22   2.0000      -0.915133       -24.9020
  23   2.0000      -0.873699       -23.7746
  24   2.0000      -0.841495       -22.8982
  25   2.0000      -0.806915       -21.9573
  26   2.0000      -0.798831       -21.7373
  27   2.0000      -0.744881       -20.2692
  28   2.0000      -0.707200       -19.2439
  29   2.0000      -0.687490       -18.7076
  30   2.0000      -0.678538       -18.4640
  31   2.0000      -0.669076       -18.2065
  32   2.0000      -0.653814       -17.7912
  33   2.0000      -0.622154       -16.9297
  34   2.0000      -0.607558       -16.5325
  35   2.0000      -0.600799       -16.3486
  36   2.0000      -0.585353       -15.9283
  37   2.0000      -0.580126       -15.7860
  38   2.0000      -0.563696       -15.3389
  39   2.0000      -0.549290       -14.9469
  40   2.0000      -0.538061       -14.6414
  41   2.0000      -0.527609       -14.3570
  42   2.0000      -0.506178       -13.7738
  43   2.0000      -0.495341       -13.4789
  44   2.0000      -0.487909       -13.2767
  45   2.0000      -0.483271       -13.1505
  46   2.0000      -0.476243       -12.9592
  47   2.0000      -0.460663       -12.5353
  48   2.0000      -0.452773       -12.3206
  49   2.0000      -0.443182       -12.0596
  50   2.0000      -0.438525       -11.9329
  51   2.0000      -0.428064       -11.6482
  52   2.0000      -0.422140       -11.4870
  53   2.0000      -0.419222       -11.4076
  54   2.0000      -0.414985       -11.2923
  55   2.0000      -0.282110        -7.6766
  56   0.0000       0.078598         2.1388
  57   0.0000       0.092762         2.5242
  58   0.0000       0.098114         2.6698
  59   0.0000       0.102903         2.8001
  60   0.0000       0.107832         2.9343

MULLIKEN ATOMIC CHARGES
-----------------------
   0 C :   -0.299545
   1 C :   -0.236253
   2 C :   -0.382092
   3 H :    0.191559
   4 H :    0.203768
   5 S :    0.791207
   6 C :    0.106650
   7 C :   -0.402553
   8 N :   -0.321316
   9 H :    0.224848
  10 H :    0.201717
  11 H :    0.091859
  12 H :    0.081823
  13 F :   -0.106573
  14 O :   -0.360162
  15 C :   -0.291408
  16 C :   -0.259998
  17 H :    0.165221
  18 H :    0.147551
  19 C :   -0.236751
  20 H :    0.149848
  21 H :    0.130503
  22 O :   -0.411882
  23 H :    0.137000
  24 H :    0.131026
  25 H :    0.122811
  26 H :    0.138249
  27 H :    0.133460
  28 H :    0.159434
Sum of atomic charges:   -0.0000000

LOEWDIN ATOMIC CHARGES
----------------------
   0 C :   -0.221470
   1 C :   -0.289757
   2 C :   -0.373783
   3 H :    0.144180
   4 H :    0.156194
   5 S :    0.525789
   6 C :   -0.388770
   7 C :   -0.301957
   8 N :    0.024763
   9 H :    0.166527
  10 H :    0.158014
  11 H :    0.107011
  12 H :    0.094003
  13 F :    0.079394
  14 O :   -0.242437
  15 C :   -0.260481
  16 C :   -0.280470
  17 H :    0.151859
  18 H :    0.151697
  19 C :   -0.278872
  20 H :    0.143726
  21 H :    0.140871
  22 O :   -0.268760
  23 H :    0.139574
  24 H :    0.141536
  25 H :    0.139440
  26 H :    0.144879
  27 H :    0.140576
  28 H :    0.156725

  Mayer bond orders larger than 0.100000
B(  0-C ,  6-C ) :   0.8730 B(  0-C , 15-C ) :   0.9042 B(  0-C , 27-H ) :   0.9936
B(  0-C , 28-H ) :   0.9870 B(  1-C ,  2-C ) :   0.8966 B(  1-C , 16-C ) :   0.9314
B(  1-C , 17-H ) :   0.9802 B(  1-C , 18-H ) :   0.9621 B(  2-C ,  3-H ) :   0.9425
B(  2-C ,  4-H ) :   0.9519 B(  2-C ,  5-S ) :   0.9131 B(  5-S , 13-F ) :   1.1054
B(  5-S , 14-O ) :   2.0493 B(  5-S , 22-O ) :   1.8699 B(  6-C ,  7-C ) :   1.6797
B(  6-C ,  8-N ) :   1.2005 B(  7-C , 11-H ) :   1.0168 B(  7-C , 12-H ) :   1.0116
B(  8-N ,  9-H ) :   0.9305 B(  8-N , 10-H ) :   0.9342 B( 15-C , 19-C ) :   0.9263
B( 15-C , 20-H ) :   0.9907 B( 15-C , 21-H ) :   0.9825 B( 16-C , 19-C ) :   0.8620
B( 16-C , 25-H ) :   0.9800 B( 16-C , 26-H ) :   0.9780 B( 19-C , 23-H ) :   0.9799
B( 19-C , 24-H ) :   0.9799

FINAL SINGLE POINT ENERGY     -1016.260789349065

DIPOLE MOMENT
-------------
                                X             Y             Z
Electronic contribution:      2.14018      -4.92641     -18.57620
Nuclear contribution   :     -2.89481       6.29550      19.36835
                        -----------------------------------------
Total Dipole Moment    :     -0.75464       1.36909       0.79215
                        -----------------------------------------
Magnitude (a.u.)       :      1.75254
Magnitude (Debye)      :      4.45459

Rotational constants in cm-1:     0.036515     0.018832     0.015081
Rotational constants in MHz :  1094.679513   564.567051   452.109105

                             ****ORCA TERMINATED NORMALLY****
TOTAL RUN TIME: 0 days 0 hours 1 minutes 11 seconds 922 msec
