                         Program Version 5.0.0 -  RELEASE  -
|  1> !LC-BLYP RIJCOSX def2-TZVP def2/J TightSCF xyzfile
|  2>
|  3> *xyzfile 0 1 D2.xyz
|  4>
|  5> %MaxCore 64000
|  6>
|  7> %pal nprocs 18
|  8> end
|  9>
| 10> %scf
| 11>   MaxIter 150
| 12> end
| 13>
| 14>
| 15>                          ****END OF INPUT****

CARTESIAN COORDINATES (ANGSTROEM)
---------------------------------
  C      2.916324   -1.242589   -1.543125
  C      0.704661    1.443129   -4.503630
  C      1.728539    1.424320   -5.639443
  H      2.646718    1.953794   -5.381054
  H      1.299916    1.930613   -6.503614
  S      2.252625   -0.188115   -6.271840
  C      3.466585   -1.590971   -2.889082
  N      4.652275   -1.143164   -3.259692
  C      2.752264   -2.292043   -3.728029
  H      1.778364   -2.489604   -3.512738
  H      2.948612   -2.208544   -4.716813
  H      5.146723   -0.512508   -2.633852
  H      4.783030   -1.007203   -4.253498
  F      3.562607   -0.444464   -5.631552
  O      2.344944   -0.033742   -7.696501
  C      2.804084    0.290698   -1.359243
  C      1.052550    0.695659   -3.214915
  H     -0.232483    1.032925   -4.884449
  H      0.511700    2.495794   -4.267966
  C      2.388380    1.093669   -2.597108
  H      3.763425    0.674718   -0.999889
  H      2.094788    0.461222   -0.545756
  O      1.266058   -1.159177   -5.805365
  H      3.167316    1.013242   -3.359430
  H      2.357690    2.149375   -2.310997
  H      1.039284   -0.368429   -3.449329
  H      0.250787    0.865605   -2.488283
  H      1.940472   -1.716529   -1.441161
  H      3.558569   -1.663433   -0.766371

 Total Charge           Charge          ....    0
 Multiplicity           Mult            ....    1
 Number of Electrons    NEL             ....  112
 Basis Dimension        Dim             ....  505

ORBITAL ENERGIES
----------------

  NO   OCC          E(Eh)            E(eV)
   0   2.0000     -88.518994     -2408.7243
   1   2.0000     -24.563275      -668.4007
   2   2.0000     -18.956085      -515.8213
   3   2.0000     -18.946406      -515.5579
   4   2.0000     -14.165833      -385.4719
   5   2.0000     -10.130074      -275.6533
   6   2.0000     -10.094090      -274.6742
   7   2.0000     -10.084994      -274.4266
   8   2.0000     -10.076577      -274.1976
   9   2.0000     -10.074620      -274.1444
  10   2.0000     -10.069661      -274.0094
  11   2.0000     -10.069516      -274.0055
  12   2.0000      -9.995237      -271.9842
  13   2.0000      -8.061690      -219.3697
  14   2.0000      -6.093797      -165.8206
  15   2.0000      -6.086492      -165.6219
  16   2.0000      -6.085967      -165.6076
  17   2.0000      -1.444236       -39.2996
  18   2.0000      -1.210416       -32.9371
  19   2.0000      -1.114859       -30.3369
  20   2.0000      -1.035557       -28.1789
  21   2.0000      -0.949322       -25.8324
  22   2.0000      -0.912933       -24.8422
  23   2.0000      -0.870948       -23.6997
  24   2.0000      -0.842957       -22.9380
  25   2.0000      -0.817204       -22.2372
  26   2.0000      -0.790916       -21.5219
  27   2.0000      -0.738581       -20.0978
  28   2.0000      -0.705737       -19.2041
  29   2.0000      -0.681650       -18.5486
  30   2.0000      -0.677573       -18.4377
  31   2.0000      -0.664539       -18.0830
  32   2.0000      -0.653814       -17.7912
  33   2.0000      -0.629443       -17.1280
  34   2.0000      -0.602454       -16.3936
  35   2.0000      -0.599960       -16.3257
  36   2.0000      -0.585793       -15.9402
  37   2.0000      -0.570566       -15.5259
  38   2.0000      -0.556556       -15.1447
  39   2.0000      -0.548187       -14.9169
  40   2.0000      -0.539431       -14.6787
  41   2.0000      -0.521738       -14.1972
  42   2.0000      -0.507313       -13.8047
  43   2.0000      -0.494166       -13.4469
  44   2.0000      -0.487768       -13.2728
  45   2.0000      -0.484193       -13.1756
  46   2.0000      -0.467857       -12.7310
  47   2.0000      -0.458145       -12.4668
  48   2.0000      -0.448528       -12.2051
  49   2.0000      -0.435460       -11.8495
  50   2.0000      -0.432335       -11.7644
  51   2.0000      -0.424405       -11.5487
  52   2.0000      -0.421695       -11.4749
  53   2.0000      -0.413081       -11.2405
  54   2.0000      -0.411983       -11.2106
  55   2.0000      -0.288874        -7.8607
  56   0.0000       0.074734         2.0336
  57   0.0000       0.091747         2.4966
  58   0.0000       0.094047         2.5592
  59   0.0000       0.102507         2.7894
  60   0.0000       0.119238         3.2446

MULLIKEN ATOMIC CHARGES
-----------------------
   0 C :   -0.284044
   1 C :   -0.238221
   2 C :   -0.381123
   3 H :    0.182931
   4 H :    0.203539
   5 S :    0.801910
   6 C :    0.146843
   7 N :   -0.359168
   8 C :   -0.433701
   9 H :    0.111400
  10 H :    0.076452
  11 H :    0.224657
  12 H :    0.214843
  13 F :   -0.126611
  14 O :   -0.363021
  15 C :   -0.313738
  16 C :   -0.266123
  17 H :    0.166033
  18 H :    0.143648
  19 C :   -0.239565
  20 H :    0.145580
  21 H :    0.136690
  22 O :   -0.389141
  23 H :    0.106571
  24 H :    0.131402
  25 H :    0.168515
  26 H :    0.133851
  27 H :    0.150958
  28 H :    0.148629
Sum of atomic charges:    0.0000000

LOEWDIN ATOMIC CHARGES
----------------------
   0 C :   -0.223380
   1 C :   -0.290175
   2 C :   -0.375501
   3 H :    0.140866
   4 H :    0.155818
   5 S :    0.530747
   6 C :   -0.392182
   7 N :   -0.004236
   8 C :   -0.275907
   9 H :    0.108480
  10 H :    0.092635
  11 H :    0.168957
  12 H :    0.161001
  13 F :    0.067179
  14 O :   -0.245138
  15 C :   -0.269352
  16 C :   -0.278619
  17 H :    0.152737
  18 H :    0.150174
  19 C :   -0.279918
  20 H :    0.137639
  21 H :    0.143629
  22 O :   -0.244446
  23 H :    0.131428
  24 H :    0.141513
  25 H :    0.151259
  26 H :    0.143976
  27 H :    0.153734
  28 H :    0.147081

  Mayer bond orders larger than 0.100000
B(  0-C ,  6-C ) :   0.8901 B(  0-C , 15-C ) :   0.8825 B(  0-C , 27-H ) :   0.9889
B(  0-C , 28-H ) :   0.9927 B(  1-C ,  2-C ) :   0.8955 B(  1-C , 16-C ) :   0.9274
B(  1-C , 17-H ) :   0.9796 B(  1-C , 18-H ) :   0.9622 B(  2-C ,  3-H ) :   0.9444
B(  2-C ,  4-H ) :   0.9537 B(  2-C ,  5-S ) :   0.9130 B(  5-S , 13-F ) :   1.0822
B(  5-S , 14-O ) :   2.0458 B(  5-S , 22-O ) :   1.9005 B(  6-C ,  7-N ) :   1.1195
B(  6-C ,  8-C ) :   1.6887 B(  7-N , 11-H ) :   0.9388 B(  7-N , 12-H ) :   0.9312
B(  8-C ,  9-H ) :   1.0279 B(  8-C , 10-H ) :   1.0435 B( 15-C , 19-C ) :   0.9003
B( 15-C , 20-H ) :   1.0023 B( 15-C , 21-H ) :   0.9776 B( 16-C , 19-C ) :   0.8533
B( 16-C , 25-H ) :   0.9790 B( 16-C , 26-H ) :   0.9774 B( 19-C , 23-H ) :   0.9865
B( 19-C , 24-H ) :   0.9826

FINAL SINGLE POINT ENERGY     -1016.260843742048

DIPOLE MOMENT
-------------
                                X             Y             Z
Electronic contribution:      3.47014      -4.22092     -18.24971
Nuclear contribution   :     -3.13969       6.14743      19.30799
                        -----------------------------------------
Total Dipole Moment    :      0.33045       1.92651       1.05828
                        -----------------------------------------
Magnitude (a.u.)       :      2.22275
Magnitude (Debye)      :      5.64977

Rotational constants in cm-1:     0.036460     0.018762     0.015014
Rotational constants in MHz :  1093.039020   562.475626   450.105862

                             ****ORCA TERMINATED NORMALLY****
TOTAL RUN TIME: 0 days 0 hours 0 minutes 58 seconds 243 msec
