                         Program Version 5.0.0 -  RELEASE  -
|  1> !LC-BLYP RIJCOSX def2-TZVP def2/J TightSCF xyzfile
|  2>
|  3> *xyzfile 0 1 D3.xyz
|  4>
|  5> %MaxCore 64000
|  6>
|  7> %pal nprocs 18
|  8> end
|  9>
| 10> %scf
| 11>   MaxIter 150
| 12> end
| 13>
| 14>
| 15>                          ****END OF INPUT****

CARTESIAN COORDINATES (ANGSTROEM)
---------------------------------
  C      2.916324   -1.242589   -1.543125
  C      0.704661    1.443129   -4.503630
  C      1.728539    1.424320   -5.639443
  H      2.646718    1.953794   -5.381054
  H      1.299916    1.930613   -6.503614
  S      2.252625   -0.188115   -6.271840
  C      3.466585   -1.590971   -2.889082
  C      4.652275   -1.143164   -3.259692
  N      2.752264   -2.292043   -3.728029
  H      1.778364   -2.489604   -3.512738
  H      2.948612   -2.208544   -4.716813
  H      5.146723   -0.512508   -2.633852
  H      4.783030   -1.007203   -4.253498
  O      3.562607   -0.444464   -5.631552
  F      2.344944   -0.033742   -7.696501
  C      2.804084    0.290698   -1.359243
  C      1.052550    0.695659   -3.214915
  H     -0.232483    1.032925   -4.884449
  H      0.511700    2.495794   -4.267966
  C      2.388380    1.093669   -2.597108
  H      3.763425    0.674718   -0.999889
  H      2.094788    0.461222   -0.545756
  O      1.266058   -1.159177   -5.805365
  H      3.167316    1.013242   -3.359430
  H      2.357690    2.149375   -2.310997
  H      1.039284   -0.368429   -3.449329
  H      0.250787    0.865605   -2.488283
  H      1.940472   -1.716529   -1.441161
  H      3.558569   -1.663433   -0.766371

 Total Charge           Charge          ....    0
 Multiplicity           Mult            ....    1
 Number of Electrons    NEL             ....  112
 Basis Dimension        Dim             ....  505

ORBITAL ENERGIES
----------------

  NO   OCC          E(Eh)            E(eV)
   0   2.0000     -88.531831     -2409.0736
   1   2.0000     -24.589041      -669.1018
   2   2.0000     -18.961726      -515.9748
   3   2.0000     -18.952552      -515.7252
   4   2.0000     -14.139212      -384.7475
   5   2.0000     -10.137290      -275.8497
   6   2.0000     -10.099598      -274.8240
   7   2.0000     -10.069217      -273.9973
   8   2.0000     -10.065779      -273.9038
   9   2.0000     -10.060975      -273.7730
  10   2.0000     -10.059089      -273.7217
  11   2.0000     -10.056360      -273.6475
  12   2.0000      -9.966511      -271.2026
  13   2.0000      -8.074674      -219.7231
  14   2.0000      -6.106298      -166.1608
  15   2.0000      -6.099580      -165.9780
  16   2.0000      -6.099198      -165.9676
  17   2.0000      -1.481560       -40.3153
  18   2.0000      -1.211475       -32.9659
  19   2.0000      -1.110797       -30.2263
  20   2.0000      -1.012725       -27.5577
  21   2.0000      -0.951784       -25.8994
  22   2.0000      -0.906154       -24.6577
  23   2.0000      -0.872268       -23.7356
  24   2.0000      -0.834662       -22.7123
  25   2.0000      -0.805885       -21.9292
  26   2.0000      -0.782595       -21.2955
  27   2.0000      -0.743869       -20.2417
  28   2.0000      -0.709292       -19.3008
  29   2.0000      -0.704265       -19.1640
  30   2.0000      -0.678574       -18.4649
  31   2.0000      -0.669442       -18.2164
  32   2.0000      -0.641166       -17.4470
  33   2.0000      -0.612188       -16.6585
  34   2.0000      -0.603495       -16.4219
  35   2.0000      -0.599849       -16.3227
  36   2.0000      -0.584462       -15.9040
  37   2.0000      -0.572848       -15.5880
  38   2.0000      -0.553016       -15.0483
  39   2.0000      -0.541588       -14.7374
  40   2.0000      -0.529988       -14.4217
  41   2.0000      -0.517208       -14.0739
  42   2.0000      -0.504349       -13.7240
  43   2.0000      -0.486464       -13.2373
  44   2.0000      -0.479593       -13.0504
  45   2.0000      -0.463058       -12.6005
  46   2.0000      -0.457230       -12.4419
  47   2.0000      -0.450779       -12.2663
  48   2.0000      -0.442903       -12.0520
  49   2.0000      -0.434839       -11.8326
  50   2.0000      -0.425611       -11.5815
  51   2.0000      -0.421484       -11.4692
  52   2.0000      -0.411385       -11.1944
  53   2.0000      -0.403138       -10.9700
  54   2.0000      -0.397913       -10.8278
  55   2.0000      -0.258016        -7.0210
  56   0.0000       0.077395         2.1060
  57   0.0000       0.088200         2.4001
  58   0.0000       0.105627         2.8743
  59   0.0000       0.113587         3.0909
  60   0.0000       0.118085         3.2133

MULLIKEN ATOMIC CHARGES
-----------------------
   0 C :   -0.299109
   1 C :   -0.250665
   2 C :   -0.369842
   3 H :    0.205012
   4 H :    0.180072
   5 S :    0.802843
   6 C :    0.121207
   7 C :   -0.406200
   8 N :   -0.338152
   9 H :    0.210889
  10 H :    0.218093
  11 H :    0.078501
  12 H :    0.115744
  13 O :   -0.419242
  14 F :   -0.062317
  15 C :   -0.289943
  16 C :   -0.235334
  17 H :    0.159121
  18 H :    0.150280
  19 C :   -0.250402
  20 H :    0.146427
  21 H :    0.122509
  22 O :   -0.406268
  23 H :    0.162721
  24 H :    0.122748
  25 H :    0.117055
  26 H :    0.134929
  27 H :    0.126221
  28 H :    0.153101
Sum of atomic charges:    0.0000000

LOEWDIN ATOMIC CHARGES
----------------------
   0 C :   -0.225102
   1 C :   -0.287157
   2 C :   -0.375739
   3 H :    0.151840
   4 H :    0.142794
   5 S :    0.523052
   6 C :   -0.390476
   7 C :   -0.298016
   8 N :    0.019752
   9 H :    0.159614
  10 H :    0.161638
  11 H :    0.103028
  12 H :    0.101959
  13 O :   -0.272535
  14 F :    0.122446
  15 C :   -0.262135
  16 C :   -0.276923
  17 H :    0.150127
  18 H :    0.153001
  19 C :   -0.278407
  20 H :    0.143053
  21 H :    0.137934
  22 O :   -0.266379
  23 H :    0.146954
  24 H :    0.138648
  25 H :    0.140662
  26 H :    0.143941
  27 H :    0.137851
  28 H :    0.154577

  Mayer bond orders larger than 0.100000
B(  0-C ,  6-C ) :   0.8791 B(  0-C , 15-C ) :   0.9084 B(  0-C , 27-H ) :   0.9949
B(  0-C , 28-H ) :   0.9891 B(  1-C ,  2-C ) :   0.9061 B(  1-C , 16-C ) :   0.9372
B(  1-C , 17-H ) :   0.9821 B(  1-C , 18-H ) :   0.9633 B(  2-C ,  3-H ) :   0.9372
B(  2-C ,  4-H ) :   0.9525 B(  2-C ,  5-S ) :   0.9186 B(  5-S , 13-O ) :   1.8384
B(  5-S , 14-F ) :   1.2095 B(  5-S , 22-O ) :   1.8942 B(  6-C ,  7-C ) :   1.6946
B(  6-C ,  8-N ) :   1.1903 B(  7-C , 11-H ) :   1.0114 B(  7-C , 12-H ) :   1.0049
B(  8-N ,  9-H ) :   0.9371 B(  8-N , 10-H ) :   0.9231 B( 15-C , 19-C ) :   0.9308
B( 15-C , 20-H ) :   0.9896 B( 15-C , 21-H ) :   0.9835 B( 16-C , 19-C ) :   0.8611
B( 16-C , 25-H ) :   0.9770 B( 16-C , 26-H ) :   0.9788 B( 19-C , 23-H ) :   0.9756
B( 19-C , 24-H ) :   0.9789

FINAL SINGLE POINT ENERGY     -1016.243594911083

DIPOLE MOMENT
-------------
                                X             Y             Z
Electronic contribution:      0.02693      -4.13325     -22.55290
Nuclear contribution   :     -1.50273       5.82595      21.72909
                        -----------------------------------------
Total Dipole Moment    :     -1.47580       1.69269      -0.82382
                        -----------------------------------------
Magnitude (a.u.)       :      2.39204
Magnitude (Debye)      :      6.08008

Rotational constants in cm-1:     0.036883     0.018294     0.014745
Rotational constants in MHz :  1105.724679   548.429785   442.050481

                             ****ORCA TERMINATED NORMALLY****
TOTAL RUN TIME: 0 days 0 hours 0 minutes 55 seconds 392 msec
