                         Program Version 5.0.0 -  RELEASE  -
|  1> !LC-BLYP RIJCOSX def2-TZVP def2/J TightSCF xyzfile
|  2>
|  3> *xyzfile 0 1 D5.xyz
|  4>
|  5> %MaxCore 64000
|  6>
|  7> %pal nprocs 18
|  8> end
|  9>
| 10> %scf
| 11>   MaxIter 150
| 12> end
| 13>
| 14>
| 15>                          ****END OF INPUT****

CARTESIAN COORDINATES (ANGSTROEM)
---------------------------------
  C      2.916324   -1.242589   -1.543125
  C      0.704661    1.443129   -4.503630
  C      1.728539    1.424320   -5.639443
  H      2.646718    1.953794   -5.381054
  H      1.299916    1.930613   -6.503614
  S      2.252625   -0.188115   -6.271840
  C      3.466585   -1.590971   -2.889082
  C      4.652275   -1.143164   -3.259692
  N      2.752264   -2.292043   -3.728029
  H      1.778364   -2.489604   -3.512738
  H      2.948612   -2.208544   -4.716813
  H      5.146723   -0.512508   -2.633852
  H      4.783030   -1.007203   -4.253498
  O      3.562607   -0.444464   -5.631552
  O      2.344944   -0.033742   -7.696501
  C      2.804084    0.290698   -1.359243
  C      1.052550    0.695659   -3.214915
  H     -0.232483    1.032925   -4.884449
  H      0.511700    2.495794   -4.267966
  C      2.388380    1.093669   -2.597108
  H      3.763425    0.674718   -0.999889
  H      2.094788    0.461222   -0.545756
  F      1.266058   -1.159177   -5.805365
  H      3.167316    1.013242   -3.359430
  H      2.357690    2.149375   -2.310997
  H      1.039284   -0.368429   -3.449329
  H      0.250787    0.865605   -2.488283
  H      1.940472   -1.716529   -1.441161
  H      3.558569   -1.663433   -0.766371

 Total Charge           Charge          ....    0
 Multiplicity           Mult            ....    1
 Number of Electrons    NEL             ....  112
 Basis Dimension        Dim             ....  505

ORBITAL ENERGIES
----------------

  NO   OCC          E(Eh)            E(eV)
   0   2.0000     -88.527269     -2408.9495
   1   2.0000     -24.579025      -668.8293
   2   2.0000     -18.962624      -515.9992
   3   2.0000     -18.949143      -515.6324
   4   2.0000     -14.157470      -385.2444
   5   2.0000     -10.134513      -275.7741
   6   2.0000     -10.104833      -274.9665
   7   2.0000     -10.081901      -274.3425
   8   2.0000     -10.075991      -274.1817
   9   2.0000     -10.068804      -273.9861
  10   2.0000     -10.067341      -273.9463
  11   2.0000     -10.065706      -273.9018
  12   2.0000      -9.976767      -271.4816
  13   2.0000      -8.070179      -219.6007
  14   2.0000      -6.102122      -166.0472
  15   2.0000      -6.094902      -165.8507
  16   2.0000      -6.094585      -165.8421
  17   2.0000      -1.464190       -39.8426
  18   2.0000      -1.214454       -33.0470
  19   2.0000      -1.115443       -30.3528
  20   2.0000      -1.028566       -27.9887
  21   2.0000      -0.957111       -26.0443
  22   2.0000      -0.912184       -24.8218
  23   2.0000      -0.872973       -23.7548
  24   2.0000      -0.834184       -22.6993
  25   2.0000      -0.813334       -22.1319
  26   2.0000      -0.789666       -21.4879
  27   2.0000      -0.749987       -20.4082
  28   2.0000      -0.712354       -19.3841
  29   2.0000      -0.700189       -19.0531
  30   2.0000      -0.685535       -18.6544
  31   2.0000      -0.662599       -18.0302
  32   2.0000      -0.649723       -17.6799
  33   2.0000      -0.617462       -16.8020
  34   2.0000      -0.606545       -16.5049
  35   2.0000      -0.603812       -16.4306
  36   2.0000      -0.581949       -15.8356
  37   2.0000      -0.577031       -15.7018
  38   2.0000      -0.560147       -15.2424
  39   2.0000      -0.555036       -15.1033
  40   2.0000      -0.536943       -14.6110
  41   2.0000      -0.521050       -14.1785
  42   2.0000      -0.508463       -13.8360
  43   2.0000      -0.490747       -13.3539
  44   2.0000      -0.489831       -13.3290
  45   2.0000      -0.477790       -13.0013
  46   2.0000      -0.470357       -12.7991
  47   2.0000      -0.455830       -12.4038
  48   2.0000      -0.449507       -12.2317
  49   2.0000      -0.439595       -11.9620
  50   2.0000      -0.431620       -11.7450
  51   2.0000      -0.426109       -11.5950
  52   2.0000      -0.419131       -11.4051
  53   2.0000      -0.409658       -11.1474
  54   2.0000      -0.403756       -10.9868
  55   2.0000      -0.270682        -7.3656
  56   0.0000       0.067285         1.8309
  57   0.0000       0.093264         2.5378
  58   0.0000       0.095611         2.6017
  59   0.0000       0.108001         2.9389
  60   0.0000       0.120918         3.2904

MULLIKEN ATOMIC CHARGES
-----------------------
   0 C :   -0.297719
   1 C :   -0.290568
   2 C :   -0.352965
   3 H :    0.205074
   4 H :    0.198043
   5 S :    0.788891
   6 C :    0.120475
   7 C :   -0.389973
   8 N :   -0.364497
   9 H :    0.209448
  10 H :    0.210584
  11 H :    0.083145
  12 H :    0.126533
  13 O :   -0.422004
  14 O :   -0.353641
  15 C :   -0.297205
  16 C :   -0.240102
  17 H :    0.163990
  18 H :    0.152655
  19 C :   -0.235339
  20 H :    0.150582
  21 H :    0.125410
  22 F :   -0.095959
  23 H :    0.166525
  24 H :    0.129626
  25 H :    0.083238
  26 H :    0.142080
  27 H :    0.125659
  28 H :    0.158011
Sum of atomic charges:   -0.0000000

LOEWDIN ATOMIC CHARGES
----------------------
   0 C :   -0.225357
   1 C :   -0.298261
   2 C :   -0.367319
   3 H :    0.155525
   4 H :    0.151153
   5 S :    0.523315
   6 C :   -0.391668
   7 C :   -0.282457
   8 N :    0.007190
   9 H :    0.156022
  10 H :    0.157058
  11 H :    0.104862
  12 H :    0.104496
  13 O :   -0.272246
  14 O :   -0.239233
  15 C :   -0.261589
  16 C :   -0.281112
  17 H :    0.145826
  18 H :    0.153486
  19 C :   -0.276936
  20 H :    0.144332
  21 H :    0.138673
  22 F :    0.094638
  23 H :    0.148584
  24 H :    0.141021
  25 H :    0.131145
  26 H :    0.145579
  27 H :    0.137267
  28 H :    0.156008

  Mayer bond orders larger than 0.100000
B(  0-C ,  6-C ) :   0.8772 B(  0-C , 15-C ) :   0.9064 B(  0-C , 27-H ) :   0.9956
B(  0-C , 28-H ) :   0.9885 B(  1-C ,  2-C ) :   0.9039 B(  1-C , 16-C ) :   0.9105
B(  1-C , 17-H ) :   0.9907 B(  1-C , 18-H ) :   0.9629 B(  2-C ,  3-H ) :   0.9383
B(  2-C ,  4-H ) :   0.9528 B(  2-C ,  5-S ) :   0.9188 B(  5-S , 13-O ) :   1.8146
B(  5-S , 14-O ) :   2.0539 B(  5-S , 22-F ) :   1.1277 B(  6-C ,  7-C ) :   1.7147
B(  6-C ,  8-N ) :   1.1523 B(  7-C , 11-H ) :   1.0113 B(  7-C , 12-H ) :   1.0011
B(  8-N ,  9-H ) :   0.9382 B(  8-N , 10-H ) :   0.9211 B( 15-C , 19-C ) :   0.9269
B( 15-C , 20-H ) :   0.9891 B( 15-C , 21-H ) :   0.9837 B( 16-C , 19-C ) :   0.8399
B( 16-C , 25-H ) :   0.9926 B( 16-C , 26-H ) :   0.9780 B( 19-C , 23-H ) :   0.9757
B( 19-C , 24-H ) :   0.9780

FINAL SINGLE POINT ENERGY     -1016.248645095509

DIPOLE MOMENT
-------------
                                X             Y             Z
Electronic contribution:     -1.75247      -6.04732     -19.02193
Nuclear contribution   :     -0.26930       7.11259      19.56706
                        -----------------------------------------
Total Dipole Moment    :     -2.02177       1.06527       0.54514
                        -----------------------------------------
Magnitude (a.u.)       :      2.34937
Magnitude (Debye)      :      5.97163

Rotational constants in cm-1:     0.036519     0.018683     0.015073
Rotational constants in MHz :  1094.801738   560.111127   451.890222

                             ****ORCA TERMINATED NORMALLY****
TOTAL RUN TIME: 0 days 0 hours 1 minutes 18 seconds 25 msec
