                         Program Version 5.0.0 -  RELEASE  -
|  1> !LC-BLYP RIJCOSX def2-TZVP def2/J TightSCF xyzfile
|  2>
|  3> *xyzfile 0 1 D6.xyz
|  4>
|  5> %MaxCore 64000
|  6>
|  7> %pal nprocs 18
|  8> end
|  9>
| 10> %scf
| 11>   MaxIter 150
| 12> end
| 13>
| 14>
| 15>                          ****END OF INPUT****

CARTESIAN COORDINATES (ANGSTROEM)
---------------------------------
  C      2.916324   -1.242589   -1.543125
  C      0.704661    1.443129   -4.503630
  C      1.728539    1.424320   -5.639443
  H      2.646718    1.953794   -5.381054
  H      1.299916    1.930613   -6.503614
  S      2.252625   -0.188115   -6.271840
  C      3.466585   -1.590971   -2.889082
  N      4.652275   -1.143164   -3.259692
  C      2.752264   -2.292043   -3.728029
  H      1.778364   -2.489604   -3.512738
  H      2.948612   -2.208544   -4.716813
  H      5.146723   -0.512508   -2.633852
  H      4.783030   -1.007203   -4.253498
  O      3.562607   -0.444464   -5.631552
  O      2.344944   -0.033742   -7.696501
  C      2.804084    0.290698   -1.359243
  C      1.052550    0.695659   -3.214915
  H     -0.232483    1.032925   -4.884449
  H      0.511700    2.495794   -4.267966
  C      2.388380    1.093669   -2.597108
  H      3.763425    0.674718   -0.999889
  H      2.094788    0.461222   -0.545756
  F      1.266058   -1.159177   -5.805365
  H      3.167316    1.013242   -3.359430
  H      2.357690    2.149375   -2.310997
  H      1.039284   -0.368429   -3.449329
  H      0.250787    0.865605   -2.488283
  H      1.940472   -1.716529   -1.441161
  H      3.558569   -1.663433   -0.766371

 Total Charge           Charge          ....    0
 Multiplicity           Mult            ....    1
 Number of Electrons    NEL             ....  112
 Basis Dimension        Dim             ....  505

ORBITAL ENERGIES
----------------

  NO   OCC          E(Eh)            E(eV)
   0   2.0000     -88.524269     -2408.8678
   1   2.0000     -24.568190      -668.5344
   2   2.0000     -18.958837      -515.8962
   3   2.0000     -18.945343      -515.5290
   4   2.0000     -14.147545      -384.9743
   5   2.0000     -10.131626      -275.6956
   6   2.0000     -10.101077      -274.8643
   7   2.0000     -10.078351      -274.2459
   8   2.0000     -10.075796      -274.1763
   9   2.0000     -10.072989      -274.1000
  10   2.0000     -10.070831      -274.0412
  11   2.0000     -10.064928      -273.8806
  12   2.0000      -9.987361      -271.7699
  13   2.0000      -8.066685      -219.5057
  14   2.0000      -6.098482      -165.9481
  15   2.0000      -6.091642      -165.7620
  16   2.0000      -6.091182      -165.7495
  17   2.0000      -1.453325       -39.5470
  18   2.0000      -1.210140       -32.9296
  19   2.0000      -1.111606       -30.2483
  20   2.0000      -1.019763       -27.7492
  21   2.0000      -0.953748       -25.9528
  22   2.0000      -0.910518       -24.7764
  23   2.0000      -0.867224       -23.5984
  24   2.0000      -0.838802       -22.8250
  25   2.0000      -0.814353       -22.1597
  26   2.0000      -0.787836       -21.4381
  27   2.0000      -0.741602       -20.1800
  28   2.0000      -0.707283       -19.2461
  29   2.0000      -0.689699       -18.7677
  30   2.0000      -0.680883       -18.5278
  31   2.0000      -0.665660       -18.1135
  32   2.0000      -0.644937       -17.5496
  33   2.0000      -0.613955       -16.7066
  34   2.0000      -0.603461       -16.4210
  35   2.0000      -0.600683       -16.3454
  36   2.0000      -0.581121       -15.8131
  37   2.0000      -0.569296       -15.4913
  38   2.0000      -0.562357       -15.3025
  39   2.0000      -0.547977       -14.9112
  40   2.0000      -0.540045       -14.6954
  41   2.0000      -0.518200       -14.1009
  42   2.0000      -0.508447       -13.8355
  43   2.0000      -0.496866       -13.5204
  44   2.0000      -0.487184       -13.2569
  45   2.0000      -0.482885       -13.1400
  46   2.0000      -0.465362       -12.6631
  47   2.0000      -0.460340       -12.5265
  48   2.0000      -0.450392       -12.2558
  49   2.0000      -0.434386       -11.8203
  50   2.0000      -0.429116       -11.6768
  51   2.0000      -0.421748       -11.4763
  52   2.0000      -0.420617       -11.4456
  53   2.0000      -0.405741       -11.0408
  54   2.0000      -0.403456       -10.9786
  55   2.0000      -0.279708        -7.6112
  56   0.0000       0.071574         1.9476
  57   0.0000       0.090861         2.4724
  58   0.0000       0.099881         2.7179
  59   0.0000       0.111197         3.0258
  60   0.0000       0.121275         3.3001

MULLIKEN ATOMIC CHARGES
-----------------------
   0 C :   -0.282102
   1 C :   -0.291641
   2 C :   -0.351920
   3 H :    0.197184
   4 H :    0.197952
   5 S :    0.818313
   6 C :    0.168151
   7 N :   -0.356658
   8 C :   -0.479378
   9 H :    0.102143
  10 H :    0.091348
  11 H :    0.215463
  12 H :    0.245962
  13 O :   -0.450251
  14 O :   -0.357484
  15 C :   -0.318387
  16 C :   -0.245909
  17 H :    0.165032
  18 H :    0.149130
  19 C :   -0.246083
  20 H :    0.146383
  21 H :    0.132543
  22 F :   -0.082833
  23 H :    0.140927
  24 H :    0.129591
  25 H :    0.132656
  26 H :    0.137501
  27 H :    0.144750
  28 H :    0.147620
Sum of atomic charges:   -0.0000000

LOEWDIN ATOMIC CHARGES
----------------------
   0 C :   -0.224234
   1 C :   -0.298530
   2 C :   -0.368209
   3 H :    0.152830
   4 H :    0.150854
   5 S :    0.537246
   6 C :   -0.384461
   7 N :    0.006174
   8 C :   -0.300219
   9 H :    0.099658
  10 H :    0.092829
  11 H :    0.165783
  12 H :    0.169503
  13 O :   -0.290447
  14 O :   -0.240788
  15 C :   -0.269669
  16 C :   -0.279701
  17 H :    0.146799
  18 H :    0.152056
  19 C :   -0.278228
  20 H :    0.138600
  21 H :    0.141817
  22 F :    0.111793
  23 H :    0.141148
  24 H :    0.140971
  25 H :    0.143620
  26 H :    0.144560
  27 H :    0.151107
  28 H :    0.147135

  Mayer bond orders larger than 0.100000
B(  0-C ,  6-C ) :   0.8968 B(  0-C , 15-C ) :   0.8838 B(  0-C , 27-H ) :   0.9906
B(  0-C , 28-H ) :   0.9919 B(  1-C ,  2-C ) :   0.9030 B(  1-C , 16-C ) :   0.9067
B(  1-C , 17-H ) :   0.9900 B(  1-C , 18-H ) :   0.9631 B(  2-C ,  3-H ) :   0.9405
B(  2-C ,  4-H ) :   0.9541 B(  2-C ,  5-S ) :   0.9207 B(  5-S , 13-O ) :   1.7960
B(  5-S , 14-O ) :   2.0527 B(  5-S , 22-F ) :   1.1520 B(  6-C ,  7-N ) :   1.1605
B(  6-C ,  8-C ) :   1.6741 B(  7-N , 11-H ) :   0.9406 B(  7-N , 12-H ) :   0.9110
B(  8-C ,  9-H ) :   1.0313 B(  8-C , 10-H ) :   1.0227 B( 15-C , 19-C ) :   0.9009
B( 15-C , 20-H ) :   1.0003 B( 15-C , 21-H ) :   0.9789 B( 16-C , 19-C ) :   0.8330
B( 16-C , 25-H ) :   0.9948 B( 16-C , 26-H ) :   0.9778 B( 19-C , 23-H ) :   0.9824
B( 19-C , 24-H ) :   0.9803

FINAL SINGLE POINT ENERGY     -1016.258419406111

DIPOLE MOMENT
-------------
                                X             Y             Z
Electronic contribution:     -0.44811      -5.31524     -18.66711
Nuclear contribution   :     -0.51418       6.96452      19.50670
                        -----------------------------------------
Total Dipole Moment    :     -0.96229       1.64928       0.83960
                        -----------------------------------------
Magnitude (a.u.)       :      2.08592
Magnitude (Debye)      :      5.30198

Rotational constants in cm-1:     0.036455     0.018603     0.015008
Rotational constants in MHz :  1092.895336   557.693628   449.926016

                             ****ORCA TERMINATED NORMALLY****
TOTAL RUN TIME: 0 days 0 hours 1 minutes 0 seconds 734 msec
