                         Program Version 5.0.0 -  RELEASE  -
|  1> !PBE0 D3BJ RIJCOSX def2-SVPD def2/J TightSCF
|  2> *xyz -1 1
|  3> C          0.96805        1.63064       -3.71575
|  4> C         -0.50835        1.72268       -4.12430
|  5> S         -1.32861        0.14674       -4.43578
|  6> H         -0.59151        2.29496       -5.04722
|  7> H         -1.11411        2.23561       -3.37436
|  8> O         -2.57135        0.47573       -5.06834
|  9> O         -1.51496       -0.40051       -3.06342
| 10> O         -0.37793       -0.62756       -5.20114
| 11> H          1.51840        1.12197       -4.47946
| 12> H          1.05062        1.08971       -2.79625
| 13> H          1.36450        2.61606       -3.58668
| 14> *
| 15> %MaxCore 64000
| 16>
| 17> %pal nprocs 4
| 18> end
| 19>
| 20> %scf
| 21>   MaxIter 150
| 22> end
| 23>
| 24>
| 25>                          ****END OF INPUT****

CARTESIAN COORDINATES (ANGSTROEM)
---------------------------------
  C      0.968050    1.630640   -3.715750
  C     -0.508350    1.722680   -4.124300
  S     -1.328610    0.146740   -4.435780
  H     -0.591510    2.294960   -5.047220
  H     -1.114110    2.235610   -3.374360
  O     -2.571350    0.475730   -5.068340
  O     -1.514960   -0.400510   -3.063420
  O     -0.377930   -0.627560   -5.201140
  H      1.518400    1.121970   -4.479460
  H      1.050620    1.089710   -2.796250
  H      1.364500    2.616060   -3.586680

 Total Charge           Charge          ....   -1
 Multiplicity           Mult            ....    1
 Number of Electrons    NEL             ....   58
 Basis Dimension        Dim             ....  176

ORBITAL ENERGIES
----------------

  NO   OCC          E(Eh)            E(eV)
   0   2.0000     -89.036815     -2422.8149
   1   2.0000     -19.002259      -517.0778
   2   2.0000     -18.998784      -516.9832
   3   2.0000     -18.983307      -516.5621
   4   2.0000     -10.093994      -274.6715
   5   2.0000     -10.088888      -274.5326
   6   2.0000      -7.996455      -217.5946
   7   2.0000      -5.938756      -161.6018
   8   2.0000      -5.938488      -161.5945
   9   2.0000      -5.938144      -161.5851
  10   2.0000      -0.960991       -26.1499
  11   2.0000      -0.824696       -22.4411
  12   2.0000      -0.793059       -21.5802
  13   2.0000      -0.646983       -17.6053
  14   2.0000      -0.521674       -14.1955
  15   2.0000      -0.397453       -10.8153
  16   2.0000      -0.334207        -9.0942
  17   2.0000      -0.330309        -8.9882
  18   2.0000      -0.294188        -8.0053
  19   2.0000      -0.281793        -7.6680
  20   2.0000      -0.273124        -7.4321
  21   2.0000      -0.243006        -6.6125
  22   2.0000      -0.226509        -6.1636
  23   2.0000      -0.168633        -4.5887
  24   2.0000      -0.167904        -4.5689
  25   2.0000      -0.134653        -3.6641
  26   2.0000      -0.122819        -3.3421
  27   2.0000      -0.110125        -2.9966
  28   2.0000      -0.079496        -2.1632
  29   0.0000       0.149749         4.0749
  30   0.0000       0.175630         4.7791
  31   0.0000       0.183608         4.9962
  32   0.0000       0.188915         5.1406
  33   0.0000       0.210071         5.7163

MULLIKEN ATOMIC CHARGES
-----------------------
   0 C :    0.574027
   1 C :   -0.471826
   2 S :    1.434978
   3 H :    0.016187
   4 H :    0.014210
   5 O :   -0.811807
   6 O :   -0.872594
   7 O :   -0.832371
   8 H :    0.001535
   9 H :   -0.008158
  10 H :   -0.044182
Sum of atomic charges:   -1.0000000

LOEWDIN ATOMIC CHARGES
----------------------
   0 C :    0.099574
   1 C :   -0.137937
   2 S :    0.864544
   3 H :   -0.002503
   4 H :    0.004597
   5 O :   -0.573102
   6 O :   -0.605885
   7 O :   -0.576259
   8 H :   -0.023207
   9 H :   -0.015987
  10 H :   -0.033836

  Mayer bond orders larger than 0.100000
B(  0-C ,  1-C ) :   1.2909 B(  0-C ,  8-H ) :   0.8532 B(  0-C ,  9-H ) :   0.8507
B(  0-C , 10-H ) :   0.7912 B(  1-C ,  2-S ) :   0.9276 B(  1-C ,  3-H ) :   1.0052
B(  1-C ,  4-H ) :   0.9964 B(  1-C ,  8-H ) :   0.1783 B(  1-C ,  9-H ) :   0.1715
B(  1-C , 10-H ) :   0.1795 B(  2-S ,  5-O ) :   1.3175 B(  2-S ,  6-O ) :   1.2460
B(  2-S ,  7-O ) :   1.2772

Dispersion correction           -0.008254975
FINAL SINGLE POINT ENERGY      -702.318841656114

DIPOLE MOMENT
-------------
                                X             Y             Z
Electronic contribution:     -5.56156      -5.25648      -1.92990
Nuclear contribution   :      6.64523       6.80157       2.07300
                        -----------------------------------------
Total Dipole Moment    :      1.08367       1.54509       0.14310
                        -----------------------------------------
Magnitude (a.u.)       :      1.89265
Magnitude (Debye)      :      4.81073

Rotational constants in cm-1:     0.163070     0.082807     0.081541
Rotational constants in MHz :  4888.719902  2482.497026  2444.541148

                             ****ORCA TERMINATED NORMALLY****
TOTAL RUN TIME: 0 days 0 hours 0 minutes 22 seconds 883 msec
