                         Program Version 5.0.0 -  RELEASE  -
|  1> !PBE0 D3BJ RIJCOSX def2-SVPD def2/J TightSCF
|  2> *xyz 1 1
|  3> C          1.36401        0.46874       -2.81376
|  4> N          0.42884        0.32140       -1.65531
|  5> C          0.96805        1.63064       -3.71575
|  6> H          0.74858       -0.40054       -1.00134
|  7> H         -0.46105        0.02333       -2.07773
|  8> H          0.31026        1.20137       -1.13495
|  9> H          1.29485       -0.46874       -3.36468
| 10> H          2.37622        0.59740       -2.43149
| 11> H          1.65923        1.70213       -4.52942
| 12> H          0.98421        2.54058       -3.15304
| 13> H         -0.01744        1.46536       -4.09838
| 14> *
| 15> %MaxCore 64000
| 16>
| 17> %pal nprocs 4
| 18> end
| 19>
| 20> %scf
| 21>   MaxIter 150
| 22> end
| 23>
| 24>
| 25>                          ****END OF INPUT****

CARTESIAN COORDINATES (ANGSTROEM)
---------------------------------
  C      1.364010    0.468740   -2.813760
  N      0.428840    0.321400   -1.655310
  C      0.968050    1.630640   -3.715750
  H      0.748580   -0.400540   -1.001340
  H     -0.461050    0.023330   -2.077730
  H      0.310260    1.201370   -1.134950
  H      1.294850   -0.468740   -3.364680
  H      2.376220    0.597400   -2.431490
  H      1.659230    1.702130   -4.529420
  H      0.984210    2.540580   -3.153040
  H     -0.017440    1.465360   -4.098380

 Total Charge           Charge          ....    1
 Multiplicity           Mult            ....    1
 Number of Electrons    NEL             ....   26
 Basis Dimension        Dim             ....  124

ORBITAL ENERGIES
----------------

  NO   OCC          E(Eh)            E(eV)
   0   2.0000     -14.732962      -400.9043
   1   2.0000     -10.488828      -285.4155
   2   2.0000     -10.409868      -283.2669
   3   2.0000      -1.234030       -33.5797
   4   2.0000      -0.983183       -26.7538
   5   2.0000      -0.859298       -23.3827
   6   2.0000      -0.821661       -22.3585
   7   2.0000      -0.805172       -21.9098
   8   2.0000      -0.710163       -19.3245
   9   2.0000      -0.659110       -17.9353
  10   2.0000      -0.598935       -16.2979
  11   2.0000      -0.581626       -15.8268
  12   2.0000      -0.565717       -15.3940
  13   0.0000      -0.185573        -5.0497
  14   0.0000      -0.126037        -3.4296
  15   0.0000      -0.121860        -3.3160
  16   0.0000      -0.113309        -3.0833
  17   0.0000      -0.082747        -2.2517

MULLIKEN ATOMIC CHARGES
-----------------------
   0 C :    0.113891
   1 N :   -0.831477
   2 C :    0.439796
   3 H :    0.350637
   4 H :    0.444057
   5 H :    0.409292
   6 H :   -0.009422
   7 H :   -0.054649
   8 H :    0.047732
   9 H :    0.038872
  10 H :    0.051271
Sum of atomic charges:    1.0000000

LOEWDIN ATOMIC CHARGES
----------------------
   0 C :    0.050076
   1 N :    0.328007
   2 C :    0.168584
   3 H :    0.106499
   4 H :    0.106475
   5 H :    0.109539
   6 H :    0.054593
   7 H :    0.053707
   8 H :    0.018229
   9 H :    0.002164
  10 H :    0.002126

  Mayer bond orders larger than 0.100000
B(  0-C ,  1-N ) :   0.7531 B(  0-C ,  2-C ) :   1.3243 B(  0-C ,  6-H ) :   0.9318
B(  0-C ,  7-H ) :   0.9870 B(  0-C ,  8-H ) :   0.1661 B(  0-C ,  9-H ) :   0.1218
B(  0-C , 10-H ) :   0.1272 B(  1-N ,  3-H ) :   0.7904 B(  1-N ,  4-H ) :   0.6757
B(  1-N ,  5-H ) :   0.7182 B(  1-N ,  6-H ) :   0.1124 B(  2-C ,  8-H ) :   0.8338
B(  2-C ,  9-H ) :   0.8642 B(  2-C , 10-H ) :   0.8535

Dispersion correction           -0.005023740
FINAL SINGLE POINT ENERGY      -135.283208916518

DIPOLE MOMENT
-------------
                                X             Y             Z
Electronic contribution:     -0.34767      -0.94668       1.57112
Nuclear contribution   :     -0.20470       0.31427      -0.31587
                        -----------------------------------------
Total Dipole Moment    :     -0.55236      -0.63241       1.25525
                        -----------------------------------------
Magnitude (a.u.)       :      1.51020
Magnitude (Debye)      :      3.83862

Rotational constants in cm-1:     1.011480     0.279280     0.248378
Rotational constants in MHz : 30323.408050  8372.602834  7446.185305

                             ****ORCA TERMINATED NORMALLY****
TOTAL RUN TIME: 0 days 0 hours 0 minutes 11 seconds 731 msec
