                         Program Version 5.0.0 -  RELEASE  -
|  1> !PBE0 D3BJ RIJCOSX def2-SVPD def2/J TightSCF
|  2> *xyz 0 1
|  3> C          0.96805        1.63064       -3.71575
|  4> C         -0.50835        1.72268       -4.12430
|  5> S         -1.32861        0.14674       -4.43578
|  6> H         -0.59151        2.29496       -5.04722
|  7> H         -1.11411        2.23561       -3.37436
|  8> F         -2.57135        0.47573       -5.06834
|  9> O         -1.51496       -0.40051       -3.06342
| 10> O         -0.37793       -0.62756       -5.20114
| 11> H          1.51840        1.12197       -4.47946
| 12> H          1.05062        1.08971       -2.79625
| 13> H          1.36450        2.61606       -3.58668
| 14> *
| 15> %MaxCore 64000
| 16>
| 17> %pal nprocs 4
| 18> end
| 19>
| 20> %scf
| 21>   MaxIter 150
| 22> end
| 23>
| 24>
| 25>                          ****END OF INPUT****

CARTESIAN COORDINATES (ANGSTROEM)
---------------------------------
  C      0.968050    1.630640   -3.715750
  C     -0.508350    1.722680   -4.124300
  S     -1.328610    0.146740   -4.435780
  H     -0.591510    2.294960   -5.047220
  H     -1.114110    2.235610   -3.374360
  F     -2.571350    0.475730   -5.068340
  O     -1.514960   -0.400510   -3.063420
  O     -0.377930   -0.627560   -5.201140
  H      1.518400    1.121970   -4.479460
  H      1.050620    1.089710   -2.796250
  H      1.364500    2.616060   -3.586680

 Total Charge           Charge          ....    0
 Multiplicity           Mult            ....    1
 Number of Electrons    NEL             ....   58
 Basis Dimension        Dim             ....  176

ORBITAL ENERGIES
----------------

  NO   OCC          E(Eh)            E(eV)
   0   2.0000     -89.298289     -2429.9300
   1   2.0000     -24.910826      -677.8580
   2   2.0000     -19.234010      -523.3840
   3   2.0000     -19.218240      -522.9549
   4   2.0000     -10.297107      -280.1985
   5   2.0000     -10.252810      -278.9931
   6   2.0000      -8.258798      -224.7333
   7   2.0000      -6.205074      -168.8487
   8   2.0000      -6.198631      -168.6733
   9   2.0000      -6.197397      -168.6397
  10   2.0000      -1.420447       -38.6523
  11   2.0000      -1.135989       -30.9118
  12   2.0000      -1.029011       -28.0008
  13   2.0000      -0.839682       -22.8489
  14   2.0000      -0.763973       -20.7888
  15   2.0000      -0.698154       -18.9977
  16   2.0000      -0.617113       -16.7925
  17   2.0000      -0.613344       -16.6899
  18   2.0000      -0.576755       -15.6943
  19   2.0000      -0.509187       -13.8557
  20   2.0000      -0.503089       -13.6897
  21   2.0000      -0.462918       -12.5966
  22   2.0000      -0.447726       -12.1833
  23   2.0000      -0.423351       -11.5200
  24   2.0000      -0.402465       -10.9516
  25   2.0000      -0.401133       -10.9154
  26   2.0000      -0.351062        -9.5529
  27   2.0000      -0.333877        -9.0853
  28   2.0000      -0.320819        -8.7299
  29   0.0000       0.000483         0.0131
  30   0.0000       0.025753         0.7008
  31   0.0000       0.040171         1.0931
  32   0.0000       0.045416         1.2358
  33   0.0000       0.054649         1.4871

MULLIKEN ATOMIC CHARGES
-----------------------
   0 C :    0.569075
   1 C :   -0.506301
   2 S :    1.607100
   3 H :    0.071196
   4 H :    0.066950
   5 F :   -0.416340
   6 O :   -0.730044
   7 O :   -0.692136
   8 H :    0.025328
   9 H :    0.011896
  10 H :   -0.006724
Sum of atomic charges:    0.0000000

LOEWDIN ATOMIC CHARGES
----------------------
   0 C :    0.144973
   1 C :   -0.101906
   2 S :    1.132026
   3 H :    0.015366
   4 H :    0.023676
   5 F :   -0.252794
   6 O :   -0.490144
   7 O :   -0.465132
   8 H :   -0.005337
   9 H :    0.001656
  10 H :   -0.002385

  Mayer bond orders larger than 0.100000
B(  0-C ,  1-C ) :   1.3571 B(  0-C ,  8-H ) :   0.8473 B(  0-C ,  9-H ) :   0.8492
B(  0-C , 10-H ) :   0.7943 B(  1-C ,  2-S ) :   0.9742 B(  1-C ,  3-H ) :   0.9703
B(  1-C ,  4-H ) :   0.9758 B(  1-C ,  8-H ) :   0.1716 B(  1-C ,  9-H ) :   0.1658
B(  1-C , 10-H ) :   0.1692 B(  2-S ,  5-F ) :   0.6628 B(  2-S ,  6-O ) :   1.4541
B(  2-S ,  7-O ) :   1.4912

Dispersion correction           -0.007893210
FINAL SINGLE POINT ENERGY      -726.785555577438

DIPOLE MOMENT
-------------
                                X             Y             Z
Electronic contribution:     -8.29414      -5.10828      -3.22887
Nuclear contribution   :      8.31000       6.74109       2.87442
                        -----------------------------------------
Total Dipole Moment    :      0.01586       1.63280      -0.35445
                        -----------------------------------------
Magnitude (a.u.)       :      1.67091
Magnitude (Debye)      :      4.24711

Rotational constants in cm-1:     0.158705     0.080192     0.078179
Rotational constants in MHz :  4757.865601  2404.095079  2343.752507

                             ****ORCA TERMINATED NORMALLY****
TOTAL RUN TIME: 0 days 0 hours 0 minutes 21 seconds 435 msec
