                         Program Version 5.0.0 -  RELEASE  -
|  1> !PBE0 D3BJ RIJCOSX def2-SVPD def2/J TightSCF
|  2> *xyz 0 1
|  3> C          1.36401        0.46874       -2.81376
|  4> C          0.42884        0.32140       -1.65531
|  5> C          0.96805        1.63064       -3.71575
|  6> H          0.74858       -0.40054       -1.00134
|  7> H         -0.46105        0.02333       -2.07773
|  8> H          0.31026        1.20137       -1.13495
|  9> H          1.29485       -0.46874       -3.36468
| 10> H          2.37622        0.59740       -2.43149
| 11> H          1.65923        1.70213       -4.52942
| 12> H          0.98421        2.54058       -3.15304
| 13> H         -0.01744        1.46536       -4.09838
| 14> *
| 15> %MaxCore 64000
| 16>
| 17> %pal nprocs 4
| 18> end
| 19>
| 20> %scf
| 21>   MaxIter 150
| 22> end
| 23>
| 24>
| 25>                          ****END OF INPUT****

CARTESIAN COORDINATES (ANGSTROEM)
---------------------------------
  C      1.364010    0.468740   -2.813760
  C      0.428840    0.321400   -1.655310
  C      0.968050    1.630640   -3.715750
  H      0.748580   -0.400540   -1.001340
  H     -0.461050    0.023330   -2.077730
  H      0.310260    1.201370   -1.134950
  H      1.294850   -0.468740   -3.364680
  H      2.376220    0.597400   -2.431490
  H      1.659230    1.702130   -4.529420
  H      0.984210    2.540580   -3.153040
  H     -0.017440    1.465360   -4.098380

 Total Charge           Charge          ....    0
 Multiplicity           Mult            ....    1
 Number of Electrons    NEL             ....   26
 Basis Dimension        Dim             ....  124

ORBITAL ENERGIES
----------------

  NO   OCC          E(Eh)            E(eV)
   0   2.0000     -10.220326      -278.1092
   1   2.0000     -10.211199      -277.8608
   2   2.0000     -10.194225      -277.3990
   3   2.0000      -0.808743       -22.0070
   4   2.0000      -0.704592       -19.1729
   5   2.0000      -0.596741       -16.2381
   6   2.0000      -0.485134       -13.2012
   7   2.0000      -0.458780       -12.4840
   8   2.0000      -0.415787       -11.3141
   9   2.0000      -0.403092       -10.9687
  10   2.0000      -0.349762        -9.5175
  11   2.0000      -0.344324        -9.3695
  12   2.0000      -0.339849        -9.2478
  13   0.0000       0.034074         0.9272
  14   0.0000       0.063350         1.7238
  15   0.0000       0.070297         1.9129
  16   0.0000       0.091709         2.4955
  17   0.0000       0.110357         3.0030

MULLIKEN ATOMIC CHARGES
-----------------------
   0 C :   -0.755881
   1 C :    0.787881
   2 C :    0.481564
   3 H :   -0.165075
   4 H :   -0.077863
   5 H :   -0.142181
   6 H :   -0.010270
   7 H :   -0.084306
   8 H :   -0.041061
   9 H :    0.008696
  10 H :   -0.001504
Sum of atomic charges:   -0.0000000

LOEWDIN ATOMIC CHARGES
----------------------
   0 C :   -0.126733
   1 C :    0.112380
   2 C :    0.111196
   3 H :   -0.033105
   4 H :   -0.028597
   5 H :   -0.028219
   6 H :    0.022858
   7 H :    0.020330
   8 H :   -0.019986
   9 H :   -0.015397
  10 H :   -0.014727

  Mayer bond orders larger than 0.100000
B(  0-C ,  1-C ) :   1.2779 B(  0-C ,  2-C ) :   1.2622 B(  0-C ,  3-H ) :   0.1757
B(  0-C ,  4-H ) :   0.2417 B(  0-C ,  5-H ) :   0.1823 B(  0-C ,  6-H ) :   0.9525
B(  0-C ,  7-H ) :   1.0147 B(  0-C ,  8-H ) :   0.1571 B(  0-C ,  9-H ) :   0.1478
B(  0-C , 10-H ) :   0.1709 B(  1-C ,  3-H ) :   0.7912 B(  1-C ,  4-H ) :   0.7636
B(  1-C ,  5-H ) :   0.8054 B(  1-C ,  6-H ) :   0.1026 B(  2-C ,  8-H ) :   0.8662
B(  2-C ,  9-H ) :   0.8601 B(  2-C , 10-H ) :   0.8571

Dispersion correction           -0.005043461
FINAL SINGLE POINT ENERGY      -118.896406279255

DIPOLE MOMENT
-------------
                                X             Y             Z
Electronic contribution:      0.36639      -0.18475      -0.01781
Nuclear contribution   :     -0.35842       0.15752       0.02695
                        -----------------------------------------
Total Dipole Moment    :      0.00797      -0.02723       0.00914
                        -----------------------------------------
Magnitude (a.u.)       :      0.02981
Magnitude (Debye)      :      0.07577

Rotational constants in cm-1:     1.019891     0.293671     0.260247
Rotational constants in MHz : 30575.551403  8804.039097  7802.009261

                             ****ORCA TERMINATED NORMALLY****
TOTAL RUN TIME: 0 days 0 hours 0 minutes 11 seconds 734 msec
