                         Program Version 5.0.0 -  RELEASE  -
|  1> !PBE0 D3BJ RIJCOSX def2-SVPD def2/J TightSCF
|  2> *xyz 0 1
|  3> C          0.96805        1.63064       -3.71575
|  4> C         -0.50835        1.72268       -4.12430
|  5> S         -1.32861        0.14674       -4.43578
|  6> H         -0.59151        2.29496       -5.04722
|  7> H         -1.11411        2.23561       -3.37436
|  8> O         -2.57135        0.47573       -5.06834
|  9> F         -1.51496       -0.40051       -3.06342
| 10> O         -0.37793       -0.62756       -5.20114
| 11> H          1.51840        1.12197       -4.47946
| 12> H          1.05062        1.08971       -2.79625
| 13> H          1.36450        2.61606       -3.58668
| 14> *
| 15> %MaxCore 64000
| 16>
| 17> %pal nprocs 4
| 18> end
| 19>
| 20> %scf
| 21>   MaxIter 150
| 22> end
| 23>
| 24>
| 25>                          ****END OF INPUT****

CARTESIAN COORDINATES (ANGSTROEM)
---------------------------------
  C      0.968050    1.630640   -3.715750
  C     -0.508350    1.722680   -4.124300
  S     -1.328610    0.146740   -4.435780
  H     -0.591510    2.294960   -5.047220
  H     -1.114110    2.235610   -3.374360
  O     -2.571350    0.475730   -5.068340
  F     -1.514960   -0.400510   -3.063420
  O     -0.377930   -0.627560   -5.201140
  H      1.518400    1.121970   -4.479460
  H      1.050620    1.089710   -2.796250
  H      1.364500    2.616060   -3.586680

 Total Charge           Charge          ....    0
 Multiplicity           Mult            ....    1
 Number of Electrons    NEL             ....   58
 Basis Dimension        Dim             ....  176

ORBITAL ENERGIES
----------------

  NO   OCC          E(Eh)            E(eV)
   0   2.0000     -89.295466     -2429.8532
   1   2.0000     -24.882221      -677.0797
   2   2.0000     -19.237175      -523.4702
   3   2.0000     -19.233656      -523.3744
   4   2.0000     -10.295973      -280.1677
   5   2.0000     -10.254231      -279.0318
   6   2.0000      -8.255910      -224.6547
   7   2.0000      -6.201909      -168.7625
   8   2.0000      -6.196101      -168.6045
   9   2.0000      -6.194723      -168.5670
  10   2.0000      -1.372298       -37.3421
  11   2.0000      -1.151267       -31.3276
  12   2.0000      -1.056085       -28.7375
  13   2.0000      -0.841028       -22.8855
  14   2.0000      -0.743025       -20.2187
  15   2.0000      -0.690752       -18.7963
  16   2.0000      -0.598124       -16.2758
  17   2.0000      -0.583298       -15.8723
  18   2.0000      -0.569042       -15.4844
  19   2.0000      -0.511611       -13.9216
  20   2.0000      -0.496353       -13.5065
  21   2.0000      -0.478879       -13.0309
  22   2.0000      -0.452545       -12.3144
  23   2.0000      -0.422711       -11.5026
  24   2.0000      -0.419115       -11.4047
  25   2.0000      -0.398430       -10.8418
  26   2.0000      -0.361405        -9.8343
  27   2.0000      -0.347960        -9.4685
  28   2.0000      -0.340684        -9.2705
  29   0.0000       0.000252         0.0069
  30   0.0000       0.032298         0.8789
  31   0.0000       0.041263         1.1228
  32   0.0000       0.044825         1.2198
  33   0.0000       0.054079         1.4716

MULLIKEN ATOMIC CHARGES
-----------------------
   0 C :    0.597925
   1 C :   -0.494960
   2 S :    1.591754
   3 H :    0.065778
   4 H :    0.057598
   5 O :   -0.682746
   6 F :   -0.442718
   7 O :   -0.706733
   8 H :    0.029685
   9 H :   -0.006226
  10 H :   -0.009357
Sum of atomic charges:   -0.0000000

LOEWDIN ATOMIC CHARGES
----------------------
   0 C :    0.131116
   1 C :   -0.091433
   2 S :    1.126370
   3 H :    0.030532
   4 H :    0.022674
   5 O :   -0.459299
   6 F :   -0.279130
   7 O :   -0.463256
   8 H :   -0.006788
   9 H :   -0.005926
  10 H :   -0.004861

  Mayer bond orders larger than 0.100000
B(  0-C ,  1-C ) :   1.3185 B(  0-C ,  8-H ) :   0.8547 B(  0-C ,  9-H ) :   0.8455
B(  0-C , 10-H ) :   0.7890 B(  1-C ,  2-S ) :   0.9996 B(  1-C ,  3-H ) :   0.9932
B(  1-C ,  4-H ) :   0.9806 B(  1-C ,  8-H ) :   0.1724 B(  1-C ,  9-H ) :   0.1647
B(  1-C , 10-H ) :   0.1696 B(  2-S ,  5-O ) :   1.5288 B(  2-S ,  6-F ) :   0.5951
B(  2-S ,  7-O ) :   1.4976

Dispersion correction           -0.007858204
FINAL SINGLE POINT ENERGY      -726.810411426158

DIPOLE MOMENT
-------------
                                X             Y             Z
Electronic contribution:     -6.52013      -6.59434       0.17715
Nuclear contribution   :      7.20921       7.65416       0.78523
                        -----------------------------------------
Total Dipole Moment    :      0.68908       1.05981       0.96239
                        -----------------------------------------
Magnitude (a.u.)       :      1.58878
Magnitude (Debye)      :      4.03836

Rotational constants in cm-1:     0.153780     0.081282     0.079816
Rotational constants in MHz :  4610.199589  2436.778679  2392.820729

                             ****ORCA TERMINATED NORMALLY****
TOTAL RUN TIME: 0 days 0 hours 0 minutes 21 seconds 586 msec
