                         Program Version 5.0.0 -  RELEASE  -
|  1> !PBE0 D3BJ RIJCOSX def2-SVPD def2/J TightSCF
|  2> *xyz 0 1
|  3> C          0.96805        1.63064       -3.71575
|  4> C         -0.50835        1.72268       -4.12430
|  5> S         -1.32861        0.14674       -4.43578
|  6> H         -0.59151        2.29496       -5.04722
|  7> H         -1.11411        2.23561       -3.37436
|  8> O         -2.57135        0.47573       -5.06834
|  9> O         -1.51496       -0.40051       -3.06342
| 10> F         -0.37793       -0.62756       -5.20114
| 11> H          1.51840        1.12197       -4.47946
| 12> H          1.05062        1.08971       -2.79625
| 13> H          1.36450        2.61606       -3.58668
| 14> *
| 15> %MaxCore 64000
| 16>
| 17> %pal nprocs 4
| 18> end
| 19>
| 20> %scf
| 21>   MaxIter 150
| 22> end
| 23>
| 24>
| 25>                          ****END OF INPUT****

CARTESIAN COORDINATES (ANGSTROEM)
---------------------------------
  C      0.968050    1.630640   -3.715750
  C     -0.508350    1.722680   -4.124300
  S     -1.328610    0.146740   -4.435780
  H     -0.591510    2.294960   -5.047220
  H     -1.114110    2.235610   -3.374360
  O     -2.571350    0.475730   -5.068340
  O     -1.514960   -0.400510   -3.063420
  F     -0.377930   -0.627560   -5.201140
  H      1.518400    1.121970   -4.479460
  H      1.050620    1.089710   -2.796250
  H      1.364500    2.616060   -3.586680

 Total Charge           Charge          ....    0
 Multiplicity           Mult            ....    1
 Number of Electrons    NEL             ....   58
 Basis Dimension        Dim             ....  176

ORBITAL ENERGIES
----------------

  NO   OCC          E(Eh)            E(eV)
   0   2.0000     -89.297581     -2429.9107
   1   2.0000     -24.904849      -677.6954
   2   2.0000     -19.237712      -523.4848
   3   2.0000     -19.218292      -522.9563
   4   2.0000     -10.296911      -280.1932
   5   2.0000     -10.257874      -279.1309
   6   2.0000      -8.258092      -224.7141
   7   2.0000      -6.204407      -168.8305
   8   2.0000      -6.197970      -168.6553
   9   2.0000      -6.196678      -168.6202
  10   2.0000      -1.409626       -38.3579
  11   2.0000      -1.142127       -31.0789
  12   2.0000      -1.032022       -28.0827
  13   2.0000      -0.843480       -22.9523
  14   2.0000      -0.756797       -20.5935
  15   2.0000      -0.700087       -19.0503
  16   2.0000      -0.619699       -16.8629
  17   2.0000      -0.608994       -16.5716
  18   2.0000      -0.568087       -15.4584
  19   2.0000      -0.511057       -13.9066
  20   2.0000      -0.497343       -13.5334
  21   2.0000      -0.472007       -12.8440
  22   2.0000      -0.456641       -12.4258
  23   2.0000      -0.427171       -11.6239
  24   2.0000      -0.412390       -11.2217
  25   2.0000      -0.399411       -10.8685
  26   2.0000      -0.353922        -9.6307
  27   2.0000      -0.334631        -9.1058
  28   2.0000      -0.323750        -8.8097
  29   0.0000      -0.003643        -0.0991
  30   0.0000       0.031612         0.8602
  31   0.0000       0.041497         1.1292
  32   0.0000       0.044519         1.2114
  33   0.0000       0.053098         1.4449

MULLIKEN ATOMIC CHARGES
-----------------------
   0 C :    0.581399
   1 C :   -0.472115
   2 S :    1.575864
   3 H :    0.062328
   4 H :    0.059687
   5 O :   -0.669755
   6 O :   -0.731066
   7 F :   -0.422274
   8 H :    0.008669
   9 H :    0.016599
  10 H :   -0.009336
Sum of atomic charges:   -0.0000000

LOEWDIN ATOMIC CHARGES
----------------------
   0 C :    0.129386
   1 C :   -0.089558
   2 S :    1.128246
   3 H :    0.018921
   4 H :    0.036831
   5 O :   -0.458456
   6 O :   -0.489051
   7 F :   -0.258289
   8 H :   -0.011653
   9 H :   -0.002151
  10 H :   -0.004225

  Mayer bond orders larger than 0.100000
B(  0-C ,  1-C ) :   1.3058 B(  0-C ,  8-H ) :   0.8496 B(  0-C ,  9-H ) :   0.8586
B(  0-C , 10-H ) :   0.7920 B(  1-C ,  2-S ) :   1.0016 B(  1-C ,  3-H ) :   0.9965
B(  1-C ,  4-H ) :   0.9854 B(  1-C ,  8-H ) :   0.1622 B(  1-C ,  9-H ) :   0.1633
B(  1-C , 10-H ) :   0.1732 B(  2-S ,  5-O ) :   1.5322 B(  2-S ,  6-O ) :   1.4669
B(  2-S ,  7-F ) :   0.6443

Dispersion correction           -0.007845164
FINAL SINGLE POINT ENERGY      -726.790533457537

DIPOLE MOMENT
-------------
                                X             Y             Z
Electronic contribution:     -4.59806      -6.95068      -3.43948
Nuclear contribution   :      6.02439       7.89075       3.01280
                        -----------------------------------------
Total Dipole Moment    :      1.42633       0.94007      -0.42668
                        -----------------------------------------
Magnitude (a.u.)       :      1.76074
Magnitude (Debye)      :      4.47545

Rotational constants in cm-1:     0.153652     0.082400     0.079295
Rotational constants in MHz :  4606.361242  2470.285703  2377.214112

                             ****ORCA TERMINATED NORMALLY****
TOTAL RUN TIME: 0 days 0 hours 0 minutes 22 seconds 826 msec
