                         Program Version 5.0.0 -  RELEASE  -
|  1> !CAM-B3LYP RIJCOSX def2-TZVPD def2/J TightSCF
|  2> *xyz -1 1
|  3> C          0.13297        2.38587       -4.02462
|  4> C         -1.36646        2.47911       -4.31393
|  5> C         -2.35773        2.30686       -3.13675
|  6> H         -1.63680        1.72709       -5.06399
|  7> H         -1.58235        3.44561       -4.76869
|  8> O         -3.44376        2.84652       -3.25274
|  9> O         -1.97092        1.58304       -2.15123
| 10> H          0.68084        2.52514       -4.93310
| 11> H          0.35823        1.42282       -3.61633
| 12> H          0.40851        3.14443       -3.32208
| 13> *
| 14> %MaxCore 64000
| 15>
| 16> %pal nprocs 4
| 17> end
| 18>
| 19> %scf
| 20>   MaxIter 150
| 21> end
| 22>
| 23>
| 24>                          ****END OF INPUT****

CARTESIAN COORDINATES (ANGSTROEM)
---------------------------------
  C      0.132970    2.385870   -4.024620
  C     -1.366460    2.479110   -4.313930
  C     -2.357730    2.306860   -3.136750
  H     -1.636800    1.727090   -5.063990
  H     -1.582350    3.445610   -4.768690
  O     -3.443760    2.846520   -3.252740
  O     -1.970920    1.583040   -2.151230
  H      0.680840    2.525140   -4.933100
  H      0.358230    1.422820   -3.616330
  H      0.408510    3.144430   -3.322080

 Total Charge           Charge          ....   -1
 Multiplicity           Mult            ....    1
 Number of Electrons    NEL             ....   40
 Basis Dimension        Dim             ....  236

ORBITAL ENERGIES
----------------

  NO   OCC          E(Eh)            E(eV)
   0   2.0000     -18.940205      -515.3892
   1   2.0000     -18.929956      -515.1103
   2   2.0000     -10.130900      -275.6758
   3   2.0000     -10.077107      -274.2120
   4   2.0000     -10.069890      -274.0156
   5   2.0000      -0.911028       -24.7903
   6   2.0000      -0.809023       -22.0146
   7   2.0000      -0.686180       -18.6719
   8   2.0000      -0.552441       -15.0327
   9   2.0000      -0.389029       -10.5860
  10   2.0000      -0.365339        -9.9414
  11   2.0000      -0.332726        -9.0539
  12   2.0000      -0.299440        -8.1482
  13   2.0000      -0.284897        -7.7524
  14   2.0000      -0.278824        -7.5872
  15   2.0000      -0.247173        -6.7259
  16   2.0000      -0.229444        -6.2435
  17   2.0000      -0.114000        -3.1021
  18   2.0000      -0.108314        -2.9474
  19   2.0000      -0.097155        -2.6437
  20   0.0000       0.157418         4.2836
  21   0.0000       0.180094         4.9006
  22   0.0000       0.192525         5.2389
  23   0.0000       0.208561         5.6752
  24   0.0000       0.222677         6.0594

MULLIKEN ATOMIC CHARGES
-----------------------
   0 C :   -0.983350
   1 C :   -0.166477
   2 C :    0.311759
   3 H :    0.185898
   4 H :    0.233427
   5 O :   -0.665977
   6 O :   -0.741564
   7 H :    0.317603
   8 H :    0.248453
   9 H :    0.260228
Sum of atomic charges:   -1.0000000

LOEWDIN ATOMIC CHARGES
----------------------
   0 C :   -0.141005
   1 C :   -0.209483
   2 C :   -0.779726
   3 H :    0.096003
   4 H :    0.085912
   5 O :   -0.071391
   6 O :   -0.133574
   7 H :    0.042145
   8 H :    0.053283
   9 H :    0.057838

  Mayer bond orders larger than 0.100000
B(  0-C ,  1-C ) :   0.5500 B(  0-C ,  7-H ) :   0.9453 B(  0-C ,  8-H ) :   1.0245
B(  0-C ,  9-H ) :   0.9891 B(  1-C ,  2-C ) :   0.9318 B(  1-C ,  3-H ) :   0.9693
B(  1-C ,  4-H ) :   1.0003 B(  2-C ,  5-O ) :   1.5421 B(  2-C ,  6-O ) :   1.4702

FINAL SINGLE POINT ENERGY      -267.835600263183

DIPOLE MOMENT
-------------
                                X             Y             Z
Electronic contribution:     -5.23120      -0.36419       3.17007
Nuclear contribution   :      6.75610       0.63068      -4.53972
                        -----------------------------------------
Total Dipole Moment    :      1.52490       0.26649      -1.36965
                        -----------------------------------------
Magnitude (a.u.)       :      2.06694
Magnitude (Debye)      :      5.25376

Rotational constants in cm-1:     0.335096     0.130241     0.099025
Rotational constants in MHz : 10045.924902  3904.536250  2968.708333

                             ****ORCA TERMINATED NORMALLY****
TOTAL RUN TIME: 0 days 0 hours 0 minutes 39 seconds 196 msec
