                         Program Version 5.0.0 -  RELEASE  -
|  1> !CAM-B3LYP RIJCOSX def2-TZVPD def2/J TightSCF
|  2> *xyz 1 1
|  3> C          0.64866        1.00359       -3.64560
|  4> N          0.28128        0.67645       -2.24018
|  5> C          0.13297        2.38587       -4.02462
|  6> H          0.39079       -0.31925       -2.02649
|  7> H         -0.69269        0.99010       -2.13812
|  8> H          0.85421        1.21221       -1.57528
|  9> H          0.19099        0.23965       -4.27575
| 10> H          1.73157        0.93173       -3.75075
| 11> H          0.40589        2.60338       -5.03610
| 12> H          0.56342        3.11797       -3.37374
| 13> H         -0.93265        2.40724       -3.93025
| 14> *
| 15> %MaxCore 64000
| 16>
| 17> %pal nprocs 4
| 18> end
| 19>
| 20> %scf
| 21>   MaxIter 150
| 22> end
| 23>
| 24>
| 25>                          ****END OF INPUT****

CARTESIAN COORDINATES (ANGSTROEM)
---------------------------------
  C      0.648660    1.003590   -3.645600
  N      0.281280    0.676450   -2.240180
  C      0.132970    2.385870   -4.024620
  H      0.390790   -0.319250   -2.026490
  H     -0.692690    0.990100   -2.138120
  H      0.854210    1.212210   -1.575280
  H      0.190990    0.239650   -4.275750
  H      1.731570    0.931730   -3.750750
  H      0.405890    2.603380   -5.036100
  H      0.563420    3.117970   -3.373740
  H     -0.932650    2.407240   -3.930250

 Total Charge           Charge          ....    1
 Multiplicity           Mult            ....    1
 Number of Electrons    NEL             ....   26
 Basis Dimension        Dim             ....  183

ORBITAL ENERGIES
----------------

  NO   OCC          E(Eh)            E(eV)
   0   2.0000     -14.724122      -400.6637
   1   2.0000     -10.498231      -285.6714
   2   2.0000     -10.419838      -283.5382
   3   2.0000      -1.300336       -35.3839
   4   2.0000      -1.048268       -28.5248
   5   2.0000      -0.923410       -25.1273
   6   2.0000      -0.872931       -23.7536
   7   2.0000      -0.865640       -23.5553
   8   2.0000      -0.764358       -20.7992
   9   2.0000      -0.712786       -19.3959
  10   2.0000      -0.652304       -17.7501
  11   2.0000      -0.638177       -17.3657
  12   2.0000      -0.620322       -16.8798
  13   0.0000      -0.165703        -4.5090
  14   0.0000      -0.107249        -2.9184
  15   0.0000      -0.103825        -2.8252
  16   0.0000      -0.102110        -2.7786
  17   0.0000      -0.067596        -1.8394

MULLIKEN ATOMIC CHARGES
-----------------------
   0 C :   -0.339514
   1 N :   -0.305788
   2 C :   -1.180513
   3 H :    0.348641
   4 H :    0.336172
   5 H :    0.346681
   6 H :    0.328377
   7 H :    0.339718
   8 H :    0.335761
   9 H :    0.377527
  10 H :    0.412938
Sum of atomic charges:    1.0000000

LOEWDIN ATOMIC CHARGES
----------------------
   0 C :   -0.202601
   1 N :    0.183308
   2 C :   -0.057142
   3 H :    0.181216
   4 H :    0.175914
   5 H :    0.183021
   6 H :    0.136543
   7 H :    0.137085
   8 H :    0.094288
   9 H :    0.084723
  10 H :    0.083643

  Mayer bond orders larger than 0.100000
B(  0-C ,  1-N ) :   0.8831 B(  0-C ,  2-C ) :   0.5704 B(  0-C ,  6-H ) :   0.9280
B(  0-C ,  7-H ) :   0.9257 B(  1-N ,  3-H ) :   0.8707 B(  1-N ,  4-H ) :   0.8715
B(  1-N ,  5-H ) :   0.8718 B(  2-C ,  8-H ) :   0.9772 B(  2-C ,  9-H ) :   0.9193
B(  2-C , 10-H ) :   0.8692

FINAL SINGLE POINT ENERGY      -135.507399250706

DIPOLE MOMENT
-------------
                                X             Y             Z
Electronic contribution:      0.17198      -1.29917       1.31293
Nuclear contribution   :     -0.22655       0.48066      -0.09136
                        -----------------------------------------
Total Dipole Moment    :     -0.05457      -0.81851       1.22157
                        -----------------------------------------
Magnitude (a.u.)       :      1.47145
Magnitude (Debye)      :      3.74014

Rotational constants in cm-1:     0.998155     0.284845     0.251232
Rotational constants in MHz : 29923.943568  8539.431565  7531.732866

                             ****ORCA TERMINATED NORMALLY****
TOTAL RUN TIME: 0 days 0 hours 0 minutes 26 seconds 185 msec
