                         Program Version 5.0.0 -  RELEASE  -
|  1> !CAM-B3LYP RIJCOSX def2-TZVPD def2/J TightSCF xyzfile
|  2>
|  3> *xyzfile 0 1 B.xyz
|  4>
|  5> %MaxCore 64000
|  6>
|  7> %pal nprocs 4
|  8> end
|  9>
| 10> %scf
| 11>   MaxIter 150
| 12> end
| 13>
| 14>
| 15>                          ****END OF INPUT****

CARTESIAN COORDINATES (ANGSTROEM)
---------------------------------
  C      0.648656    1.003595   -3.645601
  N      0.281280    0.676454   -2.240179
  C      0.132968    2.385869   -4.024618
  C     -1.366462    2.479106   -4.313932
  C     -2.357732    2.306858   -3.136753
  H     -1.636802    1.727095   -5.063993
  H     -1.582347    3.445605   -4.768687
  H      0.390790   -0.319253   -2.026495
  H     -0.692686    0.990104   -2.138123
  H      0.854206    1.212214   -1.575279
  O     -3.443763    2.846518   -3.252744
  O     -1.970922    1.583042   -2.151229
  H      0.190993    0.239655   -4.275752
  H      1.731572    0.931729   -3.750751
  H      0.414839    3.102847   -3.245165
  H      0.683167    2.687560   -4.919721

 Total Charge           Charge          ....    0
 Multiplicity           Mult            ....    1
 Number of Electrons    NEL             ....   56
 Basis Dimension        Dim             ....  346

ORBITAL ENERGIES
----------------

  NO   OCC          E(Eh)            E(eV)
   0   2.0000     -19.125803      -520.4396
   1   2.0000     -19.105815      -519.8956
   2   2.0000     -14.500701      -394.5841
   3   2.0000     -10.333702      -281.1943
   4   2.0000     -10.308865      -280.5185
   5   2.0000     -10.273180      -279.5474
   6   2.0000     -10.235611      -278.5251
   7   2.0000      -1.106737       -30.1158
   8   2.0000      -1.083928       -29.4952
   9   2.0000      -1.001040       -27.2397
  10   2.0000      -0.896407       -24.3925
  11   2.0000      -0.798657       -21.7326
  12   2.0000      -0.716673       -19.5017
  13   2.0000      -0.679646       -18.4941
  14   2.0000      -0.667868       -18.1736
  15   2.0000      -0.595762       -16.2115
  16   2.0000      -0.555777       -15.1235
  17   2.0000      -0.551563       -15.0088
  18   2.0000      -0.507299       -13.8043
  19   2.0000      -0.494297       -13.4505
  20   2.0000      -0.458703       -12.4819
  21   2.0000      -0.455995       -12.4083
  22   2.0000      -0.447117       -12.1667
  23   2.0000      -0.427084       -11.6216
  24   2.0000      -0.403745       -10.9865
  25   2.0000      -0.300724        -8.1831
  26   2.0000      -0.299220        -8.1422
  27   2.0000      -0.270842        -7.3700
  28   0.0000      -0.011725        -0.3190
  29   0.0000       0.024274         0.6605
  30   0.0000       0.026922         0.7326
  31   0.0000       0.048368         1.3162
  32   0.0000       0.067262         1.8303

MULLIKEN ATOMIC CHARGES
-----------------------
   0 C :   -0.565395
   1 N :   -0.206628
   2 C :   -0.390432
   3 C :   -0.480026
   4 C :    0.434998
   5 H :    0.233283
   6 H :    0.248315
   7 H :    0.316243
   8 H :    0.303587
   9 H :    0.330603
  10 O :   -0.602719
  11 O :   -0.787294
  12 H :    0.323884
  13 H :    0.310272
  14 H :    0.253755
  15 H :    0.277555
Sum of atomic charges:   -0.0000000

LOEWDIN ATOMIC CHARGES
----------------------
   0 C :   -0.169200
   1 N :    0.146317
   2 C :   -0.191709
   3 C :   -0.118476
   4 C :   -0.669155
   5 H :    0.119478
   6 H :    0.112878
   7 H :    0.162970
   8 H :   -0.005586
   9 H :    0.166936
  10 O :    0.020531
  11 O :   -0.064526
  12 H :    0.131950
  13 H :    0.119699
  14 H :    0.123739
  15 H :    0.114156

  Mayer bond orders larger than 0.100000
B(  0-C ,  1-N ) :   0.9053 B(  0-C ,  2-C ) :   0.7514 B(  0-C , 12-H ) :   0.9255
B(  0-C , 13-H ) :   0.9688 B(  1-N ,  7-H ) :   0.8849 B(  1-N ,  8-H ) :   0.7913
B(  1-N ,  9-H ) :   0.8692 B(  1-N , 11-O ) :  -0.1034 B(  2-C ,  3-C ) :   0.7206
B(  2-C , 14-H ) :   0.9743 B(  2-C , 15-H ) :   1.0022 B(  3-C ,  4-C ) :   0.9886
B(  3-C ,  5-H ) :   0.9546 B(  3-C ,  6-H ) :   1.0215 B(  4-C , 10-O ) :   1.5955
B(  4-C , 11-O ) :   1.2516 B(  8-H , 11-O ) :   0.1732

FINAL SINGLE POINT ENERGY      -363.023458705498

DIPOLE MOMENT
-------------
                                X             Y             Z
Electronic contribution:     -5.77473       0.93237       2.51039
Nuclear contribution   :      9.92875      -2.62114      -2.63866
                        -----------------------------------------
Total Dipole Moment    :      4.15402      -1.68877      -0.12827
                        -----------------------------------------
Magnitude (a.u.)       :      4.48601
Magnitude (Debye)      :     11.40253

Rotational constants in cm-1:     0.159108     0.062474     0.047603
Rotational constants in MHz :  4769.938632  1872.932224  1427.103830

                             ****ORCA TERMINATED NORMALLY****
TOTAL RUN TIME: 0 days 0 hours 1 minutes 40 seconds 347 msec
