                         Program Version 5.0.0 -  RELEASE  -
|  1> !CAM-B3LYP RIJCOSX def2-TZVPD def2/J TightSCF
|  2> *xyz 0 1
|  3> C          0.13297        2.38587       -4.02462
|  4> C         -1.36646        2.47911       -4.31393
|  5> C         -2.35773        2.30686       -3.13675
|  6> H         -1.63680        1.72709       -5.06399
|  7> H         -1.58235        3.44561       -4.76869
|  8> F         -3.44376        2.84652       -3.25274
|  9> O         -1.97092        1.58304       -2.15123
| 10> H          0.68084        2.52514       -4.93310
| 11> H          0.35823        1.42282       -3.61633
| 12> H          0.40851        3.14443       -3.32208
| 13> *
| 14> %MaxCore 64000
| 15>
| 16> %pal nprocs 4
| 17> end
| 18>
| 19> %scf
| 20>   MaxIter 150
| 21> end
| 22>
| 23>
| 24>                          ****END OF INPUT****

CARTESIAN COORDINATES (ANGSTROEM)
---------------------------------
  C      0.132970    2.385870   -4.024620
  C     -1.366460    2.479110   -4.313930
  C     -2.357730    2.306860   -3.136750
  H     -1.636800    1.727090   -5.063990
  H     -1.582350    3.445610   -4.768690
  F     -3.443760    2.846520   -3.252740
  O     -1.970920    1.583040   -2.151230
  H      0.680840    2.525140   -4.933100
  H      0.358230    1.422820   -3.616330
  H      0.408510    3.144430   -3.322080

 Total Charge           Charge          ....    0
 Multiplicity           Mult            ....    1
 Number of Electrons    NEL             ....   40
 Basis Dimension        Dim             ....  236

ORBITAL ENERGIES
----------------

  NO   OCC          E(Eh)            E(eV)
   0   2.0000     -24.843883      -676.0364
   1   2.0000     -19.203462      -522.5528
   2   2.0000     -10.432478      -283.8822
   3   2.0000     -10.278726      -279.6983
   4   2.0000     -10.244013      -278.7538
   5   2.0000      -1.433613       -39.0106
   6   2.0000      -1.100621       -29.9494
   7   2.0000      -0.881490       -23.9866
   8   2.0000      -0.780503       -21.2386
   9   2.0000      -0.725671       -19.7465
  10   2.0000      -0.643623       -17.5139
  11   2.0000      -0.625478       -17.0201
  12   2.0000      -0.582220       -15.8430
  13   2.0000      -0.539352       -14.6765
  14   2.0000      -0.502151       -13.6642
  15   2.0000      -0.461029       -12.5452
  16   2.0000      -0.442580       -12.0432
  17   2.0000      -0.440116       -11.9762
  18   2.0000      -0.409704       -11.1486
  19   2.0000      -0.357189        -9.7196
  20   0.0000       0.015612         0.4248
  21   0.0000       0.029502         0.8028
  22   0.0000       0.050041         1.3617
  23   0.0000       0.061072         1.6618
  24   0.0000       0.073561         2.0017

MULLIKEN ATOMIC CHARGES
-----------------------
   0 C :   -1.058328
   1 C :   -0.259192
   2 C :    0.513739
   3 H :    0.271070
   4 H :    0.300350
   5 F :   -0.187879
   6 O :   -0.506484
   7 H :    0.333184
   8 H :    0.292307
   9 H :    0.301233
Sum of atomic charges:   -0.0000000

LOEWDIN ATOMIC CHARGES
----------------------
   0 C :   -0.093897
   1 C :   -0.159017
   2 C :   -0.494437
   3 H :    0.122000
   4 H :    0.108013
   5 F :    0.250452
   6 O :    0.053031
   7 H :    0.068771
   8 H :    0.071049
   9 H :    0.074035

  Mayer bond orders larger than 0.100000
B(  0-C ,  1-C ) :   0.6334 B(  0-C ,  7-H ) :   0.9418 B(  0-C ,  8-H ) :   0.9893
B(  0-C ,  9-H ) :   0.9587 B(  1-C ,  2-C ) :   0.9231 B(  1-C ,  3-H ) :   0.9293
B(  1-C ,  4-H ) :   0.9436 B(  2-C ,  5-F ) :   1.0555 B(  2-C ,  6-O ) :   1.7457

FINAL SINGLE POINT ENERGY      -292.391911227635

DIPOLE MOMENT
-------------
                                X             Y             Z
Electronic contribution:     -8.36265       0.48428       3.55068
Nuclear contribution   :      8.54799       0.05434      -4.66633
                        -----------------------------------------
Total Dipole Moment    :      0.18534       0.53862      -1.11564
                        -----------------------------------------
Magnitude (a.u.)       :      1.25265
Magnitude (Debye)      :      3.18397

Rotational constants in cm-1:     0.325803     0.123345     0.094275
Rotational constants in MHz :  9767.324172  3697.779805  2826.305733

                             ****ORCA TERMINATED NORMALLY****
TOTAL RUN TIME: 0 days 0 hours 0 minutes 43 seconds 516 msec
