                         Program Version 5.0.0 -  RELEASE  -
|  1> !CAM-B3LYP RIJCOSX def2-TZVPD def2/J TightSCF
|  2> *xyz 0 1
|  3> C          0.64866        1.00359       -3.64560
|  4> C          0.28128        0.67645       -2.24018
|  5> C          0.13297        2.38587       -4.02462
|  6> H          0.39079       -0.31925       -2.02649
|  7> H         -0.69269        0.99010       -2.13812
|  8> H          0.85421        1.21221       -1.57528
|  9> H          0.19099        0.23965       -4.27575
| 10> H          1.73157        0.93173       -3.75075
| 11> H          0.40589        2.60338       -5.03610
| 12> H          0.56342        3.11797       -3.37374
| 13> H         -0.93265        2.40724       -3.93025
| 14> *
| 15> %MaxCore 64000
| 16>
| 17> %pal nprocs 4
| 18> end
| 19>
| 20> %scf
| 21>   MaxIter 150
| 22> end
| 23>
| 24>
| 25>                          ****END OF INPUT****

CARTESIAN COORDINATES (ANGSTROEM)
---------------------------------
  C      0.648660    1.003590   -3.645600
  C      0.281280    0.676450   -2.240180
  C      0.132970    2.385870   -4.024620
  H      0.390790   -0.319250   -2.026490
  H     -0.692690    0.990100   -2.138120
  H      0.854210    1.212210   -1.575280
  H      0.190990    0.239650   -4.275750
  H      1.731570    0.931730   -3.750750
  H      0.405890    2.603380   -5.036100
  H      0.563420    3.117970   -3.373740
  H     -0.932650    2.407240   -3.930250

 Total Charge           Charge          ....    0
 Multiplicity           Mult            ....    1
 Number of Electrons    NEL             ....   26
 Basis Dimension        Dim             ....  183

ORBITAL ENERGIES
----------------

  NO   OCC          E(Eh)            E(eV)
   0   2.0000     -10.228207      -278.3237
   1   2.0000     -10.219954      -278.0991
   2   2.0000     -10.200924      -277.5813
   3   2.0000      -0.876364       -23.8471
   4   2.0000      -0.769103       -20.9283
   5   2.0000      -0.662513       -18.0279
   6   2.0000      -0.540141       -14.6980
   7   2.0000      -0.520454       -14.1623
   8   2.0000      -0.470432       -12.8011
   9   2.0000      -0.454192       -12.3592
  10   2.0000      -0.402807       -10.9609
  11   2.0000      -0.399239       -10.8638
  12   2.0000      -0.391950       -10.6655
  13   0.0000       0.040747         1.1088
  14   0.0000       0.061625         1.6769
  15   0.0000       0.064147         1.7455
  16   0.0000       0.089065         2.4236
  17   0.0000       0.110141         2.9971

MULLIKEN ATOMIC CHARGES
-----------------------
   0 C :   -0.065963
   1 C :   -1.271801
   2 C :   -1.121551
   3 H :    0.340228
   4 H :    0.336393
   5 H :    0.356469
   6 H :    0.247159
   7 H :    0.248553
   8 H :    0.298208
   9 H :    0.308007
  10 H :    0.324299
Sum of atomic charges:   -0.0000000

LOEWDIN ATOMIC CHARGES
----------------------
   0 C :   -0.320393
   1 C :   -0.127914
   2 C :   -0.119160
   3 H :    0.052254
   4 H :    0.053493
   5 H :    0.057166
   6 H :    0.103668
   7 H :    0.103607
   8 H :    0.061891
   9 H :    0.068757
  10 H :    0.066630

  Mayer bond orders larger than 0.100000
B(  0-C ,  1-C ) :   0.5382 B(  0-C ,  2-C ) :   0.5952 B(  0-C ,  6-H ) :   0.9859
B(  0-C ,  7-H ) :   0.9659 B(  1-C ,  3-H ) :   0.9515 B(  1-C ,  4-H ) :   0.9506
B(  1-C ,  5-H ) :   0.9490 B(  2-C ,  8-H ) :   0.9893 B(  2-C ,  9-H ) :   0.9746
B(  2-C , 10-H ) :   0.9591

FINAL SINGLE POINT ENERGY      -119.094654186761

DIPOLE MOMENT
-------------
                                X             Y             Z
Electronic contribution:      0.26004      -0.28073      -0.24478
Nuclear contribution   :     -0.24754       0.26111       0.24628
                        -----------------------------------------
Total Dipole Moment    :      0.01250      -0.01962       0.00149
                        -----------------------------------------
Magnitude (a.u.)       :      0.02331
Magnitude (Debye)      :      0.05926

Rotational constants in cm-1:     1.006509     0.299509     0.263145
Rotational constants in MHz : 30174.379724  8979.049324  7888.875355

                             ****ORCA TERMINATED NORMALLY****
TOTAL RUN TIME: 0 days 0 hours 0 minutes 25 seconds 0 msec
