                         Program Version 5.0.0 -  RELEASE  -
|  1> !CAM-B3LYP RIJCOSX def2-TZVPD def2/J TightSCF
|  2> *xyz 0 1
|  3> C          0.13297        2.38587       -4.02462
|  4> C         -1.36646        2.47911       -4.31393
|  5> C         -2.35773        2.30686       -3.13675
|  6> H         -1.63680        1.72709       -5.06399
|  7> H         -1.58235        3.44561       -4.76869
|  8> O         -3.44376        2.84652       -3.25274
|  9> F         -1.97092        1.58304       -2.15123
| 10> H          0.68084        2.52514       -4.93310
| 11> H          0.35823        1.42282       -3.61633
| 12> H          0.40851        3.14443       -3.32208
| 13> *
| 14> %MaxCore 64000
| 15>
| 16> %pal nprocs 4
| 17> end
| 18>
| 19> %scf
| 20>   MaxIter 150
| 21> end
| 22>
| 23>
| 24>                          ****END OF INPUT****

CARTESIAN COORDINATES (ANGSTROEM)
---------------------------------
  C      0.132970    2.385870   -4.024620
  C     -1.366460    2.479110   -4.313930
  C     -2.357730    2.306860   -3.136750
  H     -1.636800    1.727090   -5.063990
  H     -1.582350    3.445610   -4.768690
  O     -3.443760    2.846520   -3.252740
  F     -1.970920    1.583040   -2.151230
  H      0.680840    2.525140   -4.933100
  H      0.358230    1.422820   -3.616330
  H      0.408510    3.144430   -3.322080

 Total Charge           Charge          ....    0
 Multiplicity           Mult            ....    1
 Number of Electrons    NEL             ....   40
 Basis Dimension        Dim             ....  236

ORBITAL ENERGIES
----------------

  NO   OCC          E(Eh)            E(eV)
   0   2.0000     -24.820147      -675.3905
   1   2.0000     -19.212633      -522.8023
   2   2.0000     -10.426544      -283.7207
   3   2.0000     -10.277078      -279.6535
   4   2.0000     -10.248970      -278.8886
   5   2.0000      -1.385336       -37.6969
   6   2.0000      -1.141141       -31.0520
   7   2.0000      -0.883843       -24.0506
   8   2.0000      -0.762102       -20.7378
   9   2.0000      -0.716521       -19.4975
  10   2.0000      -0.617867       -16.8130
  11   2.0000      -0.612606       -16.6699
  12   2.0000      -0.572176       -15.5697
  13   2.0000      -0.539261       -14.6740
  14   2.0000      -0.504999       -13.7417
  15   2.0000      -0.476865       -12.9761
  16   2.0000      -0.460340       -12.5265
  17   2.0000      -0.443463       -12.0673
  18   2.0000      -0.422258       -11.4902
  19   2.0000      -0.367210        -9.9923
  20   0.0000       0.018285         0.4976
  21   0.0000       0.030538         0.8310
  22   0.0000       0.052065         1.4168
  23   0.0000       0.059170         1.6101
  24   0.0000       0.073470         1.9992

MULLIKEN ATOMIC CHARGES
-----------------------
   0 C :   -1.090880
   1 C :   -0.182437
   2 C :    0.438604
   3 H :    0.271037
   4 H :    0.274065
   5 O :   -0.442847
   6 F :   -0.219951
   7 H :    0.321193
   8 H :    0.309110
   9 H :    0.322105
Sum of atomic charges:    0.0000000

LOEWDIN ATOMIC CHARGES
----------------------
   0 C :   -0.100722
   1 C :   -0.151653
   2 C :   -0.485641
   3 H :    0.122679
   4 H :    0.115794
   5 O :    0.111328
   6 F :    0.179614
   7 H :    0.068843
   8 H :    0.067646
   9 H :    0.072111

  Mayer bond orders larger than 0.100000
B(  0-C ,  1-C ) :   0.5634 B(  0-C ,  7-H ) :   0.9689 B(  0-C ,  8-H ) :   0.9699
B(  0-C ,  9-H ) :   0.9572 B(  1-C ,  2-C ) :   0.9112 B(  1-C ,  3-H ) :   0.9270
B(  1-C ,  4-H ) :   0.9643 B(  2-C ,  5-O ) :   1.8183 B(  2-C ,  6-F ) :   1.0202

FINAL SINGLE POINT ENERGY      -292.409677061494

DIPOLE MOMENT
-------------
                                X             Y             Z
Electronic contribution:     -5.87462      -1.62772       5.37743
Nuclear contribution   :      6.94213       1.43193      -5.86732
                        -----------------------------------------
Total Dipole Moment    :      1.06752      -0.19580      -0.48988
                        -----------------------------------------
Magnitude (a.u.)       :      1.19076
Magnitude (Debye)      :      3.02668

Rotational constants in cm-1:     0.306336     0.129048     0.095707
Rotational constants in MHz :  9183.725605  3868.769583  2869.236577

                             ****ORCA TERMINATED NORMALLY****
TOTAL RUN TIME: 0 days 0 hours 0 minutes 44 seconds 500 msec
