                         Program Version 5.0.0 -  RELEASE  -
|  1> !CAM-B3LYP RIJCOSX def2-TZVPD def2/J TightSCF xyzfile
|  2>
|  3> *xyzfile 0 1 D1.xyz
|  4>
|  5> %MaxCore 64000
|  6>
|  7> %pal nprocs 4
|  8> end
|  9>
| 10> %scf
| 11>   MaxIter 150
| 12> end
| 13>
| 14>
| 15>                          ****END OF INPUT****

CARTESIAN COORDINATES (ANGSTROEM)
---------------------------------
  C      0.648656    1.003595   -3.645601
  C      0.281280    0.676454   -2.240179
  C      0.132968    2.385869   -4.024618
  C     -1.366462    2.479106   -4.313932
  C     -2.357732    2.306858   -3.136753
  H     -1.636802    1.727095   -5.063993
  H     -1.582347    3.445605   -4.768687
  H      0.390790   -0.319253   -2.026495
  H     -0.692686    0.990104   -2.138123
  H      0.854206    1.212214   -1.575279
  F     -3.443763    2.846518   -3.252744
  O     -1.970922    1.583042   -2.151229
  H      0.190993    0.239655   -4.275752
  H      1.731572    0.931729   -3.750751
  H      0.414839    3.102847   -3.245165
  H      0.683167    2.687560   -4.919721

 Total Charge           Charge          ....    0
 Multiplicity           Mult            ....    1
 Number of Electrons    NEL             ....   56
 Basis Dimension        Dim             ....  346

ORBITAL ENERGIES
----------------

  NO   OCC          E(Eh)            E(eV)
   0   2.0000     -24.854401      -676.3226
   1   2.0000     -19.211049      -522.7592
   2   2.0000     -10.447250      -284.2841
   3   2.0000     -10.283474      -279.8276
   4   2.0000     -10.251682      -278.9624
   5   2.0000     -10.222544      -278.1696
   6   2.0000     -10.150280      -276.2032
   7   2.0000      -1.443982       -39.2927
   8   2.0000      -1.124317       -30.5942
   9   2.0000      -0.900906       -24.5149
  10   2.0000      -0.840798       -22.8793
  11   2.0000      -0.770982       -20.9795
  12   2.0000      -0.738545       -20.0968
  13   2.0000      -0.661237       -17.9932
  14   2.0000      -0.650547       -17.7023
  15   2.0000      -0.636237       -17.3129
  16   2.0000      -0.600955       -16.3528
  17   2.0000      -0.555037       -15.1033
  18   2.0000      -0.523063       -14.2333
  19   2.0000      -0.505749       -13.7621
  20   2.0000      -0.480089       -13.0639
  21   2.0000      -0.451294       -12.2803
  22   2.0000      -0.445458       -12.1215
  23   2.0000      -0.422785       -11.5046
  24   2.0000      -0.409192       -11.1347
  25   2.0000      -0.385533       -10.4909
  26   2.0000      -0.376321       -10.2402
  27   2.0000      -0.312160        -8.4943
  28   0.0000       0.004293         0.1168
  29   0.0000       0.025888         0.7044
  30   0.0000       0.047715         1.2984
  31   0.0000       0.053021         1.4428
  32   0.0000       0.059163         1.6099

MULLIKEN ATOMIC CHARGES
-----------------------
   0 C :   -0.264267
   1 C :   -1.200580
   2 C :   -0.439393
   3 C :   -0.506353
   4 C :    0.565025
   5 H :    0.291808
   6 H :    0.298522
   7 H :    0.357826
   8 H :    0.304699
   9 H :    0.376033
  10 F :   -0.223043
  11 O :   -0.525305
  12 H :    0.258085
  13 H :    0.217905
  14 H :    0.248323
  15 H :    0.240716
Sum of atomic charges:   -0.0000000

LOEWDIN ATOMIC CHARGES
----------------------
   0 C :   -0.253007
   1 C :   -0.123604
   2 C :   -0.202574
   3 C :   -0.088937
   4 C :   -0.424605
   5 H :    0.131422
   6 H :    0.114331
   7 H :    0.057758
   8 H :   -0.054777
   9 H :    0.063522
  10 F :    0.266307
  11 O :    0.062247
  12 H :    0.111577
  13 H :    0.105614
  14 H :    0.124415
  15 H :    0.110309

  Mayer bond orders larger than 0.100000
B(  0-C ,  1-C ) :   0.5620 B(  0-C ,  2-C ) :   0.7829 B(  0-C ,  8-H ) :  -0.1055
B(  0-C , 12-H ) :   0.9789 B(  0-C , 13-H ) :   1.0120 B(  1-C ,  7-H ) :   1.0334
B(  1-C ,  8-H ) :   1.0440 B(  1-C ,  9-H ) :   1.0486 B(  2-C ,  3-C ) :   0.7956
B(  2-C , 14-H ) :   0.9794 B(  2-C , 15-H ) :   1.0185 B(  3-C ,  4-C ) :   0.9129
B(  3-C ,  5-H ) :   0.9410 B(  3-C ,  6-H ) :   0.9646 B(  4-C , 10-F ) :   1.0253
B(  4-C , 11-O ) :   1.7272 B(  8-H , 11-O ) :  -0.2987

FINAL SINGLE POINT ENERGY      -370.940759748769

DIPOLE MOMENT
-------------
                                X             Y             Z
Electronic contribution:    -12.99207       4.59205       1.39993
Nuclear contribution   :     12.79331      -3.91961      -2.45895
                        -----------------------------------------
Total Dipole Moment    :     -0.19875       0.67244      -1.05902
                        -----------------------------------------
Magnitude (a.u.)       :      1.27012
Magnitude (Debye)      :      3.22838

Rotational constants in cm-1:     0.162888     0.059977     0.046450
Rotational constants in MHz :  4883.250030  1798.063289  1392.548669

                             ****ORCA TERMINATED NORMALLY****
TOTAL RUN TIME: 0 days 0 hours 1 minutes 54 seconds 382 msec
