                         Program Version 5.0.0 -  RELEASE  -
|  1> !CAM-B3LYP RIJCOSX def2-TZVPD def2/J TightSCF xyzfile
|  2>
|  3> *xyzfile 0 1 D2.xyz
|  4>
|  5> %MaxCore 64000
|  6>
|  7> %pal nprocs 4
|  8> end
|  9>
| 10> %scf
| 11>   MaxIter 150
| 12> end
| 13>
| 14>
| 15>                          ****END OF INPUT****

CARTESIAN COORDINATES (ANGSTROEM)
---------------------------------
  C      0.648656    1.003595   -3.645601
  C      0.281280    0.676454   -2.240179
  C      0.132968    2.385869   -4.024618
  C     -1.366462    2.479106   -4.313932
  C     -2.357732    2.306858   -3.136753
  H     -1.636802    1.727095   -5.063993
  H     -1.582347    3.445605   -4.768687
  H      0.390790   -0.319253   -2.026495
  H     -0.692686    0.990104   -2.138123
  H      0.854206    1.212214   -1.575279
  O     -3.443763    2.846518   -3.252744
  F     -1.970922    1.583042   -2.151229
  H      0.190993    0.239655   -4.275752
  H      1.731572    0.931729   -3.750751
  H      0.414839    3.102847   -3.245165
  H      0.683167    2.687560   -4.919721

 Total Charge           Charge          ....    0
 Multiplicity           Mult            ....    1
 Number of Electrons    NEL             ....   56
 Basis Dimension        Dim             ....  346

ORBITAL ENERGIES
----------------

  NO   OCC          E(Eh)            E(eV)
   0   2.0000     -24.830672      -675.6769
   1   2.0000     -19.219695      -522.9945
   2   2.0000     -10.433905      -283.9210
   3   2.0000     -10.279438      -279.7177
   4   2.0000     -10.255398      -279.0636
   5   2.0000     -10.236270      -278.5431
   6   2.0000     -10.182666      -277.0844
   7   2.0000      -1.407209       -38.2921
   8   2.0000      -1.148725       -31.2584
   9   2.0000      -0.909141       -24.7390
  10   2.0000      -0.847262       -23.0552
  11   2.0000      -0.758566       -20.6416
  12   2.0000      -0.757526       -20.6133
  13   2.0000      -0.662861       -18.0374
  14   2.0000      -0.639878       -17.4120
  15   2.0000      -0.628284       -17.0965
  16   2.0000      -0.582794       -15.8586
  17   2.0000      -0.545046       -14.8314
  18   2.0000      -0.525256       -14.2929
  19   2.0000      -0.519209       -14.1284
  20   2.0000      -0.492427       -13.3996
  21   2.0000      -0.460225       -12.5234
  22   2.0000      -0.453193       -12.3320
  23   2.0000      -0.432600       -11.7716
  24   2.0000      -0.403661       -10.9842
  25   2.0000      -0.398436       -10.8420
  26   2.0000      -0.391037       -10.6407
  27   2.0000      -0.359785        -9.7902
  28   0.0000       0.014640         0.3984
  29   0.0000       0.029511         0.8030
  30   0.0000       0.048230         1.3124
  31   0.0000       0.050618         1.3774
  32   0.0000       0.053187         1.4473

MULLIKEN ATOMIC CHARGES
-----------------------
   0 C :   -0.242852
   1 C :   -1.343821
   2 C :   -0.452486
   3 C :   -0.414814
   4 C :    0.477532
   5 H :    0.280082
   6 H :    0.265793
   7 H :    0.375497
   8 H :    0.408913
   9 H :    0.396469
  10 O :   -0.472264
  11 F :   -0.282123
  12 H :    0.269799
  13 H :    0.231305
  14 H :    0.257796
  15 H :    0.245174
Sum of atomic charges:    0.0000000

LOEWDIN ATOMIC CHARGES
----------------------
   0 C :   -0.253326
   1 C :   -0.105361
   2 C :   -0.209792
   3 C :   -0.088290
   4 C :   -0.447384
   5 H :    0.131225
   6 H :    0.121596
   7 H :    0.061151
   8 H :   -0.014518
   9 H :    0.066559
  10 O :    0.125938
  11 F :    0.157854
  12 H :    0.112723
  13 H :    0.108161
  14 H :    0.122669
  15 H :    0.110794

  Mayer bond orders larger than 0.100000
B(  0-C ,  1-C ) :   0.5391 B(  0-C ,  2-C ) :   0.7327 B(  0-C ,  8-H ) :  -0.1021
B(  0-C , 12-H ) :   0.9882 B(  0-C , 13-H ) :   1.0057 B(  1-C ,  7-H ) :   0.9747
B(  1-C ,  8-H ) :   0.9449 B(  1-C ,  9-H ) :   0.9812 B(  1-C , 11-F ) :   0.1383
B(  2-C ,  3-C ) :   0.7364 B(  2-C , 14-H ) :   0.9982 B(  2-C , 15-H ) :   1.0229
B(  3-C ,  4-C ) :   0.8930 B(  3-C ,  5-H ) :   0.9372 B(  3-C ,  6-H ) :   1.0095
B(  4-C , 10-O ) :   1.7834 B(  4-C , 11-F ) :   0.9983 B(  8-H , 11-F ) :  -0.2433

FINAL SINGLE POINT ENERGY      -370.960551696193

DIPOLE MOMENT
-------------
                                X             Y             Z
Electronic contribution:    -10.25175       2.33421       3.28944
Nuclear contribution   :     11.08738      -2.45618      -3.73478
                        -----------------------------------------
Total Dipole Moment    :      0.83563      -0.12197      -0.44535
                        -----------------------------------------
Magnitude (a.u.)       :      0.95472
Magnitude (Debye)      :      2.42670

Rotational constants in cm-1:     0.156244     0.063730     0.048063
Rotational constants in MHz :  4684.071402  1910.571278  1440.877811

                             ****ORCA TERMINATED NORMALLY****
TOTAL RUN TIME: 0 days 0 hours 1 minutes 54 seconds 921 msec
