                         Program Version 5.0.0 -  RELEASE  -
|  1> !wB97X-D3 RIJCOSX def2-SVP def2/J TightSCF
|  2> *xyz -1 1
|  3> C         -0.77894        0.17197        1.80496
|  4> C         -0.60249       -0.63071        0.49224
|  5> H          0.31389       -1.24035        0.60350
|  6> H         -0.36383        0.11332       -0.30117
|  7> O         -1.71206       -1.37684        0.20253
|  8> H         -1.65864        0.77733        1.73736
|  9> H          0.07466        0.79896        1.95712
| 10> H         -0.87474       -0.50584        2.62734
| 11> *
| 12> %MaxCore 64000
| 13>
| 14> %pal nprocs 4
| 15> end
| 16>
| 17> %scf
| 18>   MaxIter 150
| 19> end
| 20>
| 21>
| 22>                          ****END OF INPUT****

CARTESIAN COORDINATES (ANGSTROEM)
---------------------------------
  C     -0.778940    0.171970    1.804960
  C     -0.602490   -0.630710    0.492240
  H      0.313890   -1.240350    0.603500
  H     -0.363830    0.113320   -0.301170
  O     -1.712060   -1.376840    0.202530
  H     -1.658640    0.777330    1.737360
  H      0.074660    0.798960    1.957120
  H     -0.874740   -0.505840    2.627340

 Total Charge           Charge          ....   -1
 Multiplicity           Mult            ....    1
 Number of Electrons    NEL             ....   26
 Basis Dimension        Dim             ....   67

ORBITAL ENERGIES
----------------

  NO   OCC          E(Eh)            E(eV)
   0   2.0000     -18.846063      -512.8274
   1   2.0000     -10.078185      -274.2413
   2   2.0000     -10.064870      -273.8790
   3   2.0000      -0.740039       -20.1375
   4   2.0000      -0.610875       -16.6228
   5   2.0000      -0.453614       -12.3435
   6   2.0000      -0.332896        -9.0586
   7   2.0000      -0.308223        -8.3872
   8   2.0000      -0.247943        -6.7469
   9   2.0000      -0.232993        -6.3401
  10   2.0000      -0.163151        -4.4396
  11   2.0000      -0.012428        -0.3382
  12   2.0000      -0.011258        -0.3063
  13   0.0000       0.336061         9.1447
  14   0.0000       0.380746        10.3606
  15   0.0000       0.394506        10.7351
  16   0.0000       0.403390        10.9768
  17   0.0000       0.445641        12.1265

MULLIKEN ATOMIC CHARGES
-----------------------
   0 C :    0.003204
   1 C :    0.250669
   2 H :   -0.161911
   3 H :   -0.165835
   4 O :   -0.731537
   5 H :   -0.045314
   6 H :   -0.102587
   7 H :   -0.046688
Sum of atomic charges:   -1.0000000

LOEWDIN ATOMIC CHARGES
----------------------
   0 C :   -0.114563
   1 C :    0.011698
   2 H :   -0.079704
   3 H :   -0.082467
   4 O :   -0.681132
   5 H :   -0.010415
   6 H :   -0.032215
   7 H :   -0.011202

  Mayer bond orders larger than 0.100000
B(  0-C ,  1-C ) :   0.9941 B(  0-C ,  5-H ) :   0.9657 B(  0-C ,  6-H ) :   0.9330
B(  0-C ,  7-H ) :   0.9675 B(  1-C ,  2-H ) :   0.8788 B(  1-C ,  3-H ) :   0.8770
B(  1-C ,  4-O ) :   1.4889

Dispersion correction           -0.000861350
FINAL SINGLE POINT ENERGY      -154.231241157143

DIPOLE MOMENT
-------------
                                X             Y             Z
Electronic contribution:     -1.84725      -1.99372      -1.52788
Nuclear contribution   :      2.47835       2.80827       2.30058
                        -----------------------------------------
Total Dipole Moment    :      0.63110       0.81456       0.77270
                        -----------------------------------------
Magnitude (a.u.)       :      1.28797
Magnitude (Debye)      :      3.27376

Rotational constants in cm-1:     1.255775     0.327783     0.287473
Rotational constants in MHz : 37647.186859  9826.677683  8618.224821

                             ****ORCA TERMINATED NORMALLY****
TOTAL RUN TIME: 0 days 0 hours 0 minutes 8 seconds 374 msec
