                         Program Version 5.0.0 -  RELEASE  -
|  1> !wB97X-D3 RIJCOSX def2-SVP def2/J TightSCF
|  2> *xyz 1 1
|  3> C         -2.12050        0.88520        1.78951
|  4> C         -0.77894        0.17197        1.80496
|  5> H         -2.32419        1.47265        2.68608
|  6> H         -2.18770        1.54127        0.91948
|  7> N         -3.17690       -0.15948        1.61070
|  8> H         -4.06474        0.23127        1.28675
|  9> H         -3.34407       -0.67151        2.48493
| 10> H         -2.71686       -0.78189        0.93588
| 11> H         -0.65708       -0.37837        0.89547
| 12> H         -0.74207       -0.50050        2.63642
| 13> H          0.00707        0.89251        1.89389
| 14> *
| 15> %MaxCore 64000
| 16>
| 17> %pal nprocs 4
| 18> end
| 19>
| 20> %scf
| 21>   MaxIter 150
| 22> end
| 23>
| 24>
| 25>                          ****END OF INPUT****

CARTESIAN COORDINATES (ANGSTROEM)
---------------------------------
  C     -2.120500    0.885200    1.789510
  C     -0.778940    0.171970    1.804960
  H     -2.324190    1.472650    2.686080
  H     -2.187700    1.541270    0.919480
  N     -3.176900   -0.159480    1.610700
  H     -4.064740    0.231270    1.286750
  H     -3.344070   -0.671510    2.484930
  H     -2.716860   -0.781890    0.935880
  H     -0.657080   -0.378370    0.895470
  H     -0.742070   -0.500500    2.636420
  H      0.007070    0.892510    1.893890

 Total Charge           Charge          ....    1
 Multiplicity           Mult            ....    1
 Number of Electrons    NEL             ....   26
 Basis Dimension        Dim             ....   82

ORBITAL ENERGIES
----------------

  NO   OCC          E(Eh)            E(eV)
   0   2.0000     -14.774381      -402.0313
   1   2.0000     -10.545106      -286.9469
   2   2.0000     -10.469379      -284.8863
   3   2.0000      -1.328654       -36.1545
   4   2.0000      -1.078105       -29.3367
   5   2.0000      -0.952867       -25.9288
   6   2.0000      -0.910504       -24.7761
   7   2.0000      -0.899364       -24.4729
   8   2.0000      -0.793550       -21.5936
   9   2.0000      -0.744815       -20.2674
  10   2.0000      -0.681717       -18.5505
  11   2.0000      -0.673805       -18.3352
  12   2.0000      -0.651617       -17.7314
  13   0.0000      -0.092154        -2.5076
  14   0.0000      -0.033796        -0.9196
  15   0.0000      -0.030783        -0.8377
  16   0.0000      -0.000808        -0.0220
  17   0.0000       0.037001         1.0069

MULLIKEN ATOMIC CHARGES
-----------------------
   0 C :   -0.068610
   1 C :   -0.094974
   2 H :    0.126745
   3 H :    0.119701
   4 N :   -0.022297
   5 H :    0.229663
   6 H :    0.225020
   7 H :    0.217854
   8 H :    0.073368
   9 H :    0.078183
  10 H :    0.115348
Sum of atomic charges:    1.0000000

LOEWDIN ATOMIC CHARGES
----------------------
   0 C :    0.055379
   1 C :   -0.047110
   2 H :    0.057241
   3 H :    0.056590
   4 N :    0.292594
   5 H :    0.147031
   6 H :    0.147049
   7 H :    0.143447
   8 H :    0.039555
   9 H :    0.041803
  10 H :    0.066424

  Mayer bond orders larger than 0.100000
B(  0-C ,  1-C ) :   1.0766 B(  0-C ,  2-H ) :   0.9542 B(  0-C ,  3-H ) :   0.9550
B(  0-C ,  4-N ) :   0.9092 B(  1-C ,  8-H ) :   0.9649 B(  1-C ,  9-H ) :   0.9746
B(  1-C , 10-H ) :   0.9600 B(  4-N ,  5-H ) :   0.9280 B(  4-N ,  6-H ) :   0.9325
B(  4-N ,  7-H ) :   0.9337

Dispersion correction           -0.001457138
FINAL SINGLE POINT ENERGY      -135.397186187579

DIPOLE MOMENT
-------------
                                X             Y             Z
Electronic contribution:     -1.88259      -0.18185      -0.06766
Nuclear contribution   :      0.50278      -0.30871      -0.06979
                        -----------------------------------------
Total Dipole Moment    :     -1.37980      -0.49056      -0.13745
                        -----------------------------------------
Magnitude (a.u.)       :      1.47085
Magnitude (Debye)      :      3.73861

Rotational constants in cm-1:     0.963746     0.295157     0.256910
Rotational constants in MHz : 28892.375247  8848.576767  7701.963879

                             ****ORCA TERMINATED NORMALLY****
TOTAL RUN TIME: 0 days 0 hours 0 minutes 10 seconds 25 msec
