                         Program Version 5.0.0 -  RELEASE  -
|  1> !wB97X-D3 RIJCOSX def2-SVP def2/J TightSCF xyzfile
|  2>
|  3> *xyzfile 0 1 B.xyz
|  4>
|  5> %MaxCore 64000
|  6>
|  7> %pal nprocs 18
|  8> end
|  9>
| 10> %scf
| 11>   MaxIter 150
| 12> end
| 13>
| 14>
| 15>                          ****END OF INPUT****

CARTESIAN COORDINATES (ANGSTROEM)
---------------------------------
  C     -2.120502    0.885196    1.789506
  C     -0.778939    0.171966    1.804965
  H     -2.324193    1.472649    2.686078
  H     -2.187698    1.541272    0.919482
  N     -3.176900   -0.159484    1.610700
  H      0.015695    0.910767    1.939153
  H     -0.743553   -0.506827    2.665420
  C     -0.602493   -0.630712    0.492240
  H      0.313894   -1.240346    0.603498
  H     -0.363829    0.113322   -0.301169
  O     -1.712061   -1.376836    0.202535
  H     -4.064736    0.231272    1.286754
  H     -3.344073   -0.671511    2.484928
  H     -2.716861   -0.781886    0.935880

 Total Charge           Charge          ....    0
 Multiplicity           Mult            ....    1
 Number of Electrons    NEL             ....   42
 Basis Dimension        Dim             ....  115

ORBITAL ENERGIES
----------------

  NO   OCC          E(Eh)            E(eV)
   0   2.0000     -19.083582      -519.2907
   1   2.0000     -14.515829      -394.9958
   2   2.0000     -10.351734      -281.6850
   3   2.0000     -10.277510      -279.6653
   4   2.0000     -10.276235      -279.6306
   5   2.0000      -1.099436       -29.9172
   6   2.0000      -0.980243       -26.6738
   7   2.0000      -0.876655       -23.8550
   8   2.0000      -0.757047       -20.6003
   9   2.0000      -0.694284       -18.8924
  10   2.0000      -0.674381       -18.3508
  11   2.0000      -0.641731       -17.4624
  12   2.0000      -0.585386       -15.9292
  13   2.0000      -0.533562       -14.5190
  14   2.0000      -0.496747       -13.5172
  15   2.0000      -0.495370       -13.4797
  16   2.0000      -0.448055       -12.1922
  17   2.0000      -0.428679       -11.6650
  18   2.0000      -0.394760       -10.7420
  19   2.0000      -0.256717        -6.9856
  20   2.0000      -0.246546        -6.7088
  21   0.0000       0.100114         2.7242
  22   0.0000       0.144346         3.9279
  23   0.0000       0.158885         4.3235
  24   0.0000       0.196406         5.3445
  25   0.0000       0.204777         5.5723

MULLIKEN ATOMIC CHARGES
-----------------------
   0 C :    0.015338
   1 C :   -0.146591
   2 H :    0.048196
   3 H :    0.057739
   4 N :   -0.009295
   5 H :    0.029377
   6 H :    0.019696
   7 C :    0.263338
   8 H :   -0.032334
   9 H :   -0.059956
  10 O :   -0.633506
  11 H :    0.159987
  12 H :    0.162220
  13 H :    0.125791
Sum of atomic charges:    0.0000000

LOEWDIN ATOMIC CHARGES
----------------------
   0 C :    0.044986
   1 C :   -0.084711
   2 H :    0.020329
   3 H :    0.035924
   4 N :    0.263863
   5 H :    0.026912
   6 H :    0.016335
   7 C :    0.035972
   8 H :   -0.016524
   9 H :   -0.031159
  10 O :   -0.487978
  11 H :    0.101792
  12 H :    0.106385
  13 H :   -0.032126

  Mayer bond orders larger than 0.100000
B(  0-C ,  1-C ) :   1.0564 B(  0-C ,  2-H ) :   0.9676 B(  0-C ,  3-H ) :   0.9533
B(  0-C ,  4-N ) :   0.9509 B(  1-C ,  5-H ) :   0.9437 B(  1-C ,  6-H ) :   0.9506
B(  1-C ,  7-C ) :   1.0038 B(  4-N , 11-H ) :   0.9492 B(  4-N , 12-H ) :   0.9501
B(  4-N , 13-H ) :   0.6965 B(  7-C ,  8-H ) :   0.9375 B(  7-C ,  9-H ) :   0.9153
B(  7-C , 10-O ) :   1.2178 B( 10-O , 13-H ) :   0.4509

Dispersion correction           -0.003272664
FINAL SINGLE POINT ENERGY      -249.396771525851

DIPOLE MOMENT
-------------
                                X             Y             Z
Electronic contribution:     -1.64215      -1.49564      -0.77397
Nuclear contribution   :      0.08650       3.01678       2.47433
                        -----------------------------------------
Total Dipole Moment    :     -1.55565       1.52113       1.70036
                        -----------------------------------------
Magnitude (a.u.)       :      2.76136
Magnitude (Debye)      :      7.01883

Rotational constants in cm-1:     0.238796     0.156489     0.106146
Rotational constants in MHz :  7158.916762  4691.413084  3182.185740

                             ****ORCA TERMINATED NORMALLY****
TOTAL RUN TIME: 0 days 0 hours 0 minutes 9 seconds 23 msec
