                         Program Version 5.0.0 -  RELEASE  -
|  1> !wB97X-D3 RIJCOSX def2-SVP def2/J TightSCF
|  2> *xyz 0 1
|  3> C         -0.77894        0.17197        1.80496
|  4> C         -0.60249       -0.63071        0.49224
|  5> H          0.31389       -1.24035        0.60350
|  6> H         -0.36383        0.11332       -0.30117
|  7> F         -1.71206       -1.37684        0.20253
|  8> H         -1.65864        0.77733        1.73736
|  9> H          0.07466        0.79896        1.95712
| 10> H         -0.87474       -0.50584        2.62734
| 11> *
| 12> %MaxCore 64000
| 13>
| 14> %pal nprocs 4
| 15> end
| 16>
| 17> %scf
| 18>   MaxIter 150
| 19> end
| 20>
| 21>
| 22>                          ****END OF INPUT****

CARTESIAN COORDINATES (ANGSTROEM)
---------------------------------
  C     -0.778940    0.171970    1.804960
  C     -0.602490   -0.630710    0.492240
  H      0.313890   -1.240350    0.603500
  H     -0.363830    0.113320   -0.301170
  F     -1.712060   -1.376840    0.202530
  H     -1.658640    0.777330    1.737360
  H      0.074660    0.798960    1.957120
  H     -0.874740   -0.505840    2.627340

 Total Charge           Charge          ....    0
 Multiplicity           Mult            ....    1
 Number of Electrons    NEL             ....   26
 Basis Dimension        Dim             ....   67

ORBITAL ENERGIES
----------------

  NO   OCC          E(Eh)            E(eV)
   0   2.0000     -24.768505      -673.9853
   1   2.0000     -10.364592      -282.0349
   2   2.0000     -10.282606      -279.8039
   3   2.0000      -1.285833       -34.9893
   4   2.0000      -0.868488       -23.6328
   5   2.0000      -0.732275       -19.9262
   6   2.0000      -0.603048       -16.4098
   7   2.0000      -0.593767       -16.1572
   8   2.0000      -0.552116       -15.0238
   9   2.0000      -0.498329       -13.5602
  10   2.0000      -0.494865       -13.4660
  11   2.0000      -0.423894       -11.5348
  12   2.0000      -0.421477       -11.4690
  13   0.0000       0.151932         4.1343
  14   0.0000       0.198128         5.3913
  15   0.0000       0.204507         5.5649
  16   0.0000       0.222144         6.0449
  17   0.0000       0.238488         6.4896

MULLIKEN ATOMIC CHARGES
-----------------------
   0 C :   -0.099649
   1 C :    0.203507
   2 H :    0.024395
   3 H :    0.024130
   4 F :   -0.271494
   5 H :    0.044620
   6 H :    0.031497
   7 H :    0.042993
Sum of atomic charges:   -0.0000000

LOEWDIN ATOMIC CHARGES
----------------------
   0 C :   -0.077837
   1 C :    0.110126
   2 H :    0.011253
   3 H :    0.011776
   4 F :   -0.138528
   5 H :    0.027425
   6 H :    0.029709
   7 H :    0.026076

  Mayer bond orders larger than 0.100000
B(  0-C ,  1-C ) :   1.0803 B(  0-C ,  5-H ) :   0.9746 B(  0-C ,  6-H ) :   0.9661
B(  0-C ,  7-H ) :   0.9758 B(  1-C ,  2-H ) :   0.9613 B(  1-C ,  3-H ) :   0.9621
B(  1-C ,  4-F ) :   0.9890

Dispersion correction           -0.000877435
FINAL SINGLE POINT ENERGY      -178.873275905481

DIPOLE MOMENT
-------------
                                X             Y             Z
Electronic contribution:     -2.74690      -3.31033      -2.84147
Nuclear contribution   :      3.27800       3.70743       3.04146
                        -----------------------------------------
Total Dipole Moment    :      0.53110       0.39710       0.19999
                        -----------------------------------------
Magnitude (a.u.)       :      0.69264
Magnitude (Debye)      :      1.76056

Rotational constants in cm-1:     1.234437     0.305084     0.268865
Rotational constants in MHz : 37007.496448  9146.194083  8060.380630

                             ****ORCA TERMINATED NORMALLY****
TOTAL RUN TIME: 0 days 0 hours 0 minutes 7 seconds 371 msec
