                         Program Version 5.0.0 -  RELEASE  -
|  1> !wB97X-D3 RIJCOSX def2-SVP def2/J TightSCF
|  2> *xyz 0 1
|  3> C         -2.12050        0.88520        1.78951
|  4> C         -0.77894        0.17197        1.80496
|  5> H         -2.32419        1.47265        2.68608
|  6> H         -2.18770        1.54127        0.91948
|  7> C         -3.17690       -0.15948        1.61070
|  8> H         -4.06474        0.23127        1.28675
|  9> H         -3.34407       -0.67151        2.48493
| 10> H         -2.71686       -0.78189        0.93588
| 11> H         -0.65708       -0.37837        0.89547
| 12> H         -0.74207       -0.50050        2.63642
| 13> H          0.00707        0.89251        1.89389
| 14> *
| 15> %MaxCore 64000
| 16>
| 17> %pal nprocs 4
| 18> end
| 19>
| 20> %scf
| 21>   MaxIter 150
| 22> end
| 23>
| 24>
| 25>                          ****END OF INPUT****

CARTESIAN COORDINATES (ANGSTROEM)
---------------------------------
  C     -2.120500    0.885200    1.789510
  C     -0.778940    0.171970    1.804960
  H     -2.324190    1.472650    2.686080
  H     -2.187700    1.541270    0.919480
  C     -3.176900   -0.159480    1.610700
  H     -4.064740    0.231270    1.286750
  H     -3.344070   -0.671510    2.484930
  H     -2.716860   -0.781890    0.935880
  H     -0.657080   -0.378370    0.895470
  H     -0.742070   -0.500500    2.636420
  H      0.007070    0.892510    1.893890

 Total Charge           Charge          ....    0
 Multiplicity           Mult            ....    1
 Number of Electrons    NEL             ....   26
 Basis Dimension        Dim             ....   82

ORBITAL ENERGIES
----------------

  NO   OCC          E(Eh)            E(eV)
   0   2.0000     -10.273806      -279.5645
   1   2.0000     -10.267564      -279.3946
   2   2.0000     -10.248470      -278.8750
   3   2.0000      -0.905468       -24.6390
   4   2.0000      -0.791851       -21.5473
   5   2.0000      -0.688700       -18.7405
   6   2.0000      -0.572486       -15.5781
   7   2.0000      -0.552811       -15.0428
   8   2.0000      -0.496475       -13.5098
   9   2.0000      -0.480181       -13.0664
  10   2.0000      -0.433340       -11.7918
  11   2.0000      -0.424394       -11.5484
  12   2.0000      -0.420101       -11.4315
  13   0.0000       0.151872         4.1326
  14   0.0000       0.197911         5.3854
  15   0.0000       0.200282         5.4499
  16   0.0000       0.208423         5.6715
  17   0.0000       0.233231         6.3466

MULLIKEN ATOMIC CHARGES
-----------------------
   0 C :   -0.128699
   1 C :   -0.043201
   2 H :    0.026651
   3 H :    0.023651
   4 C :    0.039002
   5 H :    0.008088
   6 H :    0.004921
   7 H :   -0.006214
   8 H :    0.025767
   9 H :    0.024460
  10 H :    0.025573
Sum of atomic charges:   -0.0000000

LOEWDIN ATOMIC CHARGES
----------------------
   0 C :   -0.043528
   1 C :   -0.055906
   2 H :    0.018341
   3 H :    0.020471
   4 C :   -0.043632
   5 H :    0.012851
   6 H :    0.013931
   7 H :    0.014319
   8 H :    0.020950
   9 H :    0.021414
  10 H :    0.020789

  Mayer bond orders larger than 0.100000
B(  0-C ,  1-C ) :   1.0870 B(  0-C ,  2-H ) :   0.9618 B(  0-C ,  3-H ) :   0.9622
B(  0-C ,  4-C ) :   1.0774 B(  1-C ,  8-H ) :   0.9745 B(  1-C ,  9-H ) :   0.9796
B(  1-C , 10-H ) :   0.9743 B(  4-C ,  5-H ) :   0.9711 B(  4-C ,  6-H ) :   0.9745
B(  4-C ,  7-H ) :   0.9779

Dispersion correction           -0.001406904
FINAL SINGLE POINT ENERGY      -119.001511547911

DIPOLE MOMENT
-------------
                                X             Y             Z
Electronic contribution:     -0.13957       0.45683       0.11000
Nuclear contribution   :      0.13334      -0.45108      -0.10852
                        -----------------------------------------
Total Dipole Moment    :     -0.00623       0.00574       0.00149
                        -----------------------------------------
Magnitude (a.u.)       :      0.00861
Magnitude (Debye)      :      0.02187

Rotational constants in cm-1:     0.972269     0.310387     0.269029
Rotational constants in MHz : 29147.878530  9305.178981  8065.286472

                             ****ORCA TERMINATED NORMALLY****
TOTAL RUN TIME: 0 days 0 hours 0 minutes 9 seconds 296 msec
