                         Program Version 5.0.0 -  RELEASE  -
|  1> !LC-BLYP RIJCOSX def2-SVPD def2/J TightSCF
|  2> *xyz -1 1
|  3> C         -1.91658       -2.48508       -3.64367
|  4> C         -1.36353       -1.98134       -2.29361
|  5> O         -0.35039       -2.74969       -1.79601
|  6> H         -2.22622       -1.90839       -1.60204
|  7> H         -1.05135       -0.91567       -2.44333
|  8> H         -1.11522       -2.57167       -4.34739
|  9> H         -2.64227       -1.79099       -4.01314
| 10> H         -2.37564       -3.44180       -3.50640
| 11> *
| 12>
| 13> %MaxCore 64000
| 14> %pal nprocs 4
| 15> end
| 16>
| 17> %scf
| 18>   MaxIter 150
| 19> end
| 20>
| 21>
| 22>                          ****END OF INPUT****

CARTESIAN COORDINATES (ANGSTROEM)
---------------------------------
  C     -1.916580   -2.485080   -3.643670
  C     -1.363530   -1.981340   -2.293610
  O     -0.350390   -2.749690   -1.796010
  H     -2.226220   -1.908390   -1.602040
  H     -1.051350   -0.915670   -2.443330
  H     -1.115220   -2.571670   -4.347390
  H     -2.642270   -1.790990   -4.013140
  H     -2.375640   -3.441800   -3.506400

 Total Charge           Charge          ....   -1
 Multiplicity           Mult            ....    1
 Number of Electrons    NEL             ....   26
 Basis Dimension        Dim             ....  103

ORBITAL ENERGIES
----------------

  NO   OCC          E(Eh)            E(eV)
   0   2.0000     -18.623400      -506.7685
   1   2.0000      -9.901825      -269.4424
   2   2.0000      -9.878454      -268.8064
   3   2.0000      -0.768064       -20.9001
   4   2.0000      -0.628271       -17.0961
   5   2.0000      -0.474120       -12.9015
   6   2.0000      -0.357245        -9.7211
   7   2.0000      -0.332452        -9.0465
   8   2.0000      -0.277045        -7.5388
   9   2.0000      -0.256969        -6.9925
  10   2.0000      -0.212823        -5.7912
  11   2.0000      -0.066828        -1.8185
  12   2.0000      -0.063720        -1.7339
  13   0.0000       0.229576         6.2471
  14   0.0000       0.261288         7.1100
  15   0.0000       0.299957         8.1623
  16   0.0000       0.312486         8.5032
  17   0.0000       0.328429         8.9370

MULLIKEN ATOMIC CHARGES
-----------------------
   0 C :    0.539859
   1 C :    0.119689
   2 O :   -0.796898
   3 H :   -0.217211
   4 H :   -0.183368
   5 H :   -0.167458
   6 H :   -0.132452
   7 H :   -0.162161
Sum of atomic charges:   -1.0000000

LOEWDIN ATOMIC CHARGES
----------------------
   0 C :    0.053063
   1 C :   -0.290694
   2 O :   -0.574139
   3 H :   -0.029230
   4 H :   -0.024321
   5 H :   -0.039188
   6 H :   -0.054998
   7 H :   -0.040494

  Mayer bond orders larger than 0.100000
B(  0-C ,  1-C ) :   1.1585 B(  0-C ,  2-O ) :   0.1083 B(  0-C ,  3-H ) :   0.1343
B(  0-C ,  4-H ) :   0.1298 B(  0-C ,  5-H ) :   0.8632 B(  0-C ,  6-H ) :   0.8528
B(  0-C ,  7-H ) :   0.8603 B(  1-C ,  2-O ) :   1.2749 B(  1-C ,  3-H ) :   0.9682
B(  1-C ,  4-H ) :   0.9657 B(  1-C ,  5-H ) :   0.2033 B(  1-C ,  6-H ) :   0.1496
B(  1-C ,  7-H ) :   0.1926

FINAL SINGLE POINT ENERGY      -153.941265875583

DIPOLE MOMENT
-------------
                                X             Y             Z
Electronic contribution:      1.92725      -0.79876       1.75799
Nuclear contribution   :     -3.14382       1.30299      -2.83231
                        -----------------------------------------
Total Dipole Moment    :     -1.21658       0.50423      -1.07432
                        -----------------------------------------
Magnitude (a.u.)       :      1.69955
Magnitude (Debye)      :      4.31991

Rotational constants in cm-1:     1.288206     0.322942     0.285188
Rotational constants in MHz : 38619.437223  9681.562038  8549.712012

                             ****ORCA TERMINATED NORMALLY****
TOTAL RUN TIME: 0 days 0 hours 0 minutes 12 seconds 351 msec
