                         Program Version 5.0.0 -  RELEASE  -
|  1> !LC-BLYP RIJCOSX def2-SVPD def2/J TightSCF
|  2> *xyz 1 1
|  3> C          1.64703       -2.34528       -5.02041
|  4> C          2.20996       -2.81239       -3.66571
|  5> C          2.48901       -1.66851       -2.73754
|  6> N          3.59631       -0.94761       -2.95225
|  7> N          1.66394       -1.41369       -1.77781
|  8> H          0.81164       -1.96318       -1.70275
|  9> H          1.84550       -0.63508       -1.15875
| 10> H          4.20535       -1.17600       -3.73383
| 11> H          3.81723       -0.12585       -2.40604
| 12> H          3.14311       -3.36280       -3.81152
| 13> H          1.48768       -3.45893       -3.16521
| 14> H          1.46566       -3.19589       -5.64368
| 15> H          2.35406       -1.69850       -5.49654
| 16> H          0.73014       -1.81680       -4.86253
| 17> *
| 18>
| 19> %MaxCore 64000
| 20> %pal nprocs 4
| 21> end
| 22>
| 23> %scf
| 24>   MaxIter 150
| 25> end
| 26>
| 27>
| 28>                          ****END OF INPUT****

CARTESIAN COORDINATES (ANGSTROEM)
---------------------------------
  C      1.647030   -2.345280   -5.020410
  C      2.209960   -2.812390   -3.665710
  C      2.489010   -1.668510   -2.737540
  N      3.596310   -0.947610   -2.952250
  N      1.663940   -1.413690   -1.777810
  H      0.811640   -1.963180   -1.702750
  H      1.845500   -0.635080   -1.158750
  H      4.205350   -1.176000   -3.733830
  H      3.817230   -0.125850   -2.406040
  H      3.143110   -3.362800   -3.811520
  H      1.487680   -3.458930   -3.165210
  H      1.465660   -3.195890   -5.643680
  H      2.354060   -1.698500   -5.496540
  H      0.730140   -1.816800   -4.862530

 Total Charge           Charge          ....    1
 Multiplicity           Mult            ....    1
 Number of Electrons    NEL             ....   40
 Basis Dimension        Dim             ....  172

ORBITAL ENERGIES
----------------

  NO   OCC          E(Eh)            E(eV)
   0   2.0000     -14.441216      -392.9655
   1   2.0000     -14.431573      -392.7031
   2   2.0000     -10.411205      -283.3033
   3   2.0000     -10.284472      -279.8547
   4   2.0000     -10.241133      -278.6754
   5   2.0000      -1.300974       -35.4013
   6   2.0000      -1.203533       -32.7498
   7   2.0000      -1.073370       -29.2079
   8   2.0000      -0.963750       -26.2250
   9   2.0000      -0.923847       -25.1391
  10   2.0000      -0.882897       -24.0249
  11   2.0000      -0.855336       -23.2749
  12   2.0000      -0.807012       -21.9599
  13   2.0000      -0.760281       -20.6883
  14   2.0000      -0.727244       -19.7893
  15   2.0000      -0.719222       -19.5710
  16   2.0000      -0.645477       -17.5643
  17   2.0000      -0.635221       -17.2852
  18   2.0000      -0.628842       -17.1117
  19   2.0000      -0.593101       -16.1391
  20   0.0000      -0.130791        -3.5590
  21   0.0000      -0.101473        -2.7612
  22   0.0000      -0.058053        -1.5797
  23   0.0000      -0.056611        -1.5405
  24   0.0000      -0.029904        -0.8137

MULLIKEN ATOMIC CHARGES
-----------------------
   0 C :    0.885384
   1 C :   -0.125854
   2 C :    0.322657
   3 N :    0.267429
   4 N :    0.328564
   5 H :    0.027411
   6 H :   -0.132996
   7 H :    0.010107
   8 H :   -0.180595
   9 H :   -0.057074
  10 H :   -0.068314
  11 H :   -0.057840
  12 H :   -0.101372
  13 H :   -0.117505
Sum of atomic charges:    1.0000000

LOEWDIN ATOMIC CHARGES
----------------------
   0 C :    0.161591
   1 C :   -0.001134
   2 C :   -0.070691
   3 N :    0.293161
   4 N :    0.297548
   5 H :    0.063582
   6 H :    0.056567
   7 H :    0.052806
   8 H :    0.044040
   9 H :    0.053383
  10 H :    0.041034
  11 H :    0.011811
  12 H :   -0.005782
  13 H :    0.002086

  Mayer bond orders larger than 0.100000
B(  0-C ,  1-C ) :   1.2606 B(  0-C , 11-H ) :   0.7985 B(  0-C , 12-H ) :   0.7302
B(  0-C , 13-H ) :   0.7907 B(  1-C ,  2-C ) :   1.1734 B(  1-C ,  3-N ) :   0.1151
B(  1-C ,  4-N ) :   0.1002 B(  1-C ,  9-H ) :   0.8596 B(  1-C , 10-H ) :   0.8522
B(  1-C , 11-H ) :   0.1805 B(  1-C , 12-H ) :   0.2175 B(  1-C , 13-H ) :   0.1863
B(  2-C ,  3-N ) :   1.2182 B(  2-C ,  4-N ) :   1.2561 B(  2-C ,  6-H ) :  -0.1433
B(  2-C ,  8-H ) :  -0.1661 B(  2-C ,  9-H ) :   0.1075 B(  2-C , 10-H ) :   0.1889
B(  3-N ,  4-N ) :   0.1455 B(  3-N ,  7-H ) :   1.1005 B(  3-N ,  8-H ) :   1.2745
B(  4-N ,  5-H ) :   1.0895 B(  4-N ,  6-H ) :   1.2589 B(  5-H ,  6-H ) :  -0.1684
B(  7-H ,  8-H ) :  -0.1820 B( 12-H , 13-H ) :   0.1058

FINAL SINGLE POINT ENERGY      -228.265635014899

DIPOLE MOMENT
-------------
                                X             Y             Z
Electronic contribution:      1.19754       1.65912       3.63780
Nuclear contribution   :     -0.98617      -1.03178      -2.77619
                        -----------------------------------------
Total Dipole Moment    :      0.21137       0.62734       0.86161
                        -----------------------------------------
Magnitude (a.u.)       :      1.08656
Magnitude (Debye)      :      2.76182

Rotational constants in cm-1:     0.257311     0.127495     0.099037
Rotational constants in MHz :  7713.982239  3822.189706  2969.039713

                             ****ORCA TERMINATED NORMALLY****
TOTAL RUN TIME: 0 days 0 hours 0 minutes 24 seconds 392 msec
