                         Program Version 5.0.0 -  RELEASE  -
|  1> !LC-BLYP RIJCOSX def2-SVPD def2/J TightSCF
|  2> *xyz 0 1
|  3> C         -1.91658       -2.48508       -3.64367
|  4> C         -1.36353       -1.98134       -2.29361
|  5> F         -0.35039       -2.74969       -1.79601
|  6> H         -2.22622       -1.90839       -1.60204
|  7> H         -1.05135       -0.91567       -2.44333
|  8> H         -1.11522       -2.57167       -4.34739
|  9> H         -2.64227       -1.79099       -4.01314
| 10> H         -2.37564       -3.44180       -3.50640
| 11> *
| 12>
| 13> %MaxCore 64000
| 14> %pal nprocs 4
| 15> end
| 16>
| 17> %scf
| 18>   MaxIter 150
| 19> end
| 20>
| 21>
| 22>                          ****END OF INPUT****

CARTESIAN COORDINATES (ANGSTROEM)
---------------------------------
  C     -1.916580   -2.485080   -3.643670
  C     -1.363530   -1.981340   -2.293610
  F     -0.350390   -2.749690   -1.796010
  H     -2.226220   -1.908390   -1.602040
  H     -1.051350   -0.915670   -2.443330
  H     -1.115220   -2.571670   -4.347390
  H     -2.642270   -1.790990   -4.013140
  H     -2.375640   -3.441800   -3.506400

 Total Charge           Charge          ....    0
 Multiplicity           Mult            ....    1
 Number of Electrons    NEL             ....   26
 Basis Dimension        Dim             ....  103

ORBITAL ENERGIES
----------------

  NO   OCC          E(Eh)            E(eV)
   0   2.0000     -24.465773      -665.7475
   1   2.0000     -10.167888      -276.6823
   2   2.0000     -10.083754      -274.3929
   3   2.0000      -1.268150       -34.5081
   4   2.0000      -0.868346       -23.6289
   5   2.0000      -0.735449       -20.0126
   6   2.0000      -0.617730       -16.8093
   7   2.0000      -0.604583       -16.4515
   8   2.0000      -0.565849       -15.3975
   9   2.0000      -0.509010       -13.8509
  10   2.0000      -0.503786       -13.7087
  11   2.0000      -0.437692       -11.9102
  12   2.0000      -0.428776       -11.6676
  13   0.0000       0.073798         2.0081
  14   0.0000       0.104440         2.8420
  15   0.0000       0.134628         3.6634
  16   0.0000       0.139548         3.7973
  17   0.0000       0.168610         4.5881

MULLIKEN ATOMIC CHARGES
-----------------------
   0 C :    0.595883
   1 C :    0.434199
   2 F :   -0.370096
   3 H :   -0.141727
   4 H :   -0.108427
   5 H :   -0.151545
   6 H :   -0.116043
   7 H :   -0.142244
Sum of atomic charges:   -0.0000000

LOEWDIN ATOMIC CHARGES
----------------------
   0 C :    0.126072
   1 C :    0.029571
   2 F :   -0.195983
   3 H :    0.033405
   4 H :    0.039953
   5 H :   -0.011130
   6 H :   -0.009735
   7 H :   -0.012153

  Mayer bond orders larger than 0.100000
B(  0-C ,  1-C ) :   1.3148 B(  0-C ,  5-H ) :   0.8456 B(  0-C ,  6-H ) :   0.8142
B(  0-C ,  7-H ) :   0.8464 B(  1-C ,  2-F ) :   0.8681 B(  1-C ,  3-H ) :   0.9232
B(  1-C ,  4-H ) :   0.9222 B(  1-C ,  5-H ) :   0.1664 B(  1-C ,  6-H ) :   0.1404
B(  1-C ,  7-H ) :   0.1581

FINAL SINGLE POINT ENERGY      -178.539112318086

DIPOLE MOMENT
-------------
                                X             Y             Z
Electronic contribution:      3.58370      -1.33047       3.40852
Nuclear contribution   :     -4.15401       1.70894      -3.75000
                        -----------------------------------------
Total Dipole Moment    :     -0.57031       0.37847      -0.34148
                        -----------------------------------------
Magnitude (a.u.)       :      0.76492
Magnitude (Debye)      :      1.94427

Rotational constants in cm-1:     1.266842     0.300492     0.266603
Rotational constants in MHz : 37978.968232  9008.526876  7992.551454

                             ****ORCA TERMINATED NORMALLY****
TOTAL RUN TIME: 0 days 0 hours 0 minutes 10 seconds 413 msec
