                         Program Version 5.0.0 -  RELEASE  -
|  1> !LC-BLYP RIJCOSX def2-SVPD def2/J TightSCF
|  2> *xyz 0 1
|  3> C          1.64703       -2.34528       -5.02041
|  4> C          2.20996       -2.81239       -3.66571
|  5> C          2.48901       -1.66851       -2.73754
|  6> C          3.59631       -0.94761       -2.95225
|  7> N          1.66394       -1.41369       -1.77781
|  8> H          0.81164       -1.96318       -1.70275
|  9> H          1.84550       -0.63508       -1.15875
| 10> H          4.20535       -1.17600       -3.73383
| 11> H          3.81723       -0.12585       -2.40604
| 12> H          3.14311       -3.36280       -3.81152
| 13> H          1.48768       -3.45893       -3.16521
| 14> H          1.46566       -3.19589       -5.64368
| 15> H          2.35406       -1.69850       -5.49654
| 16> H          0.73014       -1.81680       -4.86253
| 17> *
| 18>
| 19> %MaxCore 64000
| 20> %pal nprocs 4
| 21> end
| 22>
| 23> %scf
| 24>   MaxIter 150
| 25> end
| 26>
| 27>
| 28>                          ****END OF INPUT****

CARTESIAN COORDINATES (ANGSTROEM)
---------------------------------
  C      1.647030   -2.345280   -5.020410
  C      2.209960   -2.812390   -3.665710
  C      2.489010   -1.668510   -2.737540
  C      3.596310   -0.947610   -2.952250
  N      1.663940   -1.413690   -1.777810
  H      0.811640   -1.963180   -1.702750
  H      1.845500   -0.635080   -1.158750
  H      4.205350   -1.176000   -3.733830
  H      3.817230   -0.125850   -2.406040
  H      3.143110   -3.362800   -3.811520
  H      1.487680   -3.458930   -3.165210
  H      1.465660   -3.195890   -5.643680
  H      2.354060   -1.698500   -5.496540
  H      0.730140   -1.816800   -4.862530

 Total Charge           Charge          ....    0
 Multiplicity           Mult            ....    1
 Number of Electrons    NEL             ....   40
 Basis Dimension        Dim             ....  172

ORBITAL ENERGIES
----------------

  NO   OCC          E(Eh)            E(eV)
   0   2.0000     -14.194058      -386.2400
   1   2.0000     -10.107519      -275.0396
   2   2.0000     -10.085254      -274.4337
   3   2.0000     -10.070163      -274.0231
   4   2.0000     -10.015558      -272.5372
   5   2.0000      -1.034044       -28.1378
   6   2.0000      -0.882678       -24.0189
   7   2.0000      -0.810383       -22.0516
   8   2.0000      -0.743318       -20.2267
   9   2.0000      -0.672353       -18.2957
  10   2.0000      -0.636319       -17.3151
  11   2.0000      -0.586207       -15.9515
  12   2.0000      -0.547662       -14.9026
  13   2.0000      -0.515982       -14.0406
  14   2.0000      -0.497849       -13.5471
  15   2.0000      -0.482180       -13.1208
  16   2.0000      -0.449316       -12.2265
  17   2.0000      -0.438354       -11.9282
  18   2.0000      -0.432648       -11.7729
  19   2.0000      -0.280287        -7.6270
  20   0.0000       0.070162         1.9092
  21   0.0000       0.099705         2.7131
  22   0.0000       0.107100         2.9143
  23   0.0000       0.111996         3.0476
  24   0.0000       0.128095         3.4856

MULLIKEN ATOMIC CHARGES
-----------------------
   0 C :    0.851928
   1 C :    0.061403
   2 C :   -0.234343
   3 C :    0.652547
   4 N :    0.443996
   5 H :   -0.124649
   6 H :   -0.165632
   7 H :   -0.295698
   8 H :   -0.630296
   9 H :   -0.015863
  10 H :   -0.169021
  11 H :   -0.082716
  12 H :   -0.143967
  13 H :   -0.147688
Sum of atomic charges:   -0.0000000

LOEWDIN ATOMIC CHARGES
----------------------
   0 C :    0.125189
   1 C :   -0.042664
   2 C :   -0.282417
   3 C :    0.168512
   4 N :    0.181293
   5 H :    0.007732
   6 H :    0.015367
   7 H :   -0.080532
   8 H :   -0.091813
   9 H :    0.032249
  10 H :    0.014509
  11 H :   -0.017021
  12 H :   -0.017043
  13 H :   -0.013358

  Mayer bond orders larger than 0.100000
B(  0-C ,  1-C ) :   1.2573 B(  0-C , 10-H ) :   0.1115 B(  0-C , 11-H ) :   0.7703
B(  0-C , 12-H ) :   0.7835 B(  0-C , 13-H ) :   0.7859 B(  1-C ,  2-C ) :   1.1162
B(  1-C ,  3-C ) :   0.2208 B(  1-C ,  4-N ) :   0.1188 B(  1-C ,  9-H ) :   0.8053
B(  1-C , 10-H ) :   0.7646 B(  1-C , 11-H ) :   0.1806 B(  1-C , 12-H ) :   0.2170
B(  1-C , 13-H ) :   0.2081 B(  2-C ,  3-C ) :   1.6894 B(  2-C ,  4-N ) :   1.3246
B(  2-C ,  8-H ) :   0.1837 B(  2-C ,  9-H ) :   0.1427 B(  2-C , 10-H ) :   0.2321
B(  3-C ,  4-N ) :   0.2441 B(  3-C ,  7-H ) :   0.7749 B(  3-C ,  8-H ) :   0.6462
B(  4-N ,  5-H ) :   1.0738 B(  4-N ,  6-H ) :   1.2142 B(  5-H ,  6-H ) :  -0.1520
B(  7-H ,  8-H ) :  -0.1167

FINAL SINGLE POINT ENERGY      -211.811098497516

DIPOLE MOMENT
-------------
                                X             Y             Z
Electronic contribution:     -0.04103       0.65538       3.02104
Nuclear contribution   :     -0.69146      -0.83112      -2.71336
                        -----------------------------------------
Total Dipole Moment    :     -0.73249      -0.17574       0.30768
                        -----------------------------------------
Magnitude (a.u.)       :      0.81369
Magnitude (Debye)      :      2.06824

Rotational constants in cm-1:     0.270661     0.129240     0.102040
Rotational constants in MHz :  8114.202941  3874.518141  3059.074383

                             ****ORCA TERMINATED NORMALLY****
TOTAL RUN TIME: 0 days 0 hours 0 minutes 19 seconds 626 msec
