                         Program Version 5.0.0 -  RELEASE  -
|  1> !LC-BLYP RIJCOSX def2-SVPD def2/J TightSCF
|  2> *xyz 0 1
|  3> C          1.64703       -2.34528       -5.02041
|  4> C          2.20996       -2.81239       -3.66571
|  5> C          2.48901       -1.66851       -2.73754
|  6> N          3.59631       -0.94761       -2.95225
|  7> C          1.66394       -1.41369       -1.77781
|  8> H          0.81164       -1.96318       -1.70275
|  9> H          1.84550       -0.63508       -1.15875
| 10> H          4.20535       -1.17600       -3.73383
| 11> H          3.81723       -0.12585       -2.40604
| 12> H          3.14311       -3.36280       -3.81152
| 13> H          1.48768       -3.45893       -3.16521
| 14> H          1.46566       -3.19589       -5.64368
| 15> H          2.35406       -1.69850       -5.49654
| 16> H          0.73014       -1.81680       -4.86253
| 17> *
| 18>
| 19> %MaxCore 64000
| 20> %pal nprocs 4
| 21> end
| 22>
| 23> %scf
| 24>   MaxIter 150
| 25> end
| 26>
| 27>
| 28>                          ****END OF INPUT****

CARTESIAN COORDINATES (ANGSTROEM)
---------------------------------
  C      1.647030   -2.345280   -5.020410
  C      2.209960   -2.812390   -3.665710
  C      2.489010   -1.668510   -2.737540
  N      3.596310   -0.947610   -2.952250
  C      1.663940   -1.413690   -1.777810
  H      0.811640   -1.963180   -1.702750
  H      1.845500   -0.635080   -1.158750
  H      4.205350   -1.176000   -3.733830
  H      3.817230   -0.125850   -2.406040
  H      3.143110   -3.362800   -3.811520
  H      1.487680   -3.458930   -3.165210
  H      1.465660   -3.195890   -5.643680
  H      2.354060   -1.698500   -5.496540
  H      0.730140   -1.816800   -4.862530

 Total Charge           Charge          ....    0
 Multiplicity           Mult            ....    1
 Number of Electrons    NEL             ....   40
 Basis Dimension        Dim             ....  172

ORBITAL ENERGIES
----------------

  NO   OCC          E(Eh)            E(eV)
   0   2.0000     -14.187307      -386.0562
   1   2.0000     -10.104266      -274.9511
   2   2.0000     -10.083607      -274.3889
   3   2.0000     -10.071292      -274.0538
   4   2.0000     -10.019418      -272.6422
   5   2.0000      -1.016351       -27.6563
   6   2.0000      -0.882110       -24.0034
   7   2.0000      -0.824432       -22.4339
   8   2.0000      -0.738217       -20.0879
   9   2.0000      -0.669090       -18.2069
  10   2.0000      -0.625099       -17.0098
  11   2.0000      -0.586393       -15.9566
  12   2.0000      -0.538840       -14.6626
  13   2.0000      -0.528033       -14.3685
  14   2.0000      -0.498951       -13.5771
  15   2.0000      -0.487075       -13.2540
  16   2.0000      -0.449592       -12.2340
  17   2.0000      -0.432042       -11.7565
  18   2.0000      -0.429498       -11.6872
  19   2.0000      -0.292217        -7.9516
  20   0.0000       0.070623         1.9217
  21   0.0000       0.101135         2.7520
  22   0.0000       0.108735         2.9588
  23   0.0000       0.111325         3.0293
  24   0.0000       0.132128         3.5954

MULLIKEN ATOMIC CHARGES
-----------------------
   0 C :    0.890623
   1 C :    0.015709
   2 C :   -0.164585
   3 N :    0.375399
   4 C :    0.518073
   5 H :   -0.227630
   6 H :   -0.501704
   7 H :   -0.158180
   8 H :   -0.224934
   9 H :   -0.152116
  10 H :    0.000341
  11 H :   -0.097781
  12 H :   -0.126196
  13 H :   -0.147019
Sum of atomic charges:   -0.0000000

LOEWDIN ATOMIC CHARGES
----------------------
   0 C :    0.123688
   1 C :   -0.043745
   2 C :   -0.282135
   3 N :    0.184333
   4 C :    0.164393
   5 H :   -0.069510
   6 H :   -0.075219
   7 H :   -0.002848
   8 H :    0.000986
   9 H :    0.025630
  10 H :    0.024295
  11 H :   -0.016800
  12 H :   -0.022386
  13 H :   -0.010682

  Mayer bond orders larger than 0.100000
B(  0-C ,  1-C ) :   1.2172 B(  0-C , 11-H ) :   0.7751 B(  0-C , 12-H ) :   0.7361
B(  0-C , 13-H ) :   0.8005 B(  1-C ,  2-C ) :   1.2299 B(  1-C ,  3-N ) :   0.1126
B(  1-C ,  4-C ) :   0.1940 B(  1-C ,  9-H ) :   0.8156 B(  1-C , 10-H ) :   0.8153
B(  1-C , 11-H ) :   0.1946 B(  1-C , 12-H ) :   0.2370 B(  1-C , 13-H ) :   0.1937
B(  2-C ,  3-N ) :   1.2789 B(  2-C ,  4-C ) :   1.6355 B(  2-C ,  6-H ) :   0.2650
B(  2-C ,  9-H ) :   0.1840 B(  2-C , 10-H ) :   0.2085 B(  3-N ,  4-C ) :   0.2610
B(  3-N ,  7-H ) :   1.1322 B(  3-N ,  8-H ) :   1.2281 B(  4-C ,  5-H ) :   0.9232
B(  4-C ,  6-H ) :   0.5337 B(  7-H ,  8-H ) :  -0.1600

FINAL SINGLE POINT ENERGY      -211.815507980559

DIPOLE MOMENT
-------------
                                X             Y             Z
Electronic contribution:      1.63619       1.06813       2.00557
Nuclear contribution   :     -1.13902      -0.93906      -2.44135
                        -----------------------------------------
Total Dipole Moment    :      0.49717       0.12906      -0.43578
                        -----------------------------------------
Magnitude (a.u.)       :      0.67360
Magnitude (Debye)      :      1.71216

Rotational constants in cm-1:     0.267243     0.130607     0.102304
Rotational constants in MHz :  8011.748167  3915.504600  3066.999841

                             ****ORCA TERMINATED NORMALLY****
TOTAL RUN TIME: 0 days 0 hours 0 minutes 25 seconds 366 msec
