                         Program Version 5.0.0 -  RELEASE  -
|  1> !LC-BLYP RIJCOSX def2-SVPD def2/J TightSCF xyzfile
|  2>
|  3> *xyzfile 0 1 D1.xyz
|  4>
|  5> %MaxCore 64000
|  6>
|  7> %pal nprocs 4
|  8> end
|  9>
| 10> %scf
| 11>   MaxIter 150
| 12> end
| 13>
| 14>
| 15>                          ****END OF INPUT****

CARTESIAN COORDINATES (ANGSTROEM)
---------------------------------
  C      1.647032   -2.345276   -5.020411
  C      0.217628   -1.814022   -4.924389
  C      2.209964   -2.812388   -3.665708
  C     -0.811356   -2.908780   -4.607625
  C     -1.916579   -2.485081   -3.643665
  H     -2.554525   -1.712428   -4.091993
  C     -1.363531   -1.981337   -2.293608
  H     -2.553448   -3.355667   -3.458815
  F     -0.350395   -2.749689   -1.796006
  H      2.308385   -1.588704   -5.457128
  H      1.674286   -3.203478   -5.697392
  C      2.489007   -1.668510   -2.737538
  C      3.596314   -0.947608   -2.952247
  N      1.663936   -1.413685   -1.777806
  H      0.811642   -1.963178   -1.702755
  H      1.845503   -0.635078   -1.158749
  H      4.205351   -1.176003   -3.733825
  H      3.817230   -0.125845   -2.406041
  H     -1.244829   -3.280884   -5.541040
  H     -0.306331   -3.757746   -4.142734
  H     -0.036244   -1.318555   -5.865303
  H      0.175004   -1.035382   -4.158095
  H      3.143106   -3.362803   -3.811524
  H      1.487683   -3.458935   -3.165211
  H     -2.226220   -1.908386   -1.602039
  H     -1.051353   -0.915671   -2.443331

 Total Charge           Charge          ....    0
 Multiplicity           Mult            ....    1
 Number of Electrons    NEL             ....   80
 Basis Dimension        Dim             ....  331

ORBITAL ENERGIES
----------------

  NO   OCC          E(Eh)            E(eV)
   0   2.0000     -24.511832      -667.0009
   1   2.0000     -14.157472      -385.2444
   2   2.0000     -10.185854      -277.1712
   3   2.0000     -10.104165      -274.9483
   4   2.0000     -10.091464      -274.6027
   5   2.0000     -10.087214      -274.4871
   6   2.0000     -10.078787      -274.2577
   7   2.0000     -10.075305      -274.1630
   8   2.0000     -10.070937      -274.0441
   9   2.0000      -9.999703      -272.1058
  10   2.0000      -1.322978       -36.0000
  11   2.0000      -1.012090       -27.5404
  12   2.0000      -0.927317       -25.2336
  13   2.0000      -0.884453       -24.0672
  14   2.0000      -0.839427       -22.8420
  15   2.0000      -0.794843       -21.6288
  16   2.0000      -0.771924       -21.0051
  17   2.0000      -0.717191       -19.5158
  18   2.0000      -0.698336       -19.0027
  19   2.0000      -0.681359       -18.5407
  20   2.0000      -0.643556       -17.5121
  21   2.0000      -0.634137       -17.2557
  22   2.0000      -0.619541       -16.8586
  23   2.0000      -0.592399       -16.1200
  24   2.0000      -0.572437       -15.5768
  25   2.0000      -0.565727       -15.3942
  26   2.0000      -0.543164       -14.7802
  27   2.0000      -0.523581       -14.2474
  28   2.0000      -0.522335       -14.2135
  29   2.0000      -0.491605       -13.3773
  30   2.0000      -0.470872       -12.8131
  31   2.0000      -0.463816       -12.6211
  32   2.0000      -0.460843       -12.5402
  33   2.0000      -0.454187       -12.3591
  34   2.0000      -0.440334       -11.9821
  35   2.0000      -0.430363       -11.7108
  36   2.0000      -0.418669       -11.3926
  37   2.0000      -0.409823       -11.1518
  38   2.0000      -0.404775       -11.0145
  39   2.0000      -0.262551        -7.1444
  40   0.0000       0.066604         1.8124
  41   0.0000       0.081423         2.2156
  42   0.0000       0.089032         2.4227
  43   0.0000       0.093131         2.5342
  44   0.0000       0.111255         3.0274

MULLIKEN ATOMIC CHARGES
-----------------------
   0 C :    0.361747
   1 C :    0.390315
   2 C :    0.825168
   3 C :    0.219797
   4 C :    0.421337
   5 H :   -0.196201
   6 C :    0.739532
   7 H :   -0.059158
   8 F :   -0.374759
   9 H :   -0.137477
  10 H :   -0.209298
  11 C :   -0.321109
  12 C :    0.445582
  13 N :    0.958239
  14 H :   -0.688735
  15 H :   -0.148702
  16 H :   -0.237269
  17 H :   -0.479423
  18 H :   -0.322657
  19 H :   -0.058321
  20 H :   -0.261675
  21 H :   -0.205688
  22 H :   -0.068480
  23 H :   -0.369485
  24 H :   -0.394422
  25 H :    0.171143
Sum of atomic charges:   -0.0000000

LOEWDIN ATOMIC CHARGES
----------------------
   0 C :   -0.024979
   1 C :   -0.025126
   2 C :    0.012067
   3 C :   -0.036655
   4 C :   -0.020229
   5 H :    0.041199
   6 C :    0.118361
   7 H :    0.029894
   8 F :   -0.148697
   9 H :    0.026232
  10 H :    0.026395
  11 C :   -0.258375
  12 C :    0.160531
  13 N :    0.216263
  14 H :   -0.144776
  15 H :    0.019034
  16 H :   -0.085556
  17 H :   -0.094452
  18 H :    0.030560
  19 H :    0.010409
  20 H :    0.026747
  21 H :    0.004136
  22 H :    0.034696
  23 H :   -0.003017
  24 H :    0.043950
  25 H :    0.041389

  Mayer bond orders larger than 0.100000
B(  0-C ,  1-C ) :   1.2438 B(  0-C ,  2-C ) :   1.1237 B(  0-C ,  3-C ) :   0.1012
B(  0-C ,  9-H ) :   0.6939 B(  0-C , 10-H ) :   0.8385 B(  0-C , 20-H ) :   0.1021
B(  0-C , 21-H ) :   0.1991 B(  0-C , 22-H ) :   0.1288 B(  0-C , 23-H ) :   0.1997
B(  1-C ,  2-C ) :   0.1585 B(  1-C ,  3-C ) :   1.1390 B(  1-C ,  9-H ) :   0.2315
B(  1-C , 10-H ) :   0.1288 B(  1-C , 18-H ) :   0.2394 B(  1-C , 20-H ) :   0.7670
B(  1-C , 21-H ) :   0.7079 B(  2-C ,  9-H ) :   0.1674 B(  2-C , 11-C ) :   0.9304
B(  2-C , 13-N ) :   0.1267 B(  2-C , 14-H ) :  -0.1369 B(  2-C , 15-H ) :   0.1114
B(  2-C , 17-H ) :   0.1553 B(  2-C , 22-H ) :   0.6917 B(  2-C , 23-H ) :   0.4889
B(  3-C ,  4-C ) :   1.2321 B(  3-C ,  5-H ) :   0.1367 B(  3-C ,  7-H ) :   0.2534
B(  3-C , 18-H ) :   0.8310 B(  3-C , 19-H ) :   0.7730 B(  3-C , 20-H ) :   0.1360
B(  3-C , 21-H ) :   0.1934 B(  4-C ,  5-H ) :   0.8366 B(  4-C ,  6-C ) :   1.2300
B(  4-C ,  7-H ) :   0.6260 B(  4-C , 24-H ) :   0.1596 B(  4-C , 25-H ) :   0.1067
B(  5-H ,  6-C ) :   0.1058 B(  6-C ,  7-H ) :   0.1115 B(  6-C ,  8-F ) :   0.6656
B(  6-C , 24-H ) :   0.9524 B(  6-C , 25-H ) :   0.7722 B(  8-F , 14-H ) :   0.2500
B(  8-F , 24-H ) :  -0.1047 B(  9-H , 10-H ) :  -0.1673 B(  9-H , 19-H ) :  -0.1047
B( 11-C , 12-C ) :   1.6464 B( 11-C , 13-N ) :   1.2822 B( 11-C , 14-H ) :   0.1540
B( 11-C , 17-H ) :   0.1664 B( 11-C , 22-H ) :   0.2098 B( 11-C , 23-H ) :   0.3207
B( 12-C , 13-N ) :   0.1321 B( 12-C , 16-H ) :   0.8031 B( 12-C , 17-H ) :   0.5726
B( 13-N , 14-H ) :   0.7258 B( 13-N , 15-H ) :   1.1451 B( 14-H , 15-H ) :  -0.2133
B( 14-H , 23-H ) :   0.1227 B( 18-H , 19-H ) :  -0.1138 B( 19-H , 23-H ) :   0.1286
B( 20-H , 21-H ) :  -0.1039

FINAL SINGLE POINT ENERGY      -467.507789654522

DIPOLE MOMENT
-------------
                                X             Y             Z
Electronic contribution:     -1.31589      -1.72988       6.90347
Nuclear contribution   :     -0.37390       1.73388      -6.94752
                        -----------------------------------------
Total Dipole Moment    :     -1.68980       0.00400      -0.04405
                        -----------------------------------------
Magnitude (a.u.)       :      1.69038
Magnitude (Debye)      :      4.29660

Rotational constants in cm-1:     0.062220     0.032742     0.024374
Rotational constants in MHz :  1865.297979   981.573941   730.711364

                             ****ORCA TERMINATED NORMALLY****
TOTAL RUN TIME: 0 days 0 hours 1 minutes 38 seconds 714 msec
