                         Program Version 5.0.0 -  RELEASE  -
|  1> !PBE D3BJ RIJCOSX def2-SVP def2/J TightSCF
|  2> *xyz -1 1
|  3> C         -0.72184       -0.99951       -3.43931
|  4> C          0.28725       -1.71177       -2.52740
|  5> H          1.13178       -2.06738       -3.15940
|  6> H         -0.20414       -2.63733       -2.17048
|  7> O          0.71050       -0.92751       -1.48177
|  8> H         -1.01315       -1.65739       -4.23129
|  9> H         -0.27123       -0.12142       -3.85259
| 10> H         -1.58442       -0.72333       -2.86958
| 11> *
| 12> %MaxCore 64000
| 13>
| 14> %pal nprocs 4
| 15> end
| 16>
| 17> %scf
| 18>   MaxIter 150
| 19> end
| 20>
| 21>
| 22>                          ****END OF INPUT****

CARTESIAN COORDINATES (ANGSTROEM)
---------------------------------
  C     -0.721840   -0.999510   -3.439310
  C      0.287250   -1.711770   -2.527400
  H      1.131780   -2.067380   -3.159400
  H     -0.204140   -2.637330   -2.170480
  O      0.710500   -0.927510   -1.481770
  H     -1.013150   -1.657390   -4.231290
  H     -0.271230   -0.121420   -3.852590
  H     -1.584420   -0.723330   -2.869580

 Total Charge           Charge          ....   -1
 Multiplicity           Mult            ....    1
 Number of Electrons    NEL             ....   26
 Basis Dimension        Dim             ....   67

ORBITAL ENERGIES
----------------

  NO   OCC          E(Eh)            E(eV)
   0   2.0000     -18.380702      -500.1643
   1   2.0000      -9.681276      -263.4409
   2   2.0000      -9.669841      -263.1297
   3   2.0000      -0.546972       -14.8839
   4   2.0000      -0.427975       -11.6458
   5   2.0000      -0.284074        -7.7300
   6   2.0000      -0.181872        -4.9490
   7   2.0000      -0.160698        -4.3728
   8   2.0000      -0.108358        -2.9486
   9   2.0000      -0.089622        -2.4387
  10   2.0000      -0.025462        -0.6929
  11   2.0000       0.116622         3.1734
  12   2.0000       0.122059         3.3214
  13   0.0000       0.233739         6.3604
  14   0.0000       0.275053         7.4846
  15   0.0000       0.286513         7.7964
  16   0.0000       0.295342         8.0367
  17   0.0000       0.335938         9.1413

MULLIKEN ATOMIC CHARGES
-----------------------
   0 C :    0.079586
   1 C :    0.200464
   2 H :   -0.172761
   3 H :   -0.172385
   4 O :   -0.646183
   5 H :   -0.140434
   6 H :   -0.075251
   7 H :   -0.073036
Sum of atomic charges:   -1.0000000

LOEWDIN ATOMIC CHARGES
----------------------
   0 C :   -0.118674
   1 C :   -0.006950
   2 H :   -0.086031
   3 H :   -0.084689
   4 O :   -0.619709
   5 H :   -0.045226
   6 H :   -0.020001
   7 H :   -0.018720

  Mayer bond orders larger than 0.100000
B(  0-C ,  1-C ) :   1.0009 B(  0-C ,  4-O ) :  -0.1122 B(  0-C ,  5-H ) :   0.8849
B(  0-C ,  6-H ) :   0.9433 B(  0-C ,  7-H ) :   0.9452 B(  1-C ,  2-H ) :   0.8448
B(  1-C ,  3-H ) :   0.8467 B(  1-C ,  4-O ) :   1.5405 B(  4-O ,  5-H ) :   0.1139

Dispersion correction           -0.003761384
FINAL SINGLE POINT ENERGY      -154.085303846551

DIPOLE MOMENT
-------------
                                X             Y             Z
Electronic contribution:      1.67382       0.98428       2.81780
Nuclear contribution   :     -2.24828      -1.06600      -3.62481
                        -----------------------------------------
Total Dipole Moment    :     -0.57446      -0.08172      -0.80701
                        -----------------------------------------
Magnitude (a.u.)       :      0.99395
Magnitude (Debye)      :      2.52643

Rotational constants in cm-1:     1.278116     0.325414     0.286672
Rotational constants in MHz : 38316.964654  9755.653004  8594.216906

                             ****ORCA TERMINATED NORMALLY****
TOTAL RUN TIME: 0 days 0 hours 0 minutes 5 seconds 837 msec
