                         Program Version 5.0.0 -  RELEASE  -
|  1> !PBE D3BJ RIJCOSX def2-SVP def2/J TightSCF
|  2> *xyz 1 1
|  3> C          3.48828        1.60092       -1.52204
|  4> C          4.34297        1.31342       -2.75683
|  5> N          2.81029        0.42878       -1.01420
|  6> H          2.71455        2.33145       -1.76030
|  7> H          4.09099        2.06315       -0.73338
|  8> C          3.29098       -0.41802       -0.12908
|  9> N          2.51754       -1.43202        0.23936
| 10> N          4.53549       -0.28441        0.39580
| 11> H          5.04363        0.57189        0.22290
| 12> H          4.72335       -0.73327        1.28180
| 13> H          1.93479        0.10230       -1.40379
| 14> H          1.67464       -1.50562       -0.31610
| 15> H          2.92850       -2.21850        0.72549
| 16> H          3.73575        0.86277       -3.51385
| 17> H          5.13754        0.64699       -2.49333
| 18> H          4.75374        2.22930       -3.12740
| 19> *
| 20> %MaxCore 64000
| 21>
| 22> %pal nprocs 4
| 23> end
| 24>
| 25> %scf
| 26>   MaxIter 150
| 27> end
| 28>
| 29>
| 30>                          ****END OF INPUT****

CARTESIAN COORDINATES (ANGSTROEM)
---------------------------------
  C      3.488280    1.600920   -1.522040
  C      4.342970    1.313420   -2.756830
  N      2.810290    0.428780   -1.014200
  H      2.714550    2.331450   -1.760300
  H      4.090990    2.063150   -0.733380
  C      3.290980   -0.418020   -0.129080
  N      2.517540   -1.432020    0.239360
  N      4.535490   -0.284410    0.395800
  H      5.043630    0.571890    0.222900
  H      4.723350   -0.733270    1.281800
  H      1.934790    0.102300   -1.403790
  H      1.674640   -1.505620   -0.316100
  H      2.928500   -2.218500    0.725490
  H      3.735750    0.862770   -3.513850
  H      5.137540    0.646990   -2.493330
  H      4.753740    2.229300   -3.127400

 Total Charge           Charge          ....    1
 Multiplicity           Mult            ....    1
 Number of Electrons    NEL             ....   48
 Basis Dimension        Dim             ....  134

ORBITAL ENERGIES
----------------

  NO   OCC          E(Eh)            E(eV)
   0   2.0000     -14.224419      -387.0661
   1   2.0000     -14.219319      -386.9273
   2   2.0000     -14.216552      -386.8521
   3   2.0000     -10.213389      -277.9204
   4   2.0000     -10.103911      -274.9414
   5   2.0000     -10.031958      -272.9834
   6   2.0000      -1.125326       -30.6217
   7   2.0000      -1.019742       -27.7486
   8   2.0000      -1.006167       -27.3792
   9   2.0000      -0.858267       -23.3546
  10   2.0000      -0.772097       -21.0098
  11   2.0000      -0.745124       -20.2758
  12   2.0000      -0.724448       -19.7132
  13   2.0000      -0.689944       -18.7743
  14   2.0000      -0.642337       -17.4789
  15   2.0000      -0.633191       -17.2300
  16   2.0000      -0.605563       -16.4782
  17   2.0000      -0.587251       -15.9799
  18   2.0000      -0.553837       -15.0707
  19   2.0000      -0.515795       -14.0355
  20   2.0000      -0.486394       -13.2355
  21   2.0000      -0.468088       -12.7373
  22   2.0000      -0.432322       -11.7641
  23   2.0000      -0.411236       -11.1903
  24   0.0000      -0.192887        -5.2487
  25   0.0000      -0.166543        -4.5319
  26   0.0000      -0.134830        -3.6689
  27   0.0000      -0.117203        -3.1893
  28   0.0000      -0.095325        -2.5939

MULLIKEN ATOMIC CHARGES
-----------------------
   0 C :   -0.012231
   1 C :    0.001794
   2 N :   -0.062682
   3 H :    0.076990
   4 H :    0.059668
   5 C :   -0.027297
   6 N :    0.016285
   7 N :   -0.021863
   8 H :    0.154891
   9 H :    0.166555
  10 H :    0.153902
  11 H :    0.158498
  12 H :    0.172889
  13 H :    0.051823
  14 H :    0.037299
  15 H :    0.073478
Sum of atomic charges:    1.0000000

LOEWDIN ATOMIC CHARGES
----------------------
   0 C :    0.027470
   1 C :   -0.052480
   2 N :    0.059776
   3 H :    0.053704
   4 H :    0.037720
   5 C :    0.107697
   6 N :    0.064556
   7 N :    0.048386
   8 H :    0.101315
   9 H :    0.109215
  10 H :    0.103346
  11 H :    0.105861
  12 H :    0.113084
  13 H :    0.038221
  14 H :    0.030375
  15 H :    0.051754

  Mayer bond orders larger than 0.100000
B(  0-C ,  1-C ) :   1.1076 B(  0-C ,  2-N ) :   0.9579 B(  0-C ,  3-H ) :   0.9344
B(  0-C ,  4-H ) :   0.9379 B(  1-C , 13-H ) :   0.9638 B(  1-C , 14-H ) :   0.9636
B(  1-C , 15-H ) :   0.9569 B(  2-N ,  5-C ) :   1.3880 B(  2-N , 10-H ) :   0.9023
B(  5-C ,  6-N ) :   1.3935 B(  5-C ,  7-N ) :   1.3743 B(  6-N , 11-H ) :   0.9198
B(  6-N , 12-H ) :   0.9233 B(  7-N ,  8-H ) :   0.9242 B(  7-N ,  9-H ) :   0.9260

Dispersion correction           -0.012363355
FINAL SINGLE POINT ENERGY      -283.838501652734

DIPOLE MOMENT
-------------
                                X             Y             Z
Electronic contribution:     -1.94396      -3.06117       3.78786
Nuclear contribution   :      1.59382       2.33278      -3.02574
                        -----------------------------------------
Total Dipole Moment    :     -0.35014      -0.72839       0.76212
                        -----------------------------------------
Magnitude (a.u.)       :      1.11085
Magnitude (Debye)      :      2.82355

Rotational constants in cm-1:     0.232230     0.073139     0.063030
Rotational constants in MHz :  6962.079716  2192.649203  1889.578947

                             ****ORCA TERMINATED NORMALLY****
TOTAL RUN TIME: 0 days 0 hours 0 minutes 8 seconds 787 msec
