                         Program Version 5.0.0 -  RELEASE  -
|  1> !PBE D3BJ RIJCOSX def2-TZVP def2/J TightSCF xyzfile
|  2>
|  3> *xyzfile 0 1 B.xyz
|  4>
|  5> %MaxCore 64000
|  6>
|  7> %pal nprocs 18
|  8> end
|  9>
| 10> %scf
| 11>   MaxIter 150
| 12> end
| 13>
| 14>
| 15>                          ****END OF INPUT****

CARTESIAN COORDINATES (ANGSTROEM)
---------------------------------
  C      3.488276    1.600919   -1.522040
  C      4.342970    1.313419   -2.756826
  N      2.810285    0.428783   -1.014196
  H      5.132033    0.604994   -2.484466
  C      3.535896    0.749253   -3.924604
  H      4.841247    2.242136   -3.054083
  H      2.991617   -0.132199   -3.574137
  H      4.225505    0.392784   -4.695962
  C      2.564776    1.750890   -4.544523
  H      1.918749    2.171679   -3.769419
  C      1.686235    1.161657   -5.650111
  H      3.132494    2.594775   -4.951604
  C      0.839616   -0.037582   -5.220473
  H      2.323886    0.866395   -6.490796
  H      1.029518    1.951850   -6.029329
  C     -0.151019    0.254955   -4.094256
  H      1.499442   -0.857141   -4.922958
  H      0.290097   -0.410143   -6.091131
  H      0.328265    0.833022   -3.299125
  C     -0.721843   -0.999513   -3.439309
  H     -0.957367    0.884951   -4.485450
  H     -1.083403   -1.697555   -4.205656
  H     -1.581056   -0.723848   -2.820490
  C      0.287250   -1.711771   -2.527405
  H      1.131780   -2.067380   -3.159396
  H     -0.204137   -2.637326   -2.170480
  O      0.710505   -0.927506   -1.481767
  H      2.714548    2.331455   -1.760302
  H      4.090991    2.063151   -0.733382
  C      3.290978   -0.418021   -0.129083
  N      2.517536   -1.432017    0.239360
  N      4.535490   -0.284410    0.395800
  H      5.043627    0.571888    0.222899
  H      4.723346   -0.733273    1.281800
  H      1.934787    0.102305   -1.403788
  H      1.674638   -1.505616   -0.316095
  H      2.928503   -2.218502    0.725494

 Total Charge           Charge          ....    0
 Multiplicity           Mult            ....    1
 Number of Electrons    NEL             ....  112
 Basis Dimension        Dim             ....  572

ORBITAL ENERGIES
----------------

  NO   OCC          E(Eh)            E(eV)
   0   2.0000     -18.624760      -506.8055
   1   2.0000     -14.039475      -382.0335
   2   2.0000     -14.004860      -381.0916
   3   2.0000     -13.995763      -380.8441
   4   2.0000     -10.014238      -272.5013
   5   2.0000      -9.932710      -270.2828
   6   2.0000      -9.890000      -269.1206
   7   2.0000      -9.873177      -268.6628
   8   2.0000      -9.867861      -268.5181
   9   2.0000      -9.861321      -268.3402
  10   2.0000      -9.858036      -268.2508
  11   2.0000      -9.849508      -268.0187
  12   2.0000      -9.839401      -267.7437
  13   2.0000      -9.827884      -267.4303
  14   2.0000      -0.946631       -25.7591
  15   2.0000      -0.849327       -23.1114
  16   2.0000      -0.830631       -22.6026
  17   2.0000      -0.801821       -21.8187
  18   2.0000      -0.737483       -20.0679
  19   2.0000      -0.705261       -19.1911
  20   2.0000      -0.669457       -18.2169
  21   2.0000      -0.635361       -17.2890
  22   2.0000      -0.596646       -16.2356
  23   2.0000      -0.588206       -16.0059
  24   2.0000      -0.551780       -15.0147
  25   2.0000      -0.541495       -14.7348
  26   2.0000      -0.536655       -14.6031
  27   2.0000      -0.509178       -13.8554
  28   2.0000      -0.487226       -13.2581
  29   2.0000      -0.467367       -12.7177
  30   2.0000      -0.457031       -12.4364
  31   2.0000      -0.443548       -12.0695
  32   2.0000      -0.432847       -11.7784
  33   2.0000      -0.422974       -11.5097
  34   2.0000      -0.411919       -11.2089
  35   2.0000      -0.401891       -10.9360
  36   2.0000      -0.386875       -10.5274
  37   2.0000      -0.372516       -10.1367
  38   2.0000      -0.366645        -9.9769
  39   2.0000      -0.348441        -9.4816
  40   2.0000      -0.344652        -9.3784
  41   2.0000      -0.333950        -9.0872
  42   2.0000      -0.316223        -8.6049
  43   2.0000      -0.309473        -8.4212
  44   2.0000      -0.301685        -8.2093
  45   2.0000      -0.291412        -7.9297
  46   2.0000      -0.280189        -7.6243
  47   2.0000      -0.271732        -7.3942
  48   2.0000      -0.268540        -7.3074
  49   2.0000      -0.263328        -7.1655
  50   2.0000      -0.249620        -6.7925
  51   2.0000      -0.245841        -6.6897
  52   2.0000      -0.240855        -6.5540
  53   2.0000      -0.227794        -6.1986
  54   2.0000      -0.139445        -3.7945
  55   2.0000      -0.130673        -3.5558
  56   0.0000      -0.027152        -0.7388
  57   0.0000      -0.019875        -0.5408
  58   0.0000       0.006991         0.1902
  59   0.0000       0.027635         0.7520
  60   0.0000       0.031242         0.8501

MULLIKEN ATOMIC CHARGES
-----------------------
   0 C :   -0.247838
   1 C :   -0.078699
   2 N :   -0.141748
   3 H :    0.092055
   4 C :   -0.231705
   5 H :    0.084920
   6 H :    0.130237
   7 H :    0.088443
   8 C :   -0.231227
   9 H :    0.096871
  10 C :   -0.081491
  11 H :    0.081980
  12 C :   -0.246054
  13 H :    0.078822
  14 H :    0.077944
  15 C :   -0.165129
  16 H :    0.099714
  17 H :    0.082410
  18 H :    0.076168
  19 C :   -0.040950
  20 H :    0.072901
  21 H :    0.040103
  22 H :    0.056456
  23 C :   -0.018540
  24 H :    0.011504
  25 H :    0.038827
  26 O :   -0.691453
  27 H :    0.146013
  28 H :    0.100598
  29 C :    0.301356
  30 N :   -0.356012
  31 N :   -0.411634
  32 H :    0.237443
  33 H :    0.235531
  34 H :    0.239174
  35 H :    0.260983
  36 H :    0.212029
Sum of atomic charges:    0.0000000

LOEWDIN ATOMIC CHARGES
----------------------
   0 C :   -0.290659
   1 C :   -0.273234
   2 N :    0.190811
   3 H :    0.135680
   4 C :   -0.269125
   5 H :    0.140202
   6 H :    0.145709
   7 H :    0.138997
   8 C :   -0.274644
   9 H :    0.133279
  10 C :   -0.272480
  11 H :    0.134827
  12 C :   -0.275632
  13 H :    0.134759
  14 H :    0.136628
  15 C :   -0.279414
  16 H :    0.132519
  17 H :    0.134769
  18 H :    0.132489
  19 C :   -0.285799
  20 H :    0.130341
  21 H :    0.126991
  22 H :    0.130858
  23 C :   -0.480149
  24 H :    0.086929
  25 H :    0.100410
  26 O :   -0.261890
  27 H :    0.143284
  28 H :    0.126552
  29 C :   -0.447003
  30 N :    0.052702
  31 N :    0.007815
  32 H :    0.171606
  33 H :    0.174291
  34 H :    0.157458
  35 H :    0.144573
  36 H :    0.165551

  Mayer bond orders larger than 0.100000
B(  0-C ,  1-C ) :   0.9727 B(  0-C ,  2-N ) :   0.9371 B(  0-C , 27-H ) :   0.9635
B(  0-C , 28-H ) :   0.9547 B(  1-C ,  3-H ) :   0.9429 B(  1-C ,  4-C ) :   0.9990
B(  1-C ,  5-H ) :   0.9431 B(  2-N , 29-C ) :   1.4450 B(  2-N , 34-H ) :   0.7335
B(  4-C ,  6-H ) :   0.9610 B(  4-C ,  7-H ) :   0.9454 B(  4-C ,  8-C ) :   1.0042
B(  8-C ,  9-H ) :   0.9656 B(  8-C , 10-C ) :   1.0190 B(  8-C , 11-H ) :   0.9398
B( 10-C , 12-C ) :   0.9968 B( 10-C , 13-H ) :   0.9458 B( 10-C , 14-H ) :   0.9445
B( 12-C , 15-C ) :   1.0100 B( 12-C , 16-H ) :   0.9688 B( 12-C , 17-H ) :   0.9417
B( 15-C , 18-H ) :   0.9524 B( 15-C , 19-C ) :   1.0130 B( 15-C , 20-H ) :   0.9434
B( 19-C , 21-H ) :   0.9270 B( 19-C , 22-H ) :   0.9323 B( 19-C , 23-C ) :   0.9926
B( 23-C , 24-H ) :   0.9415 B( 23-C , 25-H ) :   0.9257 B( 23-C , 26-O ) :   1.1885
B( 26-O , 34-H ) :   0.2728 B( 26-O , 35-H ) :   0.2629 B( 29-C , 30-N ) :   1.4203
B( 29-C , 31-N ) :   1.2309 B( 30-N , 35-H ) :   0.7328 B( 30-N , 36-H ) :   0.9105
B( 31-N , 32-H ) :   0.9044 B( 31-N , 33-H ) :   0.9101

Dispersion correction           -0.040522604
FINAL SINGLE POINT ENERGY      -633.838737834373

DIPOLE MOMENT
-------------
                                X             Y             Z
Electronic contribution:      3.52269      -2.08310      11.40112
Nuclear contribution   :     -0.74583       2.62534      -9.91488
                        -----------------------------------------
Total Dipole Moment    :      2.77686       0.54224       1.48624
                        -----------------------------------------
Magnitude (a.u.)       :      3.19592
Magnitude (Debye)      :      8.12338

Rotational constants in cm-1:     0.027028     0.016098     0.010898
Rotational constants in MHz :   810.278072   482.590922   326.703462

                             ****ORCA TERMINATED NORMALLY****
TOTAL RUN TIME: 0 days 0 hours 0 minutes 30 seconds 667 msec
