                         Program Version 5.0.0 -  RELEASE  -
|  1> !PBE D3BJ RIJCOSX def2-SVP def2/J TightSCF
|  2> *xyz 0 1
|  3> C         -0.72184       -0.99951       -3.43931
|  4> C          0.28725       -1.71177       -2.52740
|  5> H          1.13178       -2.06738       -3.15940
|  6> H         -0.20414       -2.63733       -2.17048
|  7> F          0.71050       -0.92751       -1.48177
|  8> H         -1.01315       -1.65739       -4.23129
|  9> H         -0.27123       -0.12142       -3.85259
| 10> H         -1.58442       -0.72333       -2.86958
| 11> *
| 12> %MaxCore 64000
| 13>
| 14> %pal nprocs 4
| 15> end
| 16>
| 17> %scf
| 18>   MaxIter 150
| 19> end
| 20>
| 21>
| 22>                          ****END OF INPUT****

CARTESIAN COORDINATES (ANGSTROEM)
---------------------------------
  C     -0.721840   -0.999510   -3.439310
  C      0.287250   -1.711770   -2.527400
  H      1.131780   -2.067380   -3.159400
  H     -0.204140   -2.637330   -2.170480
  F      0.710500   -0.927510   -1.481770
  H     -1.013150   -1.657390   -4.231290
  H     -0.271230   -0.121420   -3.852590
  H     -1.584420   -0.723330   -2.869580

 Total Charge           Charge          ....    0
 Multiplicity           Mult            ....    1
 Number of Electrons    NEL             ....   26
 Basis Dimension        Dim             ....   67

ORBITAL ENERGIES
----------------

  NO   OCC          E(Eh)            E(eV)
   0   2.0000     -24.238040      -659.5506
   1   2.0000      -9.964524      -271.1485
   2   2.0000      -9.888505      -269.0799
   3   2.0000      -1.064877       -28.9768
   4   2.0000      -0.682506       -18.5719
   5   2.0000      -0.555910       -15.1271
   6   2.0000      -0.443169       -12.0592
   7   2.0000      -0.431163       -11.7325
   8   2.0000      -0.392475       -10.6798
   9   2.0000      -0.349850        -9.5199
  10   2.0000      -0.344745        -9.3810
  11   2.0000      -0.276178        -7.5152
  12   2.0000      -0.270809        -7.3691
  13   0.0000       0.044111         1.2003
  14   0.0000       0.086624         2.3572
  15   0.0000       0.092267         2.5107
  16   0.0000       0.099793         2.7155
  17   0.0000       0.118890         3.2352

MULLIKEN ATOMIC CHARGES
-----------------------
   0 C :   -0.060072
   1 C :    0.179974
   2 H :    0.013836
   3 H :    0.011627
   4 F :   -0.232301
   5 H :    0.021249
   6 H :    0.032701
   7 H :    0.032986
Sum of atomic charges:   -0.0000000

LOEWDIN ATOMIC CHARGES
----------------------
   0 C :   -0.081374
   1 C :    0.092043
   2 H :    0.010702
   3 H :    0.009714
   4 F :   -0.117562
   5 H :    0.032363
   6 H :    0.026865
   7 H :    0.027250

  Mayer bond orders larger than 0.100000
B(  0-C ,  1-C ) :   1.1078 B(  0-C ,  5-H ) :   0.9533 B(  0-C ,  6-H ) :   0.9670
B(  0-C ,  7-H ) :   0.9670 B(  1-C ,  2-H ) :   0.9484 B(  1-C ,  3-H ) :   0.9490
B(  1-C ,  4-F ) :   1.0367

Dispersion correction           -0.003480207
FINAL SINGLE POINT ENERGY      -178.709022645507

DIPOLE MOMENT
-------------
                                X             Y             Z
Electronic contribution:      2.74122       1.09774       4.30637
Nuclear contribution   :     -2.97459      -1.40206      -4.79987
                        -----------------------------------------
Total Dipole Moment    :     -0.23337      -0.30432      -0.49350
                        -----------------------------------------
Magnitude (a.u.)       :      0.62499
Magnitude (Debye)      :      1.58861

Rotational constants in cm-1:     1.257024     0.302702     0.267953
Rotational constants in MHz : 37684.643733  9074.792567  8033.038070

                             ****ORCA TERMINATED NORMALLY****
TOTAL RUN TIME: 0 days 0 hours 0 minutes 5 seconds 902 msec
