                         Program Version 5.0.0 -  RELEASE  -
|  1> !PBE D3BJ RIJCOSX def2-SVP def2/J TightSCF
|  2> *xyz 0 1
|  3> C          3.48828        1.60092       -1.52204
|  4> C          4.34297        1.31342       -2.75683
|  5> N          2.81029        0.42878       -1.01420
|  6> H          2.71455        2.33145       -1.76030
|  7> H          4.09099        2.06315       -0.73338
|  8> C          3.29098       -0.41802       -0.12908
|  9> C          2.51754       -1.43202        0.23936
| 10> N          4.53549       -0.28441        0.39580
| 11> H          5.04363        0.57189        0.22290
| 12> H          4.72335       -0.73327        1.28180
| 13> H          1.93479        0.10230       -1.40379
| 14> H          1.67464       -1.50562       -0.31610
| 15> H          2.92850       -2.21850        0.72549
| 16> H          3.73575        0.86277       -3.51385
| 17> H          5.13754        0.64699       -2.49333
| 18> H          4.75374        2.22930       -3.12740
| 19> *
| 20> %MaxCore 64000
| 21>
| 22> %pal nprocs 4
| 23> end
| 24>
| 25> %scf
| 26>   MaxIter 150
| 27> end
| 28>
| 29>
| 30>                          ****END OF INPUT****

CARTESIAN COORDINATES (ANGSTROEM)
---------------------------------
  C      3.488280    1.600920   -1.522040
  C      4.342970    1.313420   -2.756830
  N      2.810290    0.428780   -1.014200
  H      2.714550    2.331450   -1.760300
  H      4.090990    2.063150   -0.733380
  C      3.290980   -0.418020   -0.129080
  C      2.517540   -1.432020    0.239360
  N      4.535490   -0.284410    0.395800
  H      5.043630    0.571890    0.222900
  H      4.723350   -0.733270    1.281800
  H      1.934790    0.102300   -1.403790
  H      1.674640   -1.505620   -0.316100
  H      2.928500   -2.218500    0.725490
  H      3.735750    0.862770   -3.513850
  H      5.137540    0.646990   -2.493330
  H      4.753740    2.229300   -3.127400

 Total Charge           Charge          ....    0
 Multiplicity           Mult            ....    1
 Number of Electrons    NEL             ....   48
 Basis Dimension        Dim             ....  134

ORBITAL ENERGIES
----------------

  NO   OCC          E(Eh)            E(eV)
   0   2.0000     -13.993653      -380.7866
   1   2.0000     -13.990318      -380.6959
   2   2.0000      -9.934224      -270.3240
   3   2.0000      -9.923526      -270.0329
   4   2.0000      -9.885064      -268.9863
   5   2.0000      -9.799566      -266.6598
   6   2.0000      -0.872287       -23.7361
   7   2.0000      -0.791111       -21.5272
   8   2.0000      -0.694757       -18.9053
   9   2.0000      -0.621665       -16.9164
  10   2.0000      -0.558319       -15.1926
  11   2.0000      -0.533964       -14.5299
  12   2.0000      -0.476701       -12.9717
  13   2.0000      -0.443067       -12.0565
  14   2.0000      -0.424904       -11.5622
  15   2.0000      -0.389276       -10.5927
  16   2.0000      -0.377874       -10.2825
  17   2.0000      -0.351615        -9.5679
  18   2.0000      -0.324724        -8.8362
  19   2.0000      -0.323023        -8.7899
  20   2.0000      -0.313870        -8.5408
  21   2.0000      -0.307388        -8.3645
  22   2.0000      -0.206164        -5.6100
  23   2.0000      -0.120127        -3.2688
  24   0.0000       0.020611         0.5608
  25   0.0000       0.045449         1.2367
  26   0.0000       0.056046         1.5251
  27   0.0000       0.075929         2.0661
  28   0.0000       0.084815         2.3079

MULLIKEN ATOMIC CHARGES
-----------------------
   0 C :    0.026686
   1 C :    0.021645
   2 N :   -0.083674
   3 H :    0.014944
   4 H :    0.012726
   5 C :   -0.108400
   6 C :   -0.053704
   7 N :   -0.067136
   8 H :    0.088238
   9 H :    0.117555
  10 H :    0.115331
  11 H :   -0.074060
  12 H :   -0.057902
  13 H :    0.017934
  14 H :    0.018094
  15 H :    0.011723
Sum of atomic charges:    0.0000000

LOEWDIN ATOMIC CHARGES
----------------------
   0 C :    0.017388
   1 C :   -0.071342
   2 N :   -0.002116
   3 H :    0.025411
   4 H :    0.018397
   5 C :    0.012645
   6 C :   -0.254482
   7 N :   -0.018372
   8 H :    0.057131
   9 H :    0.081053
  10 H :    0.084341
  11 H :   -0.011223
  12 H :   -0.008476
  13 H :    0.023949
  14 H :    0.022719
  15 H :    0.022977

  Mayer bond orders larger than 0.100000
B(  0-C ,  1-C ) :   1.0958 B(  0-C ,  2-N ) :   1.0423 B(  0-C ,  3-H ) :   0.9405
B(  0-C ,  4-H ) :   0.9360 B(  1-C , 13-H ) :   0.9635 B(  1-C , 14-H ) :   0.9621
B(  1-C , 15-H ) :   0.9535 B(  2-N ,  5-C ) :   1.2273 B(  2-N , 10-H ) :   0.9126
B(  5-C ,  6-C ) :   1.7231 B(  5-C ,  7-N ) :   1.2266 B(  6-C , 11-H ) :   0.9110
B(  6-C , 12-H ) :   0.9401 B(  7-N ,  8-H ) :   0.9479 B(  7-N ,  9-H ) :   0.9445

Dispersion correction           -0.012710156
FINAL SINGLE POINT ENERGY      -267.359744834837

DIPOLE MOMENT
-------------
                                X             Y             Z
Electronic contribution:     -0.85111      -1.06575       2.49503
Nuclear contribution   :      1.38466       1.98967      -2.80776
                        -----------------------------------------
Total Dipole Moment    :      0.53354       0.92392      -0.31274
                        -----------------------------------------
Magnitude (a.u.)       :      1.11180
Magnitude (Debye)      :      2.82598

Rotational constants in cm-1:     0.235618     0.075969     0.065309
Rotational constants in MHz :  7063.646698  2277.495424  1957.925383

                             ****ORCA TERMINATED NORMALLY****
TOTAL RUN TIME: 0 days 0 hours 0 minutes 8 seconds 931 msec
