                         Program Version 5.0.0 -  RELEASE  -
|  1> !PBE D3BJ RIJCOSX def2-SVP def2/J TightSCF
|  2> *xyz 0 1
|  3> C          3.48828        1.60092       -1.52204
|  4> C          4.34297        1.31342       -2.75683
|  5> N          2.81029        0.42878       -1.01420
|  6> H          2.71455        2.33145       -1.76030
|  7> H          4.09099        2.06315       -0.73338
|  8> C          3.29098       -0.41802       -0.12908
|  9> N          2.51754       -1.43202        0.23936
| 10> C          4.53549       -0.28441        0.39580
| 11> H          5.04363        0.57189        0.22290
| 12> H          4.72335       -0.73327        1.28180
| 13> H          1.93479        0.10230       -1.40379
| 14> H          1.67464       -1.50562       -0.31610
| 15> H          2.92850       -2.21850        0.72549
| 16> H          3.73575        0.86277       -3.51385
| 17> H          5.13754        0.64699       -2.49333
| 18> H          4.75374        2.22930       -3.12740
| 19> *
| 20> %MaxCore 64000
| 21>
| 22> %pal nprocs 4
| 23> end
| 24>
| 25> %scf
| 26>   MaxIter 150
| 27> end
| 28>
| 29>
| 30>                          ****END OF INPUT****

CARTESIAN COORDINATES (ANGSTROEM)
---------------------------------
  C      3.488280    1.600920   -1.522040
  C      4.342970    1.313420   -2.756830
  N      2.810290    0.428780   -1.014200
  H      2.714550    2.331450   -1.760300
  H      4.090990    2.063150   -0.733380
  C      3.290980   -0.418020   -0.129080
  N      2.517540   -1.432020    0.239360
  C      4.535490   -0.284410    0.395800
  H      5.043630    0.571890    0.222900
  H      4.723350   -0.733270    1.281800
  H      1.934790    0.102300   -1.403790
  H      1.674640   -1.505620   -0.316100
  H      2.928500   -2.218500    0.725490
  H      3.735750    0.862770   -3.513850
  H      5.137540    0.646990   -2.493330
  H      4.753740    2.229300   -3.127400

 Total Charge           Charge          ....    0
 Multiplicity           Mult            ....    1
 Number of Electrons    NEL             ....   48
 Basis Dimension        Dim             ....  134

ORBITAL ENERGIES
----------------

  NO   OCC          E(Eh)            E(eV)
   0   2.0000     -13.998587      -380.9209
   1   2.0000     -13.992612      -380.7583
   2   2.0000      -9.925725      -270.0927
   3   2.0000      -9.925328      -270.0819
   4   2.0000      -9.876453      -268.7519
   5   2.0000      -9.798807      -266.6391
   6   2.0000      -0.880383       -23.9564
   7   2.0000      -0.796192       -21.6655
   8   2.0000      -0.675565       -18.3831
   9   2.0000      -0.622800       -16.9472
  10   2.0000      -0.573532       -15.6066
  11   2.0000      -0.498764       -13.5720
  12   2.0000      -0.483471       -13.1559
  13   2.0000      -0.468304       -12.7432
  14   2.0000      -0.416066       -11.3217
  15   2.0000      -0.387075       -10.5328
  16   2.0000      -0.372017       -10.1231
  17   2.0000      -0.341023        -9.2797
  18   2.0000      -0.328384        -8.9358
  19   2.0000      -0.315300        -8.5797
  20   2.0000      -0.306669        -8.3449
  21   2.0000      -0.299174        -8.1409
  22   2.0000      -0.201825        -5.4919
  23   2.0000      -0.121189        -3.2977
  24   0.0000       0.013705         0.3729
  25   0.0000       0.052837         1.4378
  26   0.0000       0.059316         1.6141
  27   0.0000       0.074378         2.0239
  28   0.0000       0.094175         2.5626

MULLIKEN ATOMIC CHARGES
-----------------------
   0 C :    0.056858
   1 C :    0.009969
   2 N :   -0.105114
   3 H :    0.007243
   4 H :    0.034652
   5 C :   -0.102871
   6 N :   -0.037139
   7 C :   -0.094704
   8 H :   -0.060668
   9 H :   -0.058423
  10 H :    0.086970
  11 H :    0.087551
  12 H :    0.122502
  13 H :    0.005832
  14 H :    0.034149
  15 H :    0.013193
Sum of atomic charges:   -0.0000000

LOEWDIN ATOMIC CHARGES
----------------------
   0 C :    0.030429
   1 C :   -0.067975
   2 N :   -0.001198
   3 H :    0.021593
   4 H :    0.030965
   5 C :    0.007727
   6 N :   -0.004103
   7 C :   -0.274947
   8 H :   -0.011745
   9 H :   -0.009526
  10 H :    0.061280
  11 H :    0.059336
  12 H :    0.084987
  13 H :    0.018668
  14 H :    0.030025
  15 H :    0.024485

  Mayer bond orders larger than 0.100000
B(  0-C ,  1-C ) :   1.1154 B(  0-C ,  2-N ) :   1.0218 B(  0-C ,  3-H ) :   0.9444
B(  0-C ,  4-H ) :   0.9277 B(  1-C , 13-H ) :   0.9631 B(  1-C , 14-H ) :   0.9631
B(  1-C , 15-H ) :   0.9569 B(  2-N ,  5-C ) :   1.2074 B(  2-N , 10-H ) :   0.9250
B(  5-C ,  6-N ) :   1.2532 B(  5-C ,  7-C ) :   1.7060 B(  6-N , 11-H ) :   0.9450
B(  6-N , 12-H ) :   0.9404 B(  7-C ,  8-H ) :   0.9279 B(  7-C ,  9-H ) :   0.9345

Dispersion correction           -0.012783879
FINAL SINGLE POINT ENERGY      -267.359113640669

DIPOLE MOMENT
-------------
                                X             Y             Z
Electronic contribution:     -2.91166      -2.39152       2.21266
Nuclear contribution   :      1.81275       2.23313      -2.77458
                        -----------------------------------------
Total Dipole Moment    :     -1.09891      -0.15839      -0.56191
                        -----------------------------------------
Magnitude (a.u.)       :      1.24436
Magnitude (Debye)      :      3.16291

Rotational constants in cm-1:     0.245202     0.073668     0.064348
Rotational constants in MHz :  7350.977980  2208.513334  1929.108541

                             ****ORCA TERMINATED NORMALLY****
TOTAL RUN TIME: 0 days 0 hours 0 minutes 8 seconds 372 msec
