                         Program Version 5.0.0 -  RELEASE  -
|  1> !PBE D3BJ RIJCOSX def2-TZVP def2/J TightSCF xyzfile
|  2>
|  3> *xyzfile 0 1 D2.xyz
|  4>
|  5> %MaxCore 64000
|  6>
|  7> %pal nprocs 18
|  8> end
|  9>
| 10> %scf
| 11>   MaxIter 150
| 12> end
| 13>
| 14>
| 15>                          ****END OF INPUT****

CARTESIAN COORDINATES (ANGSTROEM)
---------------------------------
  C      3.488276    1.600919   -1.522040
  C      4.342970    1.313419   -2.756826
  N      2.810285    0.428783   -1.014196
  H      5.132033    0.604994   -2.484466
  C      3.535896    0.749253   -3.924604
  H      4.841247    2.242136   -3.054083
  H      2.991617   -0.132199   -3.574137
  H      4.225505    0.392784   -4.695962
  C      2.564776    1.750890   -4.544523
  H      1.918749    2.171679   -3.769419
  C      1.686235    1.161657   -5.650111
  H      3.132494    2.594775   -4.951604
  C      0.839616   -0.037582   -5.220473
  H      2.323886    0.866395   -6.490796
  H      1.029518    1.951850   -6.029329
  C     -0.151019    0.254955   -4.094256
  H      1.499442   -0.857141   -4.922958
  H      0.290097   -0.410143   -6.091131
  H      0.328265    0.833022   -3.299125
  C     -0.721843   -0.999513   -3.439309
  H     -0.957367    0.884951   -4.485450
  H     -1.083403   -1.697555   -4.205656
  H     -1.581056   -0.723848   -2.820490
  C      0.287250   -1.711771   -2.527405
  H      1.131780   -2.067380   -3.159396
  H     -0.204137   -2.637326   -2.170480
  F      0.710505   -0.927506   -1.481767
  H      2.714548    2.331455   -1.760302
  H      4.090991    2.063151   -0.733382
  C      3.290978   -0.418021   -0.129083
  C      2.517536   -1.432017    0.239360
  N      4.535490   -0.284410    0.395800
  H      5.043627    0.571888    0.222899
  H      4.723346   -0.733273    1.281800
  H      1.934787    0.102305   -1.403788
  H      1.674638   -1.505616   -0.316095
  H      2.928503   -2.218502    0.725494

 Total Charge           Charge          ....    0
 Multiplicity           Mult            ....    1
 Number of Electrons    NEL             ....  112
 Basis Dimension        Dim             ....  572

ORBITAL ENERGIES
----------------

  NO   OCC          E(Eh)            E(eV)
   0   2.0000     -24.273265      -660.5091
   1   2.0000     -13.967352      -380.0710
   2   2.0000     -13.961375      -379.9083
   3   2.0000      -9.965791      -271.1830
   4   2.0000      -9.906977      -269.5826
   5   2.0000      -9.898442      -269.3503
   6   2.0000      -9.894539      -269.2441
   7   2.0000      -9.885109      -268.9875
   8   2.0000      -9.881593      -268.8918
   9   2.0000      -9.879669      -268.8395
  10   2.0000      -9.876476      -268.7526
  11   2.0000      -9.874271      -268.6926
  12   2.0000      -9.873328      -268.6669
  13   2.0000      -9.763305      -265.6730
  14   2.0000      -1.133766       -30.8513
  15   2.0000      -0.868970       -23.6459
  16   2.0000      -0.791047       -21.5255
  17   2.0000      -0.752403       -20.4739
  18   2.0000      -0.726863       -19.7789
  19   2.0000      -0.701813       -19.0973
  20   2.0000      -0.659330       -17.9413
  21   2.0000      -0.637094       -17.3362
  22   2.0000      -0.604291       -16.4436
  23   2.0000      -0.580049       -15.7839
  24   2.0000      -0.551401       -15.0044
  25   2.0000      -0.538384       -14.6502
  26   2.0000      -0.519257       -14.1297
  27   2.0000      -0.502927       -13.6853
  28   2.0000      -0.479521       -13.0484
  29   2.0000      -0.467318       -12.7164
  30   2.0000      -0.458048       -12.4641
  31   2.0000      -0.442473       -12.0403
  32   2.0000      -0.433739       -11.8026
  33   2.0000      -0.423499       -11.5240
  34   2.0000      -0.417208       -11.3528
  35   2.0000      -0.405041       -11.0217
  36   2.0000      -0.389292       -10.5932
  37   2.0000      -0.383755       -10.4425
  38   2.0000      -0.380875       -10.3641
  39   2.0000      -0.367641       -10.0040
  40   2.0000      -0.348842        -9.4925
  41   2.0000      -0.338086        -9.1998
  42   2.0000      -0.328945        -8.9511
  43   2.0000      -0.328058        -8.9269
  44   2.0000      -0.319810        -8.7025
  45   2.0000      -0.315009        -8.5718
  46   2.0000      -0.303058        -8.2466
  47   2.0000      -0.300664        -8.1815
  48   2.0000      -0.294290        -8.0080
  49   2.0000      -0.287111        -7.8127
  50   2.0000      -0.277767        -7.5584
  51   2.0000      -0.275370        -7.4932
  52   2.0000      -0.273951        -7.4546
  53   2.0000      -0.270031        -7.3479
  54   2.0000      -0.199653        -5.4328
  55   2.0000      -0.112535        -3.0622
  56   0.0000       0.005766         0.1569
  57   0.0000       0.012742         0.3467
  58   0.0000       0.019775         0.5381
  59   0.0000       0.026089         0.7099
  60   0.0000       0.033177         0.9028

MULLIKEN ATOMIC CHARGES
-----------------------
   0 C :   -0.250432
   1 C :   -0.024683
   2 N :   -0.223425
   3 H :    0.092115
   4 C :   -0.251080
   5 H :    0.067209
   6 H :    0.104169
   7 H :    0.089847
   8 C :   -0.233692
   9 H :    0.096343
  10 C :   -0.086335
  11 H :    0.090338
  12 C :   -0.256049
  13 H :    0.088462
  14 H :    0.085408
  15 C :   -0.193793
  16 H :    0.104685
  17 H :    0.097250
  18 H :    0.099692
  19 C :   -0.126222
  20 H :    0.098982
  21 H :    0.092779
  22 H :    0.105457
  23 C :   -0.042248
  24 H :    0.100552
  25 H :    0.119569
  26 F :   -0.194653
  27 H :    0.120048
  28 H :    0.104144
  29 C :    0.286553
  30 C :   -0.562435
  31 N :   -0.447557
  32 H :    0.201969
  33 H :    0.228131
  34 H :    0.221621
  35 H :    0.117023
  36 H :    0.080258
Sum of atomic charges:    0.0000000

LOEWDIN ATOMIC CHARGES
----------------------
   0 C :   -0.306762
   1 C :   -0.274701
   2 N :    0.138748
   3 H :    0.137905
   4 C :   -0.273055
   5 H :    0.134845
   6 H :    0.136145
   7 H :    0.138596
   8 C :   -0.274088
   9 H :    0.132031
  10 C :   -0.269930
  11 H :    0.138295
  12 C :   -0.274311
  13 H :    0.138681
  14 H :    0.138149
  15 C :   -0.273122
  16 H :    0.133911
  17 H :    0.138020
  18 H :    0.138313
  19 C :   -0.277339
  20 H :    0.139589
  21 H :    0.146338
  22 H :    0.141937
  23 C :   -0.353258
  24 H :    0.124649
  25 H :    0.130381
  26 F :    0.168991
  27 H :    0.131878
  28 H :    0.128904
  29 C :   -0.476000
  30 C :   -0.362601
  31 N :   -0.020818
  32 H :    0.151983
  33 H :    0.171450
  34 H :    0.170859
  35 H :    0.092965
  36 H :    0.092421

  Mayer bond orders larger than 0.100000
B(  0-C ,  1-C ) :   0.9551 B(  0-C ,  2-N ) :   0.9796 B(  0-C , 27-H ) :   0.9720
B(  0-C , 28-H ) :   0.9594 B(  1-C ,  3-H ) :   0.9359 B(  1-C ,  4-C ) :   0.9959
B(  1-C ,  5-H ) :   0.9354 B(  2-N , 29-C ) :   1.2308 B(  2-N , 34-H ) :   0.8750
B(  4-C ,  6-H ) :   0.9650 B(  4-C ,  7-H ) :   0.9442 B(  4-C ,  8-C ) :   0.9987
B(  8-C ,  9-H ) :   0.9704 B(  8-C , 10-C ) :   1.0110 B(  8-C , 11-H ) :   0.9419
B( 10-C , 12-C ) :   0.9989 B( 10-C , 13-H ) :   0.9444 B( 10-C , 14-H ) :   0.9477
B( 12-C , 15-C ) :   0.9947 B( 12-C , 16-H ) :   0.9719 B( 12-C , 17-H ) :   0.9410
B( 15-C , 18-H ) :   0.9681 B( 15-C , 19-C ) :   0.9938 B( 15-C , 20-H ) :   0.9442
B( 19-C , 21-H ) :   0.9330 B( 19-C , 22-H ) :   0.9451 B( 19-C , 23-C ) :   1.0248
B( 23-C , 24-H ) :   0.9611 B( 23-C , 25-H ) :   0.9520 B( 23-C , 26-F ) :   0.9276
B( 29-C , 30-C ) :   1.6407 B( 29-C , 31-N ) :   1.1428 B( 30-C , 35-H ) :   0.9943
B( 30-C , 36-H ) :   0.9830 B( 31-N , 32-H ) :   0.9196 B( 31-N , 33-H ) :   0.9195

Dispersion correction           -0.040180185
FINAL SINGLE POINT ENERGY      -641.739522853206

DIPOLE MOMENT
-------------
                                X             Y             Z
Electronic contribution:     -1.25393      -3.13633       9.51034
Nuclear contribution   :      1.09892       3.58083     -10.64472
                        -----------------------------------------
Total Dipole Moment    :     -0.15501       0.44451      -1.13437
                        -----------------------------------------
Magnitude (a.u.)       :      1.22817
Magnitude (Debye)      :      3.12177

Rotational constants in cm-1:     0.026768     0.016312     0.010954
Rotational constants in MHz :   802.489946   489.033275   328.388904

                             ****ORCA TERMINATED NORMALLY****
TOTAL RUN TIME: 0 days 0 hours 0 minutes 21 seconds 89 msec
