                         Program Version 5.0.0 -  RELEASE  -
|  1> !CAM-B3LYP RIJCOSX def2-SVPD def2/J TightSCF
|  2> *xyz -1 1
|  3> C          3.90595        2.81985       -3.75292
|  4> C          3.80351        1.37472       -3.26081
|  5> C          3.93993        0.32036       -4.36773
|  6> H          4.10504       -0.65508       -3.90773
|  7> H          3.02280        0.28052       -4.95712
|  8> C          5.10585        0.66802       -5.30546
|  9> H          4.57483        1.21516       -2.50044
| 10> H          2.84351        1.26085       -2.75146
| 11> O          4.80913        1.15019       -6.41436
| 12> O          6.26737        0.56500       -4.81948
| 13> H          3.15892        2.99660       -4.49832
| 14> H          4.87575        2.98549       -4.17357
| 15> H          3.75481        3.48808       -2.93101
| 16> *
| 17>
| 18> %MaxCore 64000
| 19>
| 20> %pal nprocs 4
| 21> end
| 22>
| 23> %scf
| 24>   MaxIter 150
| 25> end
| 26>
| 27>
| 28>                          ****END OF INPUT****

CARTESIAN COORDINATES (ANGSTROEM)
---------------------------------
  C      3.905950    2.819850   -3.752920
  C      3.803510    1.374720   -3.260810
  C      3.939930    0.320360   -4.367730
  H      4.105040   -0.655080   -3.907730
  H      3.022800    0.280520   -4.957120
  C      5.105850    0.668020   -5.305460
  H      4.574830    1.215160   -2.500440
  H      2.843510    1.260850   -2.751460
  O      4.809130    1.150190   -6.414360
  O      6.267370    0.565000   -4.819480
  H      3.158920    2.996600   -4.498320
  H      4.875750    2.985490   -4.173570
  H      3.754810    3.488080   -2.931010

 Total Charge           Charge          ....   -1
 Multiplicity           Mult            ....    1
 Number of Electrons    NEL             ....   48
 Basis Dimension        Dim             ....  182

ORBITAL ENERGIES
----------------

  NO   OCC          E(Eh)            E(eV)
   0   2.0000     -18.958300      -515.8816
   1   2.0000     -18.954487      -515.7778
   2   2.0000     -10.151338      -276.2319
   3   2.0000     -10.111531      -275.1487
   4   2.0000     -10.098900      -274.8050
   5   2.0000     -10.085308      -274.4352
   6   2.0000      -0.900090       -24.4927
   7   2.0000      -0.805043       -21.9063
   8   2.0000      -0.713724       -19.4214
   9   2.0000      -0.614695       -16.7267
  10   2.0000      -0.516627       -14.0581
  11   2.0000      -0.398534       -10.8447
  12   2.0000      -0.374810       -10.1991
  13   2.0000      -0.361404        -9.8343
  14   2.0000      -0.320750        -8.7281
  15   2.0000      -0.306698        -8.3457
  16   2.0000      -0.279970        -7.6184
  17   2.0000      -0.275392        -7.4938
  18   2.0000      -0.264985        -7.2106
  19   2.0000      -0.241442        -6.5700
  20   2.0000      -0.235176        -6.3995
  21   2.0000      -0.119853        -3.2614
  22   2.0000      -0.111256        -3.0274
  23   2.0000      -0.102284        -2.7833
  24   0.0000       0.176436         4.8011
  25   0.0000       0.200096         5.4449
  26   0.0000       0.214918         5.8482
  27   0.0000       0.229597         6.2476
  28   0.0000       0.252075         6.8593

MULLIKEN ATOMIC CHARGES
-----------------------
   0 C :    0.850482
   1 C :   -0.300237
   2 C :    0.381752
   3 H :   -0.116146
   4 H :   -0.068913
   5 C :    0.304191
   6 H :   -0.088862
   7 H :   -0.250477
   8 O :   -0.624671
   9 O :   -0.699213
  10 H :   -0.113721
  11 H :   -0.064901
  12 H :   -0.209284
Sum of atomic charges:   -1.0000000

LOEWDIN ATOMIC CHARGES
----------------------
   0 C :    0.112699
   1 C :   -0.084965
   2 C :    0.000331
   3 H :    0.003656
   4 H :    0.002277
   5 C :   -0.320783
   6 H :    0.013011
   7 H :   -0.004449
   8 O :   -0.315493
   9 O :   -0.330134
  10 H :   -0.019596
  11 H :   -0.017801
  12 H :   -0.038752

  Mayer bond orders larger than 0.100000
B(  0-C ,  1-C ) :   1.3121 B(  0-C ,  7-H ) :   0.1152 B(  0-C , 10-H ) :   0.7411
B(  0-C , 11-H ) :   0.7808 B(  0-C , 12-H ) :   0.7109 B(  1-C ,  2-C ) :   1.1861
B(  1-C ,  3-H ) :   0.1544 B(  1-C ,  4-H ) :   0.1641 B(  1-C ,  6-H ) :   0.9000
B(  1-C ,  7-H ) :   0.9326 B(  1-C , 10-H ) :   0.2214 B(  1-C , 11-H ) :   0.2301
B(  1-C , 12-H ) :   0.2452 B(  2-C ,  3-H ) :   0.8085 B(  2-C ,  4-H ) :   0.8375
B(  2-C ,  5-C ) :   0.9819 B(  2-C ,  6-H ) :   0.1079 B(  3-H ,  5-C ) :   0.1332
B(  4-H ,  5-C ) :   0.1957 B(  5-C ,  8-O ) :   1.5427 B(  5-C ,  9-O ) :   1.5107

FINAL SINGLE POINT ENERGY      -306.807328537829

DIPOLE MOMENT
-------------
                                X             Y             Z
Electronic contribution:      4.11702      -2.84979      -4.78945
Nuclear contribution   :     -5.80393       3.20473       6.46101
                        -----------------------------------------
Total Dipole Moment    :     -1.68691       0.35493       1.67155
                        -----------------------------------------
Magnitude (a.u.)       :      2.40120
Magnitude (Debye)      :      6.10336

Rotational constants in cm-1:     0.184459     0.088019     0.082330
Rotational constants in MHz :  5529.929668  2638.753248  2468.201746

                             ****ORCA TERMINATED NORMALLY****
TOTAL RUN TIME: 0 days 0 hours 0 minutes 25 seconds 940 msec
