                         Program Version 5.0.0 -  RELEASE  -
|  1> !CAM-B3LYP RIJCOSX def2-SVPD def2/J TightSCF
|  2> *xyz 1 1
|  3> C          3.90595        2.81985       -3.75292
|  4> N          5.29562        3.13151       -4.10533
|  5> C          3.80351        1.37472       -3.26081
|  6> C          3.93993        0.32036       -4.36773
|  7> C          5.70862        3.46889       -5.32419
|  8> N          6.90470        3.03895       -5.71708
|  9> N          4.98188        4.29357       -6.09746
| 10> H          5.00055        4.10131       -7.08776
| 11> H          4.08469        4.59690       -5.73965
| 12> H          5.96336        2.52611       -3.64239
| 13> H          7.04716        2.06686       -5.47360
| 14> H          7.19815        3.30799       -6.64523
| 15> H          3.28202        2.94919       -4.64026
| 16> H          3.56525        3.51457       -2.98252
| 17> H          4.57483        1.21516       -2.50044
| 18> H          2.84351        1.26085       -2.75146
| 19> H          3.18417        0.48061       -5.10803
| 20> H          3.82485       -0.65632       -3.94614
| 21> H          4.90589        0.40174       -4.82073
| 22> *
| 23>
| 24> %MaxCore 64000
| 25>
| 26> %pal nprocs 4
| 27> end
| 28>
| 29> %scf
| 30>   MaxIter 150
| 31> end
| 32>
| 33>
| 34>                          ****END OF INPUT****

CARTESIAN COORDINATES (ANGSTROEM)
---------------------------------
  C      3.905950    2.819850   -3.752920
  N      5.295620    3.131510   -4.105330
  C      3.803510    1.374720   -3.260810
  C      3.939930    0.320360   -4.367730
  C      5.708620    3.468890   -5.324190
  N      6.904700    3.038950   -5.717080
  N      4.981880    4.293570   -6.097460
  H      5.000550    4.101310   -7.087760
  H      4.084690    4.596900   -5.739650
  H      5.963360    2.526110   -3.642390
  H      7.047160    2.066860   -5.473600
  H      7.198150    3.307990   -6.645230
  H      3.282020    2.949190   -4.640260
  H      3.565250    3.514570   -2.982520
  H      4.574830    1.215160   -2.500440
  H      2.843510    1.260850   -2.751460
  H      3.184170    0.480610   -5.108030
  H      3.824850   -0.656320   -3.946140
  H      4.905890    0.401740   -4.820730

 Total Charge           Charge          ....    1
 Multiplicity           Mult            ....    1
 Number of Electrons    NEL             ....   56
 Basis Dimension        Dim             ....  236

ORBITAL ENERGIES
----------------

  NO   OCC          E(Eh)            E(eV)
   0   2.0000     -14.632513      -398.1709
   1   2.0000     -14.631216      -398.1356
   2   2.0000     -14.629959      -398.1014
   3   2.0000     -10.599742      -288.4336
   4   2.0000     -10.464859      -284.7633
   5   2.0000     -10.409808      -283.2653
   6   2.0000     -10.385550      -282.6052
   7   2.0000      -1.298217       -35.3263
   8   2.0000      -1.182904       -32.1885
   9   2.0000      -1.174430       -31.9579
  10   2.0000      -1.022240       -27.8166
  11   2.0000      -0.940828       -25.6012
  12   2.0000      -0.894820       -24.3493
  13   2.0000      -0.856246       -23.2996
  14   2.0000      -0.838318       -22.8118
  15   2.0000      -0.809704       -22.0332
  16   2.0000      -0.771723       -20.9997
  17   2.0000      -0.757940       -20.6246
  18   2.0000      -0.718598       -19.5541
  19   2.0000      -0.702455       -19.1148
  20   2.0000      -0.661081       -17.9889
  21   2.0000      -0.653908       -17.7937
  22   2.0000      -0.626768       -17.0552
  23   2.0000      -0.580922       -15.8077
  24   2.0000      -0.561952       -15.2915
  25   2.0000      -0.561019       -15.2661
  26   2.0000      -0.552347       -15.0301
  27   2.0000      -0.519772       -14.1437
  28   0.0000      -0.146535        -3.9874
  29   0.0000      -0.118961        -3.2371
  30   0.0000      -0.089314        -2.4304
  31   0.0000      -0.073324        -1.9952
  32   0.0000      -0.057531        -1.5655

MULLIKEN ATOMIC CHARGES
-----------------------
   0 C :    0.861646
   1 N :   -0.277655
   2 C :   -0.154817
   3 C :    1.060925
   4 C :    0.678028
   5 N :    0.165944
   6 N :    0.133778
   7 H :   -0.046968
   8 H :   -0.009803
   9 H :   -0.106247
  10 H :   -0.045016
  11 H :   -0.018413
  12 H :   -0.087645
  13 H :   -0.387363
  14 H :   -0.108686
  15 H :   -0.171518
  16 H :   -0.023141
  17 H :   -0.100083
  18 H :   -0.362963
Sum of atomic charges:    1.0000000

LOEWDIN ATOMIC CHARGES
----------------------
   0 C :    0.071389
   1 N :    0.064111
   2 C :   -0.045597
   3 C :    0.145918
   4 C :   -0.056341
   5 N :    0.276981
   6 N :    0.286435
   7 H :    0.037308
   8 H :    0.024002
   9 H :    0.043304
  10 H :    0.030951
  11 H :    0.036909
  12 H :    0.024382
  13 H :    0.037486
  14 H :    0.028473
  15 H :    0.038389
  16 H :   -0.008582
  17 H :   -0.000644
  18 H :   -0.034877

  Mayer bond orders larger than 0.100000
B(  0-C ,  1-N ) :   0.9096 B(  0-C ,  2-C ) :   1.1431 B(  0-C , 12-H ) :   0.7263
B(  0-C , 13-H ) :   0.8973 B(  0-C , 15-H ) :   0.1615 B(  1-N ,  2-C ) :   0.1121
B(  1-N ,  4-C ) :   1.2213 B(  1-N ,  5-N ) :   0.1778 B(  1-N ,  9-H ) :   1.1037
B(  1-N , 12-H ) :   0.1258 B(  1-N , 13-H ) :   0.1100 B(  2-C ,  3-C ) :   1.2144
B(  2-C , 14-H ) :   0.9018 B(  2-C , 15-H ) :   0.9389 B(  2-C , 16-H ) :   0.2210
B(  2-C , 17-H ) :   0.2304 B(  2-C , 18-H ) :   0.2444 B(  3-C , 16-H ) :   0.7011
B(  3-C , 17-H ) :   0.7142 B(  3-C , 18-H ) :   0.7265 B(  4-C ,  5-N ) :   1.0360
B(  4-C ,  6-N ) :   1.0489 B(  4-C ,  9-H ) :  -0.1772 B(  5-N ,  6-N ) :   0.1088
B(  5-N , 10-H ) :   1.0236 B(  5-N , 11-H ) :   0.9940 B(  6-N ,  7-H ) :   1.1332
B(  6-N ,  8-H ) :   0.9637 B(  7-H ,  8-H ) :  -0.1211 B( 12-H , 13-H ) :  -0.1231
B( 16-H , 18-H ) :   0.1253

FINAL SINGLE POINT ENERGY      -323.317716354054

DIPOLE MOMENT
-------------
                                X             Y             Z
Electronic contribution:      4.01855       5.69613      -2.05762
Nuclear contribution   :     -3.60155      -5.39511       0.90505
                        -----------------------------------------
Total Dipole Moment    :      0.41701       0.30102      -1.15257
                        -----------------------------------------
Magnitude (a.u.)       :      1.26211
Magnitude (Debye)      :      3.20803

Rotational constants in cm-1:     0.145371     0.050507     0.045444
Rotational constants in MHz :  4358.114605  1514.164418  1362.368391

                             ****ORCA TERMINATED NORMALLY****
TOTAL RUN TIME: 0 days 0 hours 0 minutes 49 seconds 331 msec
