                         Program Version 5.0.0 -  RELEASE  -
|  1> !CAM-B3LYP RIJCOSX def2-SVPD def2/J TightSCF
|  2> *xyz 0 1
|  3> C          3.90595        2.81985       -3.75292
|  4> C          3.80351        1.37472       -3.26081
|  5> C          3.93993        0.32036       -4.36773
|  6> H          4.10504       -0.65508       -3.90773
|  7> H          3.02280        0.28052       -4.95712
|  8> C          5.10585        0.66802       -5.30546
|  9> H          4.57483        1.21516       -2.50044
| 10> H          2.84351        1.26085       -2.75146
| 11> F          4.80913        1.15019       -6.41436
| 12> O          6.26737        0.56500       -4.81948
| 13> H          3.15892        2.99660       -4.49832
| 14> H          4.87575        2.98549       -4.17357
| 15> H          3.75481        3.48808       -2.93101
| 16> *
| 17>
| 18> %MaxCore 64000
| 19>
| 20> %pal nprocs 4
| 21> end
| 22>
| 23> %scf
| 24>   MaxIter 150
| 25> end
| 26>
| 27>
| 28>                          ****END OF INPUT****

CARTESIAN COORDINATES (ANGSTROEM)
---------------------------------
  C      3.905950    2.819850   -3.752920
  C      3.803510    1.374720   -3.260810
  C      3.939930    0.320360   -4.367730
  H      4.105040   -0.655080   -3.907730
  H      3.022800    0.280520   -4.957120
  C      5.105850    0.668020   -5.305460
  H      4.574830    1.215160   -2.500440
  H      2.843510    1.260850   -2.751460
  F      4.809130    1.150190   -6.414360
  O      6.267370    0.565000   -4.819480
  H      3.158920    2.996600   -4.498320
  H      4.875750    2.985490   -4.173570
  H      3.754810    3.488080   -2.931010

 Total Charge           Charge          ....    0
 Multiplicity           Mult            ....    1
 Number of Electrons    NEL             ....   48
 Basis Dimension        Dim             ....  182

ORBITAL ENERGIES
----------------

  NO   OCC          E(Eh)            E(eV)
   0   2.0000     -24.853015      -676.2849
   1   2.0000     -19.225759      -523.1595
   2   2.0000     -10.448385      -284.3150
   3   2.0000     -10.290302      -280.0133
   4   2.0000     -10.276242      -279.6308
   5   2.0000     -10.254306      -279.0338
   6   2.0000      -1.400513       -38.1099
   7   2.0000      -1.105903       -30.0932
   8   2.0000      -0.894319       -24.3357
   9   2.0000      -0.806412       -21.9436
  10   2.0000      -0.745850       -20.2956
  11   2.0000      -0.689834       -18.7713
  12   2.0000      -0.635387       -17.2898
  13   2.0000      -0.614697       -16.7267
  14   2.0000      -0.583856       -15.8875
  15   2.0000      -0.539509       -14.6808
  16   2.0000      -0.529583       -14.4107
  17   2.0000      -0.489363       -13.3163
  18   2.0000      -0.476672       -12.9709
  19   2.0000      -0.443898       -12.0791
  20   2.0000      -0.425999       -11.5920
  21   2.0000      -0.415170       -11.2973
  22   2.0000      -0.413014       -11.2387
  23   2.0000      -0.362878        -9.8744
  24   0.0000       0.011898         0.3238
  25   0.0000       0.044004         1.1974
  26   0.0000       0.071813         1.9541
  27   0.0000       0.076219         2.0740
  28   0.0000       0.090262         2.4562

MULLIKEN ATOMIC CHARGES
-----------------------
   0 C :    0.859440
   1 C :   -0.219598
   2 C :    0.310608
   3 H :   -0.076328
   4 H :   -0.045508
   5 C :    0.687140
   6 H :   -0.079431
   7 H :   -0.213564
   8 F :   -0.339684
   9 O :   -0.490623
  10 H :   -0.121659
  11 H :   -0.099167
  12 H :   -0.171626
Sum of atomic charges:   -0.0000000

LOEWDIN ATOMIC CHARGES
----------------------
   0 C :    0.128719
   1 C :   -0.058302
   2 C :    0.046071
   3 H :    0.036032
   4 H :    0.024174
   5 C :   -0.026526
   6 H :    0.030323
   7 H :    0.022041
   8 F :   -0.021295
   9 O :   -0.136590
  10 H :   -0.012412
  11 H :   -0.018206
  12 H :   -0.014028

  Mayer bond orders larger than 0.100000
B(  0-C ,  1-C ) :   1.3280 B(  0-C ,  7-H ) :   0.1092 B(  0-C , 10-H ) :   0.7473
B(  0-C , 11-H ) :   0.7831 B(  0-C , 12-H ) :   0.7317 B(  1-C ,  2-C ) :   1.1991
B(  1-C ,  3-H ) :   0.1446 B(  1-C ,  4-H ) :   0.1553 B(  1-C ,  6-H ) :   0.9001
B(  1-C ,  7-H ) :   0.9301 B(  1-C , 10-H ) :   0.2056 B(  1-C , 11-H ) :   0.2145
B(  1-C , 12-H ) :   0.2288 B(  2-C ,  3-H ) :   0.8216 B(  2-C ,  4-H ) :   0.8543
B(  2-C ,  5-C ) :   1.0480 B(  2-C ,  6-H ) :   0.1006 B(  3-H ,  5-C ) :   0.1102
B(  5-C ,  8-F ) :   0.7534 B(  5-C ,  9-O ) :   1.8315 B(  8-F ,  9-O ) :   0.1148

FINAL SINGLE POINT ENERGY      -331.335421994825

DIPOLE MOMENT
-------------
                                X             Y             Z
Electronic contribution:      4.77897      -3.20040      -8.22951
Nuclear contribution   :     -5.98367       3.22001       8.44002
                        -----------------------------------------
Total Dipole Moment    :     -1.20470       0.01961       0.21051
                        -----------------------------------------
Magnitude (a.u.)       :      1.22311
Magnitude (Debye)      :      3.10890

Rotational constants in cm-1:     0.177409     0.085514     0.078973
Rotational constants in MHz :  5318.577687  2563.657993  2367.557452

                             ****ORCA TERMINATED NORMALLY****
TOTAL RUN TIME: 0 days 0 hours 0 minutes 29 seconds 618 msec
