                         Program Version 5.0.0 -  RELEASE  -
|  1> !CAM-B3LYP RIJCOSX def2-SVPD def2/J TightSCF
|  2> *xyz 0 1
|  3> C          3.90595        2.81985       -3.75292
|  4> C          5.29562        3.13151       -4.10533
|  5> C          3.80351        1.37472       -3.26081
|  6> C          3.93993        0.32036       -4.36773
|  7> C          5.70862        3.46889       -5.32419
|  8> N          6.90470        3.03895       -5.71708
|  9> N          4.98188        4.29357       -6.09746
| 10> H          5.00055        4.10131       -7.08776
| 11> H          4.08469        4.59690       -5.73965
| 12> H          5.96336        2.52611       -3.64239
| 13> H          7.04716        2.06686       -5.47360
| 14> H          7.19815        3.30799       -6.64523
| 15> H          3.28202        2.94919       -4.64026
| 16> H          3.56525        3.51457       -2.98252
| 17> H          4.57483        1.21516       -2.50044
| 18> H          2.84351        1.26085       -2.75146
| 19> H          3.18417        0.48061       -5.10803
| 20> H          3.82485       -0.65632       -3.94614
| 21> H          4.90589        0.40174       -4.82073
| 22> *
| 23>
| 24> %MaxCore 64000
| 25>
| 26> %pal nprocs 4
| 27> end
| 28>
| 29> %scf
| 30>   MaxIter 150
| 31> end
| 32>
| 33>
| 34>                          ****END OF INPUT****

CARTESIAN COORDINATES (ANGSTROEM)
---------------------------------
  C      3.905950    2.819850   -3.752920
  C      5.295620    3.131510   -4.105330
  C      3.803510    1.374720   -3.260810
  C      3.939930    0.320360   -4.367730
  C      5.708620    3.468890   -5.324190
  N      6.904700    3.038950   -5.717080
  N      4.981880    4.293570   -6.097460
  H      5.000550    4.101310   -7.087760
  H      4.084690    4.596900   -5.739650
  H      5.963360    2.526110   -3.642390
  H      7.047160    2.066860   -5.473600
  H      7.198150    3.307990   -6.645230
  H      3.282020    2.949190   -4.640260
  H      3.565250    3.514570   -2.982520
  H      4.574830    1.215160   -2.500440
  H      2.843510    1.260850   -2.751460
  H      3.184170    0.480610   -5.108030
  H      3.824850   -0.656320   -3.946140
  H      4.905890    0.401740   -4.820730

 Total Charge           Charge          ....    0
 Multiplicity           Mult            ....    1
 Number of Electrons    NEL             ....   56
 Basis Dimension        Dim             ....  236

ORBITAL ENERGIES
----------------

  NO   OCC          E(Eh)            E(eV)
   0   2.0000     -14.410687      -392.1347
   1   2.0000     -14.407387      -392.0449
   2   2.0000     -10.304512      -280.4000
   3   2.0000     -10.241705      -278.6910
   4   2.0000     -10.235885      -278.5326
   5   2.0000     -10.235390      -278.5191
   6   2.0000     -10.185283      -277.1556
   7   2.0000      -1.043267       -28.3887
   8   2.0000      -0.951793       -25.8996
   9   2.0000      -0.868522       -23.6337
  10   2.0000      -0.799860       -21.7653
  11   2.0000      -0.735753       -20.0209
  12   2.0000      -0.666994       -18.1498
  13   2.0000      -0.642795       -17.4913
  14   2.0000      -0.608028       -16.5453
  15   2.0000      -0.584841       -15.9143
  16   2.0000      -0.549520       -14.9532
  17   2.0000      -0.517915       -14.0932
  18   2.0000      -0.509035       -13.8515
  19   2.0000      -0.485143       -13.2014
  20   2.0000      -0.454351       -12.3635
  21   2.0000      -0.441533       -12.0147
  22   2.0000      -0.418591       -11.3904
  23   2.0000      -0.399188       -10.8625
  24   2.0000      -0.385487       -10.4896
  25   2.0000      -0.380284       -10.3481
  26   2.0000      -0.342136        -9.3100
  27   2.0000      -0.229683        -6.2500
  28   0.0000       0.041718         1.1352
  29   0.0000       0.068335         1.8595
  30   0.0000       0.072345         1.9686
  31   0.0000       0.087102         2.3702
  32   0.0000       0.093465         2.5433

MULLIKEN ATOMIC CHARGES
-----------------------
   0 C :    0.493962
   1 C :    0.087082
   2 C :   -0.080152
   3 C :    1.086679
   4 C :    0.121697
   5 N :    0.219536
   6 N :    0.119435
   7 H :   -0.127021
   8 H :   -0.011131
   9 H :   -0.339106
  10 H :   -0.046387
  11 H :   -0.134693
  12 H :   -0.247831
  13 H :   -0.277937
  14 H :   -0.131867
  15 H :   -0.215793
  16 H :   -0.046536
  17 H :   -0.107906
  18 H :   -0.362031
Sum of atomic charges:    0.0000000

LOEWDIN ATOMIC CHARGES
----------------------
   0 C :   -0.066949
   1 C :   -0.016290
   2 C :   -0.076581
   3 C :    0.129279
   4 C :   -0.243900
   5 N :    0.194472
   6 N :    0.202587
   7 H :   -0.012157
   8 H :   -0.007098
   9 H :   -0.056174
  10 H :   -0.003062
  11 H :   -0.011624
  12 H :    0.002921
  13 H :    0.008623
  14 H :    0.018085
  15 H :    0.012828
  16 H :   -0.019813
  17 H :   -0.022188
  18 H :   -0.032961

  Mayer bond orders larger than 0.100000
B(  0-C ,  1-C ) :   0.9302 B(  0-C ,  2-C ) :   1.1904 B(  0-C ,  9-H ) :   0.2259
B(  0-C , 12-H ) :   0.7295 B(  0-C , 13-H ) :   0.8244 B(  0-C , 14-H ) :   0.1533
B(  0-C , 15-H ) :   0.2018 B(  1-C ,  2-C ) :   0.1002 B(  1-C ,  4-C ) :   1.8769
B(  1-C ,  5-N ) :   0.3021 B(  1-C ,  6-N ) :   0.1664 B(  1-C ,  9-H ) :   0.4483
B(  1-C , 12-H ) :   0.1240 B(  1-C , 13-H ) :   0.1597 B(  2-C ,  3-C ) :   1.1925
B(  2-C , 14-H ) :   0.8942 B(  2-C , 15-H ) :   0.8736 B(  2-C , 16-H ) :   0.2284
B(  2-C , 17-H ) :   0.2253 B(  2-C , 18-H ) :   0.2658 B(  3-C , 16-H ) :   0.7025
B(  3-C , 17-H ) :   0.6857 B(  3-C , 18-H ) :   0.7390 B(  4-C ,  5-N ) :   0.9825
B(  4-C ,  6-N ) :   1.0367 B(  4-C ,  9-H ) :   0.3904 B(  5-N , 10-H ) :   1.0066
B(  5-N , 11-H ) :   0.9321 B(  6-N ,  7-H ) :   1.0937 B(  6-N ,  8-H ) :   0.9791
B( 16-H , 18-H ) :   0.1193

FINAL SINGLE POINT ENERGY      -306.848139912605

DIPOLE MOMENT
-------------
                                X             Y             Z
Electronic contribution:      3.40136       4.92696      -2.11670
Nuclear contribution   :     -3.52450      -5.28471       1.03374
                        -----------------------------------------
Total Dipole Moment    :     -0.12314      -0.35775      -1.08295
                        -----------------------------------------
Magnitude (a.u.)       :      1.14714
Magnitude (Debye)      :      2.91581

Rotational constants in cm-1:     0.147126     0.050704     0.045476
Rotational constants in MHz :  4410.719889  1520.080198  1363.327077

                             ****ORCA TERMINATED NORMALLY****
TOTAL RUN TIME: 0 days 0 hours 0 minutes 50 seconds 668 msec
