                         Program Version 5.0.0 -  RELEASE  -
|  1> !CAM-B3LYP RIJCOSX def2-SVPD def2/J TightSCF
|  2> *xyz 0 1
|  3> C          3.90595        2.81985       -3.75292
|  4> C          3.80351        1.37472       -3.26081
|  5> C          3.93993        0.32036       -4.36773
|  6> H          4.10504       -0.65508       -3.90773
|  7> H          3.02280        0.28052       -4.95712
|  8> C          5.10585        0.66802       -5.30546
|  9> H          4.57483        1.21516       -2.50044
| 10> H          2.84351        1.26085       -2.75146
| 11> O          4.80913        1.15019       -6.41436
| 12> F          6.26737        0.56500       -4.81948
| 13> H          3.15892        2.99660       -4.49832
| 14> H          4.87575        2.98549       -4.17357
| 15> H          3.75481        3.48808       -2.93101
| 16> *
| 17>
| 18> %MaxCore 64000
| 19>
| 20> %pal nprocs 4
| 21> end
| 22>
| 23> %scf
| 24>   MaxIter 150
| 25> end
| 26>
| 27>
| 28>                          ****END OF INPUT****

CARTESIAN COORDINATES (ANGSTROEM)
---------------------------------
  C      3.905950    2.819850   -3.752920
  C      3.803510    1.374720   -3.260810
  C      3.939930    0.320360   -4.367730
  H      4.105040   -0.655080   -3.907730
  H      3.022800    0.280520   -4.957120
  C      5.105850    0.668020   -5.305460
  H      4.574830    1.215160   -2.500440
  H      2.843510    1.260850   -2.751460
  O      4.809130    1.150190   -6.414360
  F      6.267370    0.565000   -4.819480
  H      3.158920    2.996600   -4.498320
  H      4.875750    2.985490   -4.173570
  H      3.754810    3.488080   -2.931010

 Total Charge           Charge          ....    0
 Multiplicity           Mult            ....    1
 Number of Electrons    NEL             ....   48
 Basis Dimension        Dim             ....  182

ORBITAL ENERGIES
----------------

  NO   OCC          E(Eh)            E(eV)
   0   2.0000     -24.846433      -676.1058
   1   2.0000     -19.228666      -523.2386
   2   2.0000     -10.446276      -284.2576
   3   2.0000     -10.289647      -279.9955
   4   2.0000     -10.278376      -279.6888
   5   2.0000     -10.252765      -278.9919
   6   2.0000      -1.386908       -37.7397
   7   2.0000      -1.117017       -30.3956
   8   2.0000      -0.895441       -24.3662
   9   2.0000      -0.804573       -21.8936
  10   2.0000      -0.737953       -20.0807
  11   2.0000      -0.689013       -18.7490
  12   2.0000      -0.629400       -17.1268
  13   2.0000      -0.614742       -16.7280
  14   2.0000      -0.572355       -15.5746
  15   2.0000      -0.546470       -14.8702
  16   2.0000      -0.529473       -14.4077
  17   2.0000      -0.491023       -13.3614
  18   2.0000      -0.472239       -12.8503
  19   2.0000      -0.443620       -12.0715
  20   2.0000      -0.434135       -11.8134
  21   2.0000      -0.420706       -11.4480
  22   2.0000      -0.414432       -11.2773
  23   2.0000      -0.362895        -9.8749
  24   0.0000       0.016157         0.4396
  25   0.0000       0.042290         1.1508
  26   0.0000       0.072540         1.9739
  27   0.0000       0.079163         2.1541
  28   0.0000       0.085588         2.3290

MULLIKEN ATOMIC CHARGES
-----------------------
   0 C :    0.878664
   1 C :   -0.257210
   2 C :    0.337857
   3 H :   -0.083824
   4 H :   -0.052078
   5 C :    0.684770
   6 H :   -0.102691
   7 H :   -0.211985
   8 O :   -0.430186
   9 F :   -0.392177
  10 H :   -0.097157
  11 H :   -0.088886
  12 H :   -0.185100
Sum of atomic charges:    0.0000000

LOEWDIN ATOMIC CHARGES
----------------------
   0 C :    0.130163
   1 C :   -0.063694
   2 C :    0.048542
   3 H :    0.028218
   4 H :    0.035464
   5 C :   -0.027160
   6 H :    0.024079
   7 H :    0.022732
   8 O :   -0.125478
   9 F :   -0.032261
  10 H :   -0.006549
  11 H :   -0.018823
  12 H :   -0.015234

  Mayer bond orders larger than 0.100000
B(  0-C ,  1-C ) :   1.3302 B(  0-C ,  7-H ) :   0.1076 B(  0-C , 10-H ) :   0.7483
B(  0-C , 11-H ) :   0.7809 B(  0-C , 12-H ) :   0.7168 B(  1-C ,  2-C ) :   1.1784
B(  1-C ,  3-H ) :   0.1493 B(  1-C ,  4-H ) :   0.1506 B(  1-C ,  6-H ) :   0.9011
B(  1-C ,  7-H ) :   0.9286 B(  1-C , 10-H ) :   0.2131 B(  1-C , 11-H ) :   0.2139
B(  1-C , 12-H ) :   0.2369 B(  2-C ,  3-H ) :   0.8263 B(  2-C ,  4-H ) :   0.8670
B(  2-C ,  5-C ) :   1.0169 B(  4-H ,  5-C ) :   0.1375 B(  5-C ,  8-O ) :   1.8669
B(  5-C ,  9-F ) :   0.7068 B(  8-O ,  9-F ) :   0.1206

FINAL SINGLE POINT ENERGY      -331.340707544799

DIPOLE MOMENT
-------------
                                X             Y             Z
Electronic contribution:      7.24629      -4.19430      -5.52383
Nuclear contribution   :     -7.63086       3.88103       6.63849
                        -----------------------------------------
Total Dipole Moment    :     -0.38457      -0.31328       1.11466
                        -----------------------------------------
Magnitude (a.u.)       :      1.22004
Magnitude (Debye)      :      3.10110

Rotational constants in cm-1:     0.177064     0.085023     0.079676
Rotational constants in MHz :  5308.232158  2548.918275  2388.614336

                             ****ORCA TERMINATED NORMALLY****
TOTAL RUN TIME: 0 days 0 hours 0 minutes 27 seconds 424 msec
