                         Program Version 5.0.0 -  RELEASE  -
|  1> !CAM-B3LYP RIJCOSX def2-SVPD def2/J TightSCF
|  2> *xyz 0 1
|  3> C          3.90595        2.81985       -3.75292
|  4> N          5.29562        3.13151       -4.10533
|  5> C          3.80351        1.37472       -3.26081
|  6> C          3.93993        0.32036       -4.36773
|  7> C          5.70862        3.46889       -5.32419
|  8> C          6.90470        3.03895       -5.71708
|  9> N          4.98188        4.29357       -6.09746
| 10> H          5.00055        4.10131       -7.08776
| 11> H          4.08469        4.59690       -5.73965
| 12> H          5.96336        2.52611       -3.64239
| 13> H          7.04716        2.06686       -5.47360
| 14> H          7.19815        3.30799       -6.64523
| 15> H          3.28202        2.94919       -4.64026
| 16> H          3.56525        3.51457       -2.98252
| 17> H          4.57483        1.21516       -2.50044
| 18> H          2.84351        1.26085       -2.75146
| 19> H          3.18417        0.48061       -5.10803
| 20> H          3.82485       -0.65632       -3.94614
| 21> H          4.90589        0.40174       -4.82073
| 22> *
| 23>
| 24> %MaxCore 64000
| 25>
| 26> %pal nprocs 4
| 27> end
| 28>
| 29> %scf
| 30>   MaxIter 150
| 31> end
| 32>
| 33>
| 34>                          ****END OF INPUT****

CARTESIAN COORDINATES (ANGSTROEM)
---------------------------------
  C      3.905950    2.819850   -3.752920
  N      5.295620    3.131510   -4.105330
  C      3.803510    1.374720   -3.260810
  C      3.939930    0.320360   -4.367730
  C      5.708620    3.468890   -5.324190
  C      6.904700    3.038950   -5.717080
  N      4.981880    4.293570   -6.097460
  H      5.000550    4.101310   -7.087760
  H      4.084690    4.596900   -5.739650
  H      5.963360    2.526110   -3.642390
  H      7.047160    2.066860   -5.473600
  H      7.198150    3.307990   -6.645230
  H      3.282020    2.949190   -4.640260
  H      3.565250    3.514570   -2.982520
  H      4.574830    1.215160   -2.500440
  H      2.843510    1.260850   -2.751460
  H      3.184170    0.480610   -5.108030
  H      3.824850   -0.656320   -3.946140
  H      4.905890    0.401740   -4.820730

 Total Charge           Charge          ....    0
 Multiplicity           Mult            ....    1
 Number of Electrons    NEL             ....   56
 Basis Dimension        Dim             ....  236

ORBITAL ENERGIES
----------------

  NO   OCC          E(Eh)            E(eV)
   0   2.0000     -14.409899      -392.1133
   1   2.0000     -14.406507      -392.0210
   2   2.0000     -10.309509      -280.5360
   3   2.0000     -10.297160      -280.2000
   4   2.0000     -10.268690      -279.4253
   5   2.0000     -10.251786      -278.9653
   6   2.0000     -10.171430      -276.7787
   7   2.0000      -1.048092       -28.5200
   8   2.0000      -0.964075       -26.2338
   9   2.0000      -0.869407       -23.6578
  10   2.0000      -0.804901       -21.9025
  11   2.0000      -0.749452       -20.3936
  12   2.0000      -0.678352       -18.4589
  13   2.0000      -0.668771       -18.1982
  14   2.0000      -0.608214       -16.5503
  15   2.0000      -0.569636       -15.5006
  16   2.0000      -0.549292       -14.9470
  17   2.0000      -0.535437       -14.5700
  18   2.0000      -0.516705       -14.0603
  19   2.0000      -0.477151       -12.9839
  20   2.0000      -0.468419       -12.7463
  21   2.0000      -0.457076       -12.4377
  22   2.0000      -0.433605       -11.7990
  23   2.0000      -0.421290       -11.4639
  24   2.0000      -0.418444       -11.3865
  25   2.0000      -0.403072       -10.9681
  26   2.0000      -0.326767        -8.8918
  27   2.0000      -0.233689        -6.3590
  28   0.0000       0.042825         1.1653
  29   0.0000       0.061650         1.6776
  30   0.0000       0.070129         1.9083
  31   0.0000       0.079933         2.1751
  32   0.0000       0.092107         2.5064

MULLIKEN ATOMIC CHARGES
-----------------------
   0 C :    0.853516
   1 N :   -0.291687
   2 C :   -0.170485
   3 C :    1.072842
   4 C :    0.123805
   5 C :    0.683959
   6 N :    0.172808
   7 H :   -0.064006
   8 H :   -0.098427
   9 H :   -0.072247
  10 H :   -0.403524
  11 H :   -0.417086
  12 H :   -0.113305
  13 H :   -0.429640
  14 H :   -0.125361
  15 H :   -0.212249
  16 H :   -0.030772
  17 H :   -0.119656
  18 H :   -0.358486
Sum of atomic charges:   -0.0000000

LOEWDIN ATOMIC CHARGES
----------------------
   0 C :    0.040745
   1 N :    0.002455
   2 C :   -0.066034
   3 C :    0.135301
   4 C :   -0.248346
   5 C :    0.145488
   6 N :    0.206266
   7 H :    0.003756
   8 H :   -0.019936
   9 H :    0.016661
  10 H :   -0.110029
  11 H :   -0.105548
  12 H :    0.011468
  13 H :    0.012938
  14 H :    0.018552
  15 H :    0.017778
  16 H :   -0.017250
  17 H :   -0.018247
  18 H :   -0.026017

  Mayer bond orders larger than 0.100000
B(  0-C ,  1-N ) :   0.9073 B(  0-C ,  2-C ) :   1.1436 B(  0-C , 12-H ) :   0.7254
B(  0-C , 13-H ) :   0.8707 B(  0-C , 15-H ) :   0.1648 B(  1-N ,  2-C ) :   0.1029
B(  1-N ,  4-C ) :   1.1836 B(  1-N ,  5-C ) :   0.2162 B(  1-N ,  9-H ) :   1.0429
B(  1-N , 12-H ) :   0.1359 B(  1-N , 13-H ) :   0.1075 B(  2-C ,  3-C ) :   1.2119
B(  2-C , 14-H ) :   0.8914 B(  2-C , 15-H ) :   0.9341 B(  2-C , 16-H ) :   0.2269
B(  2-C , 17-H ) :   0.2409 B(  2-C , 18-H ) :   0.2604 B(  3-C , 16-H ) :   0.6791
B(  3-C , 17-H ) :   0.6875 B(  3-C , 18-H ) :   0.7358 B(  4-C ,  5-C ) :   1.8155
B(  4-C ,  6-N ) :   0.9815 B(  4-C ,  9-H ) :  -0.1430 B(  4-C , 10-H ) :   0.2263
B(  4-C , 11-H ) :   0.3866 B(  5-C ,  6-N ) :   0.2365 B(  5-C , 10-H ) :   0.7786
B(  5-C , 11-H ) :   0.4297 B(  6-N ,  7-H ) :   1.0912 B(  6-N ,  8-H ) :   0.9096
B(  6-N , 11-H ) :   0.1116 B(  7-H ,  8-H ) :  -0.1229 B( 10-H , 11-H ) :   0.1507
B( 12-H , 13-H ) :  -0.1270 B( 16-H , 18-H ) :   0.1615

FINAL SINGLE POINT ENERGY      -306.837367666707

DIPOLE MOMENT
-------------
                                X             Y             Z
Electronic contribution:      1.76049       4.86782      -0.59017
Nuclear contribution   :     -3.17203      -5.30499       0.68068
                        -----------------------------------------
Total Dipole Moment    :     -1.41153      -0.43717       0.09051
                        -----------------------------------------
Magnitude (a.u.)       :      1.48045
Magnitude (Debye)      :      3.76301

Rotational constants in cm-1:     0.149640     0.051631     0.046708
Rotational constants in MHz :  4486.107270  1547.846261  1400.277765

                             ****ORCA TERMINATED NORMALLY****
TOTAL RUN TIME: 0 days 0 hours 0 minutes 48 seconds 920 msec
