                         Program Version 5.0.0 -  RELEASE  -
|  1> !CAM-B3LYP RIJCOSX def2-SVPD def2/J TightSCF
|  2> *xyz 0 1
|  3> C          3.90595        2.81985       -3.75292
|  4> N          5.29562        3.13151       -4.10533
|  5> C          3.80351        1.37472       -3.26081
|  6> C          3.93993        0.32036       -4.36773
|  7> C          5.70862        3.46889       -5.32419
|  8> N          6.90470        3.03895       -5.71708
|  9> C          4.98188        4.29357       -6.09746
| 10> H          5.00055        4.10131       -7.08776
| 11> H          4.08469        4.59690       -5.73965
| 12> H          5.96336        2.52611       -3.64239
| 13> H          7.04716        2.06686       -5.47360
| 14> H          7.19815        3.30799       -6.64523
| 15> H          3.28202        2.94919       -4.64026
| 16> H          3.56525        3.51457       -2.98252
| 17> H          4.57483        1.21516       -2.50044
| 18> H          2.84351        1.26085       -2.75146
| 19> H          3.18417        0.48061       -5.10803
| 20> H          3.82485       -0.65632       -3.94614
| 21> H          4.90589        0.40174       -4.82073
| 22> *
| 23>
| 24> %MaxCore 64000
| 25>
| 26> %pal nprocs 4
| 27> end
| 28>
| 29> %scf
| 30>   MaxIter 150
| 31> end
| 32>
| 33>
| 34>                          ****END OF INPUT****

CARTESIAN COORDINATES (ANGSTROEM)
---------------------------------
  C      3.905950    2.819850   -3.752920
  N      5.295620    3.131510   -4.105330
  C      3.803510    1.374720   -3.260810
  C      3.939930    0.320360   -4.367730
  C      5.708620    3.468890   -5.324190
  N      6.904700    3.038950   -5.717080
  C      4.981880    4.293570   -6.097460
  H      5.000550    4.101310   -7.087760
  H      4.084690    4.596900   -5.739650
  H      5.963360    2.526110   -3.642390
  H      7.047160    2.066860   -5.473600
  H      7.198150    3.307990   -6.645230
  H      3.282020    2.949190   -4.640260
  H      3.565250    3.514570   -2.982520
  H      4.574830    1.215160   -2.500440
  H      2.843510    1.260850   -2.751460
  H      3.184170    0.480610   -5.108030
  H      3.824850   -0.656320   -3.946140
  H      4.905890    0.401740   -4.820730

 Total Charge           Charge          ....    0
 Multiplicity           Mult            ....    1
 Number of Electrons    NEL             ....   56
 Basis Dimension        Dim             ....  236

ORBITAL ENERGIES
----------------

  NO   OCC          E(Eh)            E(eV)
   0   2.0000     -14.408921      -392.0867
   1   2.0000     -14.408570      -392.0771
   2   2.0000     -10.308479      -280.5080
   3   2.0000     -10.291346      -280.0418
   4   2.0000     -10.267013      -279.3796
   5   2.0000     -10.253554      -279.0134
   6   2.0000     -10.176818      -276.9253
   7   2.0000      -1.052974       -28.6529
   8   2.0000      -0.966181       -26.2911
   9   2.0000      -0.864330       -23.5196
  10   2.0000      -0.790673       -21.5153
  11   2.0000      -0.768288       -20.9062
  12   2.0000      -0.683875       -18.6092
  13   2.0000      -0.641003       -17.4426
  14   2.0000      -0.608674       -16.5629
  15   2.0000      -0.589300       -16.0357
  16   2.0000      -0.544938       -14.8285
  17   2.0000      -0.538823       -14.6621
  18   2.0000      -0.503841       -13.7102
  19   2.0000      -0.485378       -13.2078
  20   2.0000      -0.467126       -12.7112
  21   2.0000      -0.452496       -12.3130
  22   2.0000      -0.435649       -11.8546
  23   2.0000      -0.422251       -11.4900
  24   2.0000      -0.416060       -11.3216
  25   2.0000      -0.403597       -10.9824
  26   2.0000      -0.324545        -8.8313
  27   2.0000      -0.236614        -6.4386
  28   0.0000       0.039889         1.0854
  29   0.0000       0.064584         1.7574
  30   0.0000       0.073873         2.0102
  31   0.0000       0.077687         2.1140
  32   0.0000       0.094085         2.5602

MULLIKEN ATOMIC CHARGES
-----------------------
   0 C :    0.849461
   1 N :   -0.192170
   2 C :   -0.118948
   3 C :    1.057927
   4 C :    0.036562
   5 N :    0.133615
   6 C :    0.600630
   7 H :   -0.469265
   8 H :   -0.195724
   9 H :   -0.202715
  10 H :   -0.104141
  11 H :   -0.008661
  12 H :   -0.052303
  13 H :   -0.480925
  14 H :   -0.148970
  15 H :   -0.196375
  16 H :   -0.039942
  17 H :   -0.115858
  18 H :   -0.352198
Sum of atomic charges:    0.0000000

LOEWDIN ATOMIC CHARGES
----------------------
   0 C :    0.052035
   1 N :    0.003285
   2 C :   -0.066818
   3 C :    0.132536
   4 C :   -0.260371
   5 N :    0.195664
   6 C :    0.162218
   7 H :   -0.105513
   8 H :   -0.110424
   9 H :    0.006996
  10 H :   -0.015652
  11 H :    0.003157
  12 H :    0.016805
  13 H :    0.017679
  14 H :    0.015152
  15 H :    0.019057
  16 H :   -0.015013
  17 H :   -0.018761
  18 H :   -0.032033

  Mayer bond orders larger than 0.100000
B(  0-C ,  1-N ) :   0.9555 B(  0-C ,  2-C ) :   1.1292 B(  0-C , 12-H ) :   0.7530
B(  0-C , 13-H ) :   0.8843 B(  0-C , 15-H ) :   0.1758 B(  1-N ,  2-C ) :   0.1100
B(  1-N ,  4-C ) :   1.1902 B(  1-N ,  5-N ) :   0.1470 B(  1-N ,  6-C ) :   0.2011
B(  1-N ,  9-H ) :   0.9852 B(  1-N , 12-H ) :   0.1363 B(  2-C ,  3-C ) :   1.2090
B(  2-C , 14-H ) :   0.8948 B(  2-C , 15-H ) :   0.9191 B(  2-C , 16-H ) :   0.2281
B(  2-C , 17-H ) :   0.2383 B(  2-C , 18-H ) :   0.2536 B(  3-C , 16-H ) :   0.7024
B(  3-C , 17-H ) :   0.6902 B(  3-C , 18-H ) :   0.7446 B(  4-C ,  5-N ) :   1.0496
B(  4-C ,  6-C ) :   1.9057 B(  4-C ,  7-H ) :   0.2211 B(  4-C ,  8-H ) :   0.3311
B(  5-N ,  6-C ) :   0.1414 B(  5-N , 10-H ) :   0.9399 B(  5-N , 11-H ) :   0.9857
B(  6-C ,  7-H ) :   0.7464 B(  6-C ,  8-H ) :   0.4661 B(  7-H ,  8-H ) :   0.2951
B( 12-H , 13-H ) :  -0.1113 B( 16-H , 18-H ) :   0.1289

FINAL SINGLE POINT ENERGY      -306.841636229313

DIPOLE MOMENT
-------------
                                X             Y             Z
Electronic contribution:      3.60545       3.69812      -0.29414
Nuclear contribution   :     -3.59323      -5.03016       0.59736
                        -----------------------------------------
Total Dipole Moment    :      0.01222      -1.33204       0.30321
                        -----------------------------------------
Magnitude (a.u.)       :      1.36617
Magnitude (Debye)      :      3.47253

Rotational constants in cm-1:     0.148888     0.051791     0.046487
Rotational constants in MHz :  4463.542717  1552.665696  1393.643356

                             ****ORCA TERMINATED NORMALLY****
TOTAL RUN TIME: 0 days 0 hours 0 minutes 51 seconds 141 msec
