                         Program Version 5.0.0 -  RELEASE  -
|  1> !CAM-B3LYP RIJCOSX def2-SVPD def2/J TightSCF xyzfile
|  2>
|  3> *xyzfile 0 1 D1.xyz
|  4>
|  5> %MaxCore 64000
|  6>
|  7> %pal nprocs 4
|  8> end
|  9>
| 10> %scf
| 11>   MaxIter 150
| 12> end
| 13>
| 14>
| 15>                          ****END OF INPUT****

CARTESIAN COORDINATES (ANGSTROEM)
---------------------------------
  C      3.905947    2.819855   -3.752920
  C      5.295615    3.131515   -4.105334
  C      3.803511    1.374716   -3.260807
  C      3.939934    0.320362   -4.367729
  H      4.105043   -0.655085   -3.907733
  H      3.022801    0.280517   -4.957117
  C      5.105846    0.668022   -5.305463
  C      5.708619    3.468885   -5.324190
  N      6.904696    3.038954   -5.717084
  N      4.981884    4.293570   -6.097457
  H      5.000546    4.101311   -7.087761
  H      4.084693    4.596899   -5.739652
  H      5.963358    2.526112   -3.642391
  H      7.047164    2.066861   -5.473604
  H      7.198145    3.307994   -6.645225
  H      3.282025    2.949187   -4.640259
  H      3.565254    3.514574   -2.982523
  H      4.574833    1.215157   -2.500443
  H      2.843514    1.260845   -2.751465
  F      4.809132    1.150187   -6.414361
  O      6.267366    0.564999   -4.819481

 Total Charge           Charge          ....    0
 Multiplicity           Mult            ....    1
 Number of Electrons    NEL             ....   78
 Basis Dimension        Dim             ....  294

ORBITAL ENERGIES
----------------

  NO   OCC          E(Eh)            E(eV)
   0   2.0000     -24.858770      -676.4415
   1   2.0000     -19.229373      -523.2578
   2   2.0000     -14.409739      -392.1089
   3   2.0000     -14.387758      -391.5108
   4   2.0000     -10.455530      -284.5094
   5   2.0000     -10.303278      -280.3665
   6   2.0000     -10.289367      -279.9879
   7   2.0000     -10.266888      -279.3762
   8   2.0000     -10.248801      -278.8841
   9   2.0000     -10.185324      -277.1568
  10   2.0000      -1.406778       -38.2804
  11   2.0000      -1.116844       -30.3909
  12   2.0000      -1.037309       -28.2266
  13   2.0000      -0.944559       -25.7028
  14   2.0000      -0.897987       -24.4355
  15   2.0000      -0.830027       -22.5862
  16   2.0000      -0.772723       -21.0269
  17   2.0000      -0.739546       -20.1241
  18   2.0000      -0.685460       -18.6523
  19   2.0000      -0.655403       -17.8344
  20   2.0000      -0.640811       -17.4373
  21   2.0000      -0.621494       -16.9117
  22   2.0000      -0.609302       -16.5799
  23   2.0000      -0.593427       -16.1480
  24   2.0000      -0.574730       -15.6392
  25   2.0000      -0.540359       -14.7039
  26   2.0000      -0.532976       -14.5030
  27   2.0000      -0.514296       -13.9947
  28   2.0000      -0.502675       -13.6785
  29   2.0000      -0.472748       -12.8641
  30   2.0000      -0.458364       -12.4727
  31   2.0000      -0.437034       -11.8923
  32   2.0000      -0.434441       -11.8217
  33   2.0000      -0.416048       -11.3212
  34   2.0000      -0.402988       -10.9659
  35   2.0000      -0.389717       -10.6047
  36   2.0000      -0.371521       -10.1096
  37   2.0000      -0.332125        -9.0376
  38   2.0000      -0.230149        -6.2627
  39   0.0000       0.006497         0.1768
  40   0.0000       0.040229         1.0947
  41   0.0000       0.061120         1.6632
  42   0.0000       0.070303         1.9130
  43   0.0000       0.081140         2.2079

MULLIKEN ATOMIC CHARGES
-----------------------
   0 C :    0.518282
   1 C :    0.125263
   2 C :    0.337160
   3 C :    0.437710
   4 H :   -0.143582
   5 H :   -0.074132
   6 C :    0.738181
   7 C :    0.015171
   8 N :    0.359960
   9 N :    0.112668
  10 H :   -0.081082
  11 H :   -0.025929
  12 H :   -0.356122
  13 H :   -0.140003
  14 H :   -0.068163
  15 H :   -0.225094
  16 H :   -0.303861
  17 H :   -0.009825
  18 H :   -0.255491
  19 F :   -0.382933
  20 O :   -0.578178
Sum of atomic charges:   -0.0000000

LOEWDIN ATOMIC CHARGES
----------------------
   0 C :   -0.047301
   1 C :   -0.013086
   2 C :   -0.013634
   3 C :    0.066857
   4 H :    0.037727
   5 H :    0.025669
   6 C :    0.006234
   7 C :   -0.251236
   8 N :    0.222665
   9 N :    0.209929
  10 H :   -0.010946
  11 H :   -0.007454
  12 H :   -0.054560
  13 H :   -0.075912
  14 H :   -0.003381
  15 H :    0.006822
  16 H :    0.011954
  17 H :    0.033633
  18 H :    0.021514
  19 F :   -0.017315
  20 O :   -0.148178

  Mayer bond orders larger than 0.100000
B(  0-C ,  1-C ) :   0.9906 B(  0-C ,  2-C ) :   1.2057 B(  0-C , 12-H ) :   0.2346
B(  0-C , 15-H ) :   0.7192 B(  0-C , 16-H ) :   0.7644 B(  0-C , 18-H ) :   0.2291
B(  1-C ,  2-C ) :   0.1525 B(  1-C ,  7-C ) :   1.7887 B(  1-C ,  8-N ) :   0.3270
B(  1-C ,  9-N ) :   0.1683 B(  1-C , 12-H ) :   0.3483 B(  1-C , 15-H ) :   0.1264
B(  1-C , 16-H ) :   0.1769 B(  2-C ,  3-C ) :   1.1784 B(  2-C ,  4-H ) :   0.1915
B(  2-C ,  5-H ) :   0.1336 B(  2-C , 17-H ) :   0.8049 B(  2-C , 18-H ) :   0.8144
B(  3-C ,  4-H ) :   0.7680 B(  3-C ,  5-H ) :   0.8432 B(  3-C ,  6-C ) :   1.0913
B(  3-C , 17-H ) :   0.1003 B(  4-H ,  6-C ) :   0.1294 B(  5-H ,  6-C ) :   0.1364
B(  6-C , 19-F ) :   0.6924 B(  6-C , 20-O ) :   1.6758 B(  7-C ,  8-N ) :   0.9183
B(  7-C ,  9-N ) :   1.0121 B(  7-C , 12-H ) :   0.3496 B(  7-C , 14-H ) :   0.1948
B(  8-N ,  9-N ) :   0.1221 B(  8-N , 13-H ) :   0.9083 B(  8-N , 14-H ) :   0.8160
B(  9-N , 10-H ) :   1.0501 B(  9-N , 11-H ) :   0.9799 B( 10-H , 11-H ) :  -0.1069
B( 13-H , 20-O ) :   0.1233 B( 15-H , 16-H ) :  -0.1226 B( 17-H , 18-H ) :  -0.1076

FINAL SINGLE POINT ENERGY      -519.204336457854

DIPOLE MOMENT
-------------
                                X             Y             Z
Electronic contribution:      3.36169      -3.65241      -6.44733
Nuclear contribution   :     -4.60158       3.22721       5.56005
                        -----------------------------------------
Total Dipole Moment    :     -1.23989      -0.42520      -0.88727
                        -----------------------------------------
Magnitude (a.u.)       :      1.58284
Magnitude (Debye)      :      4.02326

Rotational constants in cm-1:     0.061224     0.042534     0.033552
Rotational constants in MHz :  1835.464095  1275.135177  1005.856966

                             ****ORCA TERMINATED NORMALLY****
TOTAL RUN TIME: 0 days 0 hours 1 minutes 53 seconds 43 msec
