                         Program Version 5.0.0 -  RELEASE  -
|  1> !CAM-B3LYP RIJCOSX def2-SVPD def2/J TightSCF xyzfile
|  2>
|  3> *xyzfile 0 1 D3.xyz
|  4>
|  5> %MaxCore 64000
|  6>
|  7> %pal nprocs 4
|  8> end
|  9>
| 10> %scf
| 11>   MaxIter 150
| 12> end
| 13>
| 14>
| 15>                          ****END OF INPUT****

CARTESIAN COORDINATES (ANGSTROEM)
---------------------------------
  C      3.905947    2.819855   -3.752920
  N      5.295615    3.131515   -4.105334
  C      3.803511    1.374716   -3.260807
  C      3.939934    0.320362   -4.367729
  H      4.105043   -0.655085   -3.907733
  H      3.022801    0.280517   -4.957117
  C      5.105846    0.668022   -5.305463
  C      5.708619    3.468885   -5.324190
  N      6.904696    3.038954   -5.717084
  C      4.981884    4.293570   -6.097457
  H      5.000546    4.101311   -7.087761
  H      4.084693    4.596899   -5.739652
  H      5.963358    2.526112   -3.642391
  H      7.047164    2.066861   -5.473604
  H      7.198145    3.307994   -6.645225
  H      3.282025    2.949187   -4.640259
  H      3.565254    3.514574   -2.982523
  H      4.574833    1.215157   -2.500443
  H      2.843514    1.260845   -2.751465
  F      4.809132    1.150187   -6.414361
  O      6.267366    0.564999   -4.819481

 Total Charge           Charge          ....    0
 Multiplicity           Mult            ....    1
 Number of Electrons    NEL             ....   78
 Basis Dimension        Dim             ....  294

ORBITAL ENERGIES
----------------

  NO   OCC          E(Eh)            E(eV)
   0   2.0000     -24.869014      -676.7203
   1   2.0000     -19.247017      -523.7380
   2   2.0000     -14.409054      -392.0903
   3   2.0000     -14.386537      -391.4776
   4   2.0000     -10.472054      -284.9591
   5   2.0000     -10.306885      -280.4646
   6   2.0000     -10.304653      -280.4039
   7   2.0000     -10.303121      -280.3622
   8   2.0000     -10.292258      -280.0666
   9   2.0000     -10.171645      -276.7845
  10   2.0000      -1.416787       -38.5527
  11   2.0000      -1.135161       -30.8893
  12   2.0000      -1.048750       -28.5379
  13   2.0000      -0.963393       -26.2152
  14   2.0000      -0.898306       -24.4442
  15   2.0000      -0.816829       -22.2270
  16   2.0000      -0.780905       -21.2495
  17   2.0000      -0.757865       -20.6225
  18   2.0000      -0.711872       -19.3710
  19   2.0000      -0.655921       -17.8485
  20   2.0000      -0.642987       -17.4966
  21   2.0000      -0.636955       -17.3324
  22   2.0000      -0.617928       -16.8147
  23   2.0000      -0.589074       -16.0295
  24   2.0000      -0.577280       -15.7086
  25   2.0000      -0.557697       -15.1757
  26   2.0000      -0.547121       -14.8879
  27   2.0000      -0.509310       -13.8590
  28   2.0000      -0.501758       -13.6535
  29   2.0000      -0.481419       -13.1001
  30   2.0000      -0.464105       -12.6289
  31   2.0000      -0.461755       -12.5650
  32   2.0000      -0.447239       -12.1700
  33   2.0000      -0.440379       -11.9833
  34   2.0000      -0.427735       -11.6393
  35   2.0000      -0.402182       -10.9439
  36   2.0000      -0.386071       -10.5055
  37   2.0000      -0.318782        -8.6745
  38   2.0000      -0.231367        -6.2958
  39   0.0000      -0.010583        -0.2880
  40   0.0000       0.037380         1.0172
  41   0.0000       0.061698         1.6789
  42   0.0000       0.068603         1.8668
  43   0.0000       0.073563         2.0017

MULLIKEN ATOMIC CHARGES
-----------------------
   0 C :    0.912568
   1 N :   -0.178725
   2 C :    0.306794
   3 C :    0.433468
   4 H :   -0.142476
   5 H :   -0.069289
   6 C :    0.717388
   7 C :   -0.042677
   8 N :    0.288458
   9 C :    0.564941
  10 H :   -0.485560
  11 H :   -0.255371
  12 H :   -0.194036
  13 H :   -0.163249
  14 H :    0.024110
  15 H :   -0.050047
  16 H :   -0.502200
  17 H :   -0.023561
  18 H :   -0.230679
  19 F :   -0.362582
  20 O :   -0.547277
Sum of atomic charges:   -0.0000000

LOEWDIN ATOMIC CHARGES
----------------------
   0 C :    0.069221
   1 N :    0.014628
   2 C :   -0.003643
   3 C :    0.068242
   4 H :    0.040126
   5 H :    0.029868
   6 C :    0.010954
   7 C :   -0.270920
   8 N :    0.221726
   9 C :    0.156719
  10 H :   -0.103590
  11 H :   -0.113142
  12 H :    0.004875
  13 H :   -0.086465
  14 H :    0.010010
  15 H :    0.020388
  16 H :    0.021449
  17 H :    0.030800
  18 H :    0.027659
  19 F :   -0.002406
  20 O :   -0.146497

  Mayer bond orders larger than 0.100000
B(  0-C ,  1-N ) :   0.8848 B(  0-C ,  2-C ) :   1.1345 B(  0-C , 15-H ) :   0.7279
B(  0-C , 16-H ) :   0.8346 B(  0-C , 18-H ) :   0.2067 B(  1-N ,  2-C ) :   0.1592
B(  1-N ,  7-C ) :   1.2438 B(  1-N ,  9-C ) :   0.2405 B(  1-N , 12-H ) :   0.9624
B(  1-N , 15-H ) :   0.1644 B(  2-C ,  3-C ) :   1.1809 B(  2-C ,  4-H ) :   0.1930
B(  2-C ,  5-H ) :   0.1321 B(  2-C , 17-H ) :   0.8119 B(  2-C , 18-H ) :   0.8610
B(  3-C ,  4-H ) :   0.7590 B(  3-C ,  5-H ) :   0.8237 B(  3-C ,  6-C ) :   1.1027
B(  4-H ,  6-C ) :   0.1431 B(  5-H ,  6-C ) :   0.1647 B(  6-C , 19-F ) :   0.7402
B(  6-C , 20-O ) :   1.6906 B(  7-C ,  8-N ) :   1.0508 B(  7-C ,  9-C ) :   1.9366
B(  7-C , 10-H ) :   0.2426 B(  7-C , 11-H ) :   0.3395 B(  7-C , 12-H ) :  -0.1502
B(  7-C , 13-H ) :   0.1440 B(  7-C , 14-H ) :   0.1126 B(  8-N ,  9-C ) :   0.1530
B(  8-N , 13-H ) :   0.8418 B(  8-N , 14-H ) :   0.8941 B(  9-C , 10-H ) :   0.7196
B(  9-C , 11-H ) :   0.5175 B( 10-H , 11-H ) :   0.2027 B( 15-H , 16-H ) :  -0.1397
B( 17-H , 18-H ) :  -0.1010

FINAL SINGLE POINT ENERGY      -519.194415873697

DIPOLE MOMENT
-------------
                                X             Y             Z
Electronic contribution:      3.53448      -4.87860      -4.86184
Nuclear contribution   :     -4.64021       3.37029       5.31478
                        -----------------------------------------
Total Dipole Moment    :     -1.10573      -1.50831       0.45294
                        -----------------------------------------
Magnitude (a.u.)       :      1.92427
Magnitude (Debye)      :      4.89109

Rotational constants in cm-1:     0.061077     0.043622     0.034103
Rotational constants in MHz :  1831.041375  1307.759852  1022.388536

                             ****ORCA TERMINATED NORMALLY****
TOTAL RUN TIME: 0 days 0 hours 1 minutes 54 seconds 848 msec
