                         Program Version 5.0.0 -  RELEASE  -
|  1> !CAM-B3LYP RIJCOSX def2-SVPD def2/J TightSCF xyzfile
|  2>
|  3> *xyzfile 0 1 D4.xyz
|  4>
|  5> %MaxCore 64000
|  6>
|  7> %pal nprocs 4
|  8> end
|  9>
| 10> %scf
| 11>   MaxIter 150
| 12> end
| 13>
| 14>
| 15>                          ****END OF INPUT****

CARTESIAN COORDINATES (ANGSTROEM)
---------------------------------
  C      3.905947    2.819855   -3.752920
  C      5.295615    3.131515   -4.105334
  C      3.803511    1.374716   -3.260807
  C      3.939934    0.320362   -4.367729
  H      4.105043   -0.655085   -3.907733
  H      3.022801    0.280517   -4.957117
  C      5.105846    0.668022   -5.305463
  C      5.708619    3.468885   -5.324190
  N      6.904696    3.038954   -5.717084
  N      4.981884    4.293570   -6.097457
  H      5.000546    4.101311   -7.087761
  H      4.084693    4.596899   -5.739652
  H      5.963358    2.526112   -3.642391
  H      7.047164    2.066861   -5.473604
  H      7.198145    3.307994   -6.645225
  H      3.282025    2.949187   -4.640259
  H      3.565254    3.514574   -2.982523
  H      4.574833    1.215157   -2.500443
  H      2.843514    1.260845   -2.751465
  O      4.809132    1.150187   -6.414361
  F      6.267366    0.564999   -4.819481

 Total Charge           Charge          ....    0
 Multiplicity           Mult            ....    1
 Number of Electrons    NEL             ....   78
 Basis Dimension        Dim             ....  294

ORBITAL ENERGIES
----------------

  NO   OCC          E(Eh)            E(eV)
   0   2.0000     -24.855707      -676.3582
   1   2.0000     -19.227306      -523.2016
   2   2.0000     -14.407430      -392.0461
   3   2.0000     -14.396526      -391.7494
   4   2.0000     -10.448886      -284.3286
   5   2.0000     -10.306368      -280.4505
   6   2.0000     -10.286596      -279.9125
   7   2.0000     -10.267222      -279.3853
   8   2.0000     -10.246189      -278.8130
   9   2.0000     -10.186367      -277.1851
  10   2.0000      -1.398750       -38.0619
  11   2.0000      -1.119535       -30.4641
  12   2.0000      -1.038696       -28.2644
  13   2.0000      -0.946969       -25.7683
  14   2.0000      -0.897545       -24.4234
  15   2.0000      -0.828888       -22.5552
  16   2.0000      -0.771540       -20.9947
  17   2.0000      -0.737603       -20.0712
  18   2.0000      -0.684471       -18.6254
  19   2.0000      -0.666674       -18.1411
  20   2.0000      -0.636213       -17.3122
  21   2.0000      -0.621305       -16.9066
  22   2.0000      -0.602221       -16.3873
  23   2.0000      -0.582670       -15.8553
  24   2.0000      -0.575182       -15.6515
  25   2.0000      -0.540637       -14.7115
  26   2.0000      -0.537716       -14.6320
  27   2.0000      -0.514938       -14.0122
  28   2.0000      -0.501884       -13.6570
  29   2.0000      -0.472284       -12.8515
  30   2.0000      -0.455955       -12.4072
  31   2.0000      -0.442647       -12.0450
  32   2.0000      -0.433026       -11.7832
  33   2.0000      -0.414637       -11.2828
  34   2.0000      -0.405923       -11.0457
  35   2.0000      -0.394643       -10.7388
  36   2.0000      -0.362881        -9.8745
  37   2.0000      -0.333037        -9.0624
  38   2.0000      -0.232325        -6.3219
  39   0.0000       0.014506         0.3947
  40   0.0000       0.044788         1.2188
  41   0.0000       0.061638         1.6772
  42   0.0000       0.070894         1.9291
  43   0.0000       0.080146         2.1809

MULLIKEN ATOMIC CHARGES
-----------------------
   0 C :    0.577224
   1 C :    0.036111
   2 C :    0.306624
   3 C :    0.478669
   4 H :   -0.152709
   5 H :   -0.058256
   6 C :    0.615234
   7 C :    0.114194
   8 N :    0.328353
   9 N :    0.102005
  10 H :   -0.082709
  11 H :   -0.022006
  12 H :   -0.347137
  13 H :   -0.139007
  14 H :   -0.038728
  15 H :   -0.211157
  16 H :   -0.309181
  17 H :   -0.054784
  18 H :   -0.258001
  19 O :   -0.429906
  20 F :   -0.454833
Sum of atomic charges:    0.0000000

LOEWDIN ATOMIC CHARGES
----------------------
   0 C :   -0.044800
   1 C :   -0.023178
   2 C :   -0.019253
   3 C :    0.066798
   4 H :    0.029361
   5 H :    0.035980
   6 C :   -0.013463
   7 C :   -0.247875
   8 N :    0.222009
   9 N :    0.221421
  10 H :   -0.004414
  11 H :   -0.004110
  12 H :   -0.059178
  13 H :   -0.052229
  14 H :    0.002399
  15 H :    0.011616
  16 H :    0.011277
  17 H :    0.027362
  18 H :    0.021511
  19 O :   -0.135333
  20 F :   -0.045899

  Mayer bond orders larger than 0.100000
B(  0-C ,  1-C ) :   0.9753 B(  0-C ,  2-C ) :   1.2000 B(  0-C , 12-H ) :   0.2127
B(  0-C , 15-H ) :   0.7244 B(  0-C , 16-H ) :   0.7454 B(  0-C , 18-H ) :   0.2186
B(  1-C ,  2-C ) :   0.1801 B(  1-C ,  7-C ) :   1.7748 B(  1-C ,  8-N ) :   0.3544
B(  1-C ,  9-N ) :   0.1624 B(  1-C , 12-H ) :   0.3708 B(  1-C , 15-H ) :   0.1200
B(  1-C , 16-H ) :   0.1826 B(  2-C ,  3-C ) :   1.1493 B(  2-C ,  4-H ) :   0.1984
B(  2-C ,  5-H ) :   0.1245 B(  2-C , 17-H ) :   0.8087 B(  2-C , 18-H ) :   0.8252
B(  3-C ,  4-H ) :   0.7712 B(  3-C ,  5-H ) :   0.8216 B(  3-C ,  6-C ) :   1.0907
B(  4-H ,  6-C ) :   0.1146 B(  5-H ,  6-C ) :   0.2241 B(  6-C , 19-O ) :   1.8114
B(  6-C , 20-F ) :   0.6073 B(  7-C ,  8-N ) :   0.8902 B(  7-C ,  9-N ) :   1.0312
B(  7-C , 12-H ) :   0.3224 B(  7-C , 14-H ) :   0.1984 B(  8-N ,  9-N ) :   0.1200
B(  8-N , 13-H ) :   0.9205 B(  8-N , 14-H ) :   0.8071 B(  9-N , 10-H ) :   1.0557
B(  9-N , 11-H ) :   0.9765 B( 10-H , 11-H ) :  -0.1080 B( 15-H , 16-H ) :  -0.1174
B( 19-O , 20-F ) :   0.1007

FINAL SINGLE POINT ENERGY      -519.205976297492

DIPOLE MOMENT
-------------
                                X             Y             Z
Electronic contribution:      5.79860      -4.54082      -3.88889
Nuclear contribution   :     -6.25608       3.89116       3.75052
                        -----------------------------------------
Total Dipole Moment    :     -0.45748      -0.64966      -0.13836
                        -----------------------------------------
Magnitude (a.u.)       :      0.80653
Magnitude (Debye)      :      2.05004

Rotational constants in cm-1:     0.061229     0.042568     0.033282
Rotational constants in MHz :  1835.590871  1276.154029   997.769927

                             ****ORCA TERMINATED NORMALLY****
TOTAL RUN TIME: 0 days 0 hours 1 minutes 58 seconds 305 msec
