                         Program Version 5.0.0 -  RELEASE  -
|  1> !PBE0 D3BJ RIJCOSX def2-SVP def2/J TightSCF
|  2> *xyz -1 1
|  3> C          4.93020       -7.37532       -2.64962
|  4> C          3.84189       -6.95161       -3.63283
|  5> H          3.45814       -5.95442       -3.40712
|  6> H          2.98848       -7.64361       -3.56708
|  7> S          4.31812       -6.91593       -5.36869
|  8> O          5.40615       -5.89948       -5.51297
|  9> O          3.11191       -6.44508       -6.04379
| 10> O          4.76340       -8.23942       -5.69863
| 11> H          5.27901       -8.35440       -2.90385
| 12> H          4.53000       -7.38577       -1.65734
| 13> H          5.74437       -6.68276       -2.69856
| 14> *
| 15>
| 16> %MaxCore 64000
| 17>
| 18> %pal nprocs 4
| 19> end
| 20>
| 21> %scf
| 22>   MaxIter 150
| 23> end
| 24>
| 25>
| 26>                          ****END OF INPUT****

CARTESIAN COORDINATES (ANGSTROEM)
---------------------------------
  C      4.930200   -7.375320   -2.649620
  C      3.841890   -6.951610   -3.632830
  H      3.458140   -5.954420   -3.407120
  H      2.988480   -7.643610   -3.567080
  S      4.318120   -6.915930   -5.368690
  O      5.406150   -5.899480   -5.512970
  O      3.111910   -6.445080   -6.043790
  O      4.763400   -8.239420   -5.698630
  H      5.279010   -8.354400   -2.903850
  H      4.530000   -7.385770   -1.657340
  H      5.744370   -6.682760   -2.698560

 Total Charge           Charge          ....   -1
 Multiplicity           Mult            ....    1
 Number of Electrons    NEL             ....   58
 Basis Dimension        Dim             ....  113

ORBITAL ENERGIES
----------------

  NO   OCC          E(Eh)            E(eV)
   0   2.0000     -88.998912     -2421.7835
   1   2.0000     -18.966452      -516.1034
   2   2.0000     -18.955768      -515.8127
   3   2.0000     -18.947090      -515.5765
   4   2.0000     -10.084881      -274.4236
   5   2.0000     -10.082799      -274.3669
   6   2.0000      -7.965440      -216.7506
   7   2.0000      -5.907173      -160.7423
   8   2.0000      -5.906866      -160.7340
   9   2.0000      -5.906756      -160.7310
  10   2.0000      -0.928065       -25.2539
  11   2.0000      -0.789311       -21.4783
  12   2.0000      -0.757272       -20.6064
  13   2.0000      -0.642006       -17.4699
  14   2.0000      -0.512929       -13.9575
  15   2.0000      -0.381345       -10.3769
  16   2.0000      -0.323770        -8.8102
  17   2.0000      -0.312210        -8.4957
  18   2.0000      -0.276762        -7.5311
  19   2.0000      -0.256010        -6.9664
  20   2.0000      -0.252492        -6.8707
  21   2.0000      -0.231385        -6.2963
  22   2.0000      -0.214361        -5.8331
  23   2.0000      -0.135239        -3.6800
  24   2.0000      -0.133561        -3.6344
  25   2.0000      -0.102142        -2.7794
  26   2.0000      -0.093555        -2.5458
  27   2.0000      -0.082471        -2.2442
  28   2.0000      -0.045942        -1.2502
  29   0.0000       0.210293         5.7224
  30   0.0000       0.262858         7.1527
  31   0.0000       0.268415         7.3039
  32   0.0000       0.275541         7.4979
  33   0.0000       0.301551         8.2056

MULLIKEN ATOMIC CHARGES
-----------------------
   0 C :   -0.029503
   1 C :   -0.159153
   2 H :    0.028011
   3 H :    0.023936
   4 S :    0.887066
   5 O :   -0.629185
   6 O :   -0.598163
   7 O :   -0.570648
   8 H :    0.027867
   9 H :   -0.008051
  10 H :    0.027821
Sum of atomic charges:   -1.0000000

LOEWDIN ATOMIC CHARGES
----------------------
   0 C :   -0.083699
   1 C :   -0.197437
   2 H :    0.013567
   3 H :    0.012540
   4 S :    1.096084
   5 O :   -0.661315
   6 O :   -0.626433
   7 O :   -0.599290
   8 H :    0.019830
   9 H :    0.006373
  10 H :    0.019780

  Mayer bond orders larger than 0.100000
B(  0-C ,  1-C ) :   1.0441 B(  0-C ,  8-H ) :   0.9679 B(  0-C ,  9-H ) :   0.9652
B(  0-C , 10-H ) :   0.9677 B(  1-C ,  2-H ) :   0.9444 B(  1-C ,  3-H ) :   0.9407
B(  1-C ,  4-S ) :   0.8812 B(  4-S ,  5-O ) :   1.5660 B(  4-S ,  6-O ) :   1.6065
B(  4-S ,  7-O ) :   1.6286

Dispersion correction           -0.008216202
FINAL SINGLE POINT ENERGY      -702.263940648243

DIPOLE MOMENT
-------------
                                X             Y             Z
Electronic contribution:     -0.35234       0.81898      -7.94314
Nuclear contribution   :      0.07504      -1.14369       9.75001
                        -----------------------------------------
Total Dipole Moment    :     -0.27730      -0.32471       1.80686
                        -----------------------------------------
Magnitude (a.u.)       :      1.85663
Magnitude (Debye)      :      4.71918

Rotational constants in cm-1:     0.160553     0.082191     0.080550
Rotational constants in MHz :  4813.250478  2464.013016  2414.833054

                             ****ORCA TERMINATED NORMALLY****
TOTAL RUN TIME: 0 days 0 hours 0 minutes 13 seconds 701 msec
