                         Program Version 5.0.0 -  RELEASE  -
|  1> !PBE0 D3BJ RIJCOSX def2-SVP def2/J TightSCF
|  2> *xyz 1 1
|  3> C          5.55821       -1.99291       -6.21505
|  4> C          4.18188       -2.58967       -6.29891
|  5> N          3.14587       -1.76843       -6.48675
|  6> N          4.01910       -3.86431       -6.22743
|  7> H          4.76849       -4.59115       -5.99077
|  8> H          3.12241       -4.33339       -6.31462
|  9> H          3.28164       -0.77779       -6.56655
| 10> H          2.21255       -2.13419       -6.56225
| 11> C          6.41926       -2.54294       -5.07763
| 12> H          6.03683       -2.19819       -7.17685
| 13> H          5.46761       -0.90737       -6.12797
| 14> H          6.50056       -3.60553       -5.17358
| 15> H          5.96544       -2.30329       -4.13874
| 16> H          7.39438       -2.10494       -5.12457
| 17> *
| 18>
| 19> %MaxCore 64000
| 20>
| 21> %pal nprocs 4
| 22> end
| 23>
| 24> %scf
| 25>   MaxIter 150
| 26> end
| 27>
| 28>
| 29>                          ****END OF INPUT****

CARTESIAN COORDINATES (ANGSTROEM)
---------------------------------
  C      5.558210   -1.992910   -6.215050
  C      4.181880   -2.589670   -6.298910
  N      3.145870   -1.768430   -6.486750
  N      4.019100   -3.864310   -6.227430
  H      4.768490   -4.591150   -5.990770
  H      3.122410   -4.333390   -6.314620
  H      3.281640   -0.777790   -6.566550
  H      2.212550   -2.134190   -6.562250
  C      6.419260   -2.542940   -5.077630
  H      6.036830   -2.198190   -7.176850
  H      5.467610   -0.907370   -6.127970
  H      6.500560   -3.605530   -5.173580
  H      5.965440   -2.303290   -4.138740
  H      7.394380   -2.104940   -5.124570

 Total Charge           Charge          ....    1
 Multiplicity           Mult            ....    1
 Number of Electrons    NEL             ....   40
 Basis Dimension        Dim             ....  115

ORBITAL ENERGIES
----------------

  NO   OCC          E(Eh)            E(eV)
   0   2.0000     -14.646877      -398.5618
   1   2.0000     -14.635231      -398.2449
   2   2.0000     -10.554602      -287.2053
   3   2.0000     -10.429683      -283.8061
   4   2.0000     -10.387480      -282.6577
   5   2.0000      -1.222514       -33.2663
   6   2.0000      -1.122097       -30.5338
   7   2.0000      -0.985414       -26.8145
   8   2.0000      -0.881619       -23.9901
   9   2.0000      -0.830976       -22.6120
  10   2.0000      -0.791150       -21.5283
  11   2.0000      -0.760190       -20.6858
  12   2.0000      -0.712563       -19.3898
  13   2.0000      -0.667796       -18.1716
  14   2.0000      -0.637242       -17.3402
  15   2.0000      -0.616052       -16.7636
  16   2.0000      -0.562465       -15.3055
  17   2.0000      -0.550967       -14.9926
  18   2.0000      -0.534887       -14.5550
  19   2.0000      -0.503707       -13.7066
  20   0.0000      -0.195360        -5.3160
  21   0.0000      -0.133244        -3.6258
  22   0.0000      -0.098213        -2.6725
  23   0.0000      -0.086525        -2.3545
  24   0.0000      -0.064728        -1.7614

MULLIKEN ATOMIC CHARGES
-----------------------
   0 C :   -0.062981
   1 C :    0.000168
   2 N :   -0.036356
   3 N :   -0.049638
   4 H :    0.224408
   5 H :    0.185229
   6 H :    0.189414
   7 H :    0.176107
   8 C :   -0.059077
   9 H :    0.126907
  10 H :    0.078470
  11 H :    0.051119
  12 H :    0.079289
  13 H :    0.096940
Sum of atomic charges:    1.0000000

LOEWDIN ATOMIC CHARGES
----------------------
   0 C :   -0.039296
   1 C :    0.146120
   2 N :    0.090047
   3 N :    0.085502
   4 H :    0.151991
   5 H :    0.115789
   6 H :    0.116221
   7 H :    0.107851
   8 C :   -0.036351
   9 H :    0.075694
  10 H :    0.055990
  11 H :    0.028704
  12 H :    0.044225
  13 H :    0.057512

  Mayer bond orders larger than 0.100000
B(  0-C ,  1-C ) :   1.0118 B(  0-C ,  8-C ) :   1.0789 B(  0-C ,  9-H ) :   0.9111
B(  0-C , 10-H ) :   0.9269 B(  1-C ,  2-N ) :   1.4910 B(  1-C ,  3-N ) :   1.5154
B(  2-N ,  6-H ) :   0.9198 B(  2-N ,  7-H ) :   0.9324 B(  3-N ,  4-H ) :   0.9066
B(  3-N ,  5-H ) :   0.9288 B(  8-C , 11-H ) :   0.9686 B(  8-C , 12-H ) :   0.9733
B(  8-C , 13-H ) :   0.9576

Dispersion correction           -0.008442500
FINAL SINGLE POINT ENERGY      -228.601326770035

DIPOLE MOMENT
-------------
                                X             Y             Z
Electronic contribution:     -3.82039      -0.49592      -1.58161
Nuclear contribution   :      2.76041       0.12669       1.26265
                        -----------------------------------------
Total Dipole Moment    :     -1.05998      -0.36922      -0.31896
                        -----------------------------------------
Magnitude (a.u.)       :      1.16688
Magnitude (Debye)      :      2.96598

Rotational constants in cm-1:     0.280918     0.124524     0.094121
Rotational constants in MHz :  8421.697738  3733.133254  2821.684112

                             ****ORCA TERMINATED NORMALLY****
TOTAL RUN TIME: 0 days 0 hours 0 minutes 13 seconds 420 msec
