                         Program Version 5.0.0 -  RELEASE  -
|  1> !PBE0 D3BJ RIJCOSX def2-SVP def2/J TightSCF
|  2> *xyz 0 1
|  3> C          4.93020       -7.37532       -2.64962
|  4> C          3.84189       -6.95161       -3.63283
|  5> H          3.45814       -5.95442       -3.40712
|  6> H          2.98848       -7.64361       -3.56708
|  7> S          4.31812       -6.91593       -5.36869
|  8> F          5.40615       -5.89948       -5.51297
|  9> O          3.11191       -6.44508       -6.04379
| 10> O          4.76340       -8.23942       -5.69863
| 11> H          5.27901       -8.35440       -2.90385
| 12> H          4.53000       -7.38577       -1.65734
| 13> H          5.74437       -6.68276       -2.69856
| 14> *
| 15>
| 16> %MaxCore 64000
| 17>
| 18> %pal nprocs 4
| 19> end
| 20>
| 21> %scf
| 22>   MaxIter 150
| 23> end
| 24>
| 25>
| 26>                          ****END OF INPUT****

CARTESIAN COORDINATES (ANGSTROEM)
---------------------------------
  C      4.930200   -7.375320   -2.649620
  C      3.841890   -6.951610   -3.632830
  H      3.458140   -5.954420   -3.407120
  H      2.988480   -7.643610   -3.567080
  S      4.318120   -6.915930   -5.368690
  F      5.406150   -5.899480   -5.512970
  O      3.111910   -6.445080   -6.043790
  O      4.763400   -8.239420   -5.698630
  H      5.279010   -8.354400   -2.903850
  H      4.530000   -7.385770   -1.657340
  H      5.744370   -6.682760   -2.698560

 Total Charge           Charge          ....    0
 Multiplicity           Mult            ....    1
 Number of Electrons    NEL             ....   58
 Basis Dimension        Dim             ....  113

ORBITAL ENERGIES
----------------

  NO   OCC          E(Eh)            E(eV)
   0   2.0000     -89.271545     -2429.2022
   1   2.0000     -24.864230      -676.5901
   2   2.0000     -19.219335      -522.9847
   3   2.0000     -19.208395      -522.6870
   4   2.0000     -10.293899      -280.1112
   5   2.0000     -10.255489      -279.0660
   6   2.0000      -8.240382      -224.2322
   7   2.0000      -6.185725      -168.3221
   8   2.0000      -6.179783      -168.1604
   9   2.0000      -6.178693      -168.1308
  10   2.0000      -1.358152       -36.9572
  11   2.0000      -1.135228       -30.8911
  12   2.0000      -1.036668       -28.2092
  13   2.0000      -0.841929       -22.9101
  14   2.0000      -0.734078       -19.9753
  15   2.0000      -0.686033       -18.6679
  16   2.0000      -0.591257       -16.0889
  17   2.0000      -0.569813       -15.5054
  18   2.0000      -0.555738       -15.1224
  19   2.0000      -0.506819       -13.7912
  20   2.0000      -0.490988       -13.3605
  21   2.0000      -0.465670       -12.6715
  22   2.0000      -0.446130       -12.1398
  23   2.0000      -0.420965       -11.4550
  24   2.0000      -0.414127       -11.2690
  25   2.0000      -0.388395       -10.5688
  26   2.0000      -0.346279        -9.4227
  27   2.0000      -0.334324        -9.0974
  28   2.0000      -0.322410        -8.7732
  29   0.0000       0.026870         0.7312
  30   0.0000       0.065607         1.7852
  31   0.0000       0.089631         2.4390
  32   0.0000       0.100219         2.7271
  33   0.0000       0.105270         2.8646

MULLIKEN ATOMIC CHARGES
-----------------------
   0 C :   -0.053480
   1 C :   -0.198069
   2 H :    0.092867
   3 H :    0.120263
   4 S :    0.975751
   5 F :   -0.225488
   6 O :   -0.462601
   7 O :   -0.436902
   8 H :    0.071006
   9 H :    0.063017
  10 H :    0.053637
Sum of atomic charges:    0.0000000

LOEWDIN ATOMIC CHARGES
----------------------
   0 C :   -0.070332
   1 C :   -0.158867
   2 H :    0.040618
   3 H :    0.060499
   4 S :    1.163431
   5 F :   -0.169581
   6 O :   -0.500601
   7 O :   -0.473632
   8 H :    0.037063
   9 H :    0.040638
  10 H :    0.030763

  Mayer bond orders larger than 0.100000
B(  0-C ,  1-C ) :   1.0393 B(  0-C ,  8-H ) :   0.9687 B(  0-C ,  9-H ) :   0.9626
B(  0-C , 10-H ) :   0.9739 B(  1-C ,  2-H ) :   0.9331 B(  1-C ,  3-H ) :   0.9322
B(  1-C ,  4-S ) :   0.9148 B(  4-S ,  5-F ) :   0.9549 B(  4-S ,  6-O ) :   1.7618
B(  4-S ,  7-O ) :   1.7852

Dispersion correction           -0.007821282
FINAL SINGLE POINT ENERGY      -726.771662765734

DIPOLE MOMENT
-------------
                                X             Y             Z
Electronic contribution:      1.29809       2.62838      -8.80421
Nuclear contribution   :     -0.98922      -2.24849      10.35711
                        -----------------------------------------
Total Dipole Moment    :      0.30887       0.37989       1.55289
                        -----------------------------------------
Magnitude (a.u.)       :      1.62825
Magnitude (Debye)      :      4.13868

Rotational constants in cm-1:     0.151436     0.080885     0.078670
Rotational constants in MHz :  4539.936009  2424.868817  2358.476812

                             ****ORCA TERMINATED NORMALLY****
TOTAL RUN TIME: 0 days 0 hours 0 minutes 13 seconds 308 msec
