                         Program Version 5.0.0 -  RELEASE  -
|  1> !PBE0 D3BJ RIJCOSX def2-SVP def2/J TightSCF
|  2> *xyz 0 1
|  3> C          5.55821       -1.99291       -6.21505
|  4> C          4.18188       -2.58967       -6.29891
|  5> C          3.14587       -1.76843       -6.48675
|  6> N          4.01910       -3.86431       -6.22743
|  7> H          4.76849       -4.59115       -5.99077
|  8> H          3.12241       -4.33339       -6.31462
|  9> H          3.28164       -0.77779       -6.56655
| 10> H          2.21255       -2.13419       -6.56225
| 11> C          6.41926       -2.54294       -5.07763
| 12> H          6.03683       -2.19819       -7.17685
| 13> H          5.46761       -0.90737       -6.12797
| 14> H          6.50056       -3.60553       -5.17358
| 15> H          5.96544       -2.30329       -4.13874
| 16> H          7.39438       -2.10494       -5.12457
| 17> *
| 18>
| 19> %MaxCore 64000
| 20>
| 21> %pal nprocs 4
| 22> end
| 23>
| 24> %scf
| 25>   MaxIter 150
| 26> end
| 27>
| 28>
| 29>                          ****END OF INPUT****

CARTESIAN COORDINATES (ANGSTROEM)
---------------------------------
  C      5.558210   -1.992910   -6.215050
  C      4.181880   -2.589670   -6.298910
  C      3.145870   -1.768430   -6.486750
  N      4.019100   -3.864310   -6.227430
  H      4.768490   -4.591150   -5.990770
  H      3.122410   -4.333390   -6.314620
  H      3.281640   -0.777790   -6.566550
  H      2.212550   -2.134190   -6.562250
  C      6.419260   -2.542940   -5.077630
  H      6.036830   -2.198190   -7.176850
  H      5.467610   -0.907370   -6.127970
  H      6.500560   -3.605530   -5.173580
  H      5.965440   -2.303290   -4.138740
  H      7.394380   -2.104940   -5.124570

 Total Charge           Charge          ....    0
 Multiplicity           Mult            ....    1
 Number of Electrons    NEL             ....   40
 Basis Dimension        Dim             ....  115

ORBITAL ENERGIES
----------------

  NO   OCC          E(Eh)            E(eV)
   0   2.0000     -14.396609      -391.7516
   1   2.0000     -10.247677      -278.8535
   2   2.0000     -10.227787      -278.3122
   3   2.0000     -10.219973      -278.0996
   4   2.0000     -10.155137      -276.3353
   5   2.0000      -0.945442       -25.7268
   6   2.0000      -0.790676       -21.5154
   7   2.0000      -0.727487       -19.7959
   8   2.0000      -0.640825       -17.4377
   9   2.0000      -0.592872       -16.1329
  10   2.0000      -0.526570       -14.3287
  11   2.0000      -0.481817       -13.1109
  12   2.0000      -0.453351       -12.3363
  13   2.0000      -0.432337       -11.7645
  14   2.0000      -0.399952       -10.8832
  15   2.0000      -0.390220       -10.6184
  16   2.0000      -0.367416        -9.9979
  17   2.0000      -0.342488        -9.3196
  18   2.0000      -0.336088        -9.1454
  19   2.0000      -0.187009        -5.0888
  20   0.0000       0.052264         1.4222
  21   0.0000       0.071107         1.9349
  22   0.0000       0.101592         2.7645
  23   0.0000       0.105732         2.8771
  24   0.0000       0.132165         3.5964

MULLIKEN ATOMIC CHARGES
-----------------------
   0 C :   -0.007500
   1 C :   -0.127181
   2 C :   -0.064169
   3 N :   -0.127391
   4 H :    0.137482
   5 H :    0.127054
   6 H :   -0.026501
   7 H :   -0.036363
   8 C :   -0.052071
   9 H :    0.046020
  10 H :    0.032525
  11 H :    0.017398
  12 H :    0.043623
  13 H :    0.037074
Sum of atomic charges:    0.0000000

LOEWDIN ATOMIC CHARGES
----------------------
   0 C :   -0.035291
   1 C :   -0.007645
   2 C :   -0.187607
   3 N :   -0.012421
   4 H :    0.092183
   5 H :    0.079277
   6 H :   -0.002122
   7 H :   -0.008624
   8 C :   -0.060734
   9 H :    0.033583
  10 H :    0.037547
  11 H :    0.014981
  12 H :    0.028788
  13 H :    0.028083

  Mayer bond orders larger than 0.100000
B(  0-C ,  1-C ) :   1.0205 B(  0-C ,  8-C ) :   1.0820 B(  0-C ,  9-H ) :   0.9335
B(  0-C , 10-H ) :   0.9357 B(  1-C ,  2-C ) :   1.8375 B(  1-C ,  3-N ) :   1.2649
B(  2-C ,  6-H ) :   0.9419 B(  2-C ,  7-H ) :   0.9543 B(  3-N ,  4-H ) :   0.9437
B(  3-N ,  5-H ) :   0.9478 B(  8-C , 11-H ) :   0.9704 B(  8-C , 12-H ) :   0.9732
B(  8-C , 13-H ) :   0.9674

Dispersion correction           -0.008774511
FINAL SINGLE POINT ENERGY      -212.146884844203

DIPOLE MOMENT
-------------
                                X             Y             Z
Electronic contribution:     -2.01783      -1.14449      -1.02047
Nuclear contribution   :      2.41345       0.31141       1.16343
                        -----------------------------------------
Total Dipole Moment    :      0.39562      -0.83308       0.14297
                        -----------------------------------------
Magnitude (a.u.)       :      0.93326
Magnitude (Debye)      :      2.37217

Rotational constants in cm-1:     0.287957     0.129204     0.097498
Rotational constants in MHz :  8632.737925  3873.424745  2922.919500

                             ****ORCA TERMINATED NORMALLY****
TOTAL RUN TIME: 0 days 0 hours 0 minutes 12 seconds 538 msec
