                         Program Version 5.0.0 -  RELEASE  -
|  1> !PBE0 D3BJ RIJCOSX def2-SVP def2/J TightSCF
|  2> *xyz 0 1
|  3> C          4.93020       -7.37532       -2.64962
|  4> C          3.84189       -6.95161       -3.63283
|  5> H          3.45814       -5.95442       -3.40712
|  6> H          2.98848       -7.64361       -3.56708
|  7> S          4.31812       -6.91593       -5.36869
|  8> O          5.40615       -5.89948       -5.51297
|  9> F          3.11191       -6.44508       -6.04379
| 10> O          4.76340       -8.23942       -5.69863
| 11> H          5.27901       -8.35440       -2.90385
| 12> H          4.53000       -7.38577       -1.65734
| 13> H          5.74437       -6.68276       -2.69856
| 14> *
| 15>
| 16> %MaxCore 64000
| 17>
| 18> %pal nprocs 4
| 19> end
| 20>
| 21> %scf
| 22>   MaxIter 150
| 23> end
| 24>
| 25>
| 26>                          ****END OF INPUT****

CARTESIAN COORDINATES (ANGSTROEM)
---------------------------------
  C      4.930200   -7.375320   -2.649620
  C      3.841890   -6.951610   -3.632830
  H      3.458140   -5.954420   -3.407120
  H      2.988480   -7.643610   -3.567080
  S      4.318120   -6.915930   -5.368690
  O      5.406150   -5.899480   -5.512970
  F      3.111910   -6.445080   -6.043790
  O      4.763400   -8.239420   -5.698630
  H      5.279010   -8.354400   -2.903850
  H      4.530000   -7.385770   -1.657340
  H      5.744370   -6.682760   -2.698560

 Total Charge           Charge          ....    0
 Multiplicity           Mult            ....    1
 Number of Electrons    NEL             ....   58
 Basis Dimension        Dim             ....  113

ORBITAL ENERGIES
----------------

  NO   OCC          E(Eh)            E(eV)
   0   2.0000     -89.272757     -2429.2352
   1   2.0000     -24.879564      -677.0074
   2   2.0000     -19.217872      -522.9449
   3   2.0000     -19.199399      -522.4422
   4   2.0000     -10.294839      -280.1368
   5   2.0000     -10.253875      -279.0221
   6   2.0000      -8.241645      -224.2665
   7   2.0000      -6.187149      -168.3609
   8   2.0000      -6.180927      -168.1916
   9   2.0000      -6.179747      -168.1595
  10   2.0000      -1.386698       -37.7340
  11   2.0000      -1.128134       -30.6981
  12   2.0000      -1.016332       -27.6558
  13   2.0000      -0.841559       -22.9000
  14   2.0000      -0.748438       -20.3660
  15   2.0000      -0.686837       -18.6898
  16   2.0000      -0.594821       -16.1859
  17   2.0000      -0.590206       -16.0603
  18   2.0000      -0.565447       -15.3866
  19   2.0000      -0.508645       -13.8409
  20   2.0000      -0.493102       -13.4180
  21   2.0000      -0.450307       -12.2535
  22   2.0000      -0.444397       -12.0927
  23   2.0000      -0.424094       -11.5402
  24   2.0000      -0.401166       -10.9163
  25   2.0000      -0.391908       -10.6644
  26   2.0000      -0.341670        -9.2973
  27   2.0000      -0.325203        -8.8492
  28   2.0000      -0.307749        -8.3743
  29   0.0000       0.045151         1.2286
  30   0.0000       0.053112         1.4452
  31   0.0000       0.087755         2.3879
  32   0.0000       0.093080         2.5328
  33   0.0000       0.103956         2.8288

MULLIKEN ATOMIC CHARGES
-----------------------
   0 C :   -0.040923
   1 C :   -0.191583
   2 H :    0.089449
   3 H :    0.089466
   4 S :    0.967413
   5 O :   -0.491732
   6 F :   -0.193966
   7 O :   -0.434199
   8 H :    0.070727
   9 H :    0.062927
  10 H :    0.072423
Sum of atomic charges:   -0.0000000

LOEWDIN ATOMIC CHARGES
----------------------
   0 C :   -0.055189
   1 C :   -0.163199
   2 H :    0.039162
   3 H :    0.040674
   4 S :    1.159262
   5 O :   -0.533700
   6 F :   -0.134748
   7 O :   -0.472295
   8 H :    0.039043
   9 H :    0.041306
  10 H :    0.039685

  Mayer bond orders larger than 0.100000
B(  0-C ,  1-C ) :   1.0638 B(  0-C ,  8-H ) :   0.9694 B(  0-C ,  9-H ) :   0.9637
B(  0-C , 10-H ) :   0.9701 B(  1-C ,  2-H ) :   0.9290 B(  1-C ,  3-H ) :   0.9263
B(  1-C ,  4-S ) :   0.9114 B(  4-S ,  5-O ) :   1.7222 B(  4-S ,  6-F ) :   0.9944
B(  4-S ,  7-O ) :   1.7817

Dispersion correction           -0.007853653
FINAL SINGLE POINT ENERGY      -726.759187324653

DIPOLE MOMENT
-------------
                                X             Y             Z
Electronic contribution:     -2.58840       1.70239      -9.70964
Nuclear contribution   :      1.40145      -1.67996      10.91024
                        -----------------------------------------
Total Dipole Moment    :     -1.18695       0.02243       1.20060
                        -----------------------------------------
Magnitude (a.u.)       :      1.68843
Magnitude (Debye)      :      4.29164

Rotational constants in cm-1:     0.155875     0.079864     0.077188
Rotational constants in MHz :  4673.017506  2394.277415  2314.027118

                             ****ORCA TERMINATED NORMALLY****
TOTAL RUN TIME: 0 days 0 hours 0 minutes 13 seconds 660 msec
