                         Program Version 5.0.0 -  RELEASE  -
|  1> !PBE0 D3BJ RIJCOSX def2-SVP def2/J TightSCF
|  2> *xyz 0 1
|  3> C          5.55821       -1.99291       -6.21505
|  4> C          4.18188       -2.58967       -6.29891
|  5> N          3.14587       -1.76843       -6.48675
|  6> C          4.01910       -3.86431       -6.22743
|  7> H          4.76849       -4.59115       -5.99077
|  8> H          3.12241       -4.33339       -6.31462
|  9> H          3.28164       -0.77779       -6.56655
| 10> H          2.21255       -2.13419       -6.56225
| 11> C          6.41926       -2.54294       -5.07763
| 12> H          6.03683       -2.19819       -7.17685
| 13> H          5.46761       -0.90737       -6.12797
| 14> H          6.50056       -3.60553       -5.17358
| 15> H          5.96544       -2.30329       -4.13874
| 16> H          7.39438       -2.10494       -5.12457
| 17> *
| 18>
| 19> %MaxCore 64000
| 20>
| 21> %pal nprocs 4
| 22> end
| 23>
| 24> %scf
| 25>   MaxIter 150
| 26> end
| 27>
| 28>
| 29>                          ****END OF INPUT****

CARTESIAN COORDINATES (ANGSTROEM)
---------------------------------
  C      5.558210   -1.992910   -6.215050
  C      4.181880   -2.589670   -6.298910
  N      3.145870   -1.768430   -6.486750
  C      4.019100   -3.864310   -6.227430
  H      4.768490   -4.591150   -5.990770
  H      3.122410   -4.333390   -6.314620
  H      3.281640   -0.777790   -6.566550
  H      2.212550   -2.134190   -6.562250
  C      6.419260   -2.542940   -5.077630
  H      6.036830   -2.198190   -7.176850
  H      5.467610   -0.907370   -6.127970
  H      6.500560   -3.605530   -5.173580
  H      5.965440   -2.303290   -4.138740
  H      7.394380   -2.104940   -5.124570

 Total Charge           Charge          ....    0
 Multiplicity           Mult            ....    1
 Number of Electrons    NEL             ....   40
 Basis Dimension        Dim             ....  115

ORBITAL ENERGIES
----------------

  NO   OCC          E(Eh)            E(eV)
   0   2.0000     -14.384913      -391.4334
   1   2.0000     -10.245364      -278.7905
   2   2.0000     -10.228999      -278.3452
   3   2.0000     -10.213307      -277.9182
   4   2.0000     -10.162381      -276.5324
   5   2.0000      -0.934504       -25.4292
   6   2.0000      -0.793715       -21.5981
   7   2.0000      -0.723446       -19.6860
   8   2.0000      -0.651346       -17.7240
   9   2.0000      -0.566803       -15.4235
  10   2.0000      -0.531750       -14.4697
  11   2.0000      -0.495641       -13.4871
  12   2.0000      -0.457509       -12.4494
  13   2.0000      -0.427482       -11.6324
  14   2.0000      -0.394251       -10.7281
  15   2.0000      -0.379919       -10.3381
  16   2.0000      -0.359630        -9.7860
  17   2.0000      -0.343483        -9.3467
  18   2.0000      -0.332480        -9.0472
  19   2.0000      -0.194994        -5.3060
  20   0.0000       0.065184         1.7737
  21   0.0000       0.072648         1.9768
  22   0.0000       0.104438         2.8419
  23   0.0000       0.111802         3.0423
  24   0.0000       0.132796         3.6136

MULLIKEN ATOMIC CHARGES
-----------------------
   0 C :   -0.012028
   1 C :   -0.072272
   2 N :   -0.128546
   3 C :   -0.135097
   4 H :    0.006762
   5 H :   -0.026879
   6 H :    0.114510
   7 H :    0.119648
   8 C :   -0.045657
   9 H :    0.057766
  10 H :    0.009153
  11 H :    0.044275
  12 H :    0.039118
  13 H :    0.029248
Sum of atomic charges:   -0.0000000

LOEWDIN ATOMIC CHARGES
----------------------
   0 C :   -0.037747
   1 C :   -0.000607
   2 N :   -0.014249
   3 C :   -0.187313
   4 H :    0.015939
   5 H :   -0.003168
   6 H :    0.065626
   7 H :    0.074311
   8 C :   -0.050747
   9 H :    0.040962
  10 H :    0.019311
  11 H :    0.026617
  12 H :    0.027447
  13 H :    0.023618

  Mayer bond orders larger than 0.100000
B(  0-C ,  1-C ) :   0.9901 B(  0-C ,  8-C ) :   1.1011 B(  0-C ,  9-H ) :   0.9350
B(  0-C , 10-H ) :   0.9381 B(  1-C ,  2-N ) :   1.2491 B(  1-C ,  3-C ) :   1.8727
B(  2-N ,  6-H ) :   0.9521 B(  2-N ,  7-H ) :   0.9509 B(  3-C ,  4-H ) :   0.9569
B(  3-C ,  5-H ) :   0.9527 B(  8-C , 11-H ) :   0.9713 B(  8-C , 12-H ) :   0.9747
B(  8-C , 13-H ) :   0.9664

Dispersion correction           -0.008802735
FINAL SINGLE POINT ENERGY      -212.156450160773

DIPOLE MOMENT
-------------
                                X             Y             Z
Electronic contribution:     -2.83842       0.86198      -1.30384
Nuclear contribution   :      2.61570      -0.17401       1.22349
                        -----------------------------------------
Total Dipole Moment    :     -0.22272       0.68797      -0.08034
                        -----------------------------------------
Magnitude (a.u.)       :      0.72757
Magnitude (Debye)      :      1.84934

Rotational constants in cm-1:     0.298189     0.125314     0.096441
Rotational constants in MHz :  8939.495008  3756.825352  2891.223400

                             ****ORCA TERMINATED NORMALLY****
TOTAL RUN TIME: 0 days 0 hours 0 minutes 14 seconds 89 msec
