                         Program Version 5.0.0 -  RELEASE  -
|  1> !PBE0 D3BJ RIJCOSX def2-SVP def2/J TightSCF
|  2> *xyz 0 1
|  3> C          4.93020       -7.37532       -2.64962
|  4> C          3.84189       -6.95161       -3.63283
|  5> H          3.45814       -5.95442       -3.40712
|  6> H          2.98848       -7.64361       -3.56708
|  7> S          4.31812       -6.91593       -5.36869
|  8> O          5.40615       -5.89948       -5.51297
|  9> O          3.11191       -6.44508       -6.04379
| 10> F          4.76340       -8.23942       -5.69863
| 11> H          5.27901       -8.35440       -2.90385
| 12> H          4.53000       -7.38577       -1.65734
| 13> H          5.74437       -6.68276       -2.69856
| 14> *
| 15>
| 16> %MaxCore 64000
| 17>
| 18> %pal nprocs 4
| 19> end
| 20>
| 21> %scf
| 22>   MaxIter 150
| 23> end
| 24>
| 25>
| 26>                          ****END OF INPUT****

CARTESIAN COORDINATES (ANGSTROEM)
---------------------------------
  C      4.930200   -7.375320   -2.649620
  C      3.841890   -6.951610   -3.632830
  H      3.458140   -5.954420   -3.407120
  H      2.988480   -7.643610   -3.567080
  S      4.318120   -6.915930   -5.368690
  O      5.406150   -5.899480   -5.512970
  O      3.111910   -6.445080   -6.043790
  F      4.763400   -8.239420   -5.698630
  H      5.279010   -8.354400   -2.903850
  H      4.530000   -7.385770   -1.657340
  H      5.744370   -6.682760   -2.698560

 Total Charge           Charge          ....    0
 Multiplicity           Mult            ....    1
 Number of Electrons    NEL             ....   58
 Basis Dimension        Dim             ....  113

ORBITAL ENERGIES
----------------

  NO   OCC          E(Eh)            E(eV)
   0   2.0000     -89.273732     -2429.2618
   1   2.0000     -24.893248      -677.3797
   2   2.0000     -19.208046      -522.6775
   3   2.0000     -19.200510      -522.4724
   4   2.0000     -10.294850      -280.1371
   5   2.0000     -10.256426      -279.0916
   6   2.0000      -8.242692      -224.2951
   7   2.0000      -6.188473      -168.3969
   8   2.0000      -6.181686      -168.2122
   9   2.0000      -6.180659      -168.1843
  10   2.0000      -1.409449       -38.3530
  11   2.0000      -1.116271       -30.3753
  12   2.0000      -1.008530       -27.4435
  13   2.0000      -0.844265       -22.9736
  14   2.0000      -0.752284       -20.4707
  15   2.0000      -0.697250       -18.9731
  16   2.0000      -0.615512       -16.7489
  17   2.0000      -0.604940       -16.4613
  18   2.0000      -0.559886       -15.2353
  19   2.0000      -0.507290       -13.8041
  20   2.0000      -0.489760       -13.3270
  21   2.0000      -0.462043       -12.5728
  22   2.0000      -0.440054       -11.9745
  23   2.0000      -0.421331       -11.4650
  24   2.0000      -0.408779       -11.1234
  25   2.0000      -0.380963       -10.3665
  26   2.0000      -0.332435        -9.0460
  27   2.0000      -0.324547        -8.8314
  28   2.0000      -0.301904        -8.2152
  29   0.0000       0.033841         0.9208
  30   0.0000       0.062205         1.6927
  31   0.0000       0.084037         2.2868
  32   0.0000       0.098529         2.6811
  33   0.0000       0.100943         2.7468

MULLIKEN ATOMIC CHARGES
-----------------------
   0 C :   -0.053284
   1 C :   -0.195163
   2 H :    0.119514
   3 H :    0.092628
   4 S :    0.960860
   5 O :   -0.487266
   6 O :   -0.455477
   7 F :   -0.168702
   8 H :    0.050102
   9 H :    0.063718
  10 H :    0.073071
Sum of atomic charges:    0.0000000

LOEWDIN ATOMIC CHARGES
----------------------
   0 C :   -0.070556
   1 C :   -0.158662
   2 H :    0.058734
   3 H :    0.041762
   4 S :    1.155447
   5 O :   -0.529667
   6 O :   -0.495320
   7 F :   -0.109869
   8 H :    0.029337
   9 H :    0.040902
  10 H :    0.037892

  Mayer bond orders larger than 0.100000
B(  0-C ,  1-C ) :   1.0382 B(  0-C ,  8-H ) :   0.9730 B(  0-C ,  9-H ) :   0.9625
B(  0-C , 10-H ) :   0.9691 B(  1-C ,  2-H ) :   0.9337 B(  1-C ,  3-H ) :   0.9299
B(  1-C ,  4-S ) :   0.9110 B(  4-S ,  5-O ) :   1.7198 B(  4-S ,  6-O ) :   1.7562
B(  4-S ,  7-F ) :   1.0202

Dispersion correction           -0.007814948
FINAL SINGLE POINT ENERGY      -726.746989979204

DIPOLE MOMENT
-------------
                                X             Y             Z
Electronic contribution:      0.20540      -1.31920      -9.12747
Nuclear contribution   :     -0.31946       0.18980      10.55057
                        -----------------------------------------
Total Dipole Moment    :     -0.11406      -1.12941       1.42310
                        -----------------------------------------
Magnitude (a.u.)       :      1.82038
Magnitude (Debye)      :      4.62704

Rotational constants in cm-1:     0.151421     0.081183     0.078684
Rotational constants in MHz :  4539.489207  2433.790160  2358.892966

                             ****ORCA TERMINATED NORMALLY****
TOTAL RUN TIME: 0 days 0 hours 0 minutes 12 seconds 631 msec
