                         Program Version 5.0.0 -  RELEASE  -
|  1> !PBE0 D3BJ RIJCOSX def2-TZVP def2/J TightSCF xyzfile
|  2>
|  3> *xyzfile 0 1 D3.xyz
|  4>
|  5> %MaxCore 64000
|  6>
|  7> %pal nprocs 18
|  8> end
|  9>
| 10> %scf
| 11>   MaxIter 150
| 12> end
| 13>
| 14>
| 15>                          ****END OF INPUT****

CARTESIAN COORDINATES (ANGSTROEM)
---------------------------------
  C      5.558206   -1.992914   -6.215054
  C      4.930199   -7.375319   -2.649623
  C      3.841892   -6.951611   -3.632829
  H      3.458144   -5.954425   -3.407121
  H      2.988484   -7.643606   -3.567078
  S      4.318115   -6.915930   -5.368692
  C      4.181880   -2.589671   -6.298911
  C      3.145873   -1.768431   -6.486753
  N      4.019102   -3.864307   -6.227427
  H      4.768490   -4.591153   -5.990773
  H      3.122405   -4.333392   -6.314620
  H      3.281635   -0.777786   -6.566549
  H      2.212549   -2.134193   -6.562246
  O      5.406154   -5.899480   -5.512972
  F      3.111910   -6.445079   -6.043792
  C      6.419260   -2.542944   -5.077630
  C      5.872267   -5.002756   -2.427819
  C      6.173994   -6.485522   -2.606315
  H      6.734852   -6.613767   -3.534015
  H      6.821463   -6.831018   -1.793617
  H      4.469612   -7.406168   -1.655876
  H      5.230134   -8.398678   -2.885906
  C      5.896512   -2.169314   -3.694552
  H      7.428880   -2.143665   -5.208078
  H      6.505894   -3.627541   -5.175502
  C      6.807804   -2.623428   -2.551019
  H      4.894708   -2.589732   -3.557501
  H      5.778823   -1.081255   -3.635790
  C      7.111544   -4.122463   -2.520363
  H      7.751615   -2.071393   -2.614406
  H      6.345837   -2.326401   -1.604086
  H      5.362882   -4.828697   -1.471335
  H      5.174429   -4.702577   -3.211298
  H      7.778329   -4.329347   -1.677651
  H      7.673189   -4.402845   -3.417586
  O      4.763396   -8.239424   -5.698629
  H      6.036826   -2.198189   -7.176852
  H      5.467610   -0.907371   -6.127968

 Total Charge           Charge          ....    0
 Multiplicity           Mult            ....    1
 Number of Electrons    NEL             ....  136
 Basis Dimension        Dim             ....  634

ORBITAL ENERGIES
----------------

  NO   OCC          E(Eh)            E(eV)
   0   2.0000     -89.288586     -2429.6659
   1   2.0000     -24.909435      -677.8202
   2   2.0000     -19.245681      -523.7016
   3   2.0000     -19.239196      -523.5251
   4   2.0000     -14.353612      -390.5816
   5   2.0000     -10.299493      -280.2635
   6   2.0000     -10.259771      -279.1826
   7   2.0000     -10.229437      -278.3571
   8   2.0000     -10.224217      -278.2151
   9   2.0000     -10.219832      -278.0958
  10   2.0000     -10.214045      -277.9383
  11   2.0000     -10.210512      -277.8421
  12   2.0000     -10.205081      -277.6944
  13   2.0000     -10.204559      -277.6802
  14   2.0000     -10.204373      -277.6751
  15   2.0000     -10.130211      -275.6570
  16   2.0000      -8.234828      -224.0811
  17   2.0000      -6.175122      -168.0336
  18   2.0000      -6.168923      -167.8649
  19   2.0000      -6.168572      -167.8554
  20   2.0000      -1.428415       -38.8691
  21   2.0000      -1.162443       -31.6317
  22   2.0000      -1.067723       -29.0542
  23   2.0000      -0.937412       -25.5083
  24   2.0000      -0.874485       -23.7959
  25   2.0000      -0.836039       -22.7498
  26   2.0000      -0.810583       -22.0571
  27   2.0000      -0.782127       -21.2828
  28   2.0000      -0.759424       -20.6650
  29   2.0000      -0.730841       -19.8872
  30   2.0000      -0.709780       -19.3141
  31   2.0000      -0.673906       -18.3379
  32   2.0000      -0.639870       -17.4118
  33   2.0000      -0.628929       -17.1140
  34   2.0000      -0.619746       -16.8642
  35   2.0000      -0.609909       -16.5965
  36   2.0000      -0.595523       -16.2050
  37   2.0000      -0.576875       -15.6976
  38   2.0000      -0.567928       -15.4541
  39   2.0000      -0.535287       -14.5659
  40   2.0000      -0.520776       -14.1710
  41   2.0000      -0.511352       -13.9146
  42   2.0000      -0.496287       -13.5046
  43   2.0000      -0.481622       -13.1056
  44   2.0000      -0.473975       -12.8975
  45   2.0000      -0.470185       -12.7944
  46   2.0000      -0.460009       -12.5175
  47   2.0000      -0.444692       -12.1007
  48   2.0000      -0.436103       -11.8670
  49   2.0000      -0.431480       -11.7412
  50   2.0000      -0.425408       -11.5759
  51   2.0000      -0.415781       -11.3140
  52   2.0000      -0.403497       -10.9797
  53   2.0000      -0.396749       -10.7961
  54   2.0000      -0.385261       -10.4835
  55   2.0000      -0.375281       -10.2119
  56   2.0000      -0.372656       -10.1405
  57   2.0000      -0.369690       -10.0598
  58   2.0000      -0.362129        -9.8540
  59   2.0000      -0.349383        -9.5072
  60   2.0000      -0.344075        -9.3628
  61   2.0000      -0.341093        -9.2816
  62   2.0000      -0.337019        -9.1707
  63   2.0000      -0.328015        -8.9257
  64   2.0000      -0.320087        -8.7100
  65   2.0000      -0.313212        -8.5229
  66   2.0000      -0.309707        -8.4276
  67   2.0000      -0.177019        -4.8169
  68   0.0000       0.006820         0.1856
  69   0.0000       0.019074         0.5190
  70   0.0000       0.043005         1.1702
  71   0.0000       0.050069         1.3624
  72   0.0000       0.052096         1.4176

MULLIKEN ATOMIC CHARGES
-----------------------
   0 C :   -0.134530
   1 C :   -0.180582
   2 C :   -0.307651
   3 H :    0.175015
   4 H :    0.167659
   5 S :    0.860799
   6 C :    0.148964
   7 C :   -0.462306
   8 N :   -0.477137
   9 H :    0.287480
  10 H :    0.206177
  11 H :    0.101835
  12 H :    0.082518
  13 O :   -0.449254
  14 F :   -0.101888
  15 C :   -0.278205
  16 C :   -0.265505
  17 C :   -0.211987
  18 H :    0.141691
  19 H :    0.111146
  20 H :    0.123885
  21 H :    0.142807
  22 C :   -0.229220
  23 H :    0.097657
  24 H :    0.134376
  25 C :   -0.134044
  26 H :    0.124945
  27 H :    0.099935
  28 C :   -0.205907
  29 H :    0.100966
  30 H :    0.094516
  31 H :    0.097234
  32 H :    0.090156
  33 H :    0.101248
  34 H :    0.118043
  35 O :   -0.379484
  36 H :    0.107719
  37 H :    0.100930
Sum of atomic charges:   -0.0000000

LOEWDIN ATOMIC CHARGES
----------------------
   0 C :   -0.212650
   1 C :   -0.276879
   2 C :   -0.373615
   3 H :    0.144681
   4 H :    0.148386
   5 S :    0.570482
   6 C :   -0.386459
   7 C :   -0.300591
   8 N :   -0.017640
   9 H :    0.148628
  10 H :    0.155422
  11 H :    0.096904
  12 H :    0.090297
  13 O :   -0.274901
  14 F :    0.089200
  15 C :   -0.269450
  16 C :   -0.274610
  17 C :   -0.273472
  18 H :    0.144509
  19 H :    0.141425
  20 H :    0.152045
  21 H :    0.149270
  22 C :   -0.269546
  23 H :    0.137961
  24 H :    0.137300
  25 C :   -0.271182
  26 H :    0.139200
  27 H :    0.139492
  28 C :   -0.270884
  29 H :    0.137795
  30 H :    0.136154
  31 H :    0.135932
  32 H :    0.134340
  33 H :    0.136383
  34 H :    0.140762
  35 O :   -0.231422
  36 H :    0.147004
  37 H :    0.149732

  Mayer bond orders larger than 0.100000
B(  0-C ,  6-C ) :   1.0041 B(  0-C , 15-C ) :   0.9784 B(  0-C , 36-H ) :   0.9433
B(  0-C , 37-H ) :   0.9667 B(  1-C ,  2-C ) :   0.9904 B(  1-C , 17-C ) :   1.0188
B(  1-C , 20-H ) :   0.9398 B(  1-C , 21-H ) :   0.9520 B(  2-C ,  3-H ) :   0.9272
B(  2-C ,  4-H ) :   0.9275 B(  2-C ,  5-S ) :   0.9218 B(  5-S , 13-O ) :   1.7216
B(  5-S , 14-F ) :   1.1190 B(  5-S , 35-O ) :   1.9918 B(  6-C ,  7-C ) :   1.7403
B(  6-C ,  8-N ) :   1.2617 B(  7-C , 11-H ) :   0.9848 B(  7-C , 12-H ) :   0.9825
B(  8-N ,  9-H ) :   0.8011 B(  8-N , 10-H ) :   0.9099 B(  9-H , 13-O ) :   0.1136
B( 15-C , 22-C ) :   0.9879 B( 15-C , 23-H ) :   0.9494 B( 15-C , 24-H ) :   0.9747
B( 16-C , 17-C ) :   0.9815 B( 16-C , 28-C ) :   1.0223 B( 16-C , 31-H ) :   0.9504
B( 16-C , 32-H ) :   0.9580 B( 17-C , 18-H ) :   0.9598 B( 17-C , 19-H ) :   0.9577
B( 22-C , 25-C ) :   0.9958 B( 22-C , 26-H ) :   0.9732 B( 22-C , 27-H ) :   0.9531
B( 25-C , 28-C ) :   0.9902 B( 25-C , 29-H ) :   0.9592 B( 25-C , 30-H ) :   0.9620
B( 28-C , 33-H ) :   0.9545 B( 28-C , 34-H ) :   0.9673

Dispersion correction           -0.040555848
FINAL SINGLE POINT ENERGY     -1134.945637551999

DIPOLE MOMENT
-------------
                                X             Y             Z
Electronic contribution:    -10.97343     -20.07728     -14.24469
Nuclear contribution   :     10.48431      18.81367      15.71750
                        -----------------------------------------
Total Dipole Moment    :     -0.48911      -1.26361       1.47281
                        -----------------------------------------
Magnitude (a.u.)       :      2.00128
Magnitude (Debye)      :      5.08685

Rotational constants in cm-1:     0.017977     0.012528     0.008321
Rotational constants in MHz :   538.924099   375.570730   249.458530

                             ****ORCA TERMINATED NORMALLY****
TOTAL RUN TIME: 0 days 0 hours 1 minutes 37 seconds 921 msec
