                         Program Version 5.0.0 -  RELEASE  -
|  1> !PBE0 D3BJ RIJCOSX def2-TZVP def2/J TightSCF xyzfile
|  2>
|  3> *xyzfile 0 1 D4.xyz
|  4>
|  5> %MaxCore 64000
|  6>
|  7> %pal nprocs 18
|  8> end
|  9>
| 10> %scf
| 11>   MaxIter 150
| 12> end
| 13>
| 14>
| 15>                          ****END OF INPUT****

CARTESIAN COORDINATES (ANGSTROEM)
---------------------------------
  C      5.558206   -1.992914   -6.215054
  C      4.930199   -7.375319   -2.649623
  C      3.841892   -6.951611   -3.632829
  H      3.458144   -5.954425   -3.407121
  H      2.988484   -7.643606   -3.567078
  S      4.318115   -6.915930   -5.368692
  C      4.181880   -2.589671   -6.298911
  N      3.145873   -1.768431   -6.486753
  C      4.019102   -3.864307   -6.227427
  H      4.768490   -4.591153   -5.990773
  H      3.122405   -4.333392   -6.314620
  H      3.281635   -0.777786   -6.566549
  H      2.212549   -2.134193   -6.562246
  O      5.406154   -5.899480   -5.512972
  F      3.111910   -6.445079   -6.043792
  C      6.419260   -2.542944   -5.077630
  C      5.872267   -5.002756   -2.427819
  C      6.173994   -6.485522   -2.606315
  H      6.734852   -6.613767   -3.534015
  H      6.821463   -6.831018   -1.793617
  H      4.469612   -7.406168   -1.655876
  H      5.230134   -8.398678   -2.885906
  C      5.896512   -2.169314   -3.694552
  H      7.428880   -2.143665   -5.208078
  H      6.505894   -3.627541   -5.175502
  C      6.807804   -2.623428   -2.551019
  H      4.894708   -2.589732   -3.557501
  H      5.778823   -1.081255   -3.635790
  C      7.111544   -4.122463   -2.520363
  H      7.751615   -2.071393   -2.614406
  H      6.345837   -2.326401   -1.604086
  H      5.362882   -4.828697   -1.471335
  H      5.174429   -4.702577   -3.211298
  H      7.778329   -4.329347   -1.677651
  H      7.673189   -4.402845   -3.417586
  O      4.763396   -8.239424   -5.698629
  H      6.036826   -2.198189   -7.176852
  H      5.467610   -0.907371   -6.127968

 Total Charge           Charge          ....    0
 Multiplicity           Mult            ....    1
 Number of Electrons    NEL             ....  136
 Basis Dimension        Dim             ....  634

ORBITAL ENERGIES
----------------

  NO   OCC          E(Eh)            E(eV)
   0   2.0000     -89.264555     -2429.0120
   1   2.0000     -24.882986      -677.1005
   2   2.0000     -19.223699      -523.1034
   3   2.0000     -19.208093      -522.6788
   4   2.0000     -14.367410      -390.9571
   5   2.0000     -10.282575      -279.8031
   6   2.0000     -10.247126      -278.8385
   7   2.0000     -10.223909      -278.2067
   8   2.0000     -10.218560      -278.0611
   9   2.0000     -10.210429      -277.8399
  10   2.0000     -10.208015      -277.7742
  11   2.0000     -10.207745      -277.7669
  12   2.0000     -10.206918      -277.7444
  13   2.0000     -10.202331      -277.6195
  14   2.0000     -10.201997      -277.6105
  15   2.0000     -10.120784      -275.4005
  16   2.0000      -8.210585      -223.4214
  17   2.0000      -6.150733      -167.3700
  18   2.0000      -6.144670      -167.2050
  19   2.0000      -6.144578      -167.2025
  20   2.0000      -1.402073       -38.1524
  21   2.0000      -1.138273       -30.9740
  22   2.0000      -1.040426       -28.3114
  23   2.0000      -0.937571       -25.5126
  24   2.0000      -0.859777       -23.3957
  25   2.0000      -0.830494       -22.5989
  26   2.0000      -0.802755       -21.8441
  27   2.0000      -0.777695       -21.1622
  28   2.0000      -0.744557       -20.2604
  29   2.0000      -0.725844       -19.7512
  30   2.0000      -0.699943       -19.0464
  31   2.0000      -0.670287       -18.2394
  32   2.0000      -0.635415       -17.2905
  33   2.0000      -0.615625       -16.7520
  34   2.0000      -0.601075       -16.3561
  35   2.0000      -0.585308       -15.9270
  36   2.0000      -0.581316       -15.8184
  37   2.0000      -0.567606       -15.4454
  38   2.0000      -0.553720       -15.0675
  39   2.0000      -0.527487       -14.3537
  40   2.0000      -0.509271       -13.8580
  41   2.0000      -0.506001       -13.7690
  42   2.0000      -0.491849       -13.3839
  43   2.0000      -0.480379       -13.0718
  44   2.0000      -0.470355       -12.7990
  45   2.0000      -0.461854       -12.5677
  46   2.0000      -0.456435       -12.4202
  47   2.0000      -0.438481       -11.9317
  48   2.0000      -0.427114       -11.6224
  49   2.0000      -0.421666       -11.4741
  50   2.0000      -0.418924       -11.3995
  51   2.0000      -0.405094       -11.0232
  52   2.0000      -0.398983       -10.8569
  53   2.0000      -0.381305       -10.3758
  54   2.0000      -0.375967       -10.2306
  55   2.0000      -0.368739       -10.0339
  56   2.0000      -0.361690        -9.8421
  57   2.0000      -0.353320        -9.6143
  58   2.0000      -0.350000        -9.5240
  59   2.0000      -0.346092        -9.4176
  60   2.0000      -0.333970        -9.0878
  61   2.0000      -0.332541        -9.0489
  62   2.0000      -0.330784        -9.0011
  63   2.0000      -0.317477        -8.6390
  64   2.0000      -0.312759        -8.5106
  65   2.0000      -0.309201        -8.4138
  66   2.0000      -0.280975        -7.6457
  67   2.0000      -0.187109        -5.0915
  68   0.0000       0.030045         0.8176
  69   0.0000       0.031440         0.8555
  70   0.0000       0.047448         1.2911
  71   0.0000       0.049429         1.3450
  72   0.0000       0.057016         1.5515

MULLIKEN ATOMIC CHARGES
-----------------------
   0 C :   -0.129581
   1 C :   -0.175155
   2 C :   -0.305047
   3 H :    0.170964
   4 H :    0.158832
   5 S :    0.859837
   6 C :    0.142090
   7 N :   -0.452781
   8 C :   -0.503985
   9 H :    0.193895
  10 H :    0.068014
  11 H :    0.222865
  12 H :    0.221590
  13 O :   -0.437320
  14 F :   -0.095533
  15 C :   -0.253936
  16 C :   -0.267491
  17 C :   -0.212411
  18 H :    0.141906
  19 H :    0.104976
  20 H :    0.117781
  21 H :    0.138183
  22 C :   -0.239091
  23 H :    0.091457
  24 H :    0.144204
  25 C :   -0.129461
  26 H :    0.128325
  27 H :    0.090444
  28 C :   -0.206045
  29 H :    0.098644
  30 H :    0.091618
  31 H :    0.090963
  32 H :    0.111568
  33 H :    0.097948
  34 H :    0.118565
  35 O :   -0.392115
  36 H :    0.117772
  37 H :    0.077510
Sum of atomic charges:    0.0000000

LOEWDIN ATOMIC CHARGES
----------------------
   0 C :   -0.214363
   1 C :   -0.278307
   2 C :   -0.374933
   3 H :    0.143674
   4 H :    0.145316
   5 S :    0.568376
   6 C :   -0.378723
   7 N :   -0.011377
   8 C :   -0.318926
   9 H :    0.099640
  10 H :    0.087860
  11 H :    0.157900
  12 H :    0.164324
  13 O :   -0.269540
  14 F :    0.095716
  15 C :   -0.258418
  16 C :   -0.274352
  17 C :   -0.273874
  18 H :    0.145117
  19 H :    0.139371
  20 H :    0.149517
  21 H :    0.148292
  22 C :   -0.271292
  23 H :    0.136439
  24 H :    0.145592
  25 C :   -0.271673
  26 H :    0.139277
  27 H :    0.135195
  28 C :   -0.270781
  29 H :    0.136832
  30 H :    0.135427
  31 H :    0.134242
  32 H :    0.138638
  33 H :    0.135560
  34 H :    0.141242
  35 O :   -0.244237
  36 H :    0.152400
  37 H :    0.134850

  Mayer bond orders larger than 0.100000
B(  0-C ,  6-C ) :   0.9815 B(  0-C , 15-C ) :   0.9985 B(  0-C , 36-H ) :   0.9415
B(  0-C , 37-H ) :   0.9611 B(  1-C ,  2-C ) :   0.9924 B(  1-C , 17-C ) :   1.0206
B(  1-C , 20-H ) :   0.9418 B(  1-C , 21-H ) :   0.9515 B(  2-C ,  3-H ) :   0.9306
B(  2-C ,  4-H ) :   0.9292 B(  2-C ,  5-S ) :   0.9200 B(  5-S , 13-O ) :   1.7604
B(  5-S , 14-F ) :   1.1318 B(  5-S , 35-O ) :   1.9791 B(  6-C ,  7-N ) :   1.1675
B(  6-C ,  8-C ) :   1.8263 B(  7-N , 11-H ) :   0.9167 B(  7-N , 12-H ) :   0.9156
B(  8-C ,  9-H ) :   0.9445 B(  8-C , 10-H ) :   0.9588 B( 15-C , 22-C ) :   1.0019
B( 15-C , 23-H ) :   0.9489 B( 15-C , 24-H ) :   0.9631 B( 16-C , 17-C ) :   0.9873
B( 16-C , 28-C ) :   1.0234 B( 16-C , 31-H ) :   0.9508 B( 16-C , 32-H ) :   0.9565
B( 17-C , 18-H ) :   0.9579 B( 17-C , 19-H ) :   0.9572 B( 22-C , 25-C ) :   1.0018
B( 22-C , 26-H ) :   0.9692 B( 22-C , 27-H ) :   0.9531 B( 25-C , 28-C ) :   0.9913
B( 25-C , 29-H ) :   0.9594 B( 25-C , 30-H ) :   0.9614 B( 28-C , 33-H ) :   0.9548
B( 28-C , 34-H ) :   0.9672

Dispersion correction           -0.040812854
FINAL SINGLE POINT ENERGY     -1134.933315294432

DIPOLE MOMENT
-------------
                                X             Y             Z
Electronic contribution:    -11.73122     -18.13717     -14.68478
Nuclear contribution   :     10.61624      18.49702      15.75668
                        -----------------------------------------
Total Dipole Moment    :     -1.11498       0.35985       1.07189
                        -----------------------------------------
Magnitude (a.u.)       :      1.58796
Magnitude (Debye)      :      4.03628

Rotational constants in cm-1:     0.017796     0.012372     0.008231
Rotational constants in MHz :   533.524905   370.895973   246.762347

                             ****ORCA TERMINATED NORMALLY****
TOTAL RUN TIME: 0 days 0 hours 1 minutes 25 seconds 853 msec
