                         Program Version 5.0.0 -  RELEASE  -
|  1> !PBE0 D3BJ RIJCOSX def2-TZVP def2/J TightSCF xyzfile
|  2>
|  3> *xyzfile 0 1 D5.xyz
|  4>
|  5> %MaxCore 64000
|  6>
|  7> %pal nprocs 18
|  8> end
|  9>
| 10> %scf
| 11>   MaxIter 150
| 12> end
| 13>
| 14>
| 15>                          ****END OF INPUT****

CARTESIAN COORDINATES (ANGSTROEM)
---------------------------------
  C      5.558206   -1.992914   -6.215054
  C      4.930199   -7.375319   -2.649623
  C      3.841892   -6.951611   -3.632829
  H      3.458144   -5.954425   -3.407121
  H      2.988484   -7.643606   -3.567078
  S      4.318115   -6.915930   -5.368692
  C      4.181880   -2.589671   -6.298911
  C      3.145873   -1.768431   -6.486753
  N      4.019102   -3.864307   -6.227427
  H      4.768490   -4.591153   -5.990773
  H      3.122405   -4.333392   -6.314620
  H      3.281635   -0.777786   -6.566549
  H      2.212549   -2.134193   -6.562246
  O      5.406154   -5.899480   -5.512972
  O      3.111910   -6.445079   -6.043792
  C      6.419260   -2.542944   -5.077630
  C      5.872267   -5.002756   -2.427819
  C      6.173994   -6.485522   -2.606315
  H      6.734852   -6.613767   -3.534015
  H      6.821463   -6.831018   -1.793617
  H      4.469612   -7.406168   -1.655876
  H      5.230134   -8.398678   -2.885906
  C      5.896512   -2.169314   -3.694552
  H      7.428880   -2.143665   -5.208078
  H      6.505894   -3.627541   -5.175502
  C      6.807804   -2.623428   -2.551019
  H      4.894708   -2.589732   -3.557501
  H      5.778823   -1.081255   -3.635790
  C      7.111544   -4.122463   -2.520363
  H      7.751615   -2.071393   -2.614406
  H      6.345837   -2.326401   -1.604086
  H      5.362882   -4.828697   -1.471335
  H      5.174429   -4.702577   -3.211298
  H      7.778329   -4.329347   -1.677651
  H      7.673189   -4.402845   -3.417586
  F      4.763396   -8.239424   -5.698629
  H      6.036826   -2.198189   -7.176852
  H      5.467610   -0.907371   -6.127968

 Total Charge           Charge          ....    0
 Multiplicity           Mult            ....    1
 Number of Electrons    NEL             ....  136
 Basis Dimension        Dim             ....  634

ORBITAL ENERGIES
----------------

  NO   OCC          E(Eh)            E(eV)
   0   2.0000     -89.292662     -2429.7769
   1   2.0000     -24.921548      -678.1498
   2   2.0000     -19.241009      -523.5745
   3   2.0000     -19.240566      -523.5624
   4   2.0000     -14.336631      -390.1196
   5   2.0000     -10.301033      -280.3054
   6   2.0000     -10.262163      -279.2476
   7   2.0000     -10.233307      -278.4625
   8   2.0000     -10.220912      -278.1252
   9   2.0000     -10.214170      -277.9417
  10   2.0000     -10.212274      -277.8901
  11   2.0000     -10.208927      -277.7990
  12   2.0000     -10.201046      -277.5846
  13   2.0000     -10.200632      -277.5733
  14   2.0000     -10.196850      -277.4704
  15   2.0000     -10.118410      -275.3359
  16   2.0000      -8.238700      -224.1864
  17   2.0000      -6.178964      -168.1381
  18   2.0000      -6.172917      -167.9736
  19   2.0000      -6.172358      -167.9584
  20   2.0000      -1.447477       -39.3879
  21   2.0000      -1.157206       -31.4892
  22   2.0000      -1.060054       -28.8455
  23   2.0000      -0.922056       -25.0904
  24   2.0000      -0.878350       -23.9011
  25   2.0000      -0.835225       -22.7276
  26   2.0000      -0.808977       -22.0134
  27   2.0000      -0.780398       -21.2357
  28   2.0000      -0.760908       -20.7054
  29   2.0000      -0.729313       -19.8456
  30   2.0000      -0.706530       -19.2257
  31   2.0000      -0.671717       -18.2784
  32   2.0000      -0.645807       -17.5733
  33   2.0000      -0.636982       -17.3332
  34   2.0000      -0.625078       -17.0092
  35   2.0000      -0.610742       -16.6191
  36   2.0000      -0.589867       -16.0511
  37   2.0000      -0.572678       -15.5834
  38   2.0000      -0.562249       -15.2996
  39   2.0000      -0.526904       -14.3378
  40   2.0000      -0.523370       -14.2416
  41   2.0000      -0.516673       -14.0594
  42   2.0000      -0.496074       -13.4989
  43   2.0000      -0.479693       -13.0531
  44   2.0000      -0.474334       -12.9073
  45   2.0000      -0.465453       -12.6656
  46   2.0000      -0.454367       -12.3639
  47   2.0000      -0.444576       -12.0975
  48   2.0000      -0.434861       -11.8332
  49   2.0000      -0.431874       -11.7519
  50   2.0000      -0.417308       -11.3555
  51   2.0000      -0.411660       -11.2018
  52   2.0000      -0.403968       -10.9925
  53   2.0000      -0.389240       -10.5918
  54   2.0000      -0.381100       -10.3702
  55   2.0000      -0.371172       -10.1001
  56   2.0000      -0.369321       -10.0497
  57   2.0000      -0.361362        -9.8332
  58   2.0000      -0.360111        -9.7991
  59   2.0000      -0.350669        -9.5422
  60   2.0000      -0.340484        -9.2650
  61   2.0000      -0.337970        -9.1966
  62   2.0000      -0.332883        -9.0582
  63   2.0000      -0.324942        -8.8421
  64   2.0000      -0.317234        -8.6324
  65   2.0000      -0.307020        -8.3544
  66   2.0000      -0.302687        -8.2365
  67   2.0000      -0.163923        -4.4606
  68   0.0000      -0.001828        -0.0497
  69   0.0000       0.023961         0.6520
  70   0.0000       0.037982         1.0335
  71   0.0000       0.045801         1.2463
  72   0.0000       0.051041         1.3889

MULLIKEN ATOMIC CHARGES
-----------------------
   0 C :   -0.135417
   1 C :   -0.197791
   2 C :   -0.310754
   3 H :    0.193774
   4 H :    0.171756
   5 S :    0.868191
   6 C :    0.148314
   7 C :   -0.473361
   8 N :   -0.454840
   9 H :    0.272868
  10 H :    0.235049
  11 H :    0.097533
  12 H :    0.085114
  13 O :   -0.451894
  14 O :   -0.418707
  15 C :   -0.276625
  16 C :   -0.262761
  17 C :   -0.200658
  18 H :    0.127950
  19 H :    0.112426
  20 H :    0.124843
  21 H :    0.131137
  22 C :   -0.230010
  23 H :    0.094803
  24 H :    0.128981
  25 C :   -0.133712
  26 H :    0.127935
  27 H :    0.099674
  28 C :   -0.206861
  29 H :    0.100121
  30 H :    0.094218
  31 H :    0.099332
  32 H :    0.095464
  33 H :    0.100542
  34 H :    0.117035
  35 F :   -0.076191
  36 H :    0.104070
  37 H :    0.098449
Sum of atomic charges:   -0.0000000

LOEWDIN ATOMIC CHARGES
----------------------
   0 C :   -0.214148
   1 C :   -0.290015
   2 C :   -0.367010
   3 H :    0.157689
   4 H :    0.149897
   5 S :    0.570937
   6 C :   -0.388806
   7 C :   -0.308158
   8 N :   -0.005082
   9 H :    0.152272
  10 H :    0.166937
  11 H :    0.095212
  12 H :    0.090819
  13 O :   -0.279932
  14 O :   -0.261915
  15 C :   -0.270440
  16 C :   -0.273545
  17 C :   -0.277380
  18 H :    0.139946
  19 H :    0.141070
  20 H :    0.151099
  21 H :    0.141169
  22 C :   -0.269207
  23 H :    0.136796
  24 H :    0.136012
  25 C :   -0.271409
  26 H :    0.140217
  27 H :    0.139648
  28 C :   -0.271172
  29 H :    0.137606
  30 H :    0.135993
  31 H :    0.136642
  32 H :    0.136302
  33 H :    0.135870
  34 H :    0.140380
  35 F :    0.121186
  36 H :    0.145754
  37 H :    0.148766

  Mayer bond orders larger than 0.100000
B(  0-C ,  6-C ) :   1.0044 B(  0-C , 15-C ) :   0.9785 B(  0-C , 36-H ) :   0.9442
B(  0-C , 37-H ) :   0.9666 B(  1-C ,  2-C ) :   0.9776 B(  1-C , 17-C ) :   0.9938
B(  1-C , 20-H ) :   0.9405 B(  1-C , 21-H ) :   0.9636 B(  2-C ,  3-H ) :   0.9290
B(  2-C ,  4-H ) :   0.9353 B(  2-C ,  5-S ) :   0.9185 B(  5-S , 13-O ) :   1.7399
B(  5-S , 14-O ) :   1.8924 B(  5-S , 35-F ) :   1.1745 B(  6-C ,  7-C ) :   1.7268
B(  6-C ,  8-N ) :   1.2757 B(  7-C , 11-H ) :   0.9845 B(  7-C , 12-H ) :   0.9815
B(  8-N ,  9-H ) :   0.8258 B(  8-N , 10-H ) :   0.9001 B(  9-H , 13-O ) :   0.1042
B( 15-C , 22-C ) :   0.9885 B( 15-C , 23-H ) :   0.9496 B( 15-C , 24-H ) :   0.9750
B( 16-C , 17-C ) :   0.9752 B( 16-C , 28-C ) :   1.0211 B( 16-C , 31-H ) :   0.9511
B( 16-C , 32-H ) :   0.9583 B( 17-C , 18-H ) :   0.9637 B( 17-C , 19-H ) :   0.9566
B( 22-C , 25-C ) :   0.9941 B( 22-C , 26-H ) :   0.9737 B( 22-C , 27-H ) :   0.9533
B( 25-C , 28-C ) :   0.9921 B( 25-C , 29-H ) :   0.9589 B( 25-C , 30-H ) :   0.9622
B( 28-C , 33-H ) :   0.9546 B( 28-C , 34-H ) :   0.9669

Dispersion correction           -0.040629550
FINAL SINGLE POINT ENERGY     -1134.937308042767

DIPOLE MOMENT
-------------
                                X             Y             Z
Electronic contribution:     -8.09843     -23.39826     -13.63522
Nuclear contribution   :      8.54118      20.92489      15.31138
                        -----------------------------------------
Total Dipole Moment    :      0.44275      -2.47336       1.67616
                        -----------------------------------------
Magnitude (a.u.)       :      3.02044
Magnitude (Debye)      :      7.67736

Rotational constants in cm-1:     0.018156     0.012306     0.008278
Rotational constants in MHz :   544.309022   368.914527   248.178402

                             ****ORCA TERMINATED NORMALLY****
TOTAL RUN TIME: 0 days 0 hours 1 minutes 22 seconds 902 msec
