                         Program Version 5.0.0 -  RELEASE  -
|  1> !PBE0 D3BJ RIJCOSX def2-TZVP def2/J TightSCF xyzfile
|  2>
|  3> *xyzfile 0 1 D6.xyz
|  4>
|  5> %MaxCore 64000
|  6>
|  7> %pal nprocs 18
|  8> end
|  9>
| 10> %scf
| 11>   MaxIter 150
| 12> end
| 13>
| 14>
| 15>                          ****END OF INPUT****

CARTESIAN COORDINATES (ANGSTROEM)
---------------------------------
  C      5.558206   -1.992914   -6.215054
  C      4.930199   -7.375319   -2.649623
  C      3.841892   -6.951611   -3.632829
  H      3.458144   -5.954425   -3.407121
  H      2.988484   -7.643606   -3.567078
  S      4.318115   -6.915930   -5.368692
  C      4.181880   -2.589671   -6.298911
  N      3.145873   -1.768431   -6.486753
  C      4.019102   -3.864307   -6.227427
  H      4.768490   -4.591153   -5.990773
  H      3.122405   -4.333392   -6.314620
  H      3.281635   -0.777786   -6.566549
  H      2.212549   -2.134193   -6.562246
  O      5.406154   -5.899480   -5.512972
  O      3.111910   -6.445079   -6.043792
  C      6.419260   -2.542944   -5.077630
  C      5.872267   -5.002756   -2.427819
  C      6.173994   -6.485522   -2.606315
  H      6.734852   -6.613767   -3.534015
  H      6.821463   -6.831018   -1.793617
  H      4.469612   -7.406168   -1.655876
  H      5.230134   -8.398678   -2.885906
  C      5.896512   -2.169314   -3.694552
  H      7.428880   -2.143665   -5.208078
  H      6.505894   -3.627541   -5.175502
  C      6.807804   -2.623428   -2.551019
  H      4.894708   -2.589732   -3.557501
  H      5.778823   -1.081255   -3.635790
  C      7.111544   -4.122463   -2.520363
  H      7.751615   -2.071393   -2.614406
  H      6.345837   -2.326401   -1.604086
  H      5.362882   -4.828697   -1.471335
  H      5.174429   -4.702577   -3.211298
  H      7.778329   -4.329347   -1.677651
  H      7.673189   -4.402845   -3.417586
  F      4.763396   -8.239424   -5.698629
  H      6.036826   -2.198189   -7.176852
  H      5.467610   -0.907371   -6.127968

 Total Charge           Charge          ....    0
 Multiplicity           Mult            ....    1
 Number of Electrons    NEL             ....  136
 Basis Dimension        Dim             ....  634

ORBITAL ENERGIES
----------------

  NO   OCC          E(Eh)            E(eV)
   0   2.0000     -89.266865     -2429.0749
   1   2.0000     -24.899012      -677.5366
   2   2.0000     -19.215318      -522.8754
   3   2.0000     -19.211820      -522.7802
   4   2.0000     -14.355327      -390.6283
   5   2.0000     -10.283382      -279.8250
   6   2.0000     -10.249235      -278.8959
   7   2.0000     -10.222160      -278.1591
   8   2.0000     -10.211274      -277.8629
   9   2.0000     -10.209502      -277.8147
  10   2.0000     -10.207610      -277.7632
  11   2.0000     -10.205050      -277.6935
  12   2.0000     -10.199940      -277.5545
  13   2.0000     -10.198083      -277.5039
  14   2.0000     -10.197291      -277.4824
  15   2.0000     -10.105554      -274.9861
  16   2.0000      -8.212864      -223.4834
  17   2.0000      -6.153245      -167.4383
  18   2.0000      -6.146922      -167.2663
  19   2.0000      -6.146598      -167.2574
  20   2.0000      -1.425370       -38.7863
  21   2.0000      -1.130382       -30.7593
  22   2.0000      -1.032717       -28.1017
  23   2.0000      -0.925413       -25.1818
  24   2.0000      -0.863203       -23.4889
  25   2.0000      -0.828649       -22.5487
  26   2.0000      -0.799942       -21.7675
  27   2.0000      -0.775939       -21.1144
  28   2.0000      -0.746744       -20.3199
  29   2.0000      -0.724065       -19.7028
  30   2.0000      -0.698443       -19.0056
  31   2.0000      -0.667151       -18.1541
  32   2.0000      -0.634300       -17.2602
  33   2.0000      -0.621048       -16.8996
  34   2.0000      -0.614581       -16.7236
  35   2.0000      -0.599990       -16.3266
  36   2.0000      -0.573991       -15.6191
  37   2.0000      -0.563932       -15.3454
  38   2.0000      -0.545285       -14.8380
  39   2.0000      -0.517505       -14.0820
  40   2.0000      -0.510181       -13.8827
  41   2.0000      -0.502616       -13.6769
  42   2.0000      -0.486430       -13.2364
  43   2.0000      -0.479054       -13.0357
  44   2.0000      -0.473847       -12.8940
  45   2.0000      -0.461366       -12.5544
  46   2.0000      -0.456181       -12.4133
  47   2.0000      -0.433251       -11.7894
  48   2.0000      -0.428540       -11.6612
  49   2.0000      -0.422954       -11.5092
  50   2.0000      -0.422413       -11.4944
  51   2.0000      -0.403220       -10.9722
  52   2.0000      -0.385600       -10.4927
  53   2.0000      -0.378413       -10.2971
  54   2.0000      -0.367228        -9.9928
  55   2.0000      -0.359345        -9.7783
  56   2.0000      -0.357632        -9.7317
  57   2.0000      -0.350616        -9.5408
  58   2.0000      -0.342508        -9.3201
  59   2.0000      -0.337896        -9.1946
  60   2.0000      -0.331351        -9.0165
  61   2.0000      -0.328426        -8.9369
  62   2.0000      -0.326385        -8.8814
  63   2.0000      -0.315236        -8.5780
  64   2.0000      -0.309735        -8.4283
  65   2.0000      -0.303680        -8.2636
  66   2.0000      -0.278502        -7.5784
  67   2.0000      -0.173227        -4.7137
  68   0.0000       0.017459         0.4751
  69   0.0000       0.040631         1.1056
  70   0.0000       0.052391         1.4256
  71   0.0000       0.054421         1.4809
  72   0.0000       0.057780         1.5723

MULLIKEN ATOMIC CHARGES
-----------------------
   0 C :   -0.126507
   1 C :   -0.191790
   2 C :   -0.307269
   3 H :    0.188536
   4 H :    0.163050
   5 S :    0.849006
   6 C :    0.163167
   7 N :   -0.458262
   8 C :   -0.514153
   9 H :    0.183292
  10 H :    0.103876
  11 H :    0.218782
  12 H :    0.222465
  13 O :   -0.435978
  14 O :   -0.406622
  15 C :   -0.255764
  16 C :   -0.261903
  17 C :   -0.200613
  18 H :    0.127617
  19 H :    0.106157
  20 H :    0.118594
  21 H :    0.126122
  22 C :   -0.237338
  23 H :    0.087807
  24 H :    0.138851
  25 C :   -0.129119
  26 H :    0.130900
  27 H :    0.089880
  28 C :   -0.207038
  29 H :    0.097685
  30 H :    0.091200
  31 H :    0.092937
  32 H :    0.112597
  33 H :    0.097080
  34 H :    0.117465
  35 F :   -0.082508
  36 H :    0.113396
  37 H :    0.074402
Sum of atomic charges:   -0.0000000

LOEWDIN ATOMIC CHARGES
----------------------
   0 C :   -0.216785
   1 C :   -0.291405
   2 C :   -0.369581
   3 H :    0.156203
   4 H :    0.146699
   5 S :    0.561219
   6 C :   -0.384661
   7 N :   -0.016320
   8 C :   -0.301011
   9 H :    0.102224
  10 H :    0.099149
  11 H :    0.155733
  12 H :    0.164554
  13 O :   -0.271394
  14 O :   -0.251853
  15 C :   -0.259719
  16 C :   -0.273249
  17 C :   -0.277907
  18 H :    0.140374
  19 H :    0.138981
  20 H :    0.148559
  21 H :    0.140084
  22 C :   -0.271011
  23 H :    0.135035
  24 H :    0.144067
  25 C :   -0.271962
  26 H :    0.140061
  27 H :    0.135280
  28 C :   -0.271086
  29 H :    0.136607
  30 H :    0.135207
  31 H :    0.134928
  32 H :    0.140453
  33 H :    0.135013
  34 H :    0.140845
  35 F :    0.112314
  36 H :    0.150764
  37 H :    0.133593

  Mayer bond orders larger than 0.100000
B(  0-C ,  6-C ) :   0.9783 B(  0-C , 15-C ) :   1.0006 B(  0-C , 36-H ) :   0.9424
B(  0-C , 37-H ) :   0.9612 B(  1-C ,  2-C ) :   0.9783 B(  1-C , 17-C ) :   0.9956
B(  1-C , 20-H ) :   0.9423 B(  1-C , 21-H ) :   0.9634 B(  2-C ,  3-H ) :   0.9321
B(  2-C ,  4-H ) :   0.9379 B(  2-C ,  5-S ) :   0.9149 B(  5-S , 13-O ) :   1.7779
B(  5-S , 14-O ) :   1.9108 B(  5-S , 35-F ) :   1.1557 B(  6-C ,  7-N ) :   1.1595
B(  6-C ,  8-C ) :   1.8014 B(  7-N , 11-H ) :   0.9192 B(  7-N , 12-H ) :   0.9142
B(  8-C ,  9-H ) :   0.9676 B(  8-C , 10-H ) :   0.9700 B( 15-C , 22-C ) :   1.0031
B( 15-C , 23-H ) :   0.9489 B( 15-C , 24-H ) :   0.9637 B( 16-C , 17-C ) :   0.9810
B( 16-C , 28-C ) :   1.0223 B( 16-C , 31-H ) :   0.9514 B( 16-C , 32-H ) :   0.9561
B( 17-C , 18-H ) :   0.9617 B( 17-C , 19-H ) :   0.9562 B( 22-C , 25-C ) :   1.0000
B( 22-C , 26-H ) :   0.9697 B( 22-C , 27-H ) :   0.9531 B( 25-C , 28-C ) :   0.9932
B( 25-C , 29-H ) :   0.9591 B( 25-C , 30-H ) :   0.9617 B( 28-C , 33-H ) :   0.9548
B( 28-C , 34-H ) :   0.9668

Dispersion correction           -0.040891433
FINAL SINGLE POINT ENERGY     -1134.920758815379

DIPOLE MOMENT
-------------
                                X             Y             Z
Electronic contribution:     -8.87644     -21.46436     -14.09592
Nuclear contribution   :      8.67311      20.60825      15.35056
                        -----------------------------------------
Total Dipole Moment    :     -0.20334      -0.85612       1.25464
                        -----------------------------------------
Magnitude (a.u.)       :      1.53245
Magnitude (Debye)      :      3.89517

Rotational constants in cm-1:     0.017976     0.012151     0.008188
Rotational constants in MHz :   538.898457   364.286417   245.482451

                             ****ORCA TERMINATED NORMALLY****
TOTAL RUN TIME: 0 days 0 hours 1 minutes 34 seconds 612 msec
