                         Program Version 5.0.0 -  RELEASE  -
|  1> !LC-PBE RIJCOSX def2-TZVP def2/J TightSCF
|  2> *xyz -1 1
|  3> C         -1.10433        0.25137       -2.86006
|  4> C         -0.71189        0.84252       -4.21834
|  5> H          0.15463        1.49980       -4.13091
|  6> H         -1.53813        1.45922       -4.58267
|  7> C         -0.39762       -0.20587       -5.28802
|  8> O          0.61717       -0.00535       -5.99827
|  9> O         -1.13317       -1.22138       -5.34147
| 10> H         -1.95489       -0.38644       -2.98099
| 11> H         -1.34603        1.04362       -2.18269
| 12> H         -0.28606       -0.31581       -2.46809
| 13> *
| 14>
| 15> %MaxCore 64000
| 16>
| 17> %pal nprocs 4
| 18> end
| 19>
| 20> %scf
| 21>   MaxIter 150
| 22> end
| 23>
| 24>
| 25>                          ****END OF INPUT****

CARTESIAN COORDINATES (ANGSTROEM)
---------------------------------
  C     -1.104330    0.251370   -2.860060
  C     -0.711890    0.842520   -4.218340
  H      0.154630    1.499800   -4.130910
  H     -1.538130    1.459220   -4.582670
  C     -0.397620   -0.205870   -5.288020
  O      0.617170   -0.005350   -5.998270
  O     -1.133170   -1.221380   -5.341470
  H     -1.954890   -0.386440   -2.980990
  H     -1.346030    1.043620   -2.182690
  H     -0.286060   -0.315810   -2.468090

 Total Charge           Charge          ....   -1
 Multiplicity           Mult            ....    1
 Number of Electrons    NEL             ....   40
 Basis Dimension        Dim             ....  185

ORBITAL ENERGIES
----------------

  NO   OCC          E(Eh)            E(eV)
   0   2.0000     -18.699463      -508.8383
   1   2.0000     -18.698301      -508.8066
   2   2.0000      -9.994961      -271.9767
   3   2.0000      -9.946668      -270.6626
   4   2.0000      -9.937966      -270.4258
   5   2.0000      -0.981313       -26.7029
   6   2.0000      -0.878646       -23.9092
   7   2.0000      -0.779481       -21.2107
   8   2.0000      -0.636390       -17.3170
   9   2.0000      -0.465942       -12.6789
  10   2.0000      -0.436658       -11.8821
  11   2.0000      -0.400054       -10.8860
  12   2.0000      -0.368969       -10.0401
  13   2.0000      -0.350589        -9.5400
  14   2.0000      -0.341523        -9.2933
  15   2.0000      -0.309403        -8.4193
  16   2.0000      -0.292510        -7.9596
  17   2.0000      -0.170261        -4.6330
  18   2.0000      -0.166066        -4.5189
  19   2.0000      -0.155758        -4.2384
  20   0.0000       0.265386         7.2215
  21   0.0000       0.307949         8.3797
  22   0.0000       0.326984         8.8977
  23   0.0000       0.332038         9.0352
  24   0.0000       0.350419         9.5354

MULLIKEN ATOMIC CHARGES
-----------------------
   0 C :   -0.416222
   1 C :   -0.236552
   2 H :    0.093604
   3 H :    0.079562
   4 C :    0.152400
   5 O :   -0.509854
   6 O :   -0.512182
   7 H :    0.139686
   8 H :    0.090085
   9 H :    0.119475
Sum of atomic charges:   -1.0000000

LOEWDIN ATOMIC CHARGES
----------------------
   0 C :   -0.347444
   1 C :   -0.306111
   2 H :    0.129808
   3 H :    0.131263
   4 C :   -0.712942
   5 O :   -0.117331
   6 O :   -0.114974
   7 H :    0.120998
   8 H :    0.100927
   9 H :    0.115806

  Mayer bond orders larger than 0.100000
B(  0-C ,  1-C ) :   0.9398 B(  0-C ,  7-H ) :   0.9693 B(  0-C ,  8-H ) :   0.9786
B(  0-C ,  9-H ) :   0.9799 B(  1-C ,  2-H ) :   0.9715 B(  1-C ,  3-H ) :   0.9673
B(  1-C ,  4-C ) :   0.9466 B(  4-C ,  5-O ) :   1.9003 B(  4-C ,  6-O ) :   1.8591

FINAL SINGLE POINT ENERGY      -267.153000433761

DIPOLE MOMENT
-------------
                                X             Y             Z
Electronic contribution:      1.54266      -2.33598      -5.20579
Nuclear contribution   :     -2.09607       3.44215       6.87744
                        -----------------------------------------
Total Dipole Moment    :     -0.55341       1.10616       1.67165
                        -----------------------------------------
Magnitude (a.u.)       :      2.07949
Magnitude (Debye)      :      5.28564

Rotational constants in cm-1:     0.324698     0.133739     0.103466
Rotational constants in MHz :  9734.203431  4009.406827  3101.846422

                             ****ORCA TERMINATED NORMALLY****
TOTAL RUN TIME: 0 days 0 hours 0 minutes 19 seconds 351 msec
