                         Program Version 5.0.0 -  RELEASE  -
|  1> !LC-PBE RIJCOSX def2-TZVP def2/J TightSCF
|  2> *xyz 1 1
|  3> C          2.23447       -2.98975       -2.39762
|  4> N          2.75680       -2.94555       -3.76503
|  5> C          1.98721       -2.59045       -4.81898
|  6> N          0.74322       -3.01749       -4.91352
|  7> N          2.49964       -1.84860       -5.80324
|  8> H          3.30978       -1.29282       -5.55895
|  9> H          1.80103       -1.30430       -6.28913
| 10> H          3.71612       -2.62880       -3.82953
| 11> H          0.39583       -3.62775       -4.18502
| 12> H          0.03920       -2.45438       -5.37137
| 13> C          2.19120       -1.61950       -1.71549
| 14> H          2.87278       -3.66637       -1.82801
| 15> H          1.24619       -3.44744       -2.40784
| 16> H          1.56387       -0.96046       -2.27853
| 17> H          3.18033       -1.21449       -1.66568
| 18> H          1.79916       -1.72608       -0.72562
| 19> *
| 20>
| 21> %MaxCore 64000
| 22>
| 23> %pal nprocs 4
| 24> end
| 25>
| 26> %scf
| 27>   MaxIter 150
| 28> end
| 29>
| 30>
| 31>                          ****END OF INPUT****

CARTESIAN COORDINATES (ANGSTROEM)
---------------------------------
  C      2.234470   -2.989750   -2.397620
  N      2.756800   -2.945550   -3.765030
  C      1.987210   -2.590450   -4.818980
  N      0.743220   -3.017490   -4.913520
  N      2.499640   -1.848600   -5.803240
  H      3.309780   -1.292820   -5.558950
  H      1.801030   -1.304300   -6.289130
  H      3.716120   -2.628800   -3.829530
  H      0.395830   -3.627750   -4.185020
  H      0.039200   -2.454380   -5.371370
  C      2.191200   -1.619500   -1.715490
  H      2.872780   -3.666370   -1.828010
  H      1.246190   -3.447440   -2.407840
  H      1.563870   -0.960460   -2.278530
  H      3.180330   -1.214490   -1.665680
  H      1.799160   -1.726080   -0.725620

 Total Charge           Charge          ....    1
 Multiplicity           Mult            ....    1
 Number of Electrons    NEL             ....   48
 Basis Dimension        Dim             ....  246

ORBITAL ENERGIES
----------------

  NO   OCC          E(Eh)            E(eV)
   0   2.0000     -14.445359      -393.0782
   1   2.0000     -14.441377      -392.9699
   2   2.0000     -14.440432      -392.9441
   3   2.0000     -10.465803      -284.7890
   4   2.0000     -10.325396      -280.9683
   5   2.0000     -10.253586      -279.0143
   6   2.0000      -1.403144       -38.1815
   7   2.0000      -1.280755       -34.8511
   8   2.0000      -1.273988       -34.6670
   9   2.0000      -1.103832       -30.0368
  10   2.0000      -1.004034       -27.3211
  11   2.0000      -0.965762       -26.2797
  12   2.0000      -0.939658       -25.5694
  13   2.0000      -0.891541       -24.2601
  14   2.0000      -0.849241       -23.1090
  15   2.0000      -0.826288       -22.4844
  16   2.0000      -0.796094       -21.6628
  17   2.0000      -0.767881       -20.8951
  18   2.0000      -0.745137       -20.2762
  19   2.0000      -0.710028       -19.3209
  20   2.0000      -0.669147       -18.2084
  21   2.0000      -0.646893       -17.6029
  22   2.0000      -0.623911       -16.9775
  23   2.0000      -0.580032       -15.7835
  24   0.0000      -0.101395        -2.7591
  25   0.0000      -0.067098        -1.8258
  26   0.0000      -0.035422        -0.9639
  27   0.0000      -0.021675        -0.5898
  28   0.0000      -0.001372        -0.0373

MULLIKEN ATOMIC CHARGES
-----------------------
   0 C :   -0.249157
   1 N :   -0.249031
   2 C :    0.338323
   3 N :   -0.389658
   4 N :   -0.366393
   5 H :    0.292724
   6 H :    0.290070
   7 H :    0.272461
   8 H :    0.303299
   9 H :    0.306837
  10 C :   -0.424624
  11 H :    0.208497
  12 H :    0.148899
  13 H :    0.149624
  14 H :    0.172747
  15 H :    0.195382
Sum of atomic charges:    1.0000000

LOEWDIN ATOMIC CHARGES
----------------------
   0 C :   -0.305048
   1 N :    0.148763
   2 C :   -0.404997
   3 N :    0.080087
   4 N :    0.053192
   5 H :    0.201771
   6 H :    0.205132
   7 H :    0.212208
   8 H :    0.203917
   9 H :    0.205416
  10 C :   -0.305254
  11 H :    0.158570
  12 H :    0.141730
  13 H :    0.126774
  14 H :    0.132939
  15 H :    0.144800

  Mayer bond orders larger than 0.100000
B(  0-C ,  1-N ) :   0.8791 B(  0-C , 10-C ) :   0.9558 B(  0-C , 11-H ) :   0.9567
B(  0-C , 12-H ) :   0.9832 B(  1-N ,  2-C ) :   1.3481 B(  1-N ,  7-H ) :   0.9042
B(  2-C ,  3-N ) :   1.3495 B(  2-C ,  4-N ) :   1.3337 B(  3-N ,  8-H ) :   0.8930
B(  3-N ,  9-H ) :   0.8826 B(  4-N ,  5-H ) :   0.8931 B(  4-N ,  6-H ) :   0.8900
B( 10-C , 13-H ) :   0.9567 B( 10-C , 14-H ) :   0.9619 B( 10-C , 15-H ) :   0.9625

FINAL SINGLE POINT ENERGY      -283.587240659645

DIPOLE MOMENT
-------------
                                X             Y             Z
Electronic contribution:      0.16933      -1.64084      -5.19545
Nuclear contribution   :     -0.59121       2.30298       4.63196
                        -----------------------------------------
Total Dipole Moment    :     -0.42188       0.66214      -0.56349
                        -----------------------------------------
Magnitude (a.u.)       :      0.96640
Magnitude (Debye)      :      2.45640

Rotational constants in cm-1:     0.205874     0.074757     0.066901
Rotational constants in MHz :  6171.937773  2241.151057  2005.629823

                             ****ORCA TERMINATED NORMALLY****
TOTAL RUN TIME: 0 days 0 hours 0 minutes 37 seconds 33 msec
