                         Program Version 5.0.0 -  RELEASE  -
|  1> !LC-PBE RIJCOSX def2-TZVP def2/J TightSCF
|  2> *xyz 0 1
|  3> C         -1.10433        0.25137       -2.86006
|  4> C         -0.71189        0.84252       -4.21834
|  5> H          0.15463        1.49980       -4.13091
|  6> H         -1.53813        1.45922       -4.58267
|  7> C         -0.39762       -0.20587       -5.28802
|  8> F          0.61717       -0.00535       -5.99827
|  9> O         -1.13317       -1.22138       -5.34147
| 10> H         -1.95489       -0.38644       -2.98099
| 11> H         -1.34603        1.04362       -2.18269
| 12> H         -0.28606       -0.31581       -2.46809
| 13> *
| 14>
| 15> %MaxCore 64000
| 16>
| 17> %pal nprocs 4
| 18> end
| 19>
| 20> %scf
| 21>   MaxIter 150
| 22> end
| 23>
| 24>
| 25>                          ****END OF INPUT****

CARTESIAN COORDINATES (ANGSTROEM)
---------------------------------
  C     -1.104330    0.251370   -2.860060
  C     -0.711890    0.842520   -4.218340
  H      0.154630    1.499800   -4.130910
  H     -1.538130    1.459220   -4.582670
  C     -0.397620   -0.205870   -5.288020
  F      0.617170   -0.005350   -5.998270
  O     -1.133170   -1.221380   -5.341470
  H     -1.954890   -0.386440   -2.980990
  H     -1.346030    1.043620   -2.182690
  H     -0.286060   -0.315810   -2.468090

 Total Charge           Charge          ....    0
 Multiplicity           Mult            ....    1
 Number of Electrons    NEL             ....   40
 Basis Dimension        Dim             ....  185

ORBITAL ENERGIES
----------------

  NO   OCC          E(Eh)            E(eV)
   0   2.0000     -24.561454      -668.3512
   1   2.0000     -18.983379      -516.5640
   2   2.0000     -10.301809      -280.3265
   3   2.0000     -10.149986      -276.1952
   4   2.0000     -10.116246      -275.2770
   5   2.0000      -1.478782       -40.2397
   6   2.0000      -1.199614       -32.6432
   7   2.0000      -0.979058       -26.6415
   8   2.0000      -0.856963       -23.3191
   9   2.0000      -0.796274       -21.6677
  10   2.0000      -0.707064       -19.2402
  11   2.0000      -0.690772       -18.7969
  12   2.0000      -0.659471       -17.9451
  13   2.0000      -0.611502       -16.6398
  14   2.0000      -0.577271       -15.7083
  15   2.0000      -0.533840       -14.5265
  16   2.0000      -0.512043       -13.9334
  17   2.0000      -0.508589       -13.8394
  18   2.0000      -0.482112       -13.1189
  19   2.0000      -0.431152       -11.7322
  20   0.0000       0.070203         1.9103
  21   0.0000       0.117785         3.2051
  22   0.0000       0.158214         4.3052
  23   0.0000       0.174419         4.7462
  24   0.0000       0.185120         5.0374

MULLIKEN ATOMIC CHARGES
-----------------------
   0 C :   -0.440834
   1 C :   -0.296912
   2 H :    0.153513
   3 H :    0.163557
   4 C :    0.315127
   5 F :   -0.068208
   6 O :   -0.305290
   7 H :    0.174278
   8 H :    0.153214
   9 H :    0.151554
Sum of atomic charges:   -0.0000000

LOEWDIN ATOMIC CHARGES
----------------------
   0 C :   -0.309117
   1 C :   -0.277760
   2 H :    0.148749
   3 H :    0.163103
   4 C :   -0.513107
   5 F :    0.335185
   6 O :    0.065094
   7 H :    0.133685
   8 H :    0.126280
   9 H :    0.127888

  Mayer bond orders larger than 0.100000
B(  0-C ,  1-C ) :   0.9631 B(  0-C ,  7-H ) :   0.9608 B(  0-C ,  8-H ) :   0.9706
B(  0-C ,  9-H ) :   0.9717 B(  1-C ,  2-H ) :   0.9653 B(  1-C ,  3-H ) :   0.9379
B(  1-C ,  4-C ) :   0.9818 B(  4-C ,  5-F ) :   1.2073 B(  4-C ,  6-O ) :   2.0668

FINAL SINGLE POINT ENERGY      -291.695472047018

DIPOLE MOMENT
-------------
                                X             Y             Z
Electronic contribution:      3.61364      -2.32035      -7.70040
Nuclear contribution   :     -3.36368       3.36392       8.24820
                        -----------------------------------------
Total Dipole Moment    :      0.24996       1.04356       0.54779
                        -----------------------------------------
Magnitude (a.u.)       :      1.20482
Magnitude (Debye)      :      3.06240

Rotational constants in cm-1:     0.315013     0.126712     0.098430
Rotational constants in MHz :  9443.861322  3798.734540  2950.846388

                             ****ORCA TERMINATED NORMALLY****
TOTAL RUN TIME: 0 days 0 hours 0 minutes 18 seconds 60 msec
