                         Program Version 5.0.0 -  RELEASE  -
|  1> !LC-PBE RIJCOSX def2-TZVP def2/J TightSCF
|  2> *xyz 0 1
|  3> C          2.23447       -2.98975       -2.39762
|  4> C          2.75680       -2.94555       -3.76503
|  5> C          1.98721       -2.59045       -4.81898
|  6> N          0.74322       -3.01749       -4.91352
|  7> N          2.49964       -1.84860       -5.80324
|  8> H          3.30978       -1.29282       -5.55895
|  9> H          1.80103       -1.30430       -6.28913
| 10> H          3.71612       -2.62880       -3.82953
| 11> H          0.39583       -3.62775       -4.18502
| 12> H          0.03920       -2.45438       -5.37137
| 13> C          2.19120       -1.61950       -1.71549
| 14> H          2.87278       -3.66637       -1.82801
| 15> H          1.24619       -3.44744       -2.40784
| 16> H          1.56387       -0.96046       -2.27853
| 17> H          3.18033       -1.21449       -1.66568
| 18> H          1.79916       -1.72608       -0.72562
| 19> *
| 20>
| 21> %MaxCore 64000
| 22>
| 23> %pal nprocs 4
| 24> end
| 25>
| 26> %scf
| 27>   MaxIter 150
| 28> end
| 29>
| 30>
| 31>                          ****END OF INPUT****

CARTESIAN COORDINATES (ANGSTROEM)
---------------------------------
  C      2.234470   -2.989750   -2.397620
  C      2.756800   -2.945550   -3.765030
  C      1.987210   -2.590450   -4.818980
  N      0.743220   -3.017490   -4.913520
  N      2.499640   -1.848600   -5.803240
  H      3.309780   -1.292820   -5.558950
  H      1.801030   -1.304300   -6.289130
  H      3.716120   -2.628800   -3.829530
  H      0.395830   -3.627750   -4.185020
  H      0.039200   -2.454380   -5.371370
  C      2.191200   -1.619500   -1.715490
  H      2.872780   -3.666370   -1.828010
  H      1.246190   -3.447440   -2.407840
  H      1.563870   -0.960460   -2.278530
  H      3.180330   -1.214490   -1.665680
  H      1.799160   -1.726080   -0.725620

 Total Charge           Charge          ....    0
 Multiplicity           Mult            ....    1
 Number of Electrons    NEL             ....   48
 Basis Dimension        Dim             ....  246

ORBITAL ENERGIES
----------------

  NO   OCC          E(Eh)            E(eV)
   0   2.0000     -14.218551      -386.9064
   1   2.0000     -14.214227      -386.7888
   2   2.0000     -10.168842      -276.7082
   3   2.0000     -10.091076      -274.5921
   4   2.0000     -10.080278      -274.2983
   5   2.0000     -10.037467      -273.1334
   6   2.0000      -1.149067       -31.2677
   7   2.0000      -1.048308       -28.5259
   8   2.0000      -0.952396       -25.9160
   9   2.0000      -0.860847       -23.4248
  10   2.0000      -0.778989       -21.1974
  11   2.0000      -0.734616       -19.9899
  12   2.0000      -0.692327       -18.8392
  13   2.0000      -0.654756       -17.8168
  14   2.0000      -0.608333       -16.5536
  15   2.0000      -0.597544       -16.2600
  16   2.0000      -0.554382       -15.0855
  17   2.0000      -0.537664       -14.6306
  18   2.0000      -0.509541       -13.8653
  19   2.0000      -0.494976       -13.4690
  20   2.0000      -0.456627       -12.4254
  21   2.0000      -0.447053       -12.1649
  22   2.0000      -0.410618       -11.1735
  23   2.0000      -0.275817        -7.5054
  24   0.0000       0.098369         2.6768
  25   0.0000       0.134313         3.6548
  26   0.0000       0.143187         3.8963
  27   0.0000       0.149477         4.0675
  28   0.0000       0.164487         4.4759

MULLIKEN ATOMIC CHARGES
-----------------------
   0 C :   -0.248363
   1 C :   -0.465113
   2 C :    0.302223
   3 N :   -0.466437
   4 N :   -0.454845
   5 H :    0.262248
   6 H :    0.229058
   7 H :    0.119134
   8 H :    0.264742
   9 H :    0.237752
  10 C :   -0.390221
  11 H :    0.135180
  12 H :    0.075724
  13 H :    0.126266
  14 H :    0.134435
  15 H :    0.138219
Sum of atomic charges:   -0.0000000

LOEWDIN ATOMIC CHARGES
----------------------
   0 C :   -0.332403
   1 C :   -0.298098
   2 C :   -0.470978
   3 N :   -0.005280
   4 N :   -0.027604
   5 H :    0.181509
   6 H :    0.169683
   7 H :    0.123329
   8 H :    0.183292
   9 H :    0.166835
  10 C :   -0.322417
  11 H :    0.143217
  12 H :    0.130947
  13 H :    0.118785
  14 H :    0.121196
  15 H :    0.117986

  Mayer bond orders larger than 0.100000
B(  0-C ,  1-C ) :   0.9964 B(  0-C , 10-C ) :   0.9280 B(  0-C , 11-H ) :   0.9890
B(  0-C , 12-H ) :   0.9853 B(  1-C ,  2-C ) :   1.6084 B(  1-C ,  7-H ) :   1.0510
B(  2-C ,  3-N ) :   1.1451 B(  2-C ,  4-N ) :   1.1336 B(  3-N ,  8-H ) :   0.9232
B(  3-N ,  9-H ) :   0.9154 B(  4-N ,  5-H ) :   0.9205 B(  4-N ,  6-H ) :   0.9258
B( 10-C , 13-H ) :   0.9764 B( 10-C , 14-H ) :   0.9762 B( 10-C , 15-H ) :   0.9814

FINAL SINGLE POINT ENERGY      -267.123573644505

DIPOLE MOMENT
-------------
                                X             Y             Z
Electronic contribution:     -0.37494      -1.31407      -5.00016
Nuclear contribution   :     -0.44240       2.20379       4.66256
                        -----------------------------------------
Total Dipole Moment    :     -0.81733       0.88972      -0.33759
                        -----------------------------------------
Magnitude (a.u.)       :      1.25443
Magnitude (Debye)      :      3.18852

Rotational constants in cm-1:     0.209447     0.075194     0.066975
Rotational constants in MHz :  6279.068019  2254.272519  2007.845458

                             ****ORCA TERMINATED NORMALLY****
TOTAL RUN TIME: 0 days 0 hours 0 minutes 36 seconds 768 msec
