                         Program Version 5.0.0 -  RELEASE  -
|  1> !LC-PBE RIJCOSX def2-TZVP def2/J TightSCF
|  2> *xyz 0 1
|  3> C         -1.10433        0.25137       -2.86006
|  4> C         -0.71189        0.84252       -4.21834
|  5> H          0.15463        1.49980       -4.13091
|  6> H         -1.53813        1.45922       -4.58267
|  7> C         -0.39762       -0.20587       -5.28802
|  8> O          0.61717       -0.00535       -5.99827
|  9> F         -1.13317       -1.22138       -5.34147
| 10> H         -1.95489       -0.38644       -2.98099
| 11> H         -1.34603        1.04362       -2.18269
| 12> H         -0.28606       -0.31581       -2.46809
| 13> *
| 14>
| 15> %MaxCore 64000
| 16>
| 17> %pal nprocs 4
| 18> end
| 19>
| 20> %scf
| 21>   MaxIter 150
| 22> end
| 23>
| 24>
| 25>                          ****END OF INPUT****

CARTESIAN COORDINATES (ANGSTROEM)
---------------------------------
  C     -1.104330    0.251370   -2.860060
  C     -0.711890    0.842520   -4.218340
  H      0.154630    1.499800   -4.130910
  H     -1.538130    1.459220   -4.582670
  C     -0.397620   -0.205870   -5.288020
  O      0.617170   -0.005350   -5.998270
  F     -1.133170   -1.221380   -5.341470
  H     -1.954890   -0.386440   -2.980990
  H     -1.346030    1.043620   -2.182690
  H     -0.286060   -0.315810   -2.468090

 Total Charge           Charge          ....    0
 Multiplicity           Mult            ....    1
 Number of Electrons    NEL             ....   40
 Basis Dimension        Dim             ....  185

ORBITAL ENERGIES
----------------

  NO   OCC          E(Eh)            E(eV)
   0   2.0000     -24.562076      -668.3681
   1   2.0000     -18.982297      -516.5346
   2   2.0000     -10.301025      -280.3051
   3   2.0000     -10.149158      -276.1726
   4   2.0000     -10.122420      -275.4451
   5   2.0000      -1.479029       -40.2464
   6   2.0000      -1.198616       -32.6160
   7   2.0000      -0.983676       -26.7672
   8   2.0000      -0.851331       -23.1659
   9   2.0000      -0.804242       -21.8845
  10   2.0000      -0.709015       -19.2933
  11   2.0000      -0.698687       -19.0123
  12   2.0000      -0.647905       -17.6304
  13   2.0000      -0.612881       -16.6774
  14   2.0000      -0.576444       -15.6858
  15   2.0000      -0.541287       -14.7292
  16   2.0000      -0.522344       -14.2137
  17   2.0000      -0.511764       -13.9258
  18   2.0000      -0.482699       -13.1349
  19   2.0000      -0.425769       -11.5858
  20   0.0000       0.072807         1.9812
  21   0.0000       0.112921         3.0727
  22   0.0000       0.157182         4.2771
  23   0.0000       0.176955         4.8152
  24   0.0000       0.185838         5.0569

MULLIKEN ATOMIC CHARGES
-----------------------
   0 C :   -0.445269
   1 C :   -0.293794
   2 H :    0.175564
   3 H :    0.157851
   4 C :    0.306857
   5 O :   -0.302244
   6 F :   -0.070672
   7 H :    0.155173
   8 H :    0.158134
   9 H :    0.158400
Sum of atomic charges:   -0.0000000

LOEWDIN ATOMIC CHARGES
----------------------
   0 C :   -0.317982
   1 C :   -0.273109
   2 H :    0.161257
   3 H :    0.159301
   4 C :   -0.514151
   5 O :    0.062521
   6 F :    0.337991
   7 H :    0.127204
   8 H :    0.128453
   9 H :    0.128516

  Mayer bond orders larger than 0.100000
B(  0-C ,  1-C ) :   0.9491 B(  0-C ,  7-H ) :   0.9647 B(  0-C ,  8-H ) :   0.9711
B(  0-C ,  9-H ) :   0.9687 B(  1-C ,  2-H ) :   0.9632 B(  1-C ,  3-H ) :   0.9427
B(  1-C ,  4-C ) :   0.9938 B(  4-C ,  5-O ) :   2.0867 B(  4-C ,  6-F ) :   1.1949

FINAL SINGLE POINT ENERGY      -291.694684989998

DIPOLE MOMENT
-------------
                                X             Y             Z
Electronic contribution:      0.65830      -4.35204      -6.56546
Nuclear contribution   :     -1.45527       4.68977       7.53208
                        -----------------------------------------
Total Dipole Moment    :     -0.79697       0.33773       0.96662
                        -----------------------------------------
Magnitude (a.u.)       :      1.29753
Magnitude (Debye)      :      3.29805

Rotational constants in cm-1:     0.298240     0.132464     0.099915
Rotational constants in MHz :  8940.998095  3971.171647  2995.369122

                             ****ORCA TERMINATED NORMALLY****
TOTAL RUN TIME: 0 days 0 hours 0 minutes 19 seconds 247 msec
