                         Program Version 5.0.0 -  RELEASE  -
|  1> !LC-PBE RIJCOSX def2-TZVP def2/J TightSCF
|  2> *xyz 0 1
|  3> C          2.23447       -2.98975       -2.39762
|  4> N          2.75680       -2.94555       -3.76503
|  5> C          1.98721       -2.59045       -4.81898
|  6> C          0.74322       -3.01749       -4.91352
|  7> N          2.49964       -1.84860       -5.80324
|  8> H          3.30978       -1.29282       -5.55895
|  9> H          1.80103       -1.30430       -6.28913
| 10> H          3.71612       -2.62880       -3.82953
| 11> H          0.39583       -3.62775       -4.18502
| 12> H          0.03920       -2.45438       -5.37137
| 13> C          2.19120       -1.61950       -1.71549
| 14> H          2.87278       -3.66637       -1.82801
| 15> H          1.24619       -3.44744       -2.40784
| 16> H          1.56387       -0.96046       -2.27853
| 17> H          3.18033       -1.21449       -1.66568
| 18> H          1.79916       -1.72608       -0.72562
| 19> *
| 20>
| 21> %MaxCore 64000
| 22>
| 23> %pal nprocs 4
| 24> end
| 25>
| 26> %scf
| 27>   MaxIter 150
| 28> end
| 29>
| 30>
| 31>                          ****END OF INPUT****

CARTESIAN COORDINATES (ANGSTROEM)
---------------------------------
  C      2.234470   -2.989750   -2.397620
  N      2.756800   -2.945550   -3.765030
  C      1.987210   -2.590450   -4.818980
  C      0.743220   -3.017490   -4.913520
  N      2.499640   -1.848600   -5.803240
  H      3.309780   -1.292820   -5.558950
  H      1.801030   -1.304300   -6.289130
  H      3.716120   -2.628800   -3.829530
  H      0.395830   -3.627750   -4.185020
  H      0.039200   -2.454380   -5.371370
  C      2.191200   -1.619500   -1.715490
  H      2.872780   -3.666370   -1.828010
  H      1.246190   -3.447440   -2.407840
  H      1.563870   -0.960460   -2.278530
  H      3.180330   -1.214490   -1.665680
  H      1.799160   -1.726080   -0.725620

 Total Charge           Charge          ....    0
 Multiplicity           Mult            ....    1
 Number of Electrons    NEL             ....   48
 Basis Dimension        Dim             ....  246

ORBITAL ENERGIES
----------------

  NO   OCC          E(Eh)            E(eV)
   0   2.0000     -14.216705      -386.8562
   1   2.0000     -14.212958      -386.7542
   2   2.0000     -10.165933      -276.6291
   3   2.0000     -10.147786      -276.1353
   4   2.0000     -10.101557      -274.8773
   5   2.0000     -10.028451      -272.8880
   6   2.0000      -1.146731       -31.2041
   7   2.0000      -1.060651       -28.8618
   8   2.0000      -0.929756       -25.3000
   9   2.0000      -0.884675       -24.0732
  10   2.0000      -0.803534       -21.8653
  11   2.0000      -0.715014       -19.4565
  12   2.0000      -0.693857       -18.8808
  13   2.0000      -0.658840       -17.9279
  14   2.0000      -0.606841       -16.5130
  15   2.0000      -0.589247       -16.0342
  16   2.0000      -0.559578       -15.2269
  17   2.0000      -0.533316       -14.5123
  18   2.0000      -0.530971       -14.4485
  19   2.0000      -0.503224       -13.6934
  20   2.0000      -0.496210       -13.5026
  21   2.0000      -0.476894       -12.9769
  22   2.0000      -0.383712       -10.4413
  23   2.0000      -0.295355        -8.0370
  24   0.0000       0.102893         2.7999
  25   0.0000       0.135215         3.6794
  26   0.0000       0.142205         3.8696
  27   0.0000       0.156194         4.2502
  28   0.0000       0.167219         4.5503

MULLIKEN ATOMIC CHARGES
-----------------------
   0 C :   -0.199219
   1 N :   -0.309848
   2 C :    0.283630
   3 C :   -0.547888
   4 N :   -0.456076
   5 H :    0.224564
   6 H :    0.257735
   7 H :    0.211367
   8 H :    0.101149
   9 H :    0.125855
  10 C :   -0.426153
  11 H :    0.148436
  12 H :    0.149614
  13 H :    0.156747
  14 H :    0.133332
  15 H :    0.146756
Sum of atomic charges:    0.0000000

LOEWDIN ATOMIC CHARGES
----------------------
   0 C :   -0.320572
   1 N :    0.095060
   2 C :   -0.472322
   3 C :   -0.330544
   4 N :   -0.030733
   5 H :    0.162809
   6 H :    0.185138
   7 H :    0.179951
   8 H :    0.105623
   9 H :    0.104651
  10 C :   -0.328826
  11 H :    0.136108
  12 H :    0.143033
  13 H :    0.126514
  14 H :    0.118720
  15 H :    0.125391

  Mayer bond orders larger than 0.100000
B(  0-C ,  1-N ) :   0.9256 B(  0-C , 10-C ) :   0.9581 B(  0-C , 11-H ) :   0.9786
B(  0-C , 12-H ) :   0.9799 B(  1-N ,  2-C ) :   1.1250 B(  1-N ,  7-H ) :   0.9381
B(  2-C ,  3-C ) :   1.6465 B(  2-C ,  4-N ) :   1.1387 B(  3-C ,  8-H ) :   1.0239
B(  3-C ,  9-H ) :   0.9765 B(  4-N ,  5-H ) :   0.9267 B(  4-N ,  6-H ) :   0.9184
B( 10-C , 13-H ) :   0.9663 B( 10-C , 14-H ) :   0.9738 B( 10-C , 15-H ) :   0.9751

FINAL SINGLE POINT ENERGY      -267.117957006072

DIPOLE MOMENT
-------------
                                X             Y             Z
Electronic contribution:      1.52753      -1.18739      -3.82352
Nuclear contribution   :     -0.86957       2.18853       4.41892
                        -----------------------------------------
Total Dipole Moment    :      0.65796       1.00114       0.59540
                        -----------------------------------------
Magnitude (a.u.)       :      1.33780
Magnitude (Debye)      :      3.40041

Rotational constants in cm-1:     0.214718     0.075736     0.068547
Rotational constants in MHz :  6437.075121  2270.519635  2054.974198

                             ****ORCA TERMINATED NORMALLY****
TOTAL RUN TIME: 0 days 0 hours 0 minutes 39 seconds 884 msec
