                         Program Version 5.0.0 -  RELEASE  -
|  1> !LC-PBE RIJCOSX def2-TZVP def2/J TightSCF
|  2> *xyz 0 1
|  3> C          2.23447       -2.98975       -2.39762
|  4> N          2.75680       -2.94555       -3.76503
|  5> C          1.98721       -2.59045       -4.81898
|  6> N          0.74322       -3.01749       -4.91352
|  7> C          2.49964       -1.84860       -5.80324
|  8> H          3.30978       -1.29282       -5.55895
|  9> H          1.80103       -1.30430       -6.28913
| 10> H          3.71612       -2.62880       -3.82953
| 11> H          0.39583       -3.62775       -4.18502
| 12> H          0.03920       -2.45438       -5.37137
| 13> C          2.19120       -1.61950       -1.71549
| 14> H          2.87278       -3.66637       -1.82801
| 15> H          1.24619       -3.44744       -2.40784
| 16> H          1.56387       -0.96046       -2.27853
| 17> H          3.18033       -1.21449       -1.66568
| 18> H          1.79916       -1.72608       -0.72562
| 19> *
| 20>
| 21> %MaxCore 64000
| 22>
| 23> %pal nprocs 4
| 24> end
| 25>
| 26> %scf
| 27>   MaxIter 150
| 28> end
| 29>
| 30>
| 31>                          ****END OF INPUT****

CARTESIAN COORDINATES (ANGSTROEM)
---------------------------------
  C      2.234470   -2.989750   -2.397620
  N      2.756800   -2.945550   -3.765030
  C      1.987210   -2.590450   -4.818980
  N      0.743220   -3.017490   -4.913520
  C      2.499640   -1.848600   -5.803240
  H      3.309780   -1.292820   -5.558950
  H      1.801030   -1.304300   -6.289130
  H      3.716120   -2.628800   -3.829530
  H      0.395830   -3.627750   -4.185020
  H      0.039200   -2.454380   -5.371370
  C      2.191200   -1.619500   -1.715490
  H      2.872780   -3.666370   -1.828010
  H      1.246190   -3.447440   -2.407840
  H      1.563870   -0.960460   -2.278530
  H      3.180330   -1.214490   -1.665680
  H      1.799160   -1.726080   -0.725620

 Total Charge           Charge          ....    0
 Multiplicity           Mult            ....    1
 Number of Electrons    NEL             ....   48
 Basis Dimension        Dim             ....  246

ORBITAL ENERGIES
----------------

  NO   OCC          E(Eh)            E(eV)
   0   2.0000     -14.216169      -386.8416
   1   2.0000     -14.216074      -386.8390
   2   2.0000     -10.170143      -276.7437
   3   2.0000     -10.156963      -276.3850
   4   2.0000     -10.105814      -274.9932
   5   2.0000     -10.023484      -272.7529
   6   2.0000      -1.149207       -31.2715
   7   2.0000      -1.060304       -28.8523
   8   2.0000      -0.943594       -25.6765
   9   2.0000      -0.878024       -23.8922
  10   2.0000      -0.792620       -21.5683
  11   2.0000      -0.755979       -20.5712
  12   2.0000      -0.689514       -18.7626
  13   2.0000      -0.638183       -17.3658
  14   2.0000      -0.634343       -17.2613
  15   2.0000      -0.579180       -15.7603
  16   2.0000      -0.571368       -15.5477
  17   2.0000      -0.542262       -14.7557
  18   2.0000      -0.510680       -13.8963
  19   2.0000      -0.505170       -13.7464
  20   2.0000      -0.497701       -13.5431
  21   2.0000      -0.486043       -13.2259
  22   2.0000      -0.386516       -10.5176
  23   2.0000      -0.290093        -7.8938
  24   0.0000       0.104679         2.8485
  25   0.0000       0.130619         3.5543
  26   0.0000       0.137193         3.7332
  27   0.0000       0.150326         4.0906
  28   0.0000       0.163708         4.4547

MULLIKEN ATOMIC CHARGES
-----------------------
   0 C :   -0.224037
   1 N :   -0.296537
   2 C :    0.254424
   3 N :   -0.468542
   4 C :   -0.504048
   5 H :    0.095261
   6 H :    0.091942
   7 H :    0.243111
   8 H :    0.239999
   9 H :    0.266495
  10 C :   -0.408971
  11 H :    0.155529
  12 H :    0.116466
  13 H :    0.152652
  14 H :    0.141083
  15 H :    0.145173
Sum of atomic charges:   -0.0000000

LOEWDIN ATOMIC CHARGES
----------------------
   0 C :   -0.334032
   1 N :    0.096573
   2 C :   -0.470890
   3 N :   -0.002354
   4 C :   -0.362839
   5 H :    0.101627
   6 H :    0.106471
   7 H :    0.196351
   8 H :    0.168825
   9 H :    0.183152
  10 C :   -0.325676
  11 H :    0.137844
  12 H :    0.130473
  13 H :    0.126656
  14 H :    0.123050
  15 H :    0.124769

  Mayer bond orders larger than 0.100000
B(  0-C ,  1-N ) :   0.9514 B(  0-C , 10-C ) :   0.9464 B(  0-C , 11-H ) :   0.9785
B(  0-C , 12-H ) :   0.9915 B(  1-N ,  2-C ) :   1.1622 B(  1-N ,  7-H ) :   0.9283
B(  2-C ,  3-N ) :   1.1240 B(  2-C ,  4-C ) :   1.7259 B(  3-N ,  8-H ) :   0.9337
B(  3-N ,  9-H ) :   0.9135 B(  4-C ,  5-H ) :   1.0142 B(  4-C ,  6-H ) :   0.9993
B( 10-C , 13-H ) :   0.9666 B( 10-C , 14-H ) :   0.9717 B( 10-C , 15-H ) :   0.9734

FINAL SINGLE POINT ENERGY      -267.112339953763

DIPOLE MOMENT
-------------
                                X             Y             Z
Electronic contribution:     -0.15379      -2.37993      -2.90681
Nuclear contribution   :     -0.49695       2.43650       4.23017
                        -----------------------------------------
Total Dipole Moment    :     -0.65074       0.05657       1.32336
                        -----------------------------------------
Magnitude (a.u.)       :      1.47578
Magnitude (Debye)      :      3.75114

Rotational constants in cm-1:     0.211102     0.077011     0.069221
Rotational constants in MHz :  6328.667765  2308.731604  2075.192956

                             ****ORCA TERMINATED NORMALLY****
TOTAL RUN TIME: 0 days 0 hours 0 minutes 40 seconds 227 msec
