                         Program Version 5.0.0 -  RELEASE  -
|  1> !LC-PBE RIJCOSX def2-TZVP def2/J TightSCF xyzfile
|  2>
|  3> *xyzfile 0 1 D1.xyz
|  4>
|  5> %MaxCore 64000
|  6>
|  7> %pal nprocs 18
|  8> end
|  9>
| 10> %scf
| 11>   MaxIter 150
| 12> end
| 13>
| 14>
| 15>                          ****END OF INPUT****

CARTESIAN COORDINATES (ANGSTROEM)
---------------------------------
  C      2.234473   -2.989754   -2.397622
  C      2.756799   -2.945553   -3.765029
  C     -1.104325    0.251374   -2.860056
  C     -0.711893    0.842517   -4.218344
  H      0.154626    1.499800   -4.130909
  H     -1.538134    1.459222   -4.582671
  C     -0.397624   -0.205875   -5.288018
  C      1.987208   -2.590451   -4.818975
  N      0.743221   -3.017493   -4.913524
  N      2.499636   -1.848598   -5.803241
  H      3.309780   -1.292818   -5.558947
  H      1.801025   -1.304298   -6.289129
  H      3.716116   -2.628797   -3.829533
  H      0.395828   -3.627747   -4.185024
  H      0.039201   -2.454383   -5.371367
  F      0.617165   -0.005348   -5.998273
  O     -1.133173   -1.221380   -5.341465
  C      2.191199   -1.619503   -1.715492
  H      2.872783   -3.666368   -1.828014
  H      1.246188   -3.447444   -2.407842
  C      1.298729   -0.554314   -2.359773
  H      1.872917   -1.787955   -0.681310
  H      3.216809   -1.238432   -1.654428
  C     -0.196255   -0.863365   -2.325763
  H      1.612531   -0.371346   -3.393065
  H      1.480944    0.388638   -1.834444
  H     -0.404105   -1.761825   -2.909448
  H     -0.490439   -1.087880   -1.294131
  H     -1.143842    1.066711   -2.129680
  H     -2.114401   -0.156834   -2.930323

 Total Charge           Charge          ....    0
 Multiplicity           Mult            ....    1
 Number of Electrons    NEL             ....  102
 Basis Dimension        Dim             ....  505

ORBITAL ENERGIES
----------------

  NO   OCC          E(Eh)            E(eV)
   0   2.0000     -24.598717      -669.3651
   1   2.0000     -19.017690      -517.4977
   2   2.0000     -14.200605      -386.4181
   3   2.0000     -14.190770      -386.1505
   4   2.0000     -10.333652      -281.1930
   5   2.0000     -10.163332      -276.5583
   6   2.0000     -10.157387      -276.3966
   7   2.0000     -10.136273      -275.8220
   8   2.0000     -10.114666      -275.2341
   9   2.0000     -10.110778      -275.1283
  10   2.0000     -10.097865      -274.7769
  11   2.0000     -10.086411      -274.4652
  12   2.0000     -10.026410      -272.8325
  13   2.0000      -1.517867       -41.3033
  14   2.0000      -1.239243       -33.7215
  15   2.0000      -1.135316       -30.8935
  16   2.0000      -1.033502       -28.1230
  17   2.0000      -1.014795       -27.6140
  18   2.0000      -0.970796       -26.4167
  19   2.0000      -0.929292       -25.2873
  20   2.0000      -0.878963       -23.9178
  21   2.0000      -0.855104       -23.2686
  22   2.0000      -0.817651       -22.2494
  23   2.0000      -0.776531       -21.1305
  24   2.0000      -0.751521       -20.4499
  25   2.0000      -0.738294       -20.0900
  26   2.0000      -0.726799       -19.7772
  27   2.0000      -0.705212       -19.1898
  28   2.0000      -0.697165       -18.9708
  29   2.0000      -0.667546       -18.1649
  30   2.0000      -0.641396       -17.4533
  31   2.0000      -0.632138       -17.2014
  32   2.0000      -0.622816       -16.9477
  33   2.0000      -0.598486       -16.2856
  34   2.0000      -0.587514       -15.9871
  35   2.0000      -0.580984       -15.8094
  36   2.0000      -0.564873       -15.3710
  37   2.0000      -0.550813       -14.9884
  38   2.0000      -0.534327       -14.5398
  39   2.0000      -0.525171       -14.2906
  40   2.0000      -0.513146       -13.9634
  41   2.0000      -0.507819       -13.8184
  42   2.0000      -0.490767       -13.3545
  43   2.0000      -0.477568       -12.9953
  44   2.0000      -0.468317       -12.7436
  45   2.0000      -0.458326       -12.4717
  46   2.0000      -0.444492       -12.0952
  47   2.0000      -0.437696       -11.9103
  48   2.0000      -0.429479       -11.6867
  49   2.0000      -0.390766       -10.6333
  50   2.0000      -0.264800        -7.2056
  51   0.0000       0.037424         1.0184
  52   0.0000       0.103305         2.8111
  53   0.0000       0.127380         3.4662
  54   0.0000       0.132741         3.6121
  55   0.0000       0.134468         3.6591

MULLIKEN ATOMIC CHARGES
-----------------------
   0 C :   -0.330088
   1 C :   -0.384669
   2 C :   -0.261211
   3 C :   -0.351623
   4 H :    0.191856
   5 H :    0.193411
   6 C :    0.324332
   7 C :    0.090242
   8 N :   -0.402435
   9 N :   -0.401004
  10 H :    0.257429
  11 H :    0.225790
  12 H :    0.114921
  13 H :    0.252074
  14 H :    0.254770
  15 F :   -0.085119
  16 O :   -0.311584
  17 C :   -0.240740
  18 H :    0.148541
  19 H :    0.124329
  20 C :   -0.285428
  21 H :    0.139981
  22 H :    0.143691
  23 C :   -0.353698
  24 H :    0.141928
  25 H :    0.154595
  26 H :    0.154067
  27 H :    0.160206
  28 H :    0.162902
  29 H :    0.172534
Sum of atomic charges:   -0.0000000

LOEWDIN ATOMIC CHARGES
----------------------
   0 C :   -0.310634
   1 C :   -0.300150
   2 C :   -0.273171
   3 C :   -0.249199
   4 H :    0.156497
   5 H :    0.169122
   6 C :   -0.501463
   7 C :   -0.492038
   8 N :    0.009236
   9 N :   -0.024838
  10 H :    0.177562
  11 H :    0.155294
  12 H :    0.121996
  13 H :    0.178113
  14 H :    0.148568
  15 F :    0.346257
  16 O :    0.082033
  17 C :   -0.277687
  18 H :    0.147039
  19 H :    0.135938
  20 C :   -0.284182
  21 H :    0.142014
  22 H :    0.144840
  23 C :   -0.285820
  24 H :    0.142538
  25 H :    0.144938
  26 H :    0.143616
  27 H :    0.148959
  28 H :    0.150757
  29 H :    0.153866

  Mayer bond orders larger than 0.100000
B(  0-C ,  1-C ) :   0.9367 B(  0-C , 17-C ) :   0.9150 B(  0-C , 18-H ) :   0.9964
B(  0-C , 19-H ) :   0.9957 B(  1-C ,  7-C ) :   1.6468 B(  1-C , 12-H ) :   1.0473
B(  2-C ,  3-C ) :   0.9238 B(  2-C , 23-C ) :   0.9460 B(  2-C , 28-H ) :   0.9746
B(  2-C , 29-H ) :   0.9769 B(  3-C ,  4-H ) :   0.9602 B(  3-C ,  5-H ) :   0.9438
B(  3-C ,  6-C ) :   0.9785 B(  6-C , 15-F ) :   1.1513 B(  6-C , 16-O ) :   1.9974
B(  7-C ,  8-N ) :   1.2036 B(  7-C ,  9-N ) :   1.1337 B(  8-N , 13-H ) :   0.9234
B(  8-N , 14-H ) :   0.8738 B(  9-N , 10-H ) :   0.9222 B(  9-N , 11-H ) :   0.9253
B( 17-C , 20-C ) :   0.9695 B( 17-C , 21-H ) :   0.9847 B( 17-C , 22-H ) :   0.9857
B( 20-C , 23-C ) :   0.8770 B( 20-C , 24-H ) :   0.9601 B( 20-C , 25-H ) :   0.9766
B( 23-C , 26-H ) :   0.9815 B( 23-C , 27-H ) :   0.9767

FINAL SINGLE POINT ENERGY      -635.997177060349

DIPOLE MOMENT
-------------
                                X             Y             Z
Electronic contribution:     -3.11710       2.33128     -14.49796
Nuclear contribution   :      2.31842      -0.27661      14.74721
                        -----------------------------------------
Total Dipole Moment    :     -0.79868       2.05467       0.24925
                        -----------------------------------------
Magnitude (a.u.)       :      2.21849
Magnitude (Debye)      :      5.63895

Rotational constants in cm-1:     0.032691     0.023990     0.017099
Rotational constants in MHz :   980.050971   719.190545   512.606858

                             ****ORCA TERMINATED NORMALLY****
TOTAL RUN TIME: 0 days 0 hours 1 minutes 10 seconds 6 msec
