                         Program Version 5.0.0 -  RELEASE  -
|  1> !LC-PBE RIJCOSX def2-TZVP def2/J TightSCF xyzfile
|  2>
|  3> *xyzfile 0 1 D3.xyz
|  4>
|  5> %MaxCore 64000
|  6>
|  7> %pal nprocs 18
|  8> end
|  9>
| 10> %scf
| 11>   MaxIter 150
| 12> end
| 13>
| 14>
| 15>                          ****END OF INPUT****

CARTESIAN COORDINATES (ANGSTROEM)
---------------------------------
  C      2.234473   -2.989754   -2.397622
  N      2.756799   -2.945553   -3.765029
  C     -1.104325    0.251374   -2.860056
  C     -0.711893    0.842517   -4.218344
  H      0.154626    1.499800   -4.130909
  H     -1.538134    1.459222   -4.582671
  C     -0.397624   -0.205875   -5.288018
  C      1.987208   -2.590451   -4.818975
  N      0.743221   -3.017493   -4.913524
  C      2.499636   -1.848598   -5.803241
  H      3.309780   -1.292818   -5.558947
  H      1.801025   -1.304298   -6.289129
  H      3.716116   -2.628797   -3.829533
  H      0.395828   -3.627747   -4.185024
  H      0.039201   -2.454383   -5.371367
  F      0.617165   -0.005348   -5.998273
  O     -1.133173   -1.221380   -5.341465
  C      2.191199   -1.619503   -1.715492
  H      2.872783   -3.666368   -1.828014
  H      1.246188   -3.447444   -2.407842
  C      1.298729   -0.554314   -2.359773
  H      1.872917   -1.787955   -0.681310
  H      3.216809   -1.238432   -1.654428
  C     -0.196255   -0.863365   -2.325763
  H      1.612531   -0.371346   -3.393065
  H      1.480944    0.388638   -1.834444
  H     -0.404105   -1.761825   -2.909448
  H     -0.490439   -1.087880   -1.294131
  H     -1.143842    1.066711   -2.129680
  H     -2.114401   -0.156834   -2.930323

 Total Charge           Charge          ....    0
 Multiplicity           Mult            ....    1
 Number of Electrons    NEL             ....  102
 Basis Dimension        Dim             ....  505

ORBITAL ENERGIES
----------------

  NO   OCC          E(Eh)            E(eV)
   0   2.0000     -24.573965      -668.6916
   1   2.0000     -19.005537      -517.1669
   2   2.0000     -14.207809      -386.6141
   3   2.0000     -14.188222      -386.0812
   4   2.0000     -10.321856      -280.8720
   5   2.0000     -10.157768      -276.4069
   6   2.0000     -10.157515      -276.4000
   7   2.0000     -10.150915      -276.2204
   8   2.0000     -10.136436      -275.8264
   9   2.0000     -10.120461      -275.3917
  10   2.0000     -10.120320      -275.3879
  11   2.0000     -10.119803      -275.3738
  12   2.0000     -10.009509      -272.3726
  13   2.0000      -1.494299       -40.6619
  14   2.0000      -1.227536       -33.4029
  15   2.0000      -1.137009       -30.9396
  16   2.0000      -1.047853       -28.5135
  17   2.0000      -1.013130       -27.5687
  18   2.0000      -0.969579       -26.3836
  19   2.0000      -0.918717       -24.9996
  20   2.0000      -0.881019       -23.9738
  21   2.0000      -0.854328       -23.2475
  22   2.0000      -0.815612       -22.1939
  23   2.0000      -0.780600       -21.2412
  24   2.0000      -0.754279       -20.5250
  25   2.0000      -0.738164       -20.0865
  26   2.0000      -0.718019       -19.5383
  27   2.0000      -0.697233       -18.9727
  28   2.0000      -0.684187       -18.6177
  29   2.0000      -0.674961       -18.3666
  30   2.0000      -0.644578       -17.5399
  31   2.0000      -0.628948       -17.1146
  32   2.0000      -0.619750       -16.8643
  33   2.0000      -0.606607       -16.5066
  34   2.0000      -0.592980       -16.1358
  35   2.0000      -0.577403       -15.7119
  36   2.0000      -0.556310       -15.1380
  37   2.0000      -0.548606       -14.9283
  38   2.0000      -0.528685       -14.3863
  39   2.0000      -0.519946       -14.1485
  40   2.0000      -0.514125       -13.9900
  41   2.0000      -0.502461       -13.6727
  42   2.0000      -0.497393       -13.5347
  43   2.0000      -0.492825       -13.4105
  44   2.0000      -0.477767       -13.0007
  45   2.0000      -0.463416       -12.6102
  46   2.0000      -0.461740       -12.5646
  47   2.0000      -0.452010       -12.2998
  48   2.0000      -0.442125       -12.0308
  49   2.0000      -0.370782       -10.0895
  50   2.0000      -0.277860        -7.5610
  51   0.0000       0.048625         1.3232
  52   0.0000       0.104144         2.8339
  53   0.0000       0.121189         3.2977
  54   0.0000       0.124388         3.3848
  55   0.0000       0.137904         3.7526

MULLIKEN ATOMIC CHARGES
-----------------------
   0 C :   -0.311075
   1 N :   -0.252693
   2 C :   -0.263808
   3 C :   -0.354889
   4 H :    0.192412
   5 H :    0.191122
   6 C :    0.337601
   7 C :    0.106901
   8 N :   -0.421923
   9 C :   -0.461409
  10 H :    0.100814
  11 H :    0.079197
  12 H :    0.238762
  13 H :    0.231698
  14 H :    0.274572
  15 F :   -0.054034
  16 O :   -0.329524
  17 C :   -0.267219
  18 H :    0.174378
  19 H :    0.159050
  20 C :   -0.303789
  21 H :    0.143960
  22 H :    0.155338
  23 C :   -0.347578
  24 H :    0.179189
  25 H :    0.159144
  26 H :    0.152256
  27 H :    0.157368
  28 H :    0.161941
  29 H :    0.172240
Sum of atomic charges:    0.0000000

LOEWDIN ATOMIC CHARGES
----------------------
   0 C :   -0.311130
   1 N :    0.102369
   2 C :   -0.272985
   3 C :   -0.248367
   4 H :    0.156830
   5 H :    0.168485
   6 C :   -0.496633
   7 C :   -0.492461
   8 N :    0.011307
   9 C :   -0.373131
  10 H :    0.098632
  11 H :    0.098658
  12 H :    0.195129
  13 H :    0.163798
  14 H :    0.159706
  15 F :    0.363216
  16 O :    0.073077
  17 C :   -0.287951
  18 H :    0.141630
  19 H :    0.135567
  20 C :   -0.284082
  21 H :    0.147450
  22 H :    0.145889
  23 C :   -0.287849
  24 H :    0.150962
  25 H :    0.147187
  26 H :    0.142952
  27 H :    0.147337
  28 H :    0.150101
  29 H :    0.154308

  Mayer bond orders larger than 0.100000
B(  0-C ,  1-N ) :   0.9296 B(  0-C , 17-C ) :   0.9278 B(  0-C , 18-H ) :   0.9885
B(  0-C , 19-H ) :   0.9975 B(  1-N ,  7-C ) :   1.1616 B(  1-N , 12-H ) :   0.9240
B(  2-C ,  3-C ) :   0.9240 B(  2-C , 23-C ) :   0.9533 B(  2-C , 28-H ) :   0.9756
B(  2-C , 29-H ) :   0.9758 B(  3-C ,  4-H ) :   0.9611 B(  3-C ,  5-H ) :   0.9453
B(  3-C ,  6-C ) :   0.9765 B(  6-C , 15-F ) :   1.2011 B(  6-C , 16-O ) :   1.9773
B(  7-C ,  8-N ) :   1.1503 B(  7-C ,  9-C ) :   1.6842 B(  8-N , 13-H ) :   0.9328
B(  8-N , 14-H ) :   0.8641 B(  9-C , 10-H ) :   1.0167 B(  9-C , 11-H ) :   1.0142
B( 17-C , 20-C ) :   0.9475 B( 17-C , 21-H ) :   0.9793 B( 17-C , 22-H ) :   0.9827
B( 20-C , 23-C ) :   0.8724 B( 20-C , 24-H ) :   0.9576 B( 20-C , 25-H ) :   0.9744
B( 23-C , 26-H ) :   0.9805 B( 23-C , 27-H ) :   0.9736

FINAL SINGLE POINT ENERGY      -635.981800600711

DIPOLE MOMENT
-------------
                                X             Y             Z
Electronic contribution:     -2.86331       1.39923     -12.66967
Nuclear contribution   :      2.27881      -0.10762      14.43322
                        -----------------------------------------
Total Dipole Moment    :     -0.58451       1.29161       1.76354
                        -----------------------------------------
Magnitude (a.u.)       :      2.26274
Magnitude (Debye)      :      5.75143

Rotational constants in cm-1:     0.033336     0.023673     0.017062
Rotational constants in MHz :   999.388459   709.685364   511.514310

                             ****ORCA TERMINATED NORMALLY****
TOTAL RUN TIME: 0 days 0 hours 1 minutes 0 seconds 781 msec
