                         Program Version 5.0.0 -  RELEASE  -
|  1> !LC-PBE RIJCOSX def2-TZVP def2/J TightSCF xyzfile
|  2>
|  3> *xyzfile 0 1 D4.xyz
|  4>
|  5> %MaxCore 64000
|  6>
|  7> %pal nprocs 18
|  8> end
|  9>
| 10> %scf
| 11>   MaxIter 150
| 12> end
| 13>
| 14>
| 15>                          ****END OF INPUT****

CARTESIAN COORDINATES (ANGSTROEM)
---------------------------------
  C      2.234473   -2.989754   -2.397622
  C      2.756799   -2.945553   -3.765029
  C     -1.104325    0.251374   -2.860056
  C     -0.711893    0.842517   -4.218344
  H      0.154626    1.499800   -4.130909
  H     -1.538134    1.459222   -4.582671
  C     -0.397624   -0.205875   -5.288018
  C      1.987208   -2.590451   -4.818975
  N      0.743221   -3.017493   -4.913524
  N      2.499636   -1.848598   -5.803241
  H      3.309780   -1.292818   -5.558947
  H      1.801025   -1.304298   -6.289129
  H      3.716116   -2.628797   -3.829533
  H      0.395828   -3.627747   -4.185024
  H      0.039201   -2.454383   -5.371367
  O      0.617165   -0.005348   -5.998273
  F     -1.133173   -1.221380   -5.341465
  C      2.191199   -1.619503   -1.715492
  H      2.872783   -3.666368   -1.828014
  H      1.246188   -3.447444   -2.407842
  C      1.298729   -0.554314   -2.359773
  H      1.872917   -1.787955   -0.681310
  H      3.216809   -1.238432   -1.654428
  C     -0.196255   -0.863365   -2.325763
  H      1.612531   -0.371346   -3.393065
  H      1.480944    0.388638   -1.834444
  H     -0.404105   -1.761825   -2.909448
  H     -0.490439   -1.087880   -1.294131
  H     -1.143842    1.066711   -2.129680
  H     -2.114401   -0.156834   -2.930323

 Total Charge           Charge          ....    0
 Multiplicity           Mult            ....    1
 Number of Electrons    NEL             ....  102
 Basis Dimension        Dim             ....  505

ORBITAL ENERGIES
----------------

  NO   OCC          E(Eh)            E(eV)
   0   2.0000     -24.599065      -669.3746
   1   2.0000     -19.017582      -517.4947
   2   2.0000     -14.203542      -386.4980
   3   2.0000     -14.184700      -385.9853
   4   2.0000     -10.332633      -281.1652
   5   2.0000     -10.162175      -276.5268
   6   2.0000     -10.155759      -276.3523
   7   2.0000     -10.140392      -275.9341
   8   2.0000     -10.120666      -275.3973
   9   2.0000     -10.109081      -275.0821
  10   2.0000     -10.097346      -274.7628
  11   2.0000     -10.086691      -274.4728
  12   2.0000     -10.024926      -272.7921
  13   2.0000      -1.518998       -41.3340
  14   2.0000      -1.236957       -33.6593
  15   2.0000      -1.133263       -30.8377
  16   2.0000      -1.031129       -28.0585
  17   2.0000      -1.018907       -27.7259
  18   2.0000      -0.971179       -26.4271
  19   2.0000      -0.928523       -25.2664
  20   2.0000      -0.874779       -23.8040
  21   2.0000      -0.854285       -23.2463
  22   2.0000      -0.821960       -22.3667
  23   2.0000      -0.778005       -21.1706
  24   2.0000      -0.758624       -20.6432
  25   2.0000      -0.739825       -20.1317
  26   2.0000      -0.728899       -19.8343
  27   2.0000      -0.716952       -19.5093
  28   2.0000      -0.678988       -18.4762
  29   2.0000      -0.666645       -18.1403
  30   2.0000      -0.636478       -17.3195
  31   2.0000      -0.633711       -17.2442
  32   2.0000      -0.622807       -16.9474
  33   2.0000      -0.591542       -16.0967
  34   2.0000      -0.584842       -15.9144
  35   2.0000      -0.580716       -15.8021
  36   2.0000      -0.573430       -15.6038
  37   2.0000      -0.544067       -14.8048
  38   2.0000      -0.539030       -14.6678
  39   2.0000      -0.533161       -14.5080
  40   2.0000      -0.520148       -14.1540
  41   2.0000      -0.501664       -13.6510
  42   2.0000      -0.495383       -13.4801
  43   2.0000      -0.477038       -12.9809
  44   2.0000      -0.468867       -12.7585
  45   2.0000      -0.456590       -12.4244
  46   2.0000      -0.445165       -12.1136
  47   2.0000      -0.434955       -11.8357
  48   2.0000      -0.430481       -11.7140
  49   2.0000      -0.390020       -10.6130
  50   2.0000      -0.263294        -7.1646
  51   0.0000       0.040968         1.1148
  52   0.0000       0.100109         2.7241
  53   0.0000       0.126156         3.4329
  54   0.0000       0.131605         3.5812
  55   0.0000       0.137929         3.7533

MULLIKEN ATOMIC CHARGES
-----------------------
   0 C :   -0.329591
   1 C :   -0.385523
   2 C :   -0.285734
   3 C :   -0.341897
   4 H :    0.206839
   5 H :    0.190266
   6 C :    0.320571
   7 C :    0.096046
   8 N :   -0.410747
   9 N :   -0.393263
  10 H :    0.251918
  11 H :    0.248267
  12 H :    0.117530
  13 H :    0.257142
  14 H :    0.234226
  15 O :   -0.328664
  16 F :   -0.076775
  17 C :   -0.238195
  18 H :    0.149208
  19 H :    0.118147
  20 C :   -0.301466
  21 H :    0.137712
  22 H :    0.145546
  23 C :   -0.343565
  24 H :    0.175898
  25 H :    0.155007
  26 H :    0.132407
  27 H :    0.162843
  28 H :    0.165281
  29 H :    0.170566
Sum of atomic charges:   -0.0000000

LOEWDIN ATOMIC CHARGES
----------------------
   0 C :   -0.312206
   1 C :   -0.299152
   2 C :   -0.282698
   3 C :   -0.244736
   4 H :    0.167824
   5 H :    0.165579
   6 C :   -0.504518
   7 C :   -0.488373
   8 N :    0.003806
   9 N :   -0.018191
  10 H :    0.177043
  11 H :    0.155726
  12 H :    0.123217
  13 H :    0.178065
  14 H :    0.150665
  15 O :    0.076580
  16 F :    0.350429
  17 C :   -0.278068
  18 H :    0.146999
  19 H :    0.133867
  20 C :   -0.283734
  21 H :    0.141005
  22 H :    0.145785
  23 C :   -0.288475
  24 H :    0.149986
  25 H :    0.145443
  26 H :    0.137515
  27 H :    0.149613
  28 H :    0.152172
  29 H :    0.148833

  Mayer bond orders larger than 0.100000
B(  0-C ,  1-C ) :   0.9372 B(  0-C , 17-C ) :   0.9109 B(  0-C , 18-H ) :   0.9975
B(  0-C , 19-H ) :   0.9982 B(  1-C ,  7-C ) :   1.6467 B(  1-C , 12-H ) :   1.0455
B(  2-C ,  3-C ) :   0.9055 B(  2-C , 23-C ) :   0.9279 B(  2-C , 28-H ) :   0.9709
B(  2-C , 29-H ) :   0.9881 B(  3-C ,  4-H ) :   0.9619 B(  3-C ,  5-H ) :   0.9491
B(  3-C ,  6-C ) :   0.9775 B(  6-C , 15-O ) :   1.9901 B(  6-C , 16-F ) :   1.1580
B(  7-C ,  8-N ) :   1.1681 B(  7-C ,  9-N ) :   1.1675 B(  8-N , 13-H ) :   0.9203
B(  8-N , 14-H ) :   0.9062 B(  9-N , 10-H ) :   0.9247 B(  9-N , 11-H ) :   0.9003
B( 17-C , 20-C ) :   0.9652 B( 17-C , 21-H ) :   0.9852 B( 17-C , 22-H ) :   0.9848
B( 20-C , 23-C ) :   0.8675 B( 20-C , 24-H ) :   0.9547 B( 20-C , 25-H ) :   0.9763
B( 23-C , 26-H ) :   0.9920 B( 23-C , 27-H ) :   0.9756

FINAL SINGLE POINT ENERGY      -635.997241546392

DIPOLE MOMENT
-------------
                                X             Y             Z
Electronic contribution:     -6.07294       0.29043     -13.37439
Nuclear contribution   :      4.38568       1.15960      13.97148
                        -----------------------------------------
Total Dipole Moment    :     -1.68726       1.45003       0.59708
                        -----------------------------------------
Magnitude (a.u.)       :      2.30346
Magnitude (Debye)      :      5.85494

Rotational constants in cm-1:     0.032892     0.023844     0.017123
Rotational constants in MHz :   986.091711   714.821905   513.334630

                             ****ORCA TERMINATED NORMALLY****
TOTAL RUN TIME: 0 days 0 hours 1 minutes 13 seconds 911 msec
