                         Program Version 5.0.0 -  RELEASE  -
|  1> !B3LYP D3BJ RIJCOSX def2-TZVPD def2/J TightSCF
|  2> *xyz -1 1
|  3> C          4.93020       -7.37532       -2.64962
|  4> C          3.84189       -6.95161       -3.63283
|  5> H          3.45814       -5.95442       -3.40712
|  6> H          2.98848       -7.64361       -3.56708
|  7> S          4.31812       -6.91593       -5.36869
|  8> O          5.40615       -5.89948       -5.51297
|  9> O          3.11191       -6.44508       -6.04379
| 10> O          4.76340       -8.23942       -5.69863
| 11> H          5.27901       -8.35440       -2.90385
| 12> H          4.53000       -7.38577       -1.65734
| 13> H          5.74437       -6.68276       -2.69856
| 14> *
| 15>
| 16> %MaxCore 64000
| 17>
| 18> %pal nprocs 4
| 19> end
| 20>
| 21> %scf
| 22>   MaxIter 150
| 23> end
| 24>
| 25>
| 26>                          ****END OF INPUT****

CARTESIAN COORDINATES (ANGSTROEM)
---------------------------------
  C      4.930200   -7.375320   -2.649620
  C      3.841890   -6.951610   -3.632830
  H      3.458140   -5.954420   -3.407120
  H      2.988480   -7.643610   -3.567080
  S      4.318120   -6.915930   -5.368690
  O      5.406150   -5.899480   -5.512970
  O      3.111910   -6.445080   -6.043790
  O      4.763400   -8.239420   -5.698630
  H      5.279010   -8.354400   -2.903850
  H      4.530000   -7.385770   -1.657340
  H      5.744370   -6.682760   -2.698560

 Total Charge           Charge          ....   -1
 Multiplicity           Mult            ....    1
 Number of Electrons    NEL             ....   58
 Basis Dimension        Dim             ....  285

ORBITAL ENERGIES
----------------

  NO   OCC          E(Eh)            E(eV)
   0   2.0000     -88.839424     -2417.4436
   1   2.0000     -18.909724      -514.5598
   2   2.0000     -18.900709      -514.3144
   3   2.0000     -18.893575      -514.1203
   4   2.0000     -10.033684      -273.0304
   5   2.0000     -10.025308      -272.8025
   6   2.0000      -7.882662      -214.4982
   7   2.0000      -5.846148      -159.0818
   8   2.0000      -5.845242      -159.0571
   9   2.0000      -5.844939      -159.0489
  10   2.0000      -0.921172       -25.0664
  11   2.0000      -0.794600       -21.6222
  12   2.0000      -0.765422       -20.8282
  13   2.0000      -0.633342       -17.2341
  14   2.0000      -0.507621       -13.8131
  15   2.0000      -0.383050       -10.4233
  16   2.0000      -0.318640        -8.6706
  17   2.0000      -0.312680        -8.5085
  18   2.0000      -0.274526        -7.4702
  19   2.0000      -0.260467        -7.0877
  20   2.0000      -0.253995        -6.9115
  21   2.0000      -0.231206        -6.2914
  22   2.0000      -0.215154        -5.8546
  23   2.0000      -0.150652        -4.0994
  24   2.0000      -0.149324        -4.0633
  25   2.0000      -0.117238        -3.1902
  26   2.0000      -0.108721        -2.9585
  27   2.0000      -0.099374        -2.7041
  28   2.0000      -0.063154        -1.7185
  29   0.0000       0.120914         3.2903
  30   0.0000       0.144656         3.9363
  31   0.0000       0.151423         4.1204
  32   0.0000       0.161816         4.4032
  33   0.0000       0.176651         4.8069

MULLIKEN ATOMIC CHARGES
-----------------------
   0 C :   -1.128806
   1 C :   -0.271729
   2 H :    0.237717
   3 H :    0.233067
   4 S :    1.258894
   5 O :   -0.762482
   6 O :   -0.724353
   7 O :   -0.711621
   8 H :    0.285062
   9 H :    0.292318
  10 H :    0.291933
Sum of atomic charges:   -1.0000000

LOEWDIN ATOMIC CHARGES
----------------------
   0 C :   -0.142815
   1 C :   -0.329823
   2 H :    0.080623
   3 H :    0.084164
   4 S :    0.360918
   5 O :   -0.425580
   6 O :   -0.407818
   7 O :   -0.380520
   8 H :    0.056736
   9 H :    0.046422
  10 H :    0.057693

  Mayer bond orders larger than 0.100000
B(  0-C ,  1-C ) :   0.6817 B(  0-C ,  8-H ) :   0.9841 B(  0-C ,  9-H ) :   0.9418
B(  0-C , 10-H ) :   0.9820 B(  1-C ,  2-H ) :   0.9696 B(  1-C ,  3-H ) :   0.9636
B(  1-C ,  4-S ) :   0.8618 B(  1-C ,  5-O ) :   0.1166 B(  1-C ,  6-O ) :   0.1441
B(  1-C ,  7-O ) :   0.1152 B(  4-S ,  5-O ) :   1.4275 B(  4-S ,  6-O ) :   1.4551
B(  4-S ,  7-O ) :   1.4892

Dispersion correction           -0.016598040
FINAL SINGLE POINT ENERGY      -703.123480970527

DIPOLE MOMENT
-------------
                                X             Y             Z
Electronic contribution:     -0.36181       0.80475      -7.80841
Nuclear contribution   :      0.07504      -1.14369       9.75001
                        -----------------------------------------
Total Dipole Moment    :     -0.28677      -0.33894       1.94159
                        -----------------------------------------
Magnitude (a.u.)       :      1.99171
Magnitude (Debye)      :      5.06252

Rotational constants in cm-1:     0.160553     0.082191     0.080550
Rotational constants in MHz :  4813.250478  2464.013016  2414.833054

                             ****ORCA TERMINATED NORMALLY****
TOTAL RUN TIME: 0 days 0 hours 0 minutes 42 seconds 667 msec
