                         Program Version 5.0.0 -  RELEASE  -
|  1> !B3LYP D3BJ RIJCOSX def2-TZVPD def2/J TightSCF
|  2> *xyz 1 1
|  3> C          5.55821       -1.99291       -6.21505
|  4> C          4.18188       -2.58967       -6.29891
|  5> N          3.14587       -1.76843       -6.48675
|  6> N          4.01910       -3.86431       -6.22743
|  7> H          4.76849       -4.59115       -5.99077
|  8> H          3.12241       -4.33339       -6.31462
|  9> H          3.28164       -0.77779       -6.56655
| 10> H          2.21255       -2.13419       -6.56225
| 11> C          6.41926       -2.54294       -5.07763
| 12> H          6.03683       -2.19819       -7.17685
| 13> H          5.46761       -0.90737       -6.12797
| 14> H          6.50056       -3.60553       -5.17358
| 15> H          5.96544       -2.30329       -4.13874
| 16> H          7.39438       -2.10494       -5.12457
| 17> *
| 18>
| 19> %MaxCore 64000
| 20>
| 21> %pal nprocs 4
| 22> end
| 23>
| 24> %scf
| 25>   MaxIter 150
| 26> end
| 27>
| 28>
| 29>                          ****END OF INPUT****

CARTESIAN COORDINATES (ANGSTROEM)
---------------------------------
  C      5.558210   -1.992910   -6.215050
  C      4.181880   -2.589670   -6.298910
  N      3.145870   -1.768430   -6.486750
  N      4.019100   -3.864310   -6.227430
  H      4.768490   -4.591150   -5.990770
  H      3.122410   -4.333390   -6.314620
  H      3.281640   -0.777790   -6.566550
  H      2.212550   -2.134190   -6.562250
  C      6.419260   -2.542940   -5.077630
  H      6.036830   -2.198190   -7.176850
  H      5.467610   -0.907370   -6.127970
  H      6.500560   -3.605530   -5.173580
  H      5.965440   -2.303290   -4.138740
  H      7.394380   -2.104940   -5.124570

 Total Charge           Charge          ....    1
 Multiplicity           Mult            ....    1
 Number of Electrons    NEL             ....   40
 Basis Dimension        Dim             ....  266

ORBITAL ENERGIES
----------------

  NO   OCC          E(Eh)            E(eV)
   0   2.0000     -14.566167      -396.3656
   1   2.0000     -14.555251      -396.0685
   2   2.0000     -10.491796      -285.4963
   3   2.0000     -10.366768      -282.0941
   4   2.0000     -10.322487      -280.8892
   5   2.0000      -1.202810       -32.7301
   6   2.0000      -1.106227       -30.1020
   7   2.0000      -0.967800       -26.3352
   8   2.0000      -0.866790       -23.5866
   9   2.0000      -0.815212       -22.1831
  10   2.0000      -0.773843       -21.0573
  11   2.0000      -0.746435       -20.3115
  12   2.0000      -0.698041       -18.9947
  13   2.0000      -0.652377       -17.7521
  14   2.0000      -0.623498       -16.9663
  15   2.0000      -0.602470       -16.3940
  16   2.0000      -0.549674       -14.9574
  17   2.0000      -0.540650       -14.7118
  18   2.0000      -0.525501       -14.2996
  19   2.0000      -0.492454       -13.4004
  20   0.0000      -0.209841        -5.7101
  21   0.0000      -0.170083        -4.6282
  22   0.0000      -0.135643        -3.6910
  23   0.0000      -0.123469        -3.3598
  24   0.0000      -0.103490        -2.8161

MULLIKEN ATOMIC CHARGES
-----------------------
   0 C :   -0.183428
   1 C :    0.580121
   2 N :   -0.271090
   3 N :   -0.249773
   4 H :    0.225291
   5 H :    0.203668
   6 H :    0.216261
   7 H :    0.176988
   8 C :   -1.199774
   9 H :    0.271827
  10 H :    0.238764
  11 H :    0.353077
  12 H :    0.331882
  13 H :    0.306188
Sum of atomic charges:    1.0000000

LOEWDIN ATOMIC CHARGES
----------------------
   0 C :   -0.140872
   1 C :   -0.359466
   2 N :    0.228497
   3 N :    0.220646
   4 H :    0.186509
   5 H :    0.148263
   6 H :    0.135771
   7 H :    0.137006
   8 C :   -0.055608
   9 H :    0.140111
  10 H :    0.124224
  11 H :    0.063213
  12 H :    0.085154
  13 H :    0.086552

  Mayer bond orders larger than 0.100000
B(  0-C ,  1-C ) :   0.7965 B(  0-C ,  8-C ) :   0.6188 B(  0-C ,  9-H ) :   0.9007
B(  0-C , 10-H ) :   0.9723 B(  1-C ,  2-N ) :   1.1940 B(  1-C ,  3-N ) :   1.2763
B(  2-N ,  3-N ) :   0.1037 B(  2-N ,  6-H ) :   0.9577 B(  2-N ,  7-H ) :   1.0302
B(  3-N ,  4-H ) :   0.9346 B(  3-N ,  5-H ) :   0.9902 B(  8-C , 11-H ) :   0.9227
B(  8-C , 12-H ) :   0.9484 B(  8-C , 13-H ) :   0.9866

Dispersion correction           -0.016577058
FINAL SINGLE POINT ENERGY      -228.989798383574

DIPOLE MOMENT
-------------
                                X             Y             Z
Electronic contribution:     -3.76167      -0.46955      -1.56207
Nuclear contribution   :      2.76041       0.12669       1.26265
                        -----------------------------------------
Total Dipole Moment    :     -1.00126      -0.34286      -0.29942
                        -----------------------------------------
Magnitude (a.u.)       :      1.09987
Magnitude (Debye)      :      2.79565

Rotational constants in cm-1:     0.280918     0.124524     0.094121
Rotational constants in MHz :  8421.697738  3733.133254  2821.684112

                             ****ORCA TERMINATED NORMALLY****
TOTAL RUN TIME: 0 days 0 hours 0 minutes 36 seconds 587 msec
