                         Program Version 5.0.0 -  RELEASE  -
|  1> !B3LYP D3BJ RIJCOSX def2-TZVPD def2/J TightSCF xyzfile
|  2>
|  3> *xyzfile 0 1 B.xyz
|  4>
|  5> %MaxCore 64000
|  6>
|  7> %pal nprocs 4
|  8> end
|  9>
| 10> %scf
| 11>   MaxIter 150
| 12> end
| 13>
| 14>
| 15>                          ****END OF INPUT****

CARTESIAN COORDINATES (ANGSTROEM)
---------------------------------
  C      5.558206   -1.992914   -6.215054
  C      4.930199   -7.375319   -2.649623
  C      3.841892   -6.951611   -3.632829
  H      3.458144   -5.954425   -3.407121
  H      2.988484   -7.643606   -3.567078
  S      4.318115   -6.915930   -5.368692
  C      4.181880   -2.589671   -6.298911
  N      3.145873   -1.768431   -6.486753
  N      4.019102   -3.864307   -6.227427
  H      4.768490   -4.591153   -5.990773
  H      3.122405   -4.333392   -6.314620
  H      3.281635   -0.777786   -6.566549
  H      2.212549   -2.134193   -6.562246
  O      5.406154   -5.899480   -5.512972
  O      3.111910   -6.445079   -6.043792
  C      6.419260   -2.542944   -5.077630
  C      5.872267   -5.002756   -2.427819
  C      6.173994   -6.485522   -2.606315
  H      6.734852   -6.613767   -3.534015
  H      6.821463   -6.831018   -1.793617
  H      4.469612   -7.406168   -1.655876
  H      5.230134   -8.398678   -2.885906
  C      5.896512   -2.169314   -3.694552
  H      7.428880   -2.143665   -5.208078
  H      6.505894   -3.627541   -5.175502
  C      6.807804   -2.623428   -2.551019
  H      4.894708   -2.589732   -3.557501
  H      5.778823   -1.081255   -3.635790
  C      7.111544   -4.122463   -2.520363
  H      7.751615   -2.071393   -2.614406
  H      6.345837   -2.326401   -1.604086
  H      5.362882   -4.828697   -1.471335
  H      5.174429   -4.702577   -3.211298
  H      7.778329   -4.329347   -1.677651
  H      7.673189   -4.402845   -3.417586
  O      4.763396   -8.239424   -5.698629
  H      6.036826   -2.198189   -7.176852
  H      5.467610   -0.907371   -6.127968

 Total Charge           Charge          ....    0
 Multiplicity           Mult            ....    1
 Number of Electrons    NEL             ....  136
 Basis Dimension        Dim             ....  808

ORBITAL ENERGIES
----------------

  NO   OCC          E(Eh)            E(eV)
   0   2.0000     -88.993464     -2421.6353
   1   2.0000     -19.068925      -518.8918
   2   2.0000     -19.057654      -518.5851
   3   2.0000     -19.051985      -518.4309
   4   2.0000     -14.405102      -391.9827
   5   2.0000     -14.366334      -390.9278
   6   2.0000     -10.326362      -280.9946
   7   2.0000     -10.226430      -278.2753
   8   2.0000     -10.193185      -277.3707
   9   2.0000     -10.181513      -277.0530
  10   2.0000     -10.169953      -276.7385
  11   2.0000     -10.162648      -276.5397
  12   2.0000     -10.157645      -276.4036
  13   2.0000     -10.150529      -276.2099
  14   2.0000     -10.149245      -276.1750
  15   2.0000     -10.142053      -275.9793
  16   2.0000      -8.037424      -218.7094
  17   2.0000      -6.001039      -163.2966
  18   2.0000      -6.000085      -163.2706
  19   2.0000      -5.999272      -163.2485
  20   2.0000      -1.080218       -29.3942
  21   2.0000      -1.038082       -28.2476
  22   2.0000      -0.950521       -25.8650
  23   2.0000      -0.942526       -25.6474
  24   2.0000      -0.934423       -25.4269
  25   2.0000      -0.840468       -22.8703
  26   2.0000      -0.804926       -21.9032
  27   2.0000      -0.781399       -21.2629
  28   2.0000      -0.742304       -20.1991
  29   2.0000      -0.708066       -19.2674
  30   2.0000      -0.676115       -18.3980
  31   2.0000      -0.654638       -17.8136
  32   2.0000      -0.627563       -17.0768
  33   2.0000      -0.608549       -16.5594
  34   2.0000      -0.597176       -16.2500
  35   2.0000      -0.576410       -15.6849
  36   2.0000      -0.560751       -15.2588
  37   2.0000      -0.540461       -14.7067
  38   2.0000      -0.514234       -13.9930
  39   2.0000      -0.502015       -13.6605
  40   2.0000      -0.487804       -13.2738
  41   2.0000      -0.472130       -12.8473
  42   2.0000      -0.465159       -12.6576
  43   2.0000      -0.451911       -12.2971
  44   2.0000      -0.445670       -12.1273
  45   2.0000      -0.437479       -11.9044
  46   2.0000      -0.429019       -11.6742
  47   2.0000      -0.423438       -11.5223
  48   2.0000      -0.409928       -11.1547
  49   2.0000      -0.400837       -10.9073
  50   2.0000      -0.395628       -10.7656
  51   2.0000      -0.393752       -10.7145
  52   2.0000      -0.374354       -10.1867
  53   2.0000      -0.368381       -10.0242
  54   2.0000      -0.362231        -9.8568
  55   2.0000      -0.345912        -9.4127
  56   2.0000      -0.336047        -9.1443
  57   2.0000      -0.330079        -8.9819
  58   2.0000      -0.327231        -8.9044
  59   2.0000      -0.318290        -8.6611
  60   2.0000      -0.313568        -8.5326
  61   2.0000      -0.307978        -8.3805
  62   2.0000      -0.302748        -8.2382
  63   2.0000      -0.300553        -8.1785
  64   2.0000      -0.267060        -7.2671
  65   2.0000      -0.263633        -7.1738
  66   2.0000      -0.254314        -6.9202
  67   2.0000      -0.231249        -6.2926
  68   0.0000      -0.052190        -1.4202
  69   0.0000      -0.038747        -1.0544
  70   0.0000      -0.005490        -0.1494
  71   0.0000       0.005508         0.1499
  72   0.0000       0.010473         0.2850

MULLIKEN ATOMIC CHARGES
-----------------------
   0 C :   -0.491184
   1 C :   -0.628478
   2 C :   -0.543044
   3 H :    0.271900
   4 H :    0.344829
   5 S :    1.282291
   6 C :    0.721403
   7 N :   -0.333450
   8 N :   -0.128583
   9 H :    0.180771
  10 H :    0.192029
  11 H :    0.186896
  12 H :    0.166009
  13 O :   -0.885748
  14 O :   -0.829183
  15 C :   -0.408582
  16 C :    0.061914
  17 C :   -0.560706
  18 H :    0.234362
  19 H :    0.303808
  20 H :    0.232108
  21 H :    0.215554
  22 C :   -0.357506
  23 H :    0.245942
  24 H :    0.232224
  25 C :   -0.724281
  26 H :    0.251944
  27 H :    0.233215
  28 C :   -0.551778
  29 H :    0.257143
  30 H :    0.249044
  31 H :    0.275825
  32 H :   -0.063292
  33 H :    0.269618
  34 H :    0.232249
  35 O :   -0.658427
  36 H :    0.269234
  37 H :    0.253928
Sum of atomic charges:   -0.0000000

LOEWDIN ATOMIC CHARGES
----------------------
   0 C :   -0.104708
   1 C :   -0.221032
   2 C :   -0.250314
   3 H :    0.086208
   4 H :    0.104544
   5 S :    0.459173
   6 C :   -0.368089
   7 N :    0.191411
   8 N :    0.228181
   9 H :    0.055467
  10 H :    0.114359
  11 H :    0.115369
  12 H :    0.124400
  13 O :   -0.380433
  14 O :   -0.370392
  15 C :   -0.186582
  16 C :   -0.220394
  17 C :   -0.212228
  18 H :    0.103931
  19 H :    0.112919
  20 H :    0.108235
  21 H :    0.109297
  22 C :   -0.209299
  23 H :    0.124314
  24 H :    0.098804
  25 C :   -0.203747
  26 H :    0.106167
  27 H :    0.111265
  28 C :   -0.207796
  29 H :    0.107748
  30 H :    0.108895
  31 H :    0.124267
  32 H :    0.077029
  33 H :    0.112856
  34 H :    0.110147
  35 O :   -0.309769
  36 H :    0.134657
  37 H :    0.115139

  Mayer bond orders larger than 0.100000
B(  0-C ,  6-C ) :   0.6165 B(  0-C , 15-C ) :   0.6970 B(  0-C , 22-C ) :   0.1159
B(  0-C , 36-H ) :   0.9080 B(  0-C , 37-H ) :   1.0239 B(  1-C ,  2-C ) :   0.9796
B(  1-C ,  5-S ) :   0.1755 B(  1-C , 16-C ) :   0.1220 B(  1-C , 17-C ) :   0.9013
B(  1-C , 20-H ) :   0.9613 B(  1-C , 21-H ) :   0.9616 B(  2-C ,  3-H ) :   0.9217
B(  2-C ,  4-H ) :   0.8490 B(  2-C ,  5-S ) :   0.8253 B(  2-C , 14-O ) :   0.1386
B(  2-C , 32-H ) :   0.1187 B(  2-C , 35-O ) :   0.1459 B(  5-S , 13-O ) :   1.4816
B(  5-S , 14-O ) :   1.2630 B(  5-S , 35-O ) :   1.3452 B(  6-C ,  7-N ) :   1.0232
B(  6-C ,  8-N ) :   1.1376 B(  6-C ,  9-H ) :  -0.1531 B(  6-C , 10-H ) :  -0.1030
B(  6-C , 22-C ) :   0.1261 B(  6-C , 37-H ) :  -0.1611 B(  7-N ,  8-N ) :   0.1212
B(  7-N , 11-H ) :   0.9903 B(  7-N , 12-H ) :   1.0282 B(  8-N ,  9-H ) :   0.9263
B(  8-N , 10-H ) :   1.0279 B(  8-N , 13-O ) :  -0.1172 B( 13-O , 14-O ) :   0.1009
B( 15-C , 22-C ) :   0.3654 B( 15-C , 23-H ) :   0.8812 B( 15-C , 24-H ) :   1.1566
B( 15-C , 25-C ) :   0.1673 B( 15-C , 26-H ) :  -0.1216 B( 15-C , 28-C ) :   0.1423
B( 16-C , 17-C ) :   0.4414 B( 16-C , 22-C ) :   0.1558 B( 16-C , 25-C ) :   0.1511
B( 16-C , 28-C ) :   0.3327 B( 16-C , 31-H ) :   0.7974 B( 16-C , 32-H ) :   1.4857
B( 17-C , 18-H ) :   0.9174 B( 17-C , 19-H ) :   0.8959 B( 17-C , 28-C ) :   0.4741
B( 17-C , 31-H ) :  -0.1036 B( 22-C , 25-C ) :   0.9567 B( 22-C , 26-H ) :   1.0015
B( 22-C , 27-H ) :   0.9106 B( 25-C , 28-C ) :   0.8461 B( 25-C , 29-H ) :   0.9623
B( 25-C , 30-H ) :   0.9510 B( 28-C , 31-H ) :  -0.1115 B( 28-C , 32-H ) :  -0.1337
B( 28-C , 33-H ) :   0.9507 B( 28-C , 34-H ) :   0.9618 B( 31-H , 32-H ) :   0.1374

Dispersion correction           -0.075799948
FINAL SINGLE POINT ENERGY     -1127.603766141477

DIPOLE MOMENT
-------------
                                X             Y             Z
Electronic contribution:     -9.17899     -11.45788     -14.18261
Nuclear contribution   :      8.53517      16.50844      14.36520
                        -----------------------------------------
Total Dipole Moment    :     -0.64382       5.05056       0.18259
                        -----------------------------------------
Magnitude (a.u.)       :      5.09470
Magnitude (Debye)      :     12.94971

Rotational constants in cm-1:     0.017951     0.012436     0.008288
Rotational constants in MHz :   538.163255   372.824050   248.467077

                             ****ORCA TERMINATED NORMALLY****
TOTAL RUN TIME: 0 days 0 hours 10 minutes 13 seconds 828 msec
