                         Program Version 5.0.0 -  RELEASE  -
|  1> !B3LYP D3BJ RIJCOSX def2-TZVPD def2/J TightSCF
|  2> *xyz 0 1
|  3> C          4.93020       -7.37532       -2.64962
|  4> C          3.84189       -6.95161       -3.63283
|  5> H          3.45814       -5.95442       -3.40712
|  6> H          2.98848       -7.64361       -3.56708
|  7> S          4.31812       -6.91593       -5.36869
|  8> F          5.40615       -5.89948       -5.51297
|  9> O          3.11191       -6.44508       -6.04379
| 10> O          4.76340       -8.23942       -5.69863
| 11> H          5.27901       -8.35440       -2.90385
| 12> H          4.53000       -7.38577       -1.65734
| 13> H          5.74437       -6.68276       -2.69856
| 14> *
| 15>
| 16> %MaxCore 64000
| 17>
| 18> %pal nprocs 4
| 19> end
| 20>
| 21> %scf
| 22>   MaxIter 150
| 23> end
| 24>
| 25>
| 26>                          ****END OF INPUT****

CARTESIAN COORDINATES (ANGSTROEM)
---------------------------------
  C      4.930200   -7.375320   -2.649620
  C      3.841890   -6.951610   -3.632830
  H      3.458140   -5.954420   -3.407120
  H      2.988480   -7.643610   -3.567080
  S      4.318120   -6.915930   -5.368690
  F      5.406150   -5.899480   -5.512970
  O      3.111910   -6.445080   -6.043790
  O      4.763400   -8.239420   -5.698630
  H      5.279010   -8.354400   -2.903850
  H      4.530000   -7.385770   -1.657340
  H      5.744370   -6.682760   -2.698560

 Total Charge           Charge          ....    0
 Multiplicity           Mult            ....    1
 Number of Electrons    NEL             ....   58
 Basis Dimension        Dim             ....  285

ORBITAL ENERGIES
----------------

  NO   OCC          E(Eh)            E(eV)
   0   2.0000     -89.098009     -2424.4801
   1   2.0000     -24.779964      -674.2971
   2   2.0000     -19.143650      -520.9252
   3   2.0000     -19.133999      -520.6626
   4   2.0000     -10.233890      -278.4783
   5   2.0000     -10.190280      -277.2916
   6   2.0000      -8.141797      -221.5496
   7   2.0000      -6.108651      -166.2248
   8   2.0000      -6.102370      -166.0539
   9   2.0000      -6.101847      -166.0397
  10   2.0000      -1.343737       -36.5650
  11   2.0000      -1.114123       -30.3168
  12   2.0000      -1.022205       -27.8156
  13   2.0000      -0.823908       -22.4197
  14   2.0000      -0.721097       -19.6221
  15   2.0000      -0.672215       -18.2919
  16   2.0000      -0.576739       -15.6939
  17   2.0000      -0.558749       -15.2043
  18   2.0000      -0.546987       -14.8843
  19   2.0000      -0.494858       -13.4658
  20   2.0000      -0.480151       -13.0656
  21   2.0000      -0.457349       -12.4451
  22   2.0000      -0.436753       -11.8846
  23   2.0000      -0.410736       -11.1767
  24   2.0000      -0.405618       -11.0374
  25   2.0000      -0.382013       -10.3951
  26   2.0000      -0.343172        -9.3382
  27   2.0000      -0.332052        -9.0356
  28   2.0000      -0.320694        -8.7265
  29   0.0000      -0.017472        -0.4754
  30   0.0000       0.015975         0.4347
  31   0.0000       0.020543         0.5590
  32   0.0000       0.022904         0.6233
  33   0.0000       0.036010         0.9799

MULLIKEN ATOMIC CHARGES
-----------------------
   0 C :   -1.151071
   1 C :   -0.271861
   2 H :    0.306184
   3 H :    0.286939
   4 S :    1.204348
   5 F :   -0.191272
   6 O :   -0.578778
   7 O :   -0.568398
   8 H :    0.325488
   9 H :    0.303683
  10 H :    0.334740
Sum of atomic charges:   -0.0000000

LOEWDIN ATOMIC CHARGES
----------------------
   0 C :   -0.108081
   1 C :   -0.277603
   2 H :    0.099333
   3 H :    0.113917
   4 S :    0.609965
   5 F :   -0.091309
   6 O :   -0.291468
   7 O :   -0.265638
   8 H :    0.070686
   9 H :    0.071502
  10 H :    0.068697

  Mayer bond orders larger than 0.100000
B(  0-C ,  1-C ) :   0.6814 B(  0-C ,  8-H ) :   0.9738 B(  0-C ,  9-H ) :   0.9560
B(  0-C , 10-H ) :   0.9247 B(  1-C ,  2-H ) :   0.9221 B(  1-C ,  3-H ) :   0.9239
B(  1-C ,  4-S ) :   0.8497 B(  1-C ,  6-O ) :   0.1093 B(  4-S ,  5-F ) :   0.9533
B(  4-S ,  6-O ) :   1.6546 B(  4-S ,  7-O ) :   1.6922

Dispersion correction           -0.015794977
FINAL SINGLE POINT ENERGY      -727.658573778327

DIPOLE MOMENT
-------------
                                X             Y             Z
Electronic contribution:      1.30208       2.62404      -8.75403
Nuclear contribution   :     -0.98922      -2.24849      10.35711
                        -----------------------------------------
Total Dipole Moment    :      0.31286       0.37555       1.60307
                        -----------------------------------------
Magnitude (a.u.)       :      1.67594
Magnitude (Debye)      :      4.25989

Rotational constants in cm-1:     0.151436     0.080885     0.078670
Rotational constants in MHz :  4539.936009  2424.868817  2358.476812

                             ****ORCA TERMINATED NORMALLY****
TOTAL RUN TIME: 0 days 0 hours 0 minutes 41 seconds 263 msec
