                         Program Version 5.0.0 -  RELEASE  -
|  1> !B3LYP D3BJ RIJCOSX def2-TZVPD def2/J TightSCF
|  2> *xyz 0 1
|  3> C          5.55821       -1.99291       -6.21505
|  4> C          4.18188       -2.58967       -6.29891
|  5> C          3.14587       -1.76843       -6.48675
|  6> N          4.01910       -3.86431       -6.22743
|  7> H          4.76849       -4.59115       -5.99077
|  8> H          3.12241       -4.33339       -6.31462
|  9> H          3.28164       -0.77779       -6.56655
| 10> H          2.21255       -2.13419       -6.56225
| 11> C          6.41926       -2.54294       -5.07763
| 12> H          6.03683       -2.19819       -7.17685
| 13> H          5.46761       -0.90737       -6.12797
| 14> H          6.50056       -3.60553       -5.17358
| 15> H          5.96544       -2.30329       -4.13874
| 16> H          7.39438       -2.10494       -5.12457
| 17> *
| 18>
| 19> %MaxCore 64000
| 20>
| 21> %pal nprocs 4
| 22> end
| 23>
| 24> %scf
| 25>   MaxIter 150
| 26> end
| 27>
| 28>
| 29>                          ****END OF INPUT****

CARTESIAN COORDINATES (ANGSTROEM)
---------------------------------
  C      5.558210   -1.992910   -6.215050
  C      4.181880   -2.589670   -6.298910
  C      3.145870   -1.768430   -6.486750
  N      4.019100   -3.864310   -6.227430
  H      4.768490   -4.591150   -5.990770
  H      3.122410   -4.333390   -6.314620
  H      3.281640   -0.777790   -6.566550
  H      2.212550   -2.134190   -6.562250
  C      6.419260   -2.542940   -5.077630
  H      6.036830   -2.198190   -7.176850
  H      5.467610   -0.907370   -6.127970
  H      6.500560   -3.605530   -5.173580
  H      5.965440   -2.303290   -4.138740
  H      7.394380   -2.104940   -5.124570

 Total Charge           Charge          ....    0
 Multiplicity           Mult            ....    1
 Number of Electrons    NEL             ....   40
 Basis Dimension        Dim             ....  266

ORBITAL ENERGIES
----------------

  NO   OCC          E(Eh)            E(eV)
   0   2.0000     -14.324102      -389.7786
   1   2.0000     -10.190086      -277.2863
   2   2.0000     -10.167056      -276.6597
   3   2.0000     -10.155625      -276.3486
   4   2.0000     -10.096521      -274.7403
   5   2.0000      -0.934438       -25.4274
   6   2.0000      -0.777035       -21.1442
   7   2.0000      -0.717210       -19.5163
   8   2.0000      -0.630809       -17.1652
   9   2.0000      -0.583166       -15.8688
  10   2.0000      -0.516836       -14.0638
  11   2.0000      -0.472634       -12.8610
  12   2.0000      -0.443426       -12.0662
  13   2.0000      -0.422407       -11.4943
  14   2.0000      -0.393496       -10.7076
  15   2.0000      -0.381962       -10.3937
  16   2.0000      -0.359033        -9.7698
  17   2.0000      -0.334778        -9.1098
  18   2.0000      -0.329595        -8.9687
  19   2.0000      -0.185346        -5.0435
  20   0.0000      -0.002655        -0.0722
  21   0.0000       0.025308         0.6887
  22   0.0000       0.030906         0.8410
  23   0.0000       0.040152         1.0926
  24   0.0000       0.054216         1.4753

MULLIKEN ATOMIC CHARGES
-----------------------
   0 C :   -0.128764
   1 C :    0.737318
   2 C :   -1.274220
   3 N :   -0.318874
   4 H :    0.149676
   5 H :    0.151610
   6 H :    0.285503
   7 H :    0.274940
   8 C :   -1.137019
   9 H :    0.211508
  10 H :    0.165861
  11 H :    0.292356
  12 H :    0.300652
  13 H :    0.289454
Sum of atomic charges:    0.0000000

LOEWDIN ATOMIC CHARGES
----------------------
   0 C :   -0.194641
   1 C :   -0.505264
   2 C :    0.027598
   3 N :    0.092914
   4 H :    0.138931
   5 H :    0.113133
   6 H :    0.006652
   7 H :    0.010036
   8 C :   -0.094423
   9 H :    0.113878
  10 H :    0.108672
  11 H :    0.048266
  12 H :    0.071199
  13 H :    0.063048

  Mayer bond orders larger than 0.100000
B(  0-C ,  1-C ) :   0.8203 B(  0-C ,  8-C ) :   0.5750 B(  0-C ,  9-H ) :   0.9150
B(  0-C , 10-H ) :   0.9914 B(  1-C ,  2-C ) :   1.1167 B(  1-C ,  3-N ) :   1.0684
B(  1-C ,  7-H ) :  -0.1175 B(  2-C ,  6-H ) :   0.9278 B(  2-C ,  7-H ) :   1.0675
B(  3-N ,  4-H ) :   1.0061 B(  3-N ,  5-H ) :   1.0077 B(  8-C , 11-H ) :   0.9645
B(  8-C , 12-H ) :   0.9886 B(  8-C , 13-H ) :   0.9880

Dispersion correction           -0.017277841
FINAL SINGLE POINT ENERGY      -212.515251399364

DIPOLE MOMENT
-------------
                                X             Y             Z
Electronic contribution:     -2.03407      -1.05409      -1.02636
Nuclear contribution   :      2.41345       0.31141       1.16343
                        -----------------------------------------
Total Dipole Moment    :      0.37938      -0.74268       0.13707
                        -----------------------------------------
Magnitude (a.u.)       :      0.84516
Magnitude (Debye)      :      2.14822

Rotational constants in cm-1:     0.287957     0.129204     0.097498
Rotational constants in MHz :  8632.737925  3873.424745  2922.919500

                             ****ORCA TERMINATED NORMALLY****
TOTAL RUN TIME: 0 days 0 hours 0 minutes 39 seconds 603 msec
