                         Program Version 5.0.0 -  RELEASE  -
|  1> !B3LYP D3BJ RIJCOSX def2-TZVPD def2/J TightSCF
|  2> *xyz 0 1
|  3> C          4.93020       -7.37532       -2.64962
|  4> C          3.84189       -6.95161       -3.63283
|  5> H          3.45814       -5.95442       -3.40712
|  6> H          2.98848       -7.64361       -3.56708
|  7> S          4.31812       -6.91593       -5.36869
|  8> O          5.40615       -5.89948       -5.51297
|  9> F          3.11191       -6.44508       -6.04379
| 10> O          4.76340       -8.23942       -5.69863
| 11> H          5.27901       -8.35440       -2.90385
| 12> H          4.53000       -7.38577       -1.65734
| 13> H          5.74437       -6.68276       -2.69856
| 14> *
| 15>
| 16> %MaxCore 64000
| 17>
| 18> %pal nprocs 4
| 19> end
| 20>
| 21> %scf
| 22>   MaxIter 150
| 23> end
| 24>
| 25>
| 26>                          ****END OF INPUT****

CARTESIAN COORDINATES (ANGSTROEM)
---------------------------------
  C      4.930200   -7.375320   -2.649620
  C      3.841890   -6.951610   -3.632830
  H      3.458140   -5.954420   -3.407120
  H      2.988480   -7.643610   -3.567080
  S      4.318120   -6.915930   -5.368690
  O      5.406150   -5.899480   -5.512970
  F      3.111910   -6.445080   -6.043790
  O      4.763400   -8.239420   -5.698630
  H      5.279010   -8.354400   -2.903850
  H      4.530000   -7.385770   -1.657340
  H      5.744370   -6.682760   -2.698560

 Total Charge           Charge          ....    0
 Multiplicity           Mult            ....    1
 Number of Electrons    NEL             ....   58
 Basis Dimension        Dim             ....  285

ORBITAL ENERGIES
----------------

  NO   OCC          E(Eh)            E(eV)
   0   2.0000     -89.099964     -2424.5333
   1   2.0000     -24.794665      -674.6971
   2   2.0000     -19.143077      -520.9096
   3   2.0000     -19.126545      -520.4598
   4   2.0000     -10.234913      -278.5061
   5   2.0000     -10.189023      -277.2574
   6   2.0000      -8.143687      -221.6010
   7   2.0000      -6.110469      -166.2743
   8   2.0000      -6.104125      -166.1017
   9   2.0000      -6.103871      -166.0948
  10   2.0000      -1.370577       -37.2953
  11   2.0000      -1.107561       -30.1383
  12   2.0000      -1.003828       -27.3156
  13   2.0000      -0.823838       -22.4178
  14   2.0000      -0.734888       -19.9973
  15   2.0000      -0.672852       -18.3092
  16   2.0000      -0.580893       -15.8069
  17   2.0000      -0.577984       -15.7278
  18   2.0000      -0.556426       -15.1411
  19   2.0000      -0.496027       -13.4976
  20   2.0000      -0.483183       -13.1481
  21   2.0000      -0.445110       -12.1121
  22   2.0000      -0.433047       -11.7838
  23   2.0000      -0.413079       -11.2405
  24   2.0000      -0.392591       -10.6829
  25   2.0000      -0.386837       -10.5264
  26   2.0000      -0.339693        -9.2435
  27   2.0000      -0.324463        -8.8291
  28   2.0000      -0.307486        -8.3671
  29   0.0000      -0.011413        -0.3106
  30   0.0000       0.006406         0.1743
  31   0.0000       0.022820         0.6210
  32   0.0000       0.025293         0.6883
  33   0.0000       0.044678         1.2158

MULLIKEN ATOMIC CHARGES
-----------------------
   0 C :   -1.163774
   1 C :   -0.291045
   2 H :    0.307009
   3 H :    0.303089
   4 S :    1.199946
   5 O :   -0.608645
   6 F :   -0.146625
   7 O :   -0.563983
   8 H :    0.329302
   9 H :    0.303802
  10 H :    0.330925
Sum of atomic charges:    0.0000000

LOEWDIN ATOMIC CHARGES
----------------------
   0 C :   -0.096655
   1 C :   -0.285911
   2 H :    0.098176
   3 H :    0.102591
   4 S :    0.609229
   5 O :   -0.309004
   6 F :   -0.071407
   7 O :   -0.267837
   8 H :    0.073153
   9 H :    0.073385
  10 H :    0.074279

  Mayer bond orders larger than 0.100000
B(  0-C ,  1-C ) :   0.7454 B(  0-C ,  8-H ) :   0.9433 B(  0-C ,  9-H ) :   0.9435
B(  0-C , 10-H ) :   0.9456 B(  1-C ,  2-H ) :   0.9005 B(  1-C ,  3-H ) :   0.8974
B(  1-C ,  4-S ) :   0.8477 B(  4-S ,  5-O ) :   1.6228 B(  4-S ,  6-F ) :   0.9855
B(  4-S ,  7-O ) :   1.6913 B(  5-O ,  7-O ) :   0.1002

Dispersion correction           -0.015854765
FINAL SINGLE POINT ENERGY      -727.647567203626

DIPOLE MOMENT
-------------
                                X             Y             Z
Electronic contribution:     -2.57419       1.69536      -9.66088
Nuclear contribution   :      1.40145      -1.67996      10.91024
                        -----------------------------------------
Total Dipole Moment    :     -1.17275       0.01539       1.24936
                        -----------------------------------------
Magnitude (a.u.)       :      1.71361
Magnitude (Debye)      :      4.35565

Rotational constants in cm-1:     0.155875     0.079864     0.077188
Rotational constants in MHz :  4673.017506  2394.277415  2314.027118

                             ****ORCA TERMINATED NORMALLY****
TOTAL RUN TIME: 0 days 0 hours 0 minutes 41 seconds 864 msec
