                         Program Version 5.0.0 -  RELEASE  -
|  1> !B3LYP D3BJ RIJCOSX def2-TZVPD def2/J TightSCF
|  2> *xyz 0 1
|  3> C          5.55821       -1.99291       -6.21505
|  4> C          4.18188       -2.58967       -6.29891
|  5> N          3.14587       -1.76843       -6.48675
|  6> C          4.01910       -3.86431       -6.22743
|  7> H          4.76849       -4.59115       -5.99077
|  8> H          3.12241       -4.33339       -6.31462
|  9> H          3.28164       -0.77779       -6.56655
| 10> H          2.21255       -2.13419       -6.56225
| 11> C          6.41926       -2.54294       -5.07763
| 12> H          6.03683       -2.19819       -7.17685
| 13> H          5.46761       -0.90737       -6.12797
| 14> H          6.50056       -3.60553       -5.17358
| 15> H          5.96544       -2.30329       -4.13874
| 16> H          7.39438       -2.10494       -5.12457
| 17> *
| 18>
| 19> %MaxCore 64000
| 20>
| 21> %pal nprocs 4
| 22> end
| 23>
| 24> %scf
| 25>   MaxIter 150
| 26> end
| 27>
| 28>
| 29>                          ****END OF INPUT****

CARTESIAN COORDINATES (ANGSTROEM)
---------------------------------
  C      5.558210   -1.992910   -6.215050
  C      4.181880   -2.589670   -6.298910
  N      3.145870   -1.768430   -6.486750
  C      4.019100   -3.864310   -6.227430
  H      4.768490   -4.591150   -5.990770
  H      3.122410   -4.333390   -6.314620
  H      3.281640   -0.777790   -6.566550
  H      2.212550   -2.134190   -6.562250
  C      6.419260   -2.542940   -5.077630
  H      6.036830   -2.198190   -7.176850
  H      5.467610   -0.907370   -6.127970
  H      6.500560   -3.605530   -5.173580
  H      5.965440   -2.303290   -4.138740
  H      7.394380   -2.104940   -5.124570

 Total Charge           Charge          ....    0
 Multiplicity           Mult            ....    1
 Number of Electrons    NEL             ....   40
 Basis Dimension        Dim             ....  266

ORBITAL ENERGIES
----------------

  NO   OCC          E(Eh)            E(eV)
   0   2.0000     -14.313495      -389.4900
   1   2.0000     -10.187554      -277.2174
   2   2.0000     -10.168106      -276.6882
   3   2.0000     -10.149685      -276.1870
   4   2.0000     -10.103055      -274.9181
   5   2.0000      -0.924105       -25.1462
   6   2.0000      -0.780574       -21.2405
   7   2.0000      -0.713682       -19.4203
   8   2.0000      -0.640526       -17.4296
   9   2.0000      -0.558313       -15.1925
  10   2.0000      -0.522995       -14.2314
  11   2.0000      -0.486069       -13.2266
  12   2.0000      -0.446956       -12.1623
  13   2.0000      -0.419562       -11.4169
  14   2.0000      -0.383903       -10.4465
  15   2.0000      -0.372958       -10.1487
  16   2.0000      -0.351608        -9.5677
  17   2.0000      -0.337251        -9.1771
  18   2.0000      -0.325851        -8.8668
  19   2.0000      -0.193074        -5.2538
  20   0.0000       0.003890         0.1059
  21   0.0000       0.024001         0.6531
  22   0.0000       0.034038         0.9262
  23   0.0000       0.039700         1.0803
  24   0.0000       0.057102         1.5538

MULLIKEN ATOMIC CHARGES
-----------------------
   0 C :   -0.145146
   1 C :    0.786036
   2 N :   -0.334282
   3 C :   -1.226622
   4 H :    0.184121
   5 H :    0.270159
   6 H :    0.155411
   7 H :    0.133274
   8 C :   -1.058595
   9 H :    0.206010
  10 H :    0.192065
  11 H :    0.262550
  12 H :    0.292249
  13 H :    0.282769
Sum of atomic charges:   -0.0000000

LOEWDIN ATOMIC CHARGES
----------------------
   0 C :   -0.194884
   1 C :   -0.488159
   2 N :    0.103747
   3 C :    0.003996
   4 H :    0.050357
   5 H :    0.019897
   6 H :    0.090495
   7 H :    0.102606
   8 C :   -0.092131
   9 H :    0.115671
  10 H :    0.100754
  11 H :    0.054390
  12 H :    0.071543
  13 H :    0.061719

  Mayer bond orders larger than 0.100000
B(  0-C ,  1-C ) :   0.6421 B(  0-C ,  8-C ) :   0.6110 B(  0-C ,  9-H ) :   0.9282
B(  0-C , 10-H ) :   1.0556 B(  1-C ,  2-N ) :   1.0016 B(  1-C ,  3-C ) :   1.1663
B(  1-C ,  5-H ) :  -0.1282 B(  1-C , 10-H ) :  -0.1336 B(  2-N ,  3-C ) :   0.1039
B(  2-N ,  6-H ) :   1.0338 B(  2-N ,  7-H ) :   1.0451 B(  3-C ,  4-H ) :   1.0108
B(  3-C ,  5-H ) :   1.0819 B(  8-C , 11-H ) :   0.9962 B(  8-C , 12-H ) :   0.9744
B(  8-C , 13-H ) :   0.9807

Dispersion correction           -0.017353458
FINAL SINGLE POINT ENERGY      -212.524731192240

DIPOLE MOMENT
-------------
                                X             Y             Z
Electronic contribution:     -2.79624       0.79843      -1.28258
Nuclear contribution   :      2.61570      -0.17401       1.22349
                        -----------------------------------------
Total Dipole Moment    :     -0.18054       0.62442      -0.05909
                        -----------------------------------------
Magnitude (a.u.)       :      0.65268
Magnitude (Debye)      :      1.65897

Rotational constants in cm-1:     0.298189     0.125314     0.096441
Rotational constants in MHz :  8939.495008  3756.825352  2891.223400

                             ****ORCA TERMINATED NORMALLY****
TOTAL RUN TIME: 0 days 0 hours 0 minutes 40 seconds 225 msec
