                         Program Version 5.0.0 -  RELEASE  -
|  1> !B3LYP D3BJ RIJCOSX def2-TZVPD def2/J TightSCF
|  2> *xyz 0 1
|  3> C          4.93020       -7.37532       -2.64962
|  4> C          3.84189       -6.95161       -3.63283
|  5> H          3.45814       -5.95442       -3.40712
|  6> H          2.98848       -7.64361       -3.56708
|  7> S          4.31812       -6.91593       -5.36869
|  8> O          5.40615       -5.89948       -5.51297
|  9> O          3.11191       -6.44508       -6.04379
| 10> F          4.76340       -8.23942       -5.69863
| 11> H          5.27901       -8.35440       -2.90385
| 12> H          4.53000       -7.38577       -1.65734
| 13> H          5.74437       -6.68276       -2.69856
| 14> *
| 15>
| 16> %MaxCore 64000
| 17>
| 18> %pal nprocs 4
| 19> end
| 20>
| 21> %scf
| 22>   MaxIter 150
| 23> end
| 24>
| 25>
| 26>                          ****END OF INPUT****

CARTESIAN COORDINATES (ANGSTROEM)
---------------------------------
  C      4.930200   -7.375320   -2.649620
  C      3.841890   -6.951610   -3.632830
  H      3.458140   -5.954420   -3.407120
  H      2.988480   -7.643610   -3.567080
  S      4.318120   -6.915930   -5.368690
  O      5.406150   -5.899480   -5.512970
  O      3.111910   -6.445080   -6.043790
  F      4.763400   -8.239420   -5.698630
  H      5.279010   -8.354400   -2.903850
  H      4.530000   -7.385770   -1.657340
  H      5.744370   -6.682760   -2.698560

 Total Charge           Charge          ....    0
 Multiplicity           Mult            ....    1
 Number of Electrons    NEL             ....   58
 Basis Dimension        Dim             ....  285

ORBITAL ENERGIES
----------------

  NO   OCC          E(Eh)            E(eV)
   0   2.0000     -89.101528     -2424.5758
   1   2.0000     -24.808388      -675.0706
   2   2.0000     -19.134459      -520.6751
   3   2.0000     -19.127560      -520.4874
   4   2.0000     -10.235077      -278.5106
   5   2.0000     -10.191357      -277.3209
   6   2.0000      -8.145204      -221.6423
   7   2.0000      -6.112134      -166.3196
   8   2.0000      -6.105429      -166.1372
   9   2.0000      -6.105382      -166.1359
  10   2.0000      -1.392865       -37.9018
  11   2.0000      -1.096021       -29.8242
  12   2.0000      -0.996608       -27.1191
  13   2.0000      -0.826454       -22.4890
  14   2.0000      -0.739529       -20.1236
  15   2.0000      -0.682431       -18.5699
  16   2.0000      -0.601908       -16.3788
  17   2.0000      -0.592756       -16.1297
  18   2.0000      -0.551131       -14.9970
  19   2.0000      -0.495262       -13.4768
  20   2.0000      -0.479276       -13.0418
  21   2.0000      -0.451907       -12.2970
  22   2.0000      -0.433245       -11.7892
  23   2.0000      -0.411147       -11.1879
  24   2.0000      -0.400262       -10.8917
  25   2.0000      -0.375985       -10.2311
  26   2.0000      -0.330826        -9.0022
  27   2.0000      -0.323753        -8.8098
  28   2.0000      -0.301886        -8.2147
  29   0.0000      -0.017580        -0.4784
  30   0.0000       0.013360         0.3635
  31   0.0000       0.019679         0.5355
  32   0.0000       0.022927         0.6239
  33   0.0000       0.041679         1.1342

MULLIKEN ATOMIC CHARGES
-----------------------
   0 C :   -1.153464
   1 C :   -0.268799
   2 H :    0.287417
   3 H :    0.302519
   4 S :    1.178382
   5 O :   -0.603811
   6 O :   -0.569162
   7 F :   -0.139906
   8 H :    0.334106
   9 H :    0.304228
  10 H :    0.328491
Sum of atomic charges:    0.0000000

LOEWDIN ATOMIC CHARGES
----------------------
   0 C :   -0.108354
   1 C :   -0.278557
   2 H :    0.109491
   3 H :    0.103613
   4 S :    0.607050
   5 O :   -0.306485
   6 O :   -0.291072
   7 F :   -0.046631
   8 H :    0.067336
   9 H :    0.071679
  10 H :    0.071931

  Mayer bond orders larger than 0.100000
B(  0-C ,  1-C ) :   0.6748 B(  0-C ,  8-H ) :   0.9207 B(  0-C ,  9-H ) :   0.9568
B(  0-C , 10-H ) :   0.9774 B(  1-C ,  2-H ) :   0.9308 B(  1-C ,  3-H ) :   0.9192
B(  1-C ,  4-S ) :   0.8552 B(  1-C ,  6-O ) :   0.1097 B(  4-S ,  5-O ) :   1.6365
B(  4-S ,  6-O ) :   1.6658 B(  4-S ,  7-F ) :   1.0174

Dispersion correction           -0.015779339
FINAL SINGLE POINT ENERGY      -727.636117305282

DIPOLE MOMENT
-------------
                                X             Y             Z
Electronic contribution:      0.20604      -1.31024      -9.07075
Nuclear contribution   :     -0.31946       0.18980      10.55057
                        -----------------------------------------
Total Dipole Moment    :     -0.11341      -1.12044       1.47982
                        -----------------------------------------
Magnitude (a.u.)       :      1.85960
Magnitude (Debye)      :      4.72674

Rotational constants in cm-1:     0.151421     0.081183     0.078684
Rotational constants in MHz :  4539.489207  2433.790160  2358.892966

                             ****ORCA TERMINATED NORMALLY****
TOTAL RUN TIME: 0 days 0 hours 0 minutes 42 seconds 116 msec
